
Running Job 1 of 1 Q_in.in
qchem Q_in.in_256276.0 /scratch/ari.fischer/qChem1854153.hpc-mn1/qchem256276/ 0
/usr/local/qchem-5.4.1/exe/qcprog.exe_s Q_in.in_256276.0 /scratch/ari.fischer/qChem1854153.hpc-mn1/qchem256276/
                  Welcome to Q-Chem
     A Quantum Leap Into The Future Of Chemistry


 Q-Chem 5.4, Q-Chem, Inc., Pleasanton, CA (2021)

 License issued to: Nanyang Technological University (site)

 E. Epifanovsky,  A. T. B. Gilbert,  Xintian Feng,  Joonho Lee,  Yuezhi Mao,  
 N. Mardirossian,  P. Pokhilko,  A. White,  M. Wormit,  M. P. Coons,  
 A. L. Dempwolff,  Zhengting Gan,  D. Hait,  P. R. Horn,  L. D. Jacobson,  
 I. Kaliman,  J. Kussmann,  A. W. Lange,  Ka Un Lao,  D. S. Levine,  Jie Liu,  
 S. C. McKenzie,  A. F. Morrison,  K. Nanda,  F. Plasser,  D. R. Rehn,  
 M. L. Vidal,  Zhi-Qiang You,  Ying Zhu,  B. Alam,  B. Albrecht,  
 A. Aldossary,  E. Alguire,  J. H. Andersen,  D. Barton,  K. Begam,  A. Behn,  
 Y. A. Bernard,  E. J. Berquist,  H. Burton,  A. Carreras,  K. Carter-Fenk,  
 R. Chakraborty,  A. D. Chien,  K. D. Closser,  V. Cofer-Shabica,  
 S. Dasgupta,  Jia Deng,  M. de Wergifosse,  M. Diedenhofen,  Hainam Do,  
 S. Ehlert,  Po-Tung Fang,  S. Fatehi,  Qingguo Feng,  T. Friedhoff,  
 J. Gayvert,  Qinghui Ge,  G. Gidofalvi,  M. Goldey,  J. Gomes,  
 C. Gonzalez-Espinoza,  S. Gulania,  A. Gunina,  M. W. D. Hanson-Heine,  
 P. H. P. Harbach,  A. W. Hauser,  M. F. Herbst,  M. Hernandez Vera,  
 M. Hodecker,  Z. C. Holden,  S. Houck,  Xunkun Huang,  Kerwin Hui,  
 B. C. Huynh,  M. Ivanov,  Hyunjun Ji,  Hanjie Jiang,  B. Kaduk,  S. Kaehler,  
 K. Khistyaev,  Jaehoon Kim,  P. Klunzinger,  Z. Koczor-Benda,  
 Joong Hoon Koh,  D. Kosenkov,  L. Koulias,  T. Kowalczyk,  C. M. Krauter,  
 K. Kue,  A. Kunitsa,  T. Kus,  A. Landau,  K. V. Lawler,  D. Lefrancois,  
 S. Lehtola,  Rain Li,  Yi-Pei Li,  Jiashu Liang,  M. Liebenthal,  
 Hung-Hsuan Lin,  You-Sheng Lin,  Fenglai Liu,  Kuan-Yu Liu,  
 M. Loipersberger,  A. Luenser,  A. Manjanath,  P. Manohar,  E. Mansoor,  
 S. F. Manzer,  Shan-Ping Mao,  A. V. Marenich,  T. Markovich,  S. Mason,  
 S. A. Maurer,  P. F. McLaughlin,  M. F. S. J. Menger,  J.-M. Mewes,  
 S. A. Mewes,  P. Morgante,  J. W. Mullinax,  K. J. Oosterbaan,  G. Paran,  
 Alexander C. Paul,  Suranjan K. Paul,  F. Pavosevic,  Zheng Pei,  S. Prager,  
 E. I. Proynov,  E. Ramos,  B. Rana,  A. E. Rask,  A. Rettig,  R. M. Richard,  
 F. Rob,  E. Rossomme,  T. Scheele,  M. Scheurer,  M. Schneider,  
 N. Sergueev,  S. M. Sharada,  W. Skomorowski,  D. W. Small,  C. J. Stein,  
 Yu-Chuan Su,  E. J. Sundstrom,  Zhen Tao,  J. Thirman,  T. Tsuchimochi,  
 N. M. Tubman,  S. P. Veccham,  O. Vydrov,  J. Wenzel,  J. Witte,  A. Yamada,  
 Kun Yao,  S. Yeganeh,  S. R. Yost,  A. Zech,  Igor Ying Zhang,  Xing Zhang,  
 Yu Zhang,  D. Zuev,  A. Aspuru-Guzik,  A. T. Bell,  N. A. Besley,  
 K. B. Bravaya,  B. R. Brooks,  D. Casanova,  Jeng-Da Chai,  S. Coriani,  
 C. J. Cramer,  A. E. DePrince, III,  R. A. DiStasio Jr.,  A. Dreuw,  
 B. D. Dunietz,  T. R. Furlani,  W. A. Goddard III,  S. Grimme,  
 S. Hammes-Schiffer,  T. Head-Gordon,  W. J. Hehre,  Chao-Ping Hsu,  
 T.-C. Jagau,  Yousung Jung,  A. Klamt,  Jing Kong,  D. S. Lambrecht,  
 WanZhen Liang,  N. J. Mayhall,  C. W. McCurdy,  J. B. Neaton,  
 C. Ochsenfeld,  J. A. Parkhill,  R. Peverati,  V. A. Rassolov,  Yihan Shao,  
 L. V. Slipchenko,  T. Stauch,  R. P. Steele,  J. E. Subotnik,  
 A. J. W. Thom,  A. Tkatchenko,  D. G. Truhlar,  T. Van Voorhis,  
 T. A. Wesolowski,  K. B. Whaley,  H. L. Woodcock III,  P. M. Zimmerman,  
 S. Faraji,  P. M. W. Gill,  M. Head-Gordon,  J. M. Herbert,  A. I. Krylov

 Additional authors for Version 5.4.1: 
 S. Kotaru,  Shaozhi Li,  Xiangyuan Li,  F. Matz,  A. Molle,  Haisheng Ren,  
 Yingli Su,  Hung-Yi Tsai,  C. Utku,  Fang Wang

 Contributors to earlier versions of Q-Chem not listed above: 
 R. D. Adamson,  B. Austin,  R. Baer,  J. Baker,  G. J. O. Beran,  
 K. Brandhorst,  S. T. Brown,  E. F. C. Byrd,  A. K. Chakraborty,  
 G. K. L. Chan,  Chun-Min Chang,  Yunqing Chen,  C.-L. Cheng,  
 Siu Hung Chien,  D. M. Chipman,  D. L. Crittenden,  H. Dachsel,  
 R. J. Doerksen,  A. D. Dutoi,  R. G. Edgar,  J. Fosso-Tande,  
 L. Fusti-Molnar,  D. Ghosh,  A. Ghysels,  A. Golubeva-Zadorozhnaya,  
 J. Gonthier,  M. S. Gordon,  S. R. Gwaltney,  G. Hawkins,  J. E. Herr,  
 A. Heyden,  S. Hirata,  E. G. Hohenstein,  G. Kedziora,  F. J. Keil,  
 C. Kelley,  Jihan Kim,  R. A. King,  R. Z. Khaliullin,  P. P. Korambath,  
 W. Kurlancheek,  A. Laurent,  A. M. Lee,  M. S. Lee,  S. V. Levchenko,  
 Ching Yeh Lin,  D. Liotard,  E. Livshits,  R. C. Lochan,  I. Lotan,  
 L. A. Martinez-Martinez,  P. E. Maslen,  N. Nair,  D. P. O'Neill,  
 D. Neuhauser,  E. Neuscamman,  C. M. Oana,  R. Olivares-Amaya,  R. Olson,  
 T. M. Perrine,  B. Peters,  P. A. Pieniazek,  A. Prociuk,  Y. M. Rhee,  
 J. Ritchie,  M. A. Rohrdanz,  E. Rosta,  N. J. Russ,  H. F. Schaefer III,  
 M. W. Schmidt,  N. E. Schultz,  S. Sharma,  N. Shenvi,  C. D. Sherrill,  
 A. C. Simmonett,  A. Sodt,  T. Stein,  D. Stuck,  K. S. Thanthiriwatte,  
 V. Vanovschi,  L. Vogt,  Tao Wang,  A. Warshel,  M. A. Watson,  
 C. F. Williams,  Q. Wu,  X. Xu,  Jun Yang,  W. Zhang,  Yan Zhao

 Please cite Q-Chem as follows:
 Y. Shao et al., Mol. Phys. 113, 184-215 (2015)
 DOI: 10.1080/00268976.2014.952696

 Q-Chem 5.4.1 for Intel X86 EM64T Linux

 Parts of Q-Chem use Armadillo 9.800.1 (Horizon Scraper).
 http://arma.sourceforge.net/

 Q-Chem begins on Thu Dec  7 15:46:10 2023  

 Host: 
0

     Scratch files written to /scratch/ari.fischer/qChem1854153.hpc-mn1/qchem256276//
 Aug1521 |scratch|qcdevops|jenkins|workspace|build_RNUM 8249   
 Processing $rem in /usr/local/qchem-5.4.1/config/preferences:
 Processing $rem in /home/ari.fischer/.qchemrc:
 Symmetry turned off for PCM/SM12/SMD calculation

 Checking the input file for inconsistencies... 	...done.

--------------------------------------------------------------
User input:
--------------------------------------------------------------
$molecule
-1 2
C         0.0335825890    0.2156391192    0.2364698461
O         1.2001413651    0.0826017418    0.8943481755
H        -1.1277621868    1.3766541534   -0.6298194523
C        -0.8393693190   -0.8929137460   -0.0274891381
O        -0.5062190370   -2.0526716429    0.3744233366
O        -1.9104150558   -0.6008046154   -0.6669935653
O        -0.2722929998    1.4647120681   -0.1745756269
H         1.6345905442    0.9437645218    0.9577898244
$end

$rem
BASIS = def2-TZVP
JOB_TYPE = SP
METHOD = wB97M-V
SCF_ALGORITHM = DIIS_GDM
MAX_SCF_CYCLES = 400
SCF_CONVERGENCE = 7
THRESH = 12
Solvent_method = SMD
$end
--------------------------------------------------------------
 ----------------------------------------------------------------
             Standard Nuclear Orientation (Angstroms)
    I     Atom           X                Y                Z
 ----------------------------------------------------------------
    1      C       0.0335825890     0.2156391192     0.2364698461
    2      O       1.2001413651     0.0826017418     0.8943481755
    3      H      -1.1277621868     1.3766541534    -0.6298194523
    4      C      -0.8393693190    -0.8929137460    -0.0274891381
    5      O      -0.5062190370    -2.0526716429     0.3744233366
    6      O      -1.9104150558    -0.6008046154    -0.6669935653
    7      O      -0.2722929998     1.4647120681    -0.1745756269
    8      H       1.6345905442     0.9437645218     0.9577898244
 ----------------------------------------------------------------
 Nuclear Repulsion Energy =         230.26877983 hartrees
 There are       24 alpha and       23 beta electrons
 Requested basis set is def2-TZVP
 There are 74 shells and 198 basis functions

 Total QAlloc Memory Limit 288000 MB
 Mega-Array Size       188 MB
 MEM_STATIC part       192 MB
 
 Citation of the SMD model:
 Marenich, A.V.; Cramer, C.J.; Truhlar, D.G.
 J. Phys. Chem. B 2009, 113, 6378-6396.
 iSolventCode=           1
 Solvent: water                                                           
 
 vradii
            1           2           3           4           5           6
    1   1.8500000   1.5200000   1.2000000   1.8500000   1.5200000   1.5200000
            7           8
    1   1.5200000   1.2000000
 Changing PCM_VDW_RADII to SMD_RADIUS
 Discretize the solute cavity surface with Lebedev spheres
	Using 110 Lebedev grid points for each H atom
	Using 194 Lebedev grid points for other atoms
	Atomic van der Waals radii will be scaled by 1.20
 Remove points where switching function is < 1.0e-08
 Keep 774 surface tesserae and discard 610 interior tesserae
 Molecular Surface Area = 94.678 Angst**2

                       Distance Matrix (Angstroms)
             C (  1)   O (  2)   H (  3)   C (  4)   O (  5)   O (  6)
   O (  2)  1.345869
   H (  3)  1.856646  3.068679
   C (  4)  1.435482  2.441520  2.365779
   O (  5)  2.335733  2.782334  3.626995  1.271834
   O (  6)  2.293895  3.546885  2.127033  1.281184  2.272495
   O (  7)  1.350075  2.284927  0.973051  2.429323  3.567648  2.681842
   H (  8)  1.900972  0.966629  3.215352  3.234909  3.728540  4.194363
             O (  7)
   H (  8)  2.278123
 
 A cutoff of  1.0D-12 yielded   2602 shell pairs
 There are     19024 function pairs (     25244 Cartesian)
 Smallest overlap matrix eigenvalue = 2.49E-04

 Scale SEOQF with 1.000000e-01/1.000000e-01/1.000000e+00

 Standard Electronic Orientation quadrupole field applied
 Nucleus-field energy     =    -0.0000000077 hartrees
 Guess from superposition of atomic densities
 Warning:  Energy on first SCF cycle will be non-variational
 SAD guess density has 46.000000 electrons

 -----------------------------------------------------------------------
  General SCF calculation program by
  Eric Jon Sundstrom, Paul Horn, Yuezhi Mao, Dmitri Zuev, Alec White,
  David Stuck, Shaama M.S., Shane Yost, Joonho Lee, David Small,
  Daniel Levine, Susi Lehtola, Hugh Burton, Evgeny Epifanovsky,
  Bang C. Huynh
 -----------------------------------------------------------------------
 Exchange:     0.1500 Hartree-Fock + 1.0000 wB97M-V + LR-HF
 Correlation:  1.0000 wB97M-V
 Using SG-2 standard quadrature grid
 Nonlocal Correlation:  VV10 with C = 0.0100 and b = 6.00 and scale = 1.00000
 Grid used for NLC:  SG-1 standard quadrature
 
 Citation of the SMD model:
 Marenich, A.V.; Cramer, C.J.; Truhlar, D.G.
 J. Phys. Chem. B 2009, 113, 6378-6396.
 iSolventCode=           1
 Solvent: water                                                           
 
 vradii
            1           2           3           4           5           6
    1   1.8500000   1.5200000   1.2000000   1.8500000   1.5200000   1.5200000
            7           8
    1   1.5200000   1.2000000
 using 4 threads for integral computing
 -------------------------------------------------------
 OpenMP Integral computing Module                
 Release: version 1.0, May 2013, Q-Chem Inc. Pittsburgh 
 -------------------------------------------------------
 -------------------------------------------------------
 OpenMP BLAS3 based DFT computing Module                
 Release: version 1.0, May 2013, Q-Chem Inc. Pittsburgh 
 -------------------------------------------------------
 A unrestricted SCF calculation will be
 performed using DIIS, GDM
 SCF converges when RMS gradient is below 1.0e-07
 ---------------------------------------
  Cycle       Energy         DIIS error
 ---------------------------------------
    1    -379.3688421261      1.96e-02  
    2    -378.2790215772      3.85e-03  Done DIIS. Switching to GDM
 ---------------------------------------
  Cycle       Energy        RMS Gradient
 ---------------------------------------
    1    -378.2790215772      2.19e-01   Descent step
    2    -378.4776253841      6.52e-02   Normal BFGS step
    3    -378.5033655924      1.48e-02   Normal BFGS step
    4    -378.5046249026      7.57e-03   Normal BFGS step
    5    -378.5049381444      5.86e-03   Normal BFGS step
    6    -378.5050028380      2.02e-03   Normal BFGS step
    7    -378.5050207532      4.54e-04   Normal BFGS step
    8    -378.5050218610      1.37e-04   Normal BFGS step
    9    -378.5050220047      7.08e-05   Normal BFGS step
   10    -378.5050220494      3.61e-05   Normal BFGS step
   11    -378.5050220545      1.38e-05   Normal BFGS step
   12    -378.5050220565      7.43e-06   Normal BFGS step
   13    -378.5050220567      3.45e-06   Normal BFGS step
   14    -378.5050220568      8.79e-07   Normal BFGS step
   15    -378.5050220568      3.58e-07   Normal BFGS step
   16    -378.5050220567      9.10e-08  Convergence criterion met
 ---------------------------------------
 SCF time:   CPU 301.49s  wall 76.00s 
<S^2> =          0.753039212
(3)  G-ENP(liq) elect-nuc-pol free energy of system     -378.505022057 a.u.
(4)  G-CDS(liq) cavity-dispersion-solvent structure 
     free energy                                                4.9896 kcal/mol
(6)  G-S(liq) free energy of system                     -378.497070674 a.u.
 SCF   energy in the final basis set =     -378.4970706737
 Total energy in the final basis set =     -378.4970706737
 
 --------------------------------------------------------------
 
                    Orbital Energies (a.u.)
 --------------------------------------------------------------
 
 Alpha MOs
 -- Occupied --
-19.3692 -19.3657 -19.2705 -19.2687 -10.4404 -10.4288  -1.2351  -1.1666
 -1.1459  -1.0598  -0.8158  -0.7008  -0.6632  -0.5794  -0.5770  -0.5245
 -0.5146  -0.5056  -0.4947  -0.4617  -0.3714  -0.3711  -0.3499  -0.2378
 -- Virtual --
  0.1178   0.1476   0.1921   0.1939   0.2405   0.2694   0.2842   0.3064
  0.3398   0.3465   0.3842   0.3943   0.4379   0.4435   0.4537   0.4720
  0.5148   0.5290   0.5594   0.5710   0.5824   0.5884   0.6038   0.6152
  0.6303   0.6653   0.7219   0.7420   0.7906   0.7968   0.7980   0.8063
  0.8215   0.8772   0.9289   1.0106   1.0188   1.0660   1.0778   1.1304
  1.2021   1.2618   1.3840   1.3858   1.4109   1.4386   1.4649   1.5492
  1.5856   1.6091   1.6426   1.6494   1.7191   1.8130   1.8491   1.8599
  1.8852   1.8995   1.9169   1.9535   1.9603   2.0012   2.0502   2.0931
  2.1108   2.1548   2.1801   2.2213   2.2560   2.2968   2.3179   2.3413
  2.3487   2.3724   2.4496   2.4935   2.5327   2.6264   2.6627   2.6981
  2.7302   2.7537   2.8681   2.8815   2.9228   2.9562   2.9977   3.0239
  3.0586   3.0852   3.1256   3.1264   3.1303   3.2222   3.2707   3.3047
  3.3229   3.3327   3.3586   3.3739   3.3941   3.4333   3.4771   3.5025
  3.5447   3.6056   3.7072   3.7845   3.8396   3.9465   4.0716   4.0936
  4.1437   4.2330   4.4199   4.4729   4.5170   4.7204   4.7581   4.9159
  5.2268   5.2920   5.3105   5.3244   5.3495   5.3726   5.4156   5.4354
  5.4720   5.4819   5.5785   5.6379   5.6701   5.6937   5.7769   5.7932
  5.8860   5.9368   5.9378   6.0343   6.1485   6.1761   6.2482   6.3449
  6.3800   6.4408   6.4698   6.4812   6.5053   6.5417   6.5727   6.5962
  6.6553   6.7980   6.8134   6.8181   6.9077   6.9133   6.9746   6.9913
  7.0229   7.0713   7.1114   7.2279   7.2345   7.3044   7.3687   7.6225
 23.1711  23.7410  44.1094  44.2339  44.3590  44.4984
 
 Beta MOs
 -- Occupied --
-19.3659 -19.3623 -19.2679 -19.2660 -10.4307 -10.4283  -1.2262  -1.1594
 -1.1411  -1.0544  -0.7965  -0.6943  -0.6562  -0.5746  -0.5473  -0.5202
 -0.5101  -0.5014  -0.4769  -0.4348  -0.3652  -0.3500  -0.3466
 -- Virtual --
  0.0441   0.1195   0.1491   0.1946   0.2330   0.2435   0.2723   0.2860
  0.3095   0.3454   0.3527   0.3910   0.4039   0.4427   0.4464   0.4593
  0.4771   0.5209   0.5323   0.5627   0.5746   0.5873   0.5925   0.6060
  0.6185   0.6312   0.6683   0.7269   0.7446   0.8036   0.8093   0.8104
  0.8116   0.8219   0.8789   0.9295   1.0156   1.0267   1.0710   1.0841
  1.1408   1.2112   1.2674   1.3896   1.3995   1.4232   1.4430   1.5029
  1.5520   1.5876   1.6260   1.6470   1.6536   1.7219   1.8189   1.8576
  1.8707   1.8896   1.9097   1.9275   1.9585   1.9737   2.0061   2.0557
  2.1063   2.1170   2.1653   2.1854   2.2266   2.2625   2.3048   2.3239
  2.3447   2.3534   2.3806   2.4554   2.4999   2.5359   2.6467   2.7000
  2.7074   2.7414   2.7757   2.8776   2.8946   2.9462   2.9678   3.0115
  3.0453   3.0651   3.0938   3.1373   3.1525   3.1536   3.2404   3.2828
  3.3153   3.3486   3.3512   3.3656   3.4022   3.4044   3.4482   3.4871
  3.5139   3.5581   3.6131   3.7229   3.8028   3.8496   3.9569   4.0804
  4.1355   4.1618   4.2402   4.4299   4.4816   4.5268   4.7509   4.7722
  4.9314   5.2330   5.2999   5.3178   5.3326   5.3571   5.3818   5.4224
  5.4424   5.4793   5.4902   5.5877   5.6452   5.6758   5.7016   5.7842
  5.8063   5.8970   5.9429   5.9496   6.0423   6.1570   6.1872   6.2574
  6.3556   6.3884   6.4532   6.4736   6.4944   6.5185   6.5526   6.5783
  6.6088   6.6662   6.8113   6.8259   6.8279   6.9193   6.9246   6.9789
  7.0013   7.0283   7.0771   7.1153   7.2310   7.2404   7.3092   7.3729
  7.6288  23.1789  23.7439  44.1122  44.2367  44.3617  44.5011
 --------------------------------------------------------------
 
          Ground-State Mulliken Net Atomic Charges

     Atom                 Charge (a.u.)    Spin (a.u.)
  --------------------------------------------------------
      1 C                     0.216383       0.589165
      2 O                    -0.468127       0.085224
      3 H                     0.376718      -0.003048
      4 C                     0.324633       0.054673
      5 O                    -0.687702       0.096642
      6 O                    -0.701756       0.092435
      7 O                    -0.453026       0.087587
      8 H                     0.392876      -0.002678
  --------------------------------------------------------
  Sum of atomic charges =    -1.000000
  Sum of spin   charges =     1.000000

 -----------------------------------------------------------------
                    Cartesian Multipole Moments
 -----------------------------------------------------------------
    Charge (ESU x 10^10)
                -4.8032
    Dipole Moment (Debye)
         X       6.2922      Y       9.5283      Z       0.3340
       Tot      11.4232
    Quadrupole Moments (Debye-Ang)
        XX     -44.9695     XY      -5.4565     YY     -51.7117
        XZ      -2.2691     YZ       2.4654     ZZ     -37.5386
    Octopole Moments (Debye-Ang^2)
       XXX      73.1248    XXY      30.7248    XYY      25.0160
       YYY      66.1606    XXZ       6.7441    XYZ       7.4414
       YYZ      -8.2833    XZZ      17.7868    YZZ      16.2920
       ZZZ     -10.1658
    Hexadecapole Moments (Debye-Ang^3)
      XXXX    -312.1620   XXXY     -62.2263   XXYY     -98.8936
      XYYY     -71.0928   YYYY    -400.8261   XXXZ     -55.2363
      XXYZ       0.7300   XYYZ      -7.2578   YYYZ      20.5873
      XXZZ     -63.4526   XYZZ     -17.2934   YYZZ     -68.8417
      XZZZ     -45.5298   YZZZ      10.6044   ZZZZ     -92.2484
 -----------------------------------------------------------------
 Total job time:  77.05s(wall), 303.55s(cpu) 
 Thu Dec  7 15:47:27 2023

        *************************************************************
        *                                                           *
        *  Thank you very much for using Q-Chem.  Have a nice day.  *
        *                                                           *
        *************************************************************


