
Running Job 1 of 1 Q_in.in
qchem Q_in.in_359164.0 /scratch/ari.fischer/qChem1912878.hpc-mn1/qchem359164/ 0
/usr/local/qchem-5.4.1/exe/qcprog.exe_s Q_in.in_359164.0 /scratch/ari.fischer/qChem1912878.hpc-mn1/qchem359164/
                  Welcome to Q-Chem
     A Quantum Leap Into The Future Of Chemistry


 Q-Chem 5.4, Q-Chem, Inc., Pleasanton, CA (2021)

 License issued to: Nanyang Technological University (site)

 E. Epifanovsky,  A. T. B. Gilbert,  Xintian Feng,  Joonho Lee,  Yuezhi Mao,  
 N. Mardirossian,  P. Pokhilko,  A. White,  M. Wormit,  M. P. Coons,  
 A. L. Dempwolff,  Zhengting Gan,  D. Hait,  P. R. Horn,  L. D. Jacobson,  
 I. Kaliman,  J. Kussmann,  A. W. Lange,  Ka Un Lao,  D. S. Levine,  Jie Liu,  
 S. C. McKenzie,  A. F. Morrison,  K. Nanda,  F. Plasser,  D. R. Rehn,  
 M. L. Vidal,  Zhi-Qiang You,  Ying Zhu,  B. Alam,  B. Albrecht,  
 A. Aldossary,  E. Alguire,  J. H. Andersen,  D. Barton,  K. Begam,  A. Behn,  
 Y. A. Bernard,  E. J. Berquist,  H. Burton,  A. Carreras,  K. Carter-Fenk,  
 R. Chakraborty,  A. D. Chien,  K. D. Closser,  V. Cofer-Shabica,  
 S. Dasgupta,  Jia Deng,  M. de Wergifosse,  M. Diedenhofen,  Hainam Do,  
 S. Ehlert,  Po-Tung Fang,  S. Fatehi,  Qingguo Feng,  T. Friedhoff,  
 J. Gayvert,  Qinghui Ge,  G. Gidofalvi,  M. Goldey,  J. Gomes,  
 C. Gonzalez-Espinoza,  S. Gulania,  A. Gunina,  M. W. D. Hanson-Heine,  
 P. H. P. Harbach,  A. W. Hauser,  M. F. Herbst,  M. Hernandez Vera,  
 M. Hodecker,  Z. C. Holden,  S. Houck,  Xunkun Huang,  Kerwin Hui,  
 B. C. Huynh,  M. Ivanov,  Hyunjun Ji,  Hanjie Jiang,  B. Kaduk,  S. Kaehler,  
 K. Khistyaev,  Jaehoon Kim,  P. Klunzinger,  Z. Koczor-Benda,  
 Joong Hoon Koh,  D. Kosenkov,  L. Koulias,  T. Kowalczyk,  C. M. Krauter,  
 K. Kue,  A. Kunitsa,  T. Kus,  A. Landau,  K. V. Lawler,  D. Lefrancois,  
 S. Lehtola,  Rain Li,  Yi-Pei Li,  Jiashu Liang,  M. Liebenthal,  
 Hung-Hsuan Lin,  You-Sheng Lin,  Fenglai Liu,  Kuan-Yu Liu,  
 M. Loipersberger,  A. Luenser,  A. Manjanath,  P. Manohar,  E. Mansoor,  
 S. F. Manzer,  Shan-Ping Mao,  A. V. Marenich,  T. Markovich,  S. Mason,  
 S. A. Maurer,  P. F. McLaughlin,  M. F. S. J. Menger,  J.-M. Mewes,  
 S. A. Mewes,  P. Morgante,  J. W. Mullinax,  K. J. Oosterbaan,  G. Paran,  
 Alexander C. Paul,  Suranjan K. Paul,  F. Pavosevic,  Zheng Pei,  S. Prager,  
 E. I. Proynov,  E. Ramos,  B. Rana,  A. E. Rask,  A. Rettig,  R. M. Richard,  
 F. Rob,  E. Rossomme,  T. Scheele,  M. Scheurer,  M. Schneider,  
 N. Sergueev,  S. M. Sharada,  W. Skomorowski,  D. W. Small,  C. J. Stein,  
 Yu-Chuan Su,  E. J. Sundstrom,  Zhen Tao,  J. Thirman,  T. Tsuchimochi,  
 N. M. Tubman,  S. P. Veccham,  O. Vydrov,  J. Wenzel,  J. Witte,  A. Yamada,  
 Kun Yao,  S. Yeganeh,  S. R. Yost,  A. Zech,  Igor Ying Zhang,  Xing Zhang,  
 Yu Zhang,  D. Zuev,  A. Aspuru-Guzik,  A. T. Bell,  N. A. Besley,  
 K. B. Bravaya,  B. R. Brooks,  D. Casanova,  Jeng-Da Chai,  S. Coriani,  
 C. J. Cramer,  A. E. DePrince, III,  R. A. DiStasio Jr.,  A. Dreuw,  
 B. D. Dunietz,  T. R. Furlani,  W. A. Goddard III,  S. Grimme,  
 S. Hammes-Schiffer,  T. Head-Gordon,  W. J. Hehre,  Chao-Ping Hsu,  
 T.-C. Jagau,  Yousung Jung,  A. Klamt,  Jing Kong,  D. S. Lambrecht,  
 WanZhen Liang,  N. J. Mayhall,  C. W. McCurdy,  J. B. Neaton,  
 C. Ochsenfeld,  J. A. Parkhill,  R. Peverati,  V. A. Rassolov,  Yihan Shao,  
 L. V. Slipchenko,  T. Stauch,  R. P. Steele,  J. E. Subotnik,  
 A. J. W. Thom,  A. Tkatchenko,  D. G. Truhlar,  T. Van Voorhis,  
 T. A. Wesolowski,  K. B. Whaley,  H. L. Woodcock III,  P. M. Zimmerman,  
 S. Faraji,  P. M. W. Gill,  M. Head-Gordon,  J. M. Herbert,  A. I. Krylov

 Additional authors for Version 5.4.1: 
 S. Kotaru,  Shaozhi Li,  Xiangyuan Li,  F. Matz,  A. Molle,  Haisheng Ren,  
 Yingli Su,  Hung-Yi Tsai,  C. Utku,  Fang Wang

 Contributors to earlier versions of Q-Chem not listed above: 
 R. D. Adamson,  B. Austin,  R. Baer,  J. Baker,  G. J. O. Beran,  
 K. Brandhorst,  S. T. Brown,  E. F. C. Byrd,  A. K. Chakraborty,  
 G. K. L. Chan,  Chun-Min Chang,  Yunqing Chen,  C.-L. Cheng,  
 Siu Hung Chien,  D. M. Chipman,  D. L. Crittenden,  H. Dachsel,  
 R. J. Doerksen,  A. D. Dutoi,  R. G. Edgar,  J. Fosso-Tande,  
 L. Fusti-Molnar,  D. Ghosh,  A. Ghysels,  A. Golubeva-Zadorozhnaya,  
 J. Gonthier,  M. S. Gordon,  S. R. Gwaltney,  G. Hawkins,  J. E. Herr,  
 A. Heyden,  S. Hirata,  E. G. Hohenstein,  G. Kedziora,  F. J. Keil,  
 C. Kelley,  Jihan Kim,  R. A. King,  R. Z. Khaliullin,  P. P. Korambath,  
 W. Kurlancheek,  A. Laurent,  A. M. Lee,  M. S. Lee,  S. V. Levchenko,  
 Ching Yeh Lin,  D. Liotard,  E. Livshits,  R. C. Lochan,  I. Lotan,  
 L. A. Martinez-Martinez,  P. E. Maslen,  N. Nair,  D. P. O'Neill,  
 D. Neuhauser,  E. Neuscamman,  C. M. Oana,  R. Olivares-Amaya,  R. Olson,  
 T. M. Perrine,  B. Peters,  P. A. Pieniazek,  A. Prociuk,  Y. M. Rhee,  
 J. Ritchie,  M. A. Rohrdanz,  E. Rosta,  N. J. Russ,  H. F. Schaefer III,  
 M. W. Schmidt,  N. E. Schultz,  S. Sharma,  N. Shenvi,  C. D. Sherrill,  
 A. C. Simmonett,  A. Sodt,  T. Stein,  D. Stuck,  K. S. Thanthiriwatte,  
 V. Vanovschi,  L. Vogt,  Tao Wang,  A. Warshel,  M. A. Watson,  
 C. F. Williams,  Q. Wu,  X. Xu,  Jun Yang,  W. Zhang,  Yan Zhao

 Please cite Q-Chem as follows:
 Y. Shao et al., Mol. Phys. 113, 184-215 (2015)
 DOI: 10.1080/00268976.2014.952696

 Q-Chem 5.4.1 for Intel X86 EM64T Linux

 Parts of Q-Chem use Armadillo 9.800.1 (Horizon Scraper).
 http://arma.sourceforge.net/

 Q-Chem begins on Mon Feb  5 12:38:31 2024  

 Host: 
0

     Scratch files written to /scratch/ari.fischer/qChem1912878.hpc-mn1/qchem359164//
 Aug1521 |scratch|qcdevops|jenkins|workspace|build_RNUM 8249   
 Processing $rem in /usr/local/qchem-5.4.1/config/preferences:
 Processing $rem in /home/ari.fischer/.qchemrc:
 Symmetry turned off for PCM/SM12/SMD calculation

 Checking the input file for inconsistencies... 	...done.

--------------------------------------------------------------
User input:
--------------------------------------------------------------
$molecule
0 2
C         0.5259361465    0.2043921395    0.4740676009
O         1.2874533448   -0.5711169147    0.9869908096
H        -2.5875831013    0.7760436896   -0.2342908893
C        -0.9933530291   -0.0778802264    0.4538855820
O        -1.1924198531   -1.3245821325   -0.0584423260
O        -1.6382660789    0.9534424243   -0.1592693111
O         0.9252740252    1.3236119123   -0.1025326688
H         0.1686586019    1.8175050908   -0.4603742573
O        -1.4339563021   -0.1633635542    1.8680049276
O        -1.1076507085    0.9154251556    2.5200574009
H        -2.1404694451   -1.4927940843   -0.1674083686
$end

$rem
BASIS = 6-311++G(3df,2p)
JOB_TYPE = SP
METHOD = wB97M-V
SCF_ALGORITHM = DIIS_GDM
MAX_SCF_CYCLES = 400
SCF_CONVERGENCE = 7
THRESH = 12
Solvent_method = SMD
$end
--------------------------------------------------------------
 ----------------------------------------------------------------
             Standard Nuclear Orientation (Angstroms)
    I     Atom           X                Y                Z
 ----------------------------------------------------------------
    1      C       0.5259361465     0.2043921395     0.4740676009
    2      O       1.2874533448    -0.5711169147     0.9869908096
    3      H      -2.5875831013     0.7760436896    -0.2342908893
    4      C      -0.9933530291    -0.0778802264     0.4538855820
    5      O      -1.1924198531    -1.3245821325    -0.0584423260
    6      O      -1.6382660789     0.9534424243    -0.1592693111
    7      O       0.9252740252     1.3236119123    -0.1025326688
    8      H       0.1686586019     1.8175050908    -0.4603742573
    9      O      -1.4339563021    -0.1633635542     1.8680049276
   10      O      -1.1076507085     0.9154251556     2.5200574009
   11      H      -2.1404694451    -1.4927940843    -0.1674083686
 ----------------------------------------------------------------
 Nuclear Repulsion Energy =         417.95628510 hartrees
 There are       32 alpha and       31 beta electrons
 Requested basis set is 6-311++G(3df,2p)
 There are 90 shells and 342 basis functions

 Total QAlloc Memory Limit 288000 MB
 Mega-Array Size       188 MB
 MEM_STATIC part       192 MB
 
 Citation of the SMD model:
 Marenich, A.V.; Cramer, C.J.; Truhlar, D.G.
 J. Phys. Chem. B 2009, 113, 6378-6396.
 iSolventCode=           1
 Solvent: water                                                           
 
 vradii
            1           2           3           4           5           6
    1   1.8500000   1.5200000   1.2000000   1.8500000   1.5200000   1.5200000
            7           8           9          10          11
    1   1.5200000   1.2000000   1.5200000   1.5200000   1.2000000
 Changing PCM_VDW_RADII to SMD_RADIUS
 Discretize the solute cavity surface with Lebedev spheres
	Using 110 Lebedev grid points for each H atom
	Using 194 Lebedev grid points for other atoms
	Atomic van der Waals radii will be scaled by 1.20
 Remove points where switching function is < 1.0e-08
 Keep 1006 surface tesserae and discard 876 interior tesserae
 Molecular Surface Area = 117.604 Angst**2

                       Distance Matrix (Angstroms)
             C (  1)   O (  2)   H (  3)   C (  4)   O (  5)   O (  6)
   O (  2)  1.201837
   H (  3)  3.243849  4.280453
   C (  4)  1.545421  2.393650  1.935030
   O (  5)  2.360948  2.794711  2.527851  1.362488
   O (  6)  2.376124  3.492567  0.968660  1.362167  2.323433
   O (  7)  1.320830  2.215453  3.557718  2.440269  3.391092  2.590749
   H (  8)  1.898147  3.008668  2.955101  2.403878  3.447723  2.025400
   O (  9)  2.432999  2.889380  2.575459  1.483635  2.262293  2.323540
   O ( 10)  2.712978  3.208835  3.129866  2.295384  3.416647  2.731628
   H ( 11)  3.225159  3.732664  2.313441  1.924542  0.969003  2.497268
             O (  7)   H (  8)   O (  9)   O ( 10)
   H (  8)  0.971827
   O (  9)  3.414686  3.451603
   O ( 10)  3.343259  3.365366  1.302088
   H ( 11)  4.163548  4.046725  2.531690  3.753493
 
 A cutoff of  1.0D-12 yielded   3761 shell pairs
 There are     55148 function pairs (     71720 Cartesian)
 Smallest overlap matrix eigenvalue = 3.29E-05

 Scale SEOQF with 1.000000e-01/1.000000e-01/1.000000e-01

 Standard Electronic Orientation quadrupole field applied
 Nucleus-field energy     =    -0.0000000024 hartrees
 Guess from superposition of atomic densities
 Warning:  Energy on first SCF cycle will be non-variational
 SAD guess density has 63.000000 electrons

 -----------------------------------------------------------------------
  General SCF calculation program by
  Eric Jon Sundstrom, Paul Horn, Yuezhi Mao, Dmitri Zuev, Alec White,
  David Stuck, Shaama M.S., Shane Yost, Joonho Lee, David Small,
  Daniel Levine, Susi Lehtola, Hugh Burton, Evgeny Epifanovsky,
  Bang C. Huynh
 -----------------------------------------------------------------------
 Exchange:     0.1500 Hartree-Fock + 1.0000 wB97M-V + LR-HF
 Correlation:  1.0000 wB97M-V
 Using SG-2 standard quadrature grid
 Nonlocal Correlation:  VV10 with C = 0.0100 and b = 6.00 and scale = 1.00000
 Grid used for NLC:  SG-1 standard quadrature
 
 Citation of the SMD model:
 Marenich, A.V.; Cramer, C.J.; Truhlar, D.G.
 J. Phys. Chem. B 2009, 113, 6378-6396.
 iSolventCode=           1
 Solvent: water                                                           
 
 vradii
            1           2           3           4           5           6
    1   1.8500000   1.5200000   1.2000000   1.8500000   1.5200000   1.5200000
            7           8           9          10          11
    1   1.5200000   1.2000000   1.5200000   1.5200000   1.2000000
 using 4 threads for integral computing
 -------------------------------------------------------
 OpenMP Integral computing Module                
 Release: version 1.0, May 2013, Q-Chem Inc. Pittsburgh 
 -------------------------------------------------------
 -------------------------------------------------------
 OpenMP BLAS3 based DFT computing Module                
 Release: version 1.0, May 2013, Q-Chem Inc. Pittsburgh 
 -------------------------------------------------------
 A unrestricted SCF calculation will be
 performed using DIIS, GDM
 SCF converges when RMS gradient is below 1.0e-07
 ---------------------------------------
  Cycle       Energy         DIIS error
 ---------------------------------------
    1    -530.7660659979      1.32e-02  
    2    -529.0923935323      2.25e-03  Done DIIS. Switching to GDM
 ---------------------------------------
  Cycle       Energy        RMS Gradient
 ---------------------------------------
    1    -529.0923935323      1.61e-01   Descent step
    2    -529.2909377381      3.35e-02   Normal BFGS step
    3    -529.3193533345      2.93e-02   Normal BFGS step
    4    -529.3214904018      1.46e-02   Normal BFGS step
    5    -529.3234214941      7.03e-03   Normal BFGS step
    6    -529.3235805769      3.51e-03   Normal BFGS step
    7    -529.3236833417      2.82e-03   Normal BFGS step
    8    -529.3237076322      1.15e-03   Normal BFGS step
    9    -529.3237132183      8.88e-04   Normal BFGS step
   10    -529.3237159463      8.74e-04   Normal BFGS step
   11    -529.3237184018      7.17e-04   Normal BFGS step
   12    -529.3237204047      3.92e-04   Normal BFGS step
   13    -529.3237211855      1.93e-04   Normal BFGS step
   14    -529.3237213339      4.00e-05   Normal BFGS step
   15    -529.3237213603      1.12e-05   Normal BFGS step
   16    -529.3237213644      6.14e-06   Normal BFGS step
   17    -529.3237213649      2.13e-06   Normal BFGS step
   18    -529.3237213651      8.85e-07   Normal BFGS step
   19    -529.3237213651      5.76e-07   Normal BFGS step
   20    -529.3237213651      1.75e-07   Normal BFGS step
   21    -529.3237213651      8.84e-08  Convergence criterion met
 ---------------------------------------
 SCF time:   CPU 1178.33s  wall 297.00s 
<S^2> =          0.753915163
(3)  G-ENP(liq) elect-nuc-pol free energy of system     -529.323721365 a.u.
(4)  G-CDS(liq) cavity-dispersion-solvent structure 
     free energy                                                4.2101 kcal/mol
(6)  G-S(liq) free energy of system                     -529.317012158 a.u.
 SCF   energy in the final basis set =     -529.3170121584
 Total energy in the final basis set =     -529.3170121584
 
 --------------------------------------------------------------
 
                    Orbital Energies (a.u.)
 --------------------------------------------------------------
 
 Alpha MOs
 -- Occupied --
-19.4727 -19.4325 -19.4005 -19.3849 -19.3811 -19.3498 -10.5448 -10.5100
 -1.3645  -1.2731  -1.2442  -1.1924  -1.1737  -1.0116  -0.8606  -0.7552
 -0.7180  -0.7101  -0.6895  -0.6254  -0.6160  -0.5990  -0.5764  -0.5736
 -0.5325  -0.5077  -0.4958  -0.4543  -0.4502  -0.4282  -0.4136  -0.4049
 -- Virtual --
  0.0286   0.0469   0.0552   0.0597   0.0757   0.0869   0.1008   0.1044
  0.1186   0.1294   0.1403   0.1549   0.1820   0.1883   0.2024   0.2271
  0.2318   0.2383   0.2401   0.2464   0.2583   0.2656   0.2812   0.2861
  0.2954   0.3047   0.3184   0.3213   0.3239   0.3290   0.3359   0.3415
  0.3449   0.3485   0.3637   0.3714   0.3787   0.3807   0.4015   0.4088
  0.4152   0.4415   0.4565   0.4753   0.4826   0.5231   0.5376   0.5593
  0.5643   0.5899   0.6008   0.6130   0.6320   0.6614   0.6955   0.7174
  0.7255   0.7389   0.7458   0.7774   0.7953   0.8234   0.8414   0.8691
  0.8949   0.9064   0.9245   0.9482   0.9631   0.9756   0.9896   1.0084
  1.0139   1.0277   1.0307   1.0455   1.0633   1.0859   1.0903   1.1022
  1.1187   1.1289   1.1401   1.1481   1.1500   1.1634   1.1861   1.1920
  1.2004   1.2044   1.2275   1.2342   1.2484   1.2785   1.3000   1.3320
  1.3335   1.3532   1.3768   1.3986   1.4144   1.4352   1.4544   1.4704
  1.4717   1.4942   1.5104   1.5244   1.5419   1.5656   1.5876   1.6203
  1.6331   1.6474   1.6670   1.7015   1.7094   1.7490   1.7847   1.8466
  1.8630   1.8719   1.9407   1.9570   1.9792   2.0028   2.0347   2.0987
  2.1538   2.1898   2.2089   2.2162   2.2551   2.3398   2.3958   2.4075
  2.4488   2.4961   2.5503   2.5875   2.8563   2.8617   2.9018   2.9476
  2.9731   2.9995   3.0209   3.0729   3.0827   3.1148   3.1755   3.1813
  3.2233   3.2330   3.2605   3.2769   3.3111   3.3351   3.3777   3.3854
  3.4259   3.4270   3.4404   3.4699   3.4892   3.5478   3.5513   3.5715
  3.5957   3.6186   3.6226   3.6751   3.6786   3.7238   3.7679   3.7698
  3.8129   3.8264   3.8451   3.8856   3.9012   3.9578   3.9999   4.0380
  4.0954   4.1042   4.1597   4.1809   4.2000   4.2157   4.2304   4.2788
  4.3358   4.3915   4.4840   4.4932   4.5412   4.6480   4.7885   4.8085
  4.8439   4.8832   4.8920   4.9031   4.9334   4.9551   5.1033   5.1097
  5.1218   5.1519   5.1683   5.2005   5.2116   5.2356   5.2668   5.3108
  5.3181   5.3424   5.3632   5.4109   5.4289   5.4433   5.4729   5.5041
  5.5092   5.5233   5.5483   5.5612   5.5618   5.5844   5.6129   5.6405
  5.6545   5.6771   5.6935   5.7050   5.7259   5.7483   5.7841   5.7984
  5.8328   5.9004   5.9187   5.9756   6.0134   6.1111   6.1561   6.2570
  6.3195   6.3506   6.4175   6.4479   6.5872   6.6478   6.6811   6.8774
  6.9670   7.1127   7.1410   7.2033   7.2224   7.3336   7.4313   7.7392
  7.7653   7.8243   7.9246   7.9918   8.2484   8.4911   8.5459   8.7776
 14.2696  14.3470  14.3688  14.4156  14.4476  14.5018  14.5225  14.5472
 14.5609  14.5778  14.5801  14.6006  14.6105  14.6296  14.6573  14.6811
 14.7172  14.7511  14.7871  14.8510  14.8593  14.9217  15.0427  15.0495
 15.1183  15.2350  15.2956  15.3682  15.4236  15.8673  24.7727  25.4202
 50.6438  50.6809  50.7568  50.7827  50.8243  51.0438
 
 Beta MOs
 -- Occupied --
-19.4631 -19.4131 -19.4005 -19.3847 -19.3812 -19.3499 -10.5452 -10.5099
 -1.3414  -1.2706  -1.2420  -1.1922  -1.1736  -0.9770  -0.8555  -0.7547
 -0.7158  -0.6971  -0.6838  -0.6022  -0.5984  -0.5829  -0.5736  -0.5508
 -0.5300  -0.4974  -0.4886  -0.4523  -0.4491  -0.4215  -0.3923
 -- Virtual --
 -0.0418   0.0288   0.0471   0.0556   0.0603   0.0763   0.0872   0.1012
  0.1050   0.1195   0.1310   0.1405   0.1561   0.1853   0.1911   0.2055
  0.2279   0.2336   0.2401   0.2421   0.2489   0.2666   0.2690   0.2837
  0.2865   0.2974   0.3055   0.3193   0.3219   0.3244   0.3312   0.3366
  0.3424   0.3457   0.3496   0.3642   0.3723   0.3794   0.3830   0.4038
  0.4100   0.4158   0.4421   0.4565   0.4759   0.4831   0.5233   0.5381
  0.5602   0.5648   0.5903   0.6021   0.6133   0.6330   0.6618   0.6967
  0.7182   0.7267   0.7395   0.7467   0.7784   0.7959   0.8242   0.8429
  0.8694   0.8963   0.9094   0.9253   0.9506   0.9696   0.9780   0.9915
  1.0133   1.0162   1.0303   1.0358   1.0495   1.0726   1.0922   1.0929
  1.1143   1.1202   1.1334   1.1425   1.1515   1.1554   1.1663   1.1889
  1.1947   1.2020   1.2067   1.2291   1.2406   1.2492   1.2850   1.3017
  1.3330   1.3368   1.3542   1.3786   1.3998   1.4163   1.4375   1.4551
  1.4728   1.4730   1.4974   1.5123   1.5265   1.5448   1.5673   1.5903
  1.6204   1.6355   1.6487   1.6688   1.7022   1.7114   1.7500   1.7875
  1.8483   1.8654   1.8735   1.9433   1.9587   1.9802   2.0036   2.0369
  2.0996   2.1549   2.1914   2.2098   2.2172   2.2566   2.3424   2.3967
  2.4083   2.4547   2.4995   2.5536   2.5967   2.8570   2.8628   2.9030
  2.9491   2.9753   3.0003   3.0244   3.0774   3.0858   3.1177   3.1783
  3.1858   3.2257   3.2492   3.2621   3.2795   3.3275   3.3384   3.3836
  3.3882   3.4278   3.4380   3.4527   3.4751   3.4953   3.5525   3.5685
  3.5952   3.6076   3.6237   3.6379   3.6806   3.6834   3.7441   3.7749
  3.7866   3.8151   3.8312   3.8502   3.8913   3.9077   3.9619   4.0018
  4.0393   4.0977   4.1048   4.1639   4.1824   4.2048   4.2193   4.2360
  4.2849   4.3360   4.3939   4.4845   4.4943   4.5420   4.6513   4.8143
  4.8358   4.8549   4.8848   4.8978   4.9158   4.9382   4.9701   5.1261
  5.1520   5.1637   5.1720   5.1898   5.2059   5.2401   5.2594   5.2721
  5.3224   5.3340   5.3531   5.3758   5.4169   5.4455   5.4581   5.4835
  5.5056   5.5137   5.5296   5.5526   5.5637   5.5689   5.5915   5.6202
  5.6442   5.6606   5.6809   5.6996   5.7116   5.7353   5.7517   5.7864
  5.8090   5.8365   5.9043   5.9226   5.9934   6.0202   6.1121   6.1578
  6.2601   6.3214   6.3529   6.4179   6.4488   6.6221   6.6514   6.6880
  6.8778   6.9673   7.1129   7.1412   7.2034   7.2227   7.3342   7.4316
  7.7387   7.7653   7.8242   7.9383   7.9917   8.2483   8.4914   8.5459
  8.7775  14.3531  14.3902  14.4514  14.4970  14.5185  14.5199  14.5496
 14.5553  14.5778  14.5815  14.5833  14.6037  14.6229  14.6345  14.6586
 14.6894  14.7368  14.7622  14.8491  14.8575  14.8609  14.9282  15.0460
 15.0566  15.1187  15.2368  15.3005  15.3684  15.4246  15.8989  24.7725
 25.4203  50.6551  50.6900  50.7580  50.7827  50.8248  51.0438
 --------------------------------------------------------------
 
          Ground-State Mulliken Net Atomic Charges

     Atom                 Charge (a.u.)    Spin (a.u.)
  --------------------------------------------------------
      1 C                     1.019928       0.011749
      2 O                    -0.753768      -0.001939
      3 H                     0.319841       0.000028
      4 C                     1.208698      -0.015859
      5 O                    -0.685917      -0.000115
      6 O                    -0.647815       0.005289
      7 O                    -0.578345       0.000298
      8 H                     0.367185      -0.000157
      9 O                    -0.334675       0.302518
     10 O                    -0.244146       0.698116
     11 H                     0.329014       0.000072
  --------------------------------------------------------
  Sum of atomic charges =     0.000000
  Sum of spin   charges =     1.000000

 -----------------------------------------------------------------
                    Cartesian Multipole Moments
 -----------------------------------------------------------------
    Charge (ESU x 10^10)
                 0.0000
    Dipole Moment (Debye)
         X      -7.3847      Y       1.4148      Z      -4.5983
       Tot       8.8136
    Quadrupole Moments (Debye-Ang)
        XX     -34.5959     XY       3.2336     YY     -44.7816
        XZ       2.0029     YZ      -1.2404     ZZ     -53.9122
    Octopole Moments (Debye-Ang^2)
       XXX       6.9826    XXY     -13.7581    XYY      13.7903
       YYY     -15.6508    XXZ     -44.0872    XYZ       3.2490
       YYZ     -39.9562    XZZ      29.0630    YZZ      -9.3192
       ZZZ    -118.7690
    Hexadecapole Moments (Debye-Ang^3)
      XXXX    -311.8744   XXXY       8.2568   XXYY    -100.3048
      XYYY       9.0454   YYYY    -231.0464   XXXZ      76.9784
      XXYZ      -4.0729   XYYZ      25.6931   YYYZ     -25.7023
      XXZZ    -158.4191   XYZZ       7.2789   YYZZ    -115.2608
      XZZZ      90.4588   YZZZ     -32.3332   ZZZZ    -471.5624
 -----------------------------------------------------------------
 Total job time:  297.75s(wall), 1180.74s(cpu) 
 Mon Feb  5 12:43:29 2024

        *************************************************************
        *                                                           *
        *  Thank you very much for using Q-Chem.  Have a nice day.  *
        *                                                           *
        *************************************************************


