
Running Job 1 of 2 Q_in.in
qchem Q_in.in_312635.0 /scratch/ari.fischer/qChem1591649.hpc-mn1/qchem312635/ 0
/usr/local/qchem-5.4.1/exe/qcprog.exe_s Q_in.in_312635.0 /scratch/ari.fischer/qChem1591649.hpc-mn1/qchem312635/
                  Welcome to Q-Chem
     A Quantum Leap Into The Future Of Chemistry


 Q-Chem 5.4, Q-Chem, Inc., Pleasanton, CA (2021)

 License issued to: Nanyang Technological University (site)

 E. Epifanovsky,  A. T. B. Gilbert,  Xintian Feng,  Joonho Lee,  Yuezhi Mao,  
 N. Mardirossian,  P. Pokhilko,  A. White,  M. Wormit,  M. P. Coons,  
 A. L. Dempwolff,  Zhengting Gan,  D. Hait,  P. R. Horn,  L. D. Jacobson,  
 I. Kaliman,  J. Kussmann,  A. W. Lange,  Ka Un Lao,  D. S. Levine,  Jie Liu,  
 S. C. McKenzie,  A. F. Morrison,  K. Nanda,  F. Plasser,  D. R. Rehn,  
 M. L. Vidal,  Zhi-Qiang You,  Ying Zhu,  B. Alam,  B. Albrecht,  
 A. Aldossary,  E. Alguire,  J. H. Andersen,  D. Barton,  K. Begam,  A. Behn,  
 Y. A. Bernard,  E. J. Berquist,  H. Burton,  A. Carreras,  K. Carter-Fenk,  
 R. Chakraborty,  A. D. Chien,  K. D. Closser,  V. Cofer-Shabica,  
 S. Dasgupta,  Jia Deng,  M. de Wergifosse,  M. Diedenhofen,  Hainam Do,  
 S. Ehlert,  Po-Tung Fang,  S. Fatehi,  Qingguo Feng,  T. Friedhoff,  
 J. Gayvert,  Qinghui Ge,  G. Gidofalvi,  M. Goldey,  J. Gomes,  
 C. Gonzalez-Espinoza,  S. Gulania,  A. Gunina,  M. W. D. Hanson-Heine,  
 P. H. P. Harbach,  A. W. Hauser,  M. F. Herbst,  M. Hernandez Vera,  
 M. Hodecker,  Z. C. Holden,  S. Houck,  Xunkun Huang,  Kerwin Hui,  
 B. C. Huynh,  M. Ivanov,  Hyunjun Ji,  Hanjie Jiang,  B. Kaduk,  S. Kaehler,  
 K. Khistyaev,  Jaehoon Kim,  P. Klunzinger,  Z. Koczor-Benda,  
 Joong Hoon Koh,  D. Kosenkov,  L. Koulias,  T. Kowalczyk,  C. M. Krauter,  
 K. Kue,  A. Kunitsa,  T. Kus,  A. Landau,  K. V. Lawler,  D. Lefrancois,  
 S. Lehtola,  Rain Li,  Yi-Pei Li,  Jiashu Liang,  M. Liebenthal,  
 Hung-Hsuan Lin,  You-Sheng Lin,  Fenglai Liu,  Kuan-Yu Liu,  
 M. Loipersberger,  A. Luenser,  A. Manjanath,  P. Manohar,  E. Mansoor,  
 S. F. Manzer,  Shan-Ping Mao,  A. V. Marenich,  T. Markovich,  S. Mason,  
 S. A. Maurer,  P. F. McLaughlin,  M. F. S. J. Menger,  J.-M. Mewes,  
 S. A. Mewes,  P. Morgante,  J. W. Mullinax,  K. J. Oosterbaan,  G. Paran,  
 Alexander C. Paul,  Suranjan K. Paul,  F. Pavosevic,  Zheng Pei,  S. Prager,  
 E. I. Proynov,  E. Ramos,  B. Rana,  A. E. Rask,  A. Rettig,  R. M. Richard,  
 F. Rob,  E. Rossomme,  T. Scheele,  M. Scheurer,  M. Schneider,  
 N. Sergueev,  S. M. Sharada,  W. Skomorowski,  D. W. Small,  C. J. Stein,  
 Yu-Chuan Su,  E. J. Sundstrom,  Zhen Tao,  J. Thirman,  T. Tsuchimochi,  
 N. M. Tubman,  S. P. Veccham,  O. Vydrov,  J. Wenzel,  J. Witte,  A. Yamada,  
 Kun Yao,  S. Yeganeh,  S. R. Yost,  A. Zech,  Igor Ying Zhang,  Xing Zhang,  
 Yu Zhang,  D. Zuev,  A. Aspuru-Guzik,  A. T. Bell,  N. A. Besley,  
 K. B. Bravaya,  B. R. Brooks,  D. Casanova,  Jeng-Da Chai,  S. Coriani,  
 C. J. Cramer,  A. E. DePrince, III,  R. A. DiStasio Jr.,  A. Dreuw,  
 B. D. Dunietz,  T. R. Furlani,  W. A. Goddard III,  S. Grimme,  
 S. Hammes-Schiffer,  T. Head-Gordon,  W. J. Hehre,  Chao-Ping Hsu,  
 T.-C. Jagau,  Yousung Jung,  A. Klamt,  Jing Kong,  D. S. Lambrecht,  
 WanZhen Liang,  N. J. Mayhall,  C. W. McCurdy,  J. B. Neaton,  
 C. Ochsenfeld,  J. A. Parkhill,  R. Peverati,  V. A. Rassolov,  Yihan Shao,  
 L. V. Slipchenko,  T. Stauch,  R. P. Steele,  J. E. Subotnik,  
 A. J. W. Thom,  A. Tkatchenko,  D. G. Truhlar,  T. Van Voorhis,  
 T. A. Wesolowski,  K. B. Whaley,  H. L. Woodcock III,  P. M. Zimmerman,  
 S. Faraji,  P. M. W. Gill,  M. Head-Gordon,  J. M. Herbert,  A. I. Krylov

 Additional authors for Version 5.4.1: 
 S. Kotaru,  Shaozhi Li,  Xiangyuan Li,  F. Matz,  A. Molle,  Haisheng Ren,  
 Yingli Su,  Hung-Yi Tsai,  C. Utku,  Fang Wang

 Contributors to earlier versions of Q-Chem not listed above: 
 R. D. Adamson,  B. Austin,  R. Baer,  J. Baker,  G. J. O. Beran,  
 K. Brandhorst,  S. T. Brown,  E. F. C. Byrd,  A. K. Chakraborty,  
 G. K. L. Chan,  Chun-Min Chang,  Yunqing Chen,  C.-L. Cheng,  
 Siu Hung Chien,  D. M. Chipman,  D. L. Crittenden,  H. Dachsel,  
 R. J. Doerksen,  A. D. Dutoi,  R. G. Edgar,  J. Fosso-Tande,  
 L. Fusti-Molnar,  D. Ghosh,  A. Ghysels,  A. Golubeva-Zadorozhnaya,  
 J. Gonthier,  M. S. Gordon,  S. R. Gwaltney,  G. Hawkins,  J. E. Herr,  
 A. Heyden,  S. Hirata,  E. G. Hohenstein,  G. Kedziora,  F. J. Keil,  
 C. Kelley,  Jihan Kim,  R. A. King,  R. Z. Khaliullin,  P. P. Korambath,  
 W. Kurlancheek,  A. Laurent,  A. M. Lee,  M. S. Lee,  S. V. Levchenko,  
 Ching Yeh Lin,  D. Liotard,  E. Livshits,  R. C. Lochan,  I. Lotan,  
 L. A. Martinez-Martinez,  P. E. Maslen,  N. Nair,  D. P. O'Neill,  
 D. Neuhauser,  E. Neuscamman,  C. M. Oana,  R. Olivares-Amaya,  R. Olson,  
 T. M. Perrine,  B. Peters,  P. A. Pieniazek,  A. Prociuk,  Y. M. Rhee,  
 J. Ritchie,  M. A. Rohrdanz,  E. Rosta,  N. J. Russ,  H. F. Schaefer III,  
 M. W. Schmidt,  N. E. Schultz,  S. Sharma,  N. Shenvi,  C. D. Sherrill,  
 A. C. Simmonett,  A. Sodt,  T. Stein,  D. Stuck,  K. S. Thanthiriwatte,  
 V. Vanovschi,  L. Vogt,  Tao Wang,  A. Warshel,  M. A. Watson,  
 C. F. Williams,  Q. Wu,  X. Xu,  Jun Yang,  W. Zhang,  Yan Zhao

 Please cite Q-Chem as follows:
 Y. Shao et al., Mol. Phys. 113, 184-215 (2015)
 DOI: 10.1080/00268976.2014.952696

 Q-Chem 5.4.1 for Intel X86 EM64T Linux

 Parts of Q-Chem use Armadillo 9.800.1 (Horizon Scraper).
 http://arma.sourceforge.net/

 Q-Chem begins on Mon Jun 19 17:18:01 2023  

 Host: 
0

     Scratch files written to /scratch/ari.fischer/qChem1591649.hpc-mn1/qchem312635//
 Aug1521 |scratch|qcdevops|jenkins|workspace|build_RNUM 8249   
 Processing $rem in /usr/local/qchem-5.4.1/config/preferences:
 Processing $rem in /home/ari.fischer/.qchemrc:
 Symmetry turned off for PCM/SM12/SMD calculation


!!********************************************.
!!******************Warning*******************.
!!Desired Analytical derivatives not available.
!!Finite difference job might take a long time.
!!********************************************.
!!********************************************.


 2-order derivative to be evaluated numerically with 1-order analytical derivatives

 Checking the input file for inconsistencies... 	...done.

--------------------------------------------------------------
User input:
--------------------------------------------------------------
$molecule
0 2
C         1.9143250109   -0.0455728881    0.1059143589
O         2.1999161556    1.1921835170   -0.2511782905
O         2.6989114745   -0.8987659151    0.4209795033
C         0.3990458602   -0.3105716894    0.0814455598
O        -0.3754775208    0.6131005689   -0.2289047623
O         0.0248927904   -1.4779704877    0.3854210048
H         3.1627816917    1.3211295086   -0.2234604547
H        -1.1648396957   -1.2929633555    0.2541182473
O        -2.1479405098   -0.6092700208    0.0637109205
H        -2.3063839569   -0.5941041378   -0.8958608871
$end

$rem
BASIS = 6-311++G(2df,2p)
GUI = 2
JOB_TYPE = Frequency
METHOD = wB97M-V
SOLVENT_METHOD = SMD
SCF_ALGORITHM = DIIS_GDM
MAX_SCF_CYCLES = 400
SCF_CONVERGENCE = 7
THRESH = 12
SYMMETRY_IGNORE = 1
$end

--------------------------------------------------------------
 ----------------------------------------------------------------
             Standard Nuclear Orientation (Angstroms)
    I     Atom           X                Y                Z
 ----------------------------------------------------------------
    1      C       1.9143250109    -0.0455728881     0.1059143589
    2      O       2.1999161556     1.1921835170    -0.2511782905
    3      O       2.6989114745    -0.8987659151     0.4209795033
    4      C       0.3990458602    -0.3105716894     0.0814455598
    5      O      -0.3754775208     0.6131005689    -0.2289047623
    6      O       0.0248927904    -1.4779704877     0.3854210048
    7      H       3.1627816917     1.3211295086    -0.2234604547
    8      H      -1.1648396957    -1.2929633555     0.2541182473
    9      O      -2.1479405098    -0.6092700208     0.0637109205
   10      H      -2.3063839569    -0.5941041378    -0.8958608871
 ----------------------------------------------------------------
 Nuclear Repulsion Energy =         308.01132816 hartrees
 There are       28 alpha and       27 beta electrons
 Requested basis set is 6-311++G(2df,2p)
 There are 74 shells and 268 basis functions

 Total QAlloc Memory Limit 288000 MB
 Mega-Array Size       188 MB
 MEM_STATIC part       192 MB
 
 Citation of the SMD model:
 Marenich, A.V.; Cramer, C.J.; Truhlar, D.G.
 J. Phys. Chem. B 2009, 113, 6378-6396.
 iSolventCode=           1
 Solvent: water                                                           
 
 vradii
            1           2           3           4           5           6
    1   1.8500000   1.5200000   1.5200000   1.8500000   1.5200000   1.5200000
            7           8           9          10
    1   1.2000000   1.2000000   1.5200000   1.2000000
 Changing PCM_VDW_RADII to SMD_RADIUS
 Discretize the solute cavity surface with Lebedev spheres
	Using 110 Lebedev grid points for each H atom
	Using 194 Lebedev grid points for other atoms
	Atomic van der Waals radii will be scaled by 1.20
 Remove points where switching function is < 1.0e-08
 Keep 932 surface tesserae and discard 756 interior tesserae
 Molecular Surface Area = 112.011 Angst**2

                       Distance Matrix (Angstroms)
             C (  1)   O (  2)   O (  3)   C (  4)   O (  5)   O (  6)
   O (  2)  1.319514
   O (  3)  1.201158  2.252301
   C (  4)  1.538471  2.368976  2.398049
   O (  5)  2.406065  2.639789  3.487113  1.244739
   O (  6)  2.387434  3.502243  2.736260  1.263017  2.215913
   H (  7)  1.880162  0.971857  2.357629  3.223919  3.608409  4.248770
   H (  8)  3.325538  4.213414  3.887391  1.854898  2.118840  1.211169
   O (  9)  4.101407  4.716805  4.868616  2.564503  2.172887  2.362063
   H ( 10)  4.372508  4.890110  5.184580  2.890479  2.372883  2.803169
             H (  7)   H (  8)   O (  9)
   H (  8)  5.078373
   O (  9)  5.657975  1.212509
   H ( 10)  5.833697  1.764647  0.972683
 
 A cutoff of  1.0D-12 yielded   2489 shell pairs
 There are     32968 function pairs (     41975 Cartesian)
 Smallest overlap matrix eigenvalue = 2.78E-05
 Guess from superposition of atomic densities
 Warning:  Energy on first SCF cycle will be non-variational
 SAD guess density has 55.000000 electrons

 -----------------------------------------------------------------------
  General SCF calculation program by
  Eric Jon Sundstrom, Paul Horn, Yuezhi Mao, Dmitri Zuev, Alec White,
  David Stuck, Shaama M.S., Shane Yost, Joonho Lee, David Small,
  Daniel Levine, Susi Lehtola, Hugh Burton, Evgeny Epifanovsky,
  Bang C. Huynh
 -----------------------------------------------------------------------
 Exchange:     0.1500 Hartree-Fock + 1.0000 wB97M-V + LR-HF
 Correlation:  1.0000 wB97M-V
 Using SG-2 standard quadrature grid
 Nonlocal Correlation:  VV10 with C = 0.0100 and b = 6.00 and scale = 1.00000
 Grid used for NLC:  SG-1 standard quadrature
 using 8 threads for integral computing
 -------------------------------------------------------
 OpenMP Integral computing Module                
 Release: version 1.0, May 2013, Q-Chem Inc. Pittsburgh 
 -------------------------------------------------------
 
 Citation of the SMD model:
 Marenich, A.V.; Cramer, C.J.; Truhlar, D.G.
 J. Phys. Chem. B 2009, 113, 6378-6396.
 iSolventCode=           1
 Solvent: water                                                           
 
 vradii
            1           2           3           4           5           6
    1   1.8500000   1.5200000   1.5200000   1.8500000   1.5200000   1.5200000
            7           8           9          10
    1   1.2000000   1.2000000   1.5200000   1.2000000
 -------------------------------------------------------
 OpenMP BLAS3 based DFT computing Module                
 Release: version 1.0, May 2013, Q-Chem Inc. Pittsburgh 
 -------------------------------------------------------
 A unrestricted SCF calculation will be
 performed using DIIS, GDM
 SCF converges when RMS gradient is below 1.0e-07
 ---------------------------------------
  Cycle       Energy         DIIS error
 ---------------------------------------
    1    -455.2936906661      1.58e-02  
    2    -453.8815792407      2.78e-03  Done DIIS. Switching to GDM
 ---------------------------------------
  Cycle       Energy        RMS Gradient
 ---------------------------------------
    1    -453.8815792407      2.20e-01   Descent step
    2    -454.0877783907      8.43e-02   Normal BFGS step
    3    -454.1207630997      5.55e-02   Normal BFGS step
    4    -454.1246254888      1.85e-02   Normal BFGS step
    5    -454.1277101554      1.53e-02   Normal BFGS step
    6    -454.1285135548      9.67e-03   Normal BFGS step
    7    -454.1290487922      1.25e-02   Normal BFGS step
    8    -454.1293336499      6.16e-03   Normal BFGS step
    9    -454.1294527833      1.17e-03   Normal BFGS step
   10    -454.1294668286      4.69e-04   Normal BFGS step
   11    -454.1294700804      4.27e-04   Normal BFGS step
   12    -454.1294710176      1.64e-04   Normal BFGS step
   13    -454.1294712211      8.26e-05   Normal BFGS step
   14    -454.1294712770      5.42e-05   Normal BFGS step
   15    -454.1294712902      4.34e-05   Normal BFGS step
   16    -454.1294712957      1.91e-05   Normal BFGS step
   17    -454.1294712978      1.31e-05   Normal BFGS step
   18    -454.1294712988      7.50e-06   Normal BFGS step
   19    -454.1294712992      3.26e-06   Normal BFGS step
   20    -454.1294712992      1.12e-06   Normal BFGS step
   21    -454.1294712992      5.15e-07   Normal BFGS step
   22    -454.1294712992      2.81e-07   Normal BFGS step
   23    -454.1294712992      1.09e-07   Normal BFGS step
   24    -454.1294712992      4.16e-08  Convergence criterion met
 ---------------------------------------
 SCF time:   CPU 651.88s  wall 82.00s 
<S^2> =          0.756431980
(3)  G-ENP(liq) elect-nuc-pol free energy of system     -454.129471299 a.u.
(4)  G-CDS(liq) cavity-dispersion-solvent structure 
     free energy                                                5.9054 kcal/mol
(6)  G-S(liq) free energy of system                     -454.120060380 a.u.
 SCF   energy in the final basis set =     -454.1200603801
 Total energy in the final basis set =     -454.1200603801
 
 --------------------------------------------------------------
 
                    Orbital Energies (a.u.)
 --------------------------------------------------------------
 
 Alpha MOs
 -- Occupied --
-19.4079 -19.4030 -19.3849 -19.3700 -19.3573 -10.5158 -10.5106  -1.2837
 -1.2585  -1.1892  -1.1675  -1.1622  -0.8450  -0.7286  -0.6668  -0.6505
 -0.6367  -0.6216  -0.6106  -0.5747  -0.5563  -0.5338  -0.5200  -0.4597
 -0.4578  -0.4454  -0.4438  -0.4008
 -- Virtual --
  0.0096   0.0317   0.0405   0.0623   0.0812   0.0858   0.0926   0.1133
  0.1311   0.1374   0.1499   0.1643   0.1810   0.2034   0.2154   0.2207
  0.2333   0.2433   0.2529   0.2607   0.2725   0.2770   0.3026   0.3075
  0.3113   0.3227   0.3286   0.3339   0.3434   0.3544   0.3595   0.3733
  0.4019   0.4140   0.4155   0.4277   0.4599   0.4872   0.4955   0.5396
  0.5908   0.6007   0.6069   0.6342   0.6597   0.6708   0.6884   0.7127
  0.7331   0.7475   0.7588   0.8014   0.8265   0.8308   0.8533   0.8784
  0.8857   0.9157   0.9512   0.9969   1.0239   1.0483   1.0912   1.0926
  1.0996   1.1024   1.1163   1.1315   1.1376   1.1546   1.1662   1.1752
  1.1941   1.2030   1.2386   1.2762   1.2843   1.3042   1.3663   1.3912
  1.4340   1.4838   1.5188   1.5511   1.5641   1.5953   1.6125   1.6623
  1.6647   1.6780   1.7457   1.7625   1.7821   1.8153   1.8301   1.8750
  1.8836   1.9635   1.9748   2.0294   2.0587   2.0901   2.1905   2.1967
  2.3073   2.3324   2.3638   2.4328   2.4489   2.4710   2.4968   2.5768
  2.6146   2.6464   2.6719   2.6951   2.7505   2.8167   2.8260   2.8527
  2.8794   2.8974   2.9486   3.0803   3.0953   3.1846   3.2309   3.2869
  3.2916   3.3255   3.3372   3.4021   3.4227   3.4769   3.4780   3.5600
  3.5888   3.6043   3.6324   3.6521   3.7242   3.7535   3.7671   3.7952
  3.8341   3.8664   3.9125   3.9576   4.0047   4.0321   4.0636   4.1391
  4.1947   4.2249   4.2646   4.3403   4.4139   4.7518   5.0412   5.0425
  5.0660   5.1019   5.1101   5.1194   5.1410   5.1550   5.1621   5.1737
  5.1868   5.2066   5.2073   5.2192   5.2321   5.2425   5.2562   5.2771
  5.3179   5.3261   5.3509   5.4079   5.4157   5.4734   5.4991   5.5657
  5.5736   5.5800   5.5832   5.5998   5.6140   5.6868   5.7247   5.8388
  5.8717   5.9407   6.0570   6.1074   6.1886   6.3376   6.4992   6.5996
  6.6723   6.8229   6.8526   6.8575   6.8903   6.9191   6.9632   6.9737
  6.9955   7.0301   7.0870   7.1088   7.1626   7.1874   7.2276   7.2330
  7.2738   7.3044   7.3266   7.3848   7.4075   7.4292   7.4770   7.5298
  7.5470   7.6084   7.6733   7.7321   7.7906   7.8606   7.8879   7.9268
  8.0442  25.0823  25.2047  50.4493  50.5591  50.6508  50.6744  50.7605
 
 Beta MOs
 -- Occupied --
-19.4029 -19.3887 -19.3746 -19.3701 -19.3571 -10.5152 -10.5112  -1.2801
 -1.2535  -1.1870  -1.1560  -1.1194  -0.8408  -0.7262  -0.6556  -0.6440
 -0.6330  -0.6187  -0.5932  -0.5625  -0.5492  -0.5207  -0.4591  -0.4584
 -0.4393  -0.4313  -0.3996
 -- Virtual --
 -0.0930   0.0113   0.0326   0.0415   0.0628   0.0817   0.0870   0.0928
  0.1139   0.1314   0.1381   0.1509   0.1651   0.1829   0.2045   0.2171
  0.2225   0.2337   0.2442   0.2538   0.2620   0.2729   0.2794   0.3034
  0.3086   0.3132   0.3246   0.3310   0.3352   0.3439   0.3558   0.3624
  0.3750   0.4034   0.4167   0.4199   0.4290   0.4644   0.4893   0.4981
  0.5419   0.5943   0.6012   0.6073   0.6366   0.6613   0.6734   0.6885
  0.7158   0.7336   0.7486   0.7601   0.8031   0.8285   0.8350   0.8547
  0.8794   0.8873   0.9176   0.9546   0.9984   1.0297   1.0508   1.0924
  1.1003   1.1027   1.1080   1.1186   1.1341   1.1480   1.1621   1.1701
  1.1812   1.1947   1.2096   1.2480   1.2775   1.2918   1.3114   1.3715
  1.3988   1.4381   1.4885   1.5283   1.5574   1.5678   1.5963   1.6160
  1.6654   1.6731   1.6855   1.7504   1.7692   1.7946   1.8272   1.8328
  1.8803   1.9062   1.9682   1.9797   2.0308   2.0631   2.0973   2.1975
  2.2107   2.3100   2.3355   2.3702   2.4350   2.4621   2.4751   2.5001
  2.5795   2.6164   2.6526   2.6727   2.6960   2.7574   2.8169   2.8269
  2.8519   2.8849   2.8997   2.9524   3.0809   3.0956   3.1851   3.2315
  3.2871   3.2922   3.3259   3.3375   3.4043   3.4228   3.4782   3.4784
  3.5606   3.5904   3.6057   3.6335   3.6540   3.7252   3.7614   3.7733
  3.7968   3.8394   3.8655   3.9159   3.9583   4.0060   4.0329   4.0664
  4.1390   4.1998   4.2259   4.2704   4.3430   4.4153   4.7549   5.0709
  5.0878   5.1085   5.1141   5.1196   5.1342   5.1504   5.1596   5.1814
  5.1874   5.2023   5.2158   5.2291   5.2362   5.2544   5.2709   5.2802
  5.2976   5.3314   5.3344   5.3647   5.4165   5.4394   5.4768   5.5287
  5.5764   5.5855   5.5887   5.6009   5.6022   5.6345   5.6918   5.7396
  5.8442   5.8779   5.9475   6.0589   6.1143   6.1901   6.3443   6.5004
  6.6154   6.6762   6.8275   6.8812   6.8909   6.8969   6.9564   6.9933
  6.9985   7.0313   7.0472   7.0926   7.1535   7.1871   7.1968   7.2307
  7.2649   7.2758   7.3136   7.3507   7.3928   7.4334   7.4499   7.5049
  7.5426   7.5525   7.6307   7.6886   7.7412   7.8009   7.8645   7.8962
  7.9356   8.0510  25.0826  25.2046  50.4628  50.5604  50.6508  50.6819
 50.7606
 --------------------------------------------------------------
 
          Ground-State Mulliken Net Atomic Charges

     Atom                 Charge (a.u.)    Spin (a.u.)
  --------------------------------------------------------
      1 C                     0.323442       0.017304
      2 O                    -0.271934       0.004539
      3 O                    -0.438553       0.006862
      4 C                     0.354648      -0.024630
      5 O                    -0.368035       0.313518
      6 O                    -0.407292       0.010814
      7 H                     0.367567      -0.001043
      8 H                     0.416329      -0.009016
      9 O                    -0.335555       0.695789
     10 H                     0.359382      -0.014137
  --------------------------------------------------------
  Sum of atomic charges =     0.000000
  Sum of spin   charges =     1.000000

 -----------------------------------------------------------------
                    Cartesian Multipole Moments
 -----------------------------------------------------------------
    Charge (ESU x 10^10)
                 0.0000
    Dipole Moment (Debye)
         X      -0.2190      Y       1.2992      Z      -2.5338
       Tot       2.8559
    Quadrupole Moments (Debye-Ang)
        XX     -32.5426     XY      13.1728     YY     -44.2094
        XZ       1.5516     YZ       3.5791     ZZ     -37.5553
    Octopole Moments (Debye-Ang^2)
       XXX     -59.5167    XXY      37.6609    XYY     -29.0189
       YYY      33.7051    XXZ     -23.3462    XYZ       0.5168
       YYZ      -5.7924    XZZ     -29.1213    YZZ       8.3237
       ZZZ     -10.4081
    Hexadecapole Moments (Debye-Ang^3)
      XXXX    -672.6567   XXXY      99.7348   XXYY    -148.6582
      XYYY      -3.3349   YYYY    -235.1862   XXXZ     -17.3937
      XXYZ      17.9847   XYYZ      -8.5844   YYYZ      28.9891
      XXZZ    -127.2414   XYZZ      -4.3214   YYZZ     -47.3691
      XZZZ      -9.8762   YZZZ      27.7656   ZZZZ     -49.7204
 -----------------------------------------------------------------
 Calculating analytic gradient of the SCF energy
 Gradient of CDS energy
            1           2           3           4           5           6
    1   0.0025794  -0.0007604  -0.0008029  -0.0023577   0.0008886   0.0005879
    2   0.0019353  -0.0028842   0.0008884  -0.0007536  -0.0009825   0.0016678
    3  -0.0004095   0.0008262  -0.0003274   0.0000926   0.0004342  -0.0004280
            7           8           9          10
    1   0.0003127  -0.0001614   0.0001488  -0.0004352
    2   0.0002833  -0.0002156   0.0001370  -0.0000760
    3  -0.0000645   0.0001240   0.0000642  -0.0003117
 Gradient of SCF Energy
            1           2           3           4           5           6
    1   0.0009935  -0.0195572   0.0007952  -0.0020021  -0.0013550   0.0064967
    2   0.0008843   0.0010319  -0.0087250  -0.0006774   0.0066397  -0.0038500
    3  -0.0007012  -0.0012639   0.0031038  -0.0029951   0.0015861   0.0038432
            7           8           9          10
    1   0.0186905  -0.0017828  -0.0003507  -0.0019281
    2   0.0049188  -0.0027365   0.0055792  -0.0030649
    3  -0.0004913  -0.0040808   0.0189692  -0.0179700
 Max gradient component =       1.956E-02
 RMS gradient           =       7.606E-03
 Computing fast CPCM-SWIG gradient
 Updating gradient with PCM contributions...
 -- total gradient after adding PCM contribution --
---------------------------------------------------
  Atom         X              Y              Z     
---------------------------------------------------
   1       0.000030      -0.000009      -0.000020
   2      -0.000015      -0.000019      -0.000035
   3      -0.000033       0.000034       0.000031
   4      -0.000208       0.000031      -0.000039
   5       0.000085      -0.000088       0.000073
   6       0.000174       0.000049       0.000139
   7      -0.000009       0.000008      -0.000012
   8      -0.000130      -0.000011      -0.000235
   9       0.000126       0.000048       0.000057
  10      -0.000020      -0.000042       0.000040
---------------------------------------------------
 Number of fixed atoms: 0
 Gradient time:  CPU 72.07 s  wall 10.67 s
 ######################################################
 ######################################################
 # Starting finite difference calculation for IDERIV  #
 Finite diff step size:  1.88973e-03 a.u.
 ----------------------------------------------------------------
             Standard Nuclear Orientation (Angstroms)
    I     Atom           X                Y                Z
 ----------------------------------------------------------------
    1      C       1.9153250109    -0.0455728881     0.1059143589
    2      O       2.1999161556     1.1921835170    -0.2511782905
    3      O       2.6989114745    -0.8987659151     0.4209795033
    4      C       0.3990458602    -0.3105716894     0.0814455598
    5      O      -0.3754775208     0.6131005689    -0.2289047623
    6      O       0.0248927904    -1.4779704877     0.3854210048
    7      H       3.1627816917     1.3211295086    -0.2234604547
    8      H      -1.1648396957    -1.2929633555     0.2541182473
    9      O      -2.1479405098    -0.6092700208     0.0637109205
   10      H      -2.3063839569    -0.5941041378    -0.8958608871
 ----------------------------------------------------------------
 Nuclear Repulsion Energy =         308.00903543 hartrees
 There are       28 alpha and       27 beta electrons
 Discretize the solute cavity surface with Lebedev spheres
	Using 110 Lebedev grid points for each H atom
	Using 194 Lebedev grid points for other atoms
	Atomic van der Waals radii will be scaled by 1.20
 Remove points where switching function is < 1.0e-08
 Keep 932 surface tesserae and discard 756 interior tesserae
 Molecular Surface Area = 112.011 Angst**2

                       Distance Matrix (Angstroms)
             C (  1)   O (  2)   O (  3)   C (  4)   O (  5)   O (  6)
   O (  2)  1.319298
   O (  3)  1.200505  2.252301
   C (  4)  1.539456  2.368976  2.398049
   O (  5)  2.407017  2.639789  3.487113  1.244739
   O (  6)  2.388225  3.502243  2.736260  1.263017  2.215913
   H (  7)  1.879498  0.971857  2.357629  3.223919  3.608409  4.248770
   H (  8)  3.326464  4.213414  3.887391  1.854898  2.118840  1.211169
   O (  9)  4.102397  4.716805  4.868616  2.564503  2.172887  2.362063
   H ( 10)  4.373473  4.890110  5.184580  2.890479  2.372883  2.803169
             H (  7)   H (  8)   O (  9)
   H (  8)  5.078373
   O (  9)  5.657975  1.212509
   H ( 10)  5.833697  1.764647  0.972683
 
 Requested basis set is 6-311++G(2df,2p)
 There are 74 shells and 268 basis functions
 A cutoff of  1.0D-12 yielded   2489 shell pairs
 There are     32968 function pairs (     41975 Cartesian)
 Smallest overlap matrix eigenvalue = 2.80E-05
 Guess MOs from SCF MO coefficient file

 -----------------------------------------------------------------------
  General SCF calculation program by
  Eric Jon Sundstrom, Paul Horn, Yuezhi Mao, Dmitri Zuev, Alec White,
  David Stuck, Shaama M.S., Shane Yost, Joonho Lee, David Small,
  Daniel Levine, Susi Lehtola, Hugh Burton, Evgeny Epifanovsky,
  Bang C. Huynh
 -----------------------------------------------------------------------
 Exchange:     0.1500 Hartree-Fock + 1.0000 wB97M-V + LR-HF
 Correlation:  1.0000 wB97M-V
 Using SG-2 standard quadrature grid
 Nonlocal Correlation:  VV10 with C = 0.0100 and b = 6.00 and scale = 1.00000
 Grid used for NLC:  SG-1 standard quadrature
 
 Citation of the SMD model:
 Marenich, A.V.; Cramer, C.J.; Truhlar, D.G.
 J. Phys. Chem. B 2009, 113, 6378-6396.
 iSolventCode=           1
 Solvent: water                                                           
 
 vradii
            1           2           3           4           5           6
    1   1.8500000   1.5200000   1.5200000   1.8500000   1.5200000   1.5200000
            7           8           9          10
    1   1.2000000   1.2000000   1.5200000   1.2000000
 -------------------------------------------------------
 OpenMP BLAS3 based DFT computing Module                
 Release: version 1.0, May 2013, Q-Chem Inc. Pittsburgh 
 -------------------------------------------------------
 A unrestricted SCF calculation will be
 performed using Roothaan-Hall, DIIS, GDM
 SCF converges when RMS gradient is below 1.0e-07
 ---------------------------------------
  Cycle       Energy         DIIS error
 ---------------------------------------
    1    -454.0923514317      3.11e-04  Roothaan Step
 ---------------------------------------
  Cycle       Energy         DIIS error
 ---------------------------------------
    1    -454.1230138678      3.68e-04  
    2    -454.1264482932      3.57e-04  Done DIIS. Switching to GDM
 ---------------------------------------
  Cycle       Energy        RMS Gradient
 ---------------------------------------
    1    -454.1264482932      1.61e-02   Normal BFGS step
    2    -454.1247641300      2.51e-02  Line search: overstep
    3    -454.1292960076      3.93e-03   Normal BFGS step
    4    -454.1294304000      1.20e-03   Normal BFGS step
    5    -454.1294545674      2.60e-03   Normal BFGS step
    6    -454.1294661152      8.82e-04   Normal BFGS step
    7    -454.1294695905      7.32e-04   Normal BFGS step
    8    -454.1294733417      2.88e-04   Normal BFGS step
    9    -454.1294746356      1.73e-04   Normal BFGS step
   10    -454.1294747494      4.56e-05   Normal BFGS step
   11    -454.1294747843      3.01e-05   Normal BFGS step
   12    -454.1294747894      2.03e-05   Normal BFGS step
   13    -454.1294747907      1.55e-05   Normal BFGS step
   14    -454.1294747914      1.03e-05   Normal BFGS step
   15    -454.1294747918      4.55e-06   Normal BFGS step
   16    -454.1294747920      1.82e-06   Normal BFGS step
   17    -454.1294747920      1.47e-06   Normal BFGS step
   18    -454.1294747920      7.36e-07   Normal BFGS step
   19    -454.1294747920      1.55e-07   Normal BFGS step
   20    -454.1294747920      8.14e-08  Convergence criterion met
 ---------------------------------------
 SCF time:   CPU 582.70s  wall 74.00s 
<S^2> =          0.756434286
(3)  G-ENP(liq) elect-nuc-pol free energy of system     -454.129474792 a.u.
(4)  G-CDS(liq) cavity-dispersion-solvent structure 
     free energy                                                5.9085 kcal/mol
(6)  G-S(liq) free energy of system                     -454.120059006 a.u.
 SCF   energy in the final basis set =     -454.1200590063
 Total energy in the final basis set =     -454.1200590063
 
 --------------------------------------------------------------
 
                    Orbital Energies (a.u.)
 --------------------------------------------------------------
 
 Alpha MOs
 -- Occupied --
-19.4078 -19.4030 -19.3849 -19.3700 -19.3573 -10.5157 -10.5105  -1.2838
 -1.2586  -1.1894  -1.1675  -1.1622  -0.8447  -0.7285  -0.6668  -0.6505
 -0.6368  -0.6216  -0.6106  -0.5747  -0.5564  -0.5338  -0.5200  -0.4598
 -0.4578  -0.4454  -0.4437  -0.4008
 -- Virtual --
  0.0098   0.0317   0.0405   0.0623   0.0812   0.0858   0.0926   0.1133
  0.1311   0.1374   0.1499   0.1643   0.1810   0.2034   0.2154   0.2207
  0.2333   0.2433   0.2529   0.2607   0.2725   0.2770   0.3025   0.3075
  0.3113   0.3226   0.3286   0.3340   0.3434   0.3544   0.3595   0.3733
  0.4019   0.4139   0.4156   0.4277   0.4600   0.4872   0.4955   0.5395
  0.5908   0.6006   0.6069   0.6342   0.6598   0.6709   0.6882   0.7129
  0.7333   0.7476   0.7588   0.8014   0.8265   0.8309   0.8532   0.8784
  0.8857   0.9157   0.9512   0.9969   1.0239   1.0483   1.0911   1.0926
  1.0996   1.1024   1.1163   1.1314   1.1377   1.1546   1.1661   1.1752
  1.1941   1.2031   1.2386   1.2761   1.2843   1.3041   1.3663   1.3912
  1.4340   1.4837   1.5188   1.5511   1.5641   1.5951   1.6125   1.6623
  1.6646   1.6780   1.7458   1.7627   1.7820   1.8153   1.8302   1.8751
  1.8835   1.9636   1.9748   2.0294   2.0588   2.0901   2.1904   2.1966
  2.3073   2.3326   2.3638   2.4328   2.4490   2.4710   2.4969   2.5769
  2.6147   2.6464   2.6717   2.6955   2.7504   2.8170   2.8261   2.8528
  2.8792   2.8967   2.9489   3.0805   3.0955   3.1848   3.2305   3.2868
  3.2915   3.3255   3.3374   3.4024   3.4223   3.4771   3.4785   3.5599
  3.5887   3.6043   3.6324   3.6521   3.7240   3.7535   3.7671   3.7952
  3.8341   3.8664   3.9125   3.9571   4.0048   4.0303   4.0635   4.1391
  4.1946   4.2250   4.2647   4.3395   4.4142   4.7507   5.0413   5.0425
  5.0660   5.1019   5.1101   5.1194   5.1410   5.1550   5.1621   5.1737
  5.1869   5.2067   5.2075   5.2193   5.2321   5.2427   5.2562   5.2771
  5.3180   5.3262   5.3510   5.4081   5.4158   5.4735   5.4991   5.5657
  5.5737   5.5804   5.5832   5.5995   5.6138   5.6869   5.7246   5.8387
  5.8715   5.9411   6.0582   6.1079   6.1892   6.3376   6.5014   6.5996
  6.6737   6.8228   6.8528   6.8576   6.8903   6.9194   6.9633   6.9738
  6.9956   7.0301   7.0875   7.1088   7.1627   7.1874   7.2276   7.2330
  7.2739   7.3042   7.3267   7.3850   7.4076   7.4293   7.4770   7.5297
  7.5479   7.6083   7.6731   7.7326   7.7906   7.8608   7.8877   7.9269
  8.0443  25.0831  25.2040  50.4494  50.5594  50.6511  50.6744  50.7612
 
 Beta MOs
 -- Occupied --
-19.4030 -19.3886 -19.3746 -19.3701 -19.3571 -10.5152 -10.5111  -1.2802
 -1.2536  -1.1873  -1.1560  -1.1194  -0.8405  -0.7262  -0.6556  -0.6440
 -0.6331  -0.6187  -0.5932  -0.5626  -0.5493  -0.5207  -0.4592  -0.4586
 -0.4393  -0.4312  -0.3995
 -- Virtual --
 -0.0930   0.0116   0.0326   0.0414   0.0628   0.0816   0.0870   0.0928
  0.1139   0.1314   0.1380   0.1508   0.1651   0.1829   0.2045   0.2171
  0.2225   0.2337   0.2442   0.2538   0.2620   0.2729   0.2794   0.3034
  0.3086   0.3132   0.3245   0.3310   0.3352   0.3439   0.3558   0.3624
  0.3750   0.4033   0.4167   0.4198   0.4290   0.4645   0.4894   0.4981
  0.5419   0.5943   0.6012   0.6073   0.6366   0.6614   0.6734   0.6883
  0.7160   0.7337   0.7487   0.7601   0.8031   0.8286   0.8350   0.8547
  0.8795   0.8873   0.9176   0.9546   0.9984   1.0297   1.0508   1.0923
  1.1003   1.1027   1.1079   1.1185   1.1341   1.1479   1.1621   1.1700
  1.1813   1.1947   1.2097   1.2480   1.2775   1.2917   1.3114   1.3715
  1.3988   1.4381   1.4884   1.5283   1.5574   1.5677   1.5961   1.6160
  1.6654   1.6731   1.6854   1.7505   1.7693   1.7945   1.8273   1.8329
  1.8805   1.9062   1.9683   1.9798   2.0309   2.0631   2.0973   2.1973
  2.2107   2.3100   2.3357   2.3702   2.4350   2.4622   2.4751   2.5001
  2.5796   2.6165   2.6526   2.6725   2.6964   2.7573   2.8171   2.8270
  2.8519   2.8847   2.8991   2.9527   3.0810   3.0958   3.1854   3.2311
  3.2870   3.2921   3.3258   3.3378   3.4046   3.4223   3.4783   3.4789
  3.5605   3.5902   3.6057   3.6334   3.6539   3.7251   3.7614   3.7733
  3.7967   3.8394   3.8655   3.9159   3.9578   4.0060   4.0311   4.0663
  4.1390   4.1997   4.2260   4.2705   4.3423   4.4157   4.7538   5.0710
  5.0879   5.1085   5.1141   5.1196   5.1343   5.1503   5.1596   5.1814
  5.1874   5.2026   5.2159   5.2291   5.2362   5.2544   5.2709   5.2803
  5.2976   5.3316   5.3344   5.3648   5.4168   5.4394   5.4770   5.5288
  5.5765   5.5857   5.5888   5.6007   5.6021   5.6344   5.6918   5.7395
  5.8441   5.8777   5.9479   6.0601   6.1148   6.1907   6.3443   6.5025
  6.6155   6.6777   6.8275   6.8816   6.8909   6.8970   6.9566   6.9936
  6.9985   7.0313   7.0472   7.0931   7.1535   7.1871   7.1969   7.2307
  7.2649   7.2759   7.3135   7.3509   7.3930   7.4335   7.4499   7.5049
  7.5426   7.5531   7.6306   7.6885   7.7417   7.8009   7.8647   7.8960
  7.9357   8.0511  25.0834  25.2040  50.4629  50.5606  50.6511  50.6818
 50.7613
 --------------------------------------------------------------
 
          Ground-State Mulliken Net Atomic Charges

     Atom                 Charge (a.u.)    Spin (a.u.)
  --------------------------------------------------------
      1 C                     0.323200       0.017372
      2 O                    -0.271634       0.004555
      3 O                    -0.438022       0.006915
      4 C                     0.354513      -0.024674
      5 O                    -0.367930       0.313790
      6 O                    -0.407350       0.010848
      7 H                     0.367462      -0.001049
      8 H                     0.416349      -0.009022
      9 O                    -0.335937       0.695399
     10 H                     0.359349      -0.014134
  --------------------------------------------------------
  Sum of atomic charges =     0.000000
  Sum of spin   charges =     1.000000

 -----------------------------------------------------------------
                    Cartesian Multipole Moments
 -----------------------------------------------------------------
    Charge (ESU x 10^10)
                 0.0000
    Dipole Moment (Debye)
         X      -0.2075      Y       1.2997      Z      -2.5332
       Tot       2.8547
    Quadrupole Moments (Debye-Ang)
        XX     -32.5274     XY      13.1658     YY     -44.2073
        XZ       1.5539     YZ       3.5781     ZZ     -37.5543
    Octopole Moments (Debye-Ang^2)
       XXX     -59.4306    XXY      37.6549    XYY     -29.0087
       YYY      33.7064    XXZ     -23.3395    XYZ       0.5149
       YYZ      -5.7920    XZZ     -29.1164    YZZ       8.3232
       ZZZ     -10.4058
    Hexadecapole Moments (Debye-Ang^3)
      XXXX    -672.6140   XXXY      99.6731   XXYY    -148.6655
      XYYY      -3.3543   YYYY    -235.1722   XXXZ     -17.3743
      XXYZ      17.9822   XYYZ      -8.5814   YYYZ      28.9851
      XXZZ    -127.2436   XYZZ      -4.3268   YYZZ     -47.3664
      XZZZ      -9.8713   YZZZ      27.7630   ZZZZ     -49.7171
 -----------------------------------------------------------------
 Calculating analytic gradient of the SCF energy
 Gradient of CDS energy
            1           2           3           4           5           6
    1   0.0025711  -0.0007563  -0.0007966  -0.0023592   0.0008885   0.0005877
    2   0.0019343  -0.0028776   0.0008830  -0.0007538  -0.0009826   0.0016678
    3  -0.0004097   0.0008243  -0.0003254   0.0000926   0.0004342  -0.0004280
            7           8           9          10
    1   0.0003125  -0.0001614   0.0001488  -0.0004352
    2   0.0002834  -0.0002156   0.0001370  -0.0000760
    3  -0.0000645   0.0001240   0.0000642  -0.0003117
 Gradient of SCF Energy
            1           2           3           4           5           6
    1   0.0023724  -0.0198507   0.0000690  -0.0023325  -0.0013667   0.0064663
    2   0.0005848   0.0009428  -0.0081802  -0.0007036   0.0066399  -0.0038673
    3  -0.0005398  -0.0012489   0.0028959  -0.0029934   0.0015815   0.0038430
            7           8           9          10
    1   0.0186867  -0.0017611  -0.0003552  -0.0019282
    2   0.0048118  -0.0027432   0.0055795  -0.0030644
    3  -0.0004598  -0.0040774   0.0189623  -0.0179634
 Max gradient component =       1.985E-02
 RMS gradient           =       7.614E-03
 Computing fast CPCM-SWIG gradient
 Updating gradient with PCM contributions...
 -- total gradient after adding PCM contribution --
---------------------------------------------------
  Atom         X              Y              Z     
---------------------------------------------------
   1       0.001423      -0.000326       0.000149
   2      -0.000287      -0.000116      -0.000016
   3      -0.000770       0.000594      -0.000182
   4      -0.000541       0.000004      -0.000040
   5       0.000072      -0.000079       0.000066
   6       0.000153       0.000028       0.000140
   7      -0.000031      -0.000093       0.000017
   8      -0.000111      -0.000021      -0.000232
   9       0.000116       0.000052       0.000065
  10      -0.000023      -0.000042       0.000031
---------------------------------------------------
 Number of fixed atoms: 0
 Gradient time:  CPU 71.83 s  wall 10.58 s
 ----------------------------------------------------------------
             Standard Nuclear Orientation (Angstroms)
    I     Atom           X                Y                Z
 ----------------------------------------------------------------
    1      C       1.9133250109    -0.0455728881     0.1059143589
    2      O       2.1999161556     1.1921835170    -0.2511782905
    3      O       2.6989114745    -0.8987659151     0.4209795033
    4      C       0.3990458602    -0.3105716894     0.0814455598
    5      O      -0.3754775208     0.6131005689    -0.2289047623
    6      O       0.0248927904    -1.4779704877     0.3854210048
    7      H       3.1627816917     1.3211295086    -0.2234604547
    8      H      -1.1648396957    -1.2929633555     0.2541182473
    9      O      -2.1479405098    -0.6092700208     0.0637109205
   10      H      -2.3063839569    -0.5941041378    -0.8958608871
 ----------------------------------------------------------------
 Nuclear Repulsion Energy =         308.01363133 hartrees
 There are       28 alpha and       27 beta electrons
 Discretize the solute cavity surface with Lebedev spheres
	Using 110 Lebedev grid points for each H atom
	Using 194 Lebedev grid points for other atoms
	Atomic van der Waals radii will be scaled by 1.20
 Remove points where switching function is < 1.0e-08
 Keep 932 surface tesserae and discard 756 interior tesserae
 Molecular Surface Area = 112.011 Angst**2

                       Distance Matrix (Angstroms)
             C (  1)   O (  2)   O (  3)   C (  4)   O (  5)   O (  6)
   O (  2)  1.319731
   O (  3)  1.201811  2.252301
   C (  4)  1.537486  2.368976  2.398049
   O (  5)  2.405114  2.639789  3.487113  1.244739
   O (  6)  2.386643  3.502243  2.736260  1.263017  2.215913
   H (  7)  1.880826  0.971857  2.357629  3.223919  3.608409  4.248770
   H (  8)  3.324612  4.213414  3.887391  1.854898  2.118840  1.211169
   O (  9)  4.100416  4.716805  4.868616  2.564503  2.172887  2.362063
   H ( 10)  4.371543  4.890110  5.184580  2.890479  2.372883  2.803169
             H (  7)   H (  8)   O (  9)
   H (  8)  5.078373
   O (  9)  5.657975  1.212509
   H ( 10)  5.833697  1.764647  0.972683
 
 Requested basis set is 6-311++G(2df,2p)
 There are 74 shells and 268 basis functions
 A cutoff of  1.0D-12 yielded   2489 shell pairs
 There are     32968 function pairs (     41975 Cartesian)
 Smallest overlap matrix eigenvalue = 2.77E-05
 Guess MOs from SCF MO coefficient file

 -----------------------------------------------------------------------
  General SCF calculation program by
  Eric Jon Sundstrom, Paul Horn, Yuezhi Mao, Dmitri Zuev, Alec White,
  David Stuck, Shaama M.S., Shane Yost, Joonho Lee, David Small,
  Daniel Levine, Susi Lehtola, Hugh Burton, Evgeny Epifanovsky,
  Bang C. Huynh
 -----------------------------------------------------------------------
 Exchange:     0.1500 Hartree-Fock + 1.0000 wB97M-V + LR-HF
 Correlation:  1.0000 wB97M-V
 Using SG-2 standard quadrature grid
 Nonlocal Correlation:  VV10 with C = 0.0100 and b = 6.00 and scale = 1.00000
 Grid used for NLC:  SG-1 standard quadrature
 
 Citation of the SMD model:
 Marenich, A.V.; Cramer, C.J.; Truhlar, D.G.
 J. Phys. Chem. B 2009, 113, 6378-6396.
 iSolventCode=           1
 Solvent: water                                                           
 
 vradii
            1           2           3           4           5           6
    1   1.8500000   1.5200000   1.5200000   1.8500000   1.5200000   1.5200000
            7           8           9          10
    1   1.2000000   1.2000000   1.5200000   1.2000000
 -------------------------------------------------------
 OpenMP BLAS3 based DFT computing Module                
 Release: version 1.0, May 2013, Q-Chem Inc. Pittsburgh 
 -------------------------------------------------------
 A unrestricted SCF calculation will be
 performed using Roothaan-Hall, DIIS, GDM
 SCF converges when RMS gradient is below 1.0e-07
 ---------------------------------------
  Cycle       Energy         DIIS error
 ---------------------------------------
    1    -454.0923517397      3.11e-04  Roothaan Step
 ---------------------------------------
  Cycle       Energy         DIIS error
 ---------------------------------------
    1    -454.1229550306      3.70e-04  
    2    -454.1263555218      3.62e-04  Done DIIS. Switching to GDM
 ---------------------------------------
  Cycle       Energy        RMS Gradient
 ---------------------------------------
    1    -454.1263555218      1.62e-02   Normal BFGS step
    2    -454.1246079353      2.55e-02  Line search: overstep
    3    -454.1292834879      4.04e-03   Normal BFGS step
    4    -454.1294189534      1.19e-03   Normal BFGS step
    5    -454.1294439759      2.65e-03   Normal BFGS step
    6    -454.1294558651      9.17e-04   Normal BFGS step
    7    -454.1294596447      7.48e-04   Normal BFGS step
    8    -454.1294637027      2.57e-04   Normal BFGS step
    9    -454.1294649967      1.76e-04   Normal BFGS step
   10    -454.1294651131      4.60e-05   Normal BFGS step
   11    -454.1294651490      3.03e-05   Normal BFGS step
   12    -454.1294651541      2.07e-05   Normal BFGS step
   13    -454.1294651556      1.60e-05   Normal BFGS step
   14    -454.1294651564      1.06e-05   Normal BFGS step
   15    -454.1294651568      4.66e-06   Normal BFGS step
   16    -454.1294651569      1.91e-06   Normal BFGS step
   17    -454.1294651569      1.54e-06   Normal BFGS step
   18    -454.1294651569      7.56e-07   Normal BFGS step
   19    -454.1294651569      1.65e-07   Normal BFGS step
   20    -454.1294651569      8.28e-08  Convergence criterion met
 ---------------------------------------
 SCF time:   CPU 582.83s  wall 74.00s 
<S^2> =          0.756429693
(3)  G-ENP(liq) elect-nuc-pol free energy of system     -454.129465157 a.u.
(4)  G-CDS(liq) cavity-dispersion-solvent structure 
     free energy                                                5.9024 kcal/mol
(6)  G-S(liq) free energy of system                     -454.120059120 a.u.
 SCF   energy in the final basis set =     -454.1200591201
 Total energy in the final basis set =     -454.1200591201
 
 --------------------------------------------------------------
 
                    Orbital Energies (a.u.)
 --------------------------------------------------------------
 
 Alpha MOs
 -- Occupied --
-19.4080 -19.4030 -19.3849 -19.3701 -19.3573 -10.5158 -10.5106  -1.2837
 -1.2584  -1.1889  -1.1675  -1.1623  -0.8452  -0.7286  -0.6669  -0.6505
 -0.6367  -0.6216  -0.6105  -0.5746  -0.5562  -0.5338  -0.5201  -0.4596
 -0.4577  -0.4454  -0.4438  -0.4009
 -- Virtual --
  0.0094   0.0317   0.0405   0.0623   0.0812   0.0858   0.0926   0.1133
  0.1311   0.1374   0.1499   0.1643   0.1810   0.2034   0.2154   0.2207
  0.2333   0.2433   0.2528   0.2607   0.2725   0.2770   0.3026   0.3075
  0.3113   0.3227   0.3286   0.3339   0.3434   0.3544   0.3596   0.3733
  0.4020   0.4142   0.4153   0.4277   0.4597   0.4871   0.4955   0.5396
  0.5908   0.6007   0.6068   0.6342   0.6597   0.6708   0.6886   0.7125
  0.7330   0.7474   0.7588   0.8014   0.8264   0.8307   0.8534   0.8783
  0.8856   0.9156   0.9512   0.9968   1.0239   1.0483   1.0913   1.0926
  1.0997   1.1024   1.1164   1.1315   1.1376   1.1547   1.1663   1.1752
  1.1941   1.2030   1.2385   1.2762   1.2843   1.3042   1.3663   1.3912
  1.4340   1.4839   1.5188   1.5512   1.5642   1.5955   1.6125   1.6623
  1.6648   1.6781   1.7457   1.7624   1.7821   1.8153   1.8300   1.8748
  1.8836   1.9634   1.9747   2.0293   2.0587   2.0901   2.1905   2.1968
  2.3073   2.3323   2.3638   2.4327   2.4489   2.4710   2.4968   2.5767
  2.6145   2.6465   2.6721   2.6947   2.7506   2.8165   2.8259   2.8526
  2.8797   2.8980   2.9482   3.0802   3.0950   3.1843   3.2313   3.2870
  3.2916   3.3256   3.3369   3.4018   3.4231   3.4767   3.4775   3.5600
  3.5889   3.6043   3.6325   3.6522   3.7243   3.7535   3.7671   3.7953
  3.8342   3.8664   3.9124   3.9580   4.0046   4.0339   4.0637   4.1391
  4.1948   4.2248   4.2645   4.3410   4.4135   4.7528   5.0412   5.0424
  5.0659   5.1019   5.1101   5.1194   5.1411   5.1550   5.1621   5.1736
  5.1866   5.2064   5.2071   5.2192   5.2321   5.2424   5.2561   5.2772
  5.3178   5.3260   5.3508   5.4076   5.4156   5.4732   5.4990   5.5657
  5.5734   5.5796   5.5832   5.6001   5.6141   5.6868   5.7248   5.8388
  5.8719   5.9403   6.0558   6.1068   6.1880   6.3376   6.4971   6.5995
  6.6708   6.8229   6.8524   6.8575   6.8903   6.9187   6.9631   6.9736
  6.9953   7.0300   7.0866   7.1087   7.1626   7.1873   7.2276   7.2330
  7.2737   7.3045   7.3264   7.3846   7.4075   7.4290   7.4770   7.5299
  7.5462   7.6085   7.6735   7.7316   7.7905   7.8605   7.8882   7.9266
  8.0441  25.0815  25.2053  50.4492  50.5589  50.6505  50.6745  50.7598
 
 Beta MOs
 -- Occupied --
-19.4029 -19.3887 -19.3746 -19.3702 -19.3571 -10.5153 -10.5112  -1.2800
 -1.2535  -1.1867  -1.1560  -1.1194  -0.8411  -0.7263  -0.6556  -0.6440
 -0.6330  -0.6187  -0.5932  -0.5624  -0.5491  -0.5207  -0.4589  -0.4583
 -0.4393  -0.4313  -0.3997
 -- Virtual --
 -0.0930   0.0111   0.0326   0.0415   0.0628   0.0817   0.0870   0.0928
  0.1139   0.1314   0.1381   0.1509   0.1651   0.1829   0.2045   0.2171
  0.2225   0.2337   0.2442   0.2538   0.2620   0.2729   0.2794   0.3034
  0.3086   0.3132   0.3246   0.3311   0.3351   0.3439   0.3558   0.3624
  0.3750   0.4035   0.4166   0.4200   0.4290   0.4642   0.4893   0.4981
  0.5420   0.5943   0.6013   0.6072   0.6366   0.6613   0.6734   0.6887
  0.7156   0.7335   0.7485   0.7601   0.8031   0.8285   0.8349   0.8548
  0.8793   0.8872   0.9175   0.9546   0.9984   1.0297   1.0508   1.0925
  1.1004   1.1027   1.1080   1.1186   1.1341   1.1480   1.1622   1.1701
  1.1812   1.1947   1.2096   1.2479   1.2776   1.2918   1.3115   1.3716
  1.3988   1.4381   1.4886   1.5283   1.5574   1.5678   1.5965   1.6160
  1.6654   1.6732   1.6855   1.7504   1.7690   1.7947   1.8271   1.8326
  1.8802   1.9062   1.9681   1.9797   2.0307   2.0630   2.0973   2.1976
  2.2107   2.3100   2.3353   2.3703   2.4350   2.4621   2.4751   2.5000
  2.5794   2.6164   2.6527   2.6729   2.6956   2.7575   2.8167   2.8268
  2.8518   2.8851   2.9003   2.9520   3.0807   3.0953   3.1849   3.2320
  3.2873   3.2922   3.3259   3.3373   3.4040   3.4232   3.4778   3.4781
  3.5606   3.5905   3.6057   3.6336   3.6540   3.7253   3.7614   3.7732
  3.7968   3.8394   3.8655   3.9159   3.9587   4.0059   4.0346   4.0665
  4.1390   4.1998   4.2258   4.2703   4.3438   4.4149   4.7559   5.0709
  5.0878   5.1085   5.1142   5.1197   5.1342   5.1504   5.1596   5.1813
  5.1875   5.2019   5.2156   5.2290   5.2362   5.2544   5.2709   5.2802
  5.2976   5.3313   5.3343   5.3646   5.4161   5.4394   5.4767   5.5286
  5.5762   5.5853   5.5886   5.6012   5.6023   5.6345   5.6918   5.7397
  5.8443   5.8781   5.9471   6.0577   6.1138   6.1895   6.3443   6.4983
  6.6154   6.6747   6.8275   6.8809   6.8909   6.8969   6.9562   6.9931
  6.9985   7.0313   7.0471   7.0920   7.1535   7.1870   7.1968   7.2308
  7.2649   7.2757   7.3138   7.3506   7.3926   7.4333   7.4499   7.5048
  7.5425   7.5520   7.6307   7.6888   7.7406   7.8010   7.8644   7.8965
  7.9354   8.0510  25.0817  25.2053  50.4627  50.5601  50.6506  50.6819
 50.7599
 --------------------------------------------------------------
 
          Ground-State Mulliken Net Atomic Charges

     Atom                 Charge (a.u.)    Spin (a.u.)
  --------------------------------------------------------
      1 C                     0.323685       0.017237
      2 O                    -0.272233       0.004523
      3 O                    -0.439082       0.006809
      4 C                     0.354781      -0.024586
      5 O                    -0.368139       0.313249
      6 O                    -0.407234       0.010781
      7 H                     0.367673      -0.001037
      8 H                     0.416308      -0.009010
      9 O                    -0.335174       0.696176
     10 H                     0.359415      -0.014140
  --------------------------------------------------------
  Sum of atomic charges =     0.000000
  Sum of spin   charges =     1.000000

 -----------------------------------------------------------------
                    Cartesian Multipole Moments
 -----------------------------------------------------------------
    Charge (ESU x 10^10)
                 0.0000
    Dipole Moment (Debye)
         X      -0.2305      Y       1.2987      Z      -2.5344
       Tot       2.8571
    Quadrupole Moments (Debye-Ang)
        XX     -32.5579     XY      13.1798     YY     -44.2115
        XZ       1.5493     YZ       3.5801     ZZ     -37.5563
    Octopole Moments (Debye-Ang^2)
       XXX     -59.6023    XXY      37.6669    XYY     -29.0291
       YYY      33.7038    XXZ     -23.3529    XYZ       0.5188
       YYZ      -5.7928    XZZ     -29.1261    YZZ       8.3242
       ZZZ     -10.4103
    Hexadecapole Moments (Debye-Ang^3)
      XXXX    -672.6988   XXXY      99.7963   XXYY    -148.6509
      XYYY      -3.3155   YYYY    -235.2002   XXXZ     -17.4130
      XXYZ      17.9873   XYYZ      -8.5873   YYYZ      28.9932
      XXZZ    -127.2393   XYZZ      -4.3160   YYZZ     -47.3719
      XZZZ      -9.8811   YZZZ      27.7683   ZZZZ     -49.7237
 -----------------------------------------------------------------
 Calculating analytic gradient of the SCF energy
 Gradient of CDS energy
            1           2           3           4           5           6
    1   0.0025878  -0.0007644  -0.0008092  -0.0023561   0.0008888   0.0005880
    2   0.0019362  -0.0028909   0.0008939  -0.0007534  -0.0009824   0.0016677
    3  -0.0004094   0.0008281  -0.0003294   0.0000926   0.0004342  -0.0004280
            7           8           9          10
    1   0.0003129  -0.0001614   0.0001488  -0.0004351
    2   0.0002833  -0.0002156   0.0001371  -0.0000760
    3  -0.0000645   0.0001240   0.0000642  -0.0003117
 Gradient of SCF Energy
            1           2           3           4           5           6
    1  -0.0003866  -0.0192633   0.0015197  -0.0016695  -0.0013430   0.0065270
    2   0.0011802   0.0011210  -0.0092666  -0.0006508   0.0066394  -0.0038326
    3  -0.0008614  -0.0012789   0.0033105  -0.0029968   0.0015909   0.0038432
            7           8           9          10
    1   0.0186942  -0.0018043  -0.0003462  -0.0019280
    2   0.0050257  -0.0027298   0.0055789  -0.0030654
    3  -0.0005228  -0.0040842   0.0189761  -0.0179766
 Max gradient component =       1.926E-02
 RMS gradient           =       7.612E-03
 Computing fast CPCM-SWIG gradient
 Updating gradient with PCM contributions...
 -- total gradient after adding PCM contribution --
---------------------------------------------------
  Atom         X              Y              Z     
---------------------------------------------------
   1      -0.001364       0.000305      -0.000188
   2       0.000257       0.000078      -0.000053
   3       0.000703      -0.000522       0.000243
   4       0.000128       0.000058      -0.000037
   5       0.000098      -0.000098       0.000079
   6       0.000195       0.000069       0.000137
   7       0.000014       0.000109      -0.000041
   8      -0.000148       0.000000      -0.000239
   9       0.000136       0.000044       0.000049
  10      -0.000018      -0.000043       0.000050
---------------------------------------------------
 Number of fixed atoms: 0
 Gradient time:  CPU 72.34 s  wall 10.66 s
 ----------------------------------------------------------------
             Standard Nuclear Orientation (Angstroms)
    I     Atom           X                Y                Z
 ----------------------------------------------------------------
    1      C       1.9143250109    -0.0445728881     0.1059143589
    2      O       2.1999161556     1.1921835170    -0.2511782905
    3      O       2.6989114745    -0.8987659151     0.4209795033
    4      C       0.3990458602    -0.3105716894     0.0814455598
    5      O      -0.3754775208     0.6131005689    -0.2289047623
    6      O       0.0248927904    -1.4779704877     0.3854210048
    7      H       3.1627816917     1.3211295086    -0.2234604547
    8      H      -1.1648396957    -1.2929633555     0.2541182473
    9      O      -2.1479405098    -0.6092700208     0.0637109205
   10      H      -2.3063839569    -0.5941041378    -0.8958608871
 ----------------------------------------------------------------
 Nuclear Repulsion Energy =         308.00997534 hartrees
 There are       28 alpha and       27 beta electrons
 Discretize the solute cavity surface with Lebedev spheres
	Using 110 Lebedev grid points for each H atom
	Using 194 Lebedev grid points for other atoms
	Atomic van der Waals radii will be scaled by 1.20
 Remove points where switching function is < 1.0e-08
 Keep 932 surface tesserae and discard 756 interior tesserae
 Molecular Surface Area = 112.010 Angst**2

                       Distance Matrix (Angstroms)
             C (  1)   O (  2)   O (  3)   C (  4)   O (  5)   O (  6)
   O (  2)  1.318576
   O (  3)  1.201868  2.252301
   C (  4)  1.538644  2.368976  2.398049
   O (  5)  2.405792  2.639789  3.487113  1.244739
   O (  6)  2.388034  3.502243  2.736260  1.263017  2.215913
   H (  7)  1.879435  0.971857  2.357629  3.223919  3.608409  4.248770
   H (  8)  3.325913  4.213414  3.887391  1.854898  2.118840  1.211169
   O (  9)  4.101544  4.716805  4.868616  2.564503  2.172887  2.362063
   H ( 10)  4.372633  4.890110  5.184580  2.890479  2.372883  2.803169
             H (  7)   H (  8)   O (  9)
   H (  8)  5.078373
   O (  9)  5.657975  1.212509
   H ( 10)  5.833697  1.764647  0.972683
 
 Requested basis set is 6-311++G(2df,2p)
 There are 74 shells and 268 basis functions
 A cutoff of  1.0D-12 yielded   2489 shell pairs
 There are     32968 function pairs (     41975 Cartesian)
 Smallest overlap matrix eigenvalue = 2.78E-05
 Guess MOs from SCF MO coefficient file

 -----------------------------------------------------------------------
  General SCF calculation program by
  Eric Jon Sundstrom, Paul Horn, Yuezhi Mao, Dmitri Zuev, Alec White,
  David Stuck, Shaama M.S., Shane Yost, Joonho Lee, David Small,
  Daniel Levine, Susi Lehtola, Hugh Burton, Evgeny Epifanovsky,
  Bang C. Huynh
 -----------------------------------------------------------------------
 Exchange:     0.1500 Hartree-Fock + 1.0000 wB97M-V + LR-HF
 Correlation:  1.0000 wB97M-V
 Using SG-2 standard quadrature grid
 Nonlocal Correlation:  VV10 with C = 0.0100 and b = 6.00 and scale = 1.00000
 Grid used for NLC:  SG-1 standard quadrature
 
 Citation of the SMD model:
 Marenich, A.V.; Cramer, C.J.; Truhlar, D.G.
 J. Phys. Chem. B 2009, 113, 6378-6396.
 iSolventCode=           1
 Solvent: water                                                           
 
 vradii
            1           2           3           4           5           6
    1   1.8500000   1.5200000   1.5200000   1.8500000   1.5200000   1.5200000
            7           8           9          10
    1   1.2000000   1.2000000   1.5200000   1.2000000
 -------------------------------------------------------
 OpenMP BLAS3 based DFT computing Module                
 Release: version 1.0, May 2013, Q-Chem Inc. Pittsburgh 
 -------------------------------------------------------
 A unrestricted SCF calculation will be
 performed using Roothaan-Hall, DIIS, GDM
 SCF converges when RMS gradient is below 1.0e-07
 ---------------------------------------
  Cycle       Energy         DIIS error
 ---------------------------------------
    1    -454.0923107526      3.11e-04  Roothaan Step
 ---------------------------------------
  Cycle       Energy         DIIS error
 ---------------------------------------
    1    -454.1229789438      3.69e-04  
    2    -454.1263987948      3.60e-04  Done DIIS. Switching to GDM
 ---------------------------------------
  Cycle       Energy        RMS Gradient
 ---------------------------------------
    1    -454.1263987948      1.60e-02   Normal BFGS step
    2    -454.1246690702      2.56e-02  Line search: overstep
    3    -454.1292938897      3.92e-03   Normal BFGS step
    4    -454.1294291914      1.22e-03   Normal BFGS step
    5    -454.1294534020      2.60e-03   Normal BFGS step
    6    -454.1294649560      8.71e-04   Normal BFGS step
    7    -454.1294684211      7.33e-04   Normal BFGS step
    8    -454.1294721468      2.95e-04   Normal BFGS step
    9    -454.1294734489      1.74e-04   Normal BFGS step
   10    -454.1294735646      4.68e-05   Normal BFGS step
   11    -454.1294736000      3.01e-05   Normal BFGS step
   12    -454.1294736051      2.02e-05   Normal BFGS step
   13    -454.1294736064      1.55e-05   Normal BFGS step
   14    -454.1294736072      1.04e-05   Normal BFGS step
   15    -454.1294736076      4.59e-06   Normal BFGS step
   16    -454.1294736077      1.81e-06   Normal BFGS step
   17    -454.1294736077      1.48e-06   Normal BFGS step
   18    -454.1294736077      7.39e-07   Normal BFGS step
   19    -454.1294736077      1.58e-07   Normal BFGS step
   20    -454.1294736077      8.11e-08  Convergence criterion met
 ---------------------------------------
 SCF time:   CPU 584.37s  wall 74.00s 
<S^2> =          0.756433480
(3)  G-ENP(liq) elect-nuc-pol free energy of system     -454.129473608 a.u.
(4)  G-CDS(liq) cavity-dispersion-solvent structure 
     free energy                                                5.9077 kcal/mol
(6)  G-S(liq) free energy of system                     -454.120059065 a.u.
 SCF   energy in the final basis set =     -454.1200590652
 Total energy in the final basis set =     -454.1200590652
 
 --------------------------------------------------------------
 
                    Orbital Energies (a.u.)
 --------------------------------------------------------------
 
 Alpha MOs
 -- Occupied --
-19.4079 -19.4032 -19.3849 -19.3701 -19.3572 -10.5158 -10.5106  -1.2838
 -1.2586  -1.1891  -1.1675  -1.1622  -0.8450  -0.7287  -0.6669  -0.6506
 -0.6367  -0.6216  -0.6106  -0.5747  -0.5563  -0.5337  -0.5200  -0.4597
 -0.4577  -0.4454  -0.4438  -0.4008
 -- Virtual --
  0.0096   0.0317   0.0405   0.0623   0.0812   0.0858   0.0926   0.1133
  0.1311   0.1374   0.1500   0.1642   0.1810   0.2034   0.2154   0.2207
  0.2333   0.2433   0.2528   0.2607   0.2725   0.2770   0.3026   0.3075
  0.3113   0.3226   0.3286   0.3340   0.3433   0.3544   0.3596   0.3734
  0.4019   0.4140   0.4155   0.4277   0.4599   0.4872   0.4955   0.5395
  0.5908   0.6006   0.6068   0.6343   0.6597   0.6708   0.6883   0.7127
  0.7331   0.7474   0.7588   0.8015   0.8263   0.8306   0.8535   0.8783
  0.8857   0.9154   0.9512   0.9968   1.0239   1.0484   1.0912   1.0926
  1.0996   1.1023   1.1164   1.1316   1.1376   1.1545   1.1662   1.1752
  1.1941   1.2031   1.2386   1.2762   1.2844   1.3042   1.3663   1.3912
  1.4338   1.4837   1.5188   1.5510   1.5641   1.5952   1.6125   1.6622
  1.6646   1.6780   1.7457   1.7626   1.7821   1.8152   1.8300   1.8749
  1.8835   1.9636   1.9748   2.0292   2.0585   2.0901   2.1904   2.1967
  2.3072   2.3328   2.3639   2.4329   2.4489   2.4710   2.4969   2.5767
  2.6146   2.6465   2.6718   2.6949   2.7507   2.8167   2.8260   2.8527
  2.8794   2.8980   2.9484   3.0803   3.0954   3.1846   3.2308   3.2871
  3.2916   3.3257   3.3373   3.4023   3.4226   3.4767   3.4780   3.5601
  3.5889   3.6044   3.6319   3.6521   3.7242   3.7534   3.7670   3.7952
  3.8341   3.8664   3.9125   3.9581   4.0045   4.0317   4.0637   4.1388
  4.1947   4.2247   4.2646   4.3400   4.4139   4.7515   5.0412   5.0425
  5.0660   5.1018   5.1101   5.1194   5.1410   5.1550   5.1621   5.1737
  5.1868   5.2065   5.2073   5.2192   5.2320   5.2425   5.2562   5.2771
  5.3179   5.3261   5.3509   5.4079   5.4155   5.4733   5.4990   5.5658
  5.5737   5.5799   5.5832   5.5996   5.6138   5.6870   5.7248   5.8390
  5.8716   5.9405   6.0581   6.1077   6.1887   6.3376   6.4978   6.5996
  6.6725   6.8231   6.8525   6.8575   6.8903   6.9191   6.9632   6.9737
  6.9954   7.0300   7.0860   7.1086   7.1627   7.1873   7.2277   7.2330
  7.2738   7.3044   7.3265   7.3853   7.4075   7.4292   7.4769   7.5295
  7.5472   7.6083   7.6734   7.7322   7.7907   7.8605   7.8881   7.9268
  8.0443  25.0824  25.2047  50.4493  50.5595  50.6505  50.6745  50.7597
 
 Beta MOs
 -- Occupied --
-19.4032 -19.3886 -19.3746 -19.3701 -19.3569 -10.5153 -10.5112  -1.2802
 -1.2536  -1.1868  -1.1560  -1.1194  -0.8408  -0.7264  -0.6556  -0.6441
 -0.6330  -0.6187  -0.5932  -0.5625  -0.5492  -0.5206  -0.4590  -0.4584
 -0.4393  -0.4313  -0.3996
 -- Virtual --
 -0.0930   0.0114   0.0326   0.0414   0.0628   0.0817   0.0870   0.0928
  0.1139   0.1314   0.1381   0.1509   0.1650   0.1829   0.2044   0.2171
  0.2225   0.2337   0.2442   0.2538   0.2620   0.2729   0.2794   0.3034
  0.3086   0.3133   0.3246   0.3310   0.3353   0.3439   0.3558   0.3624
  0.3751   0.4034   0.4168   0.4198   0.4290   0.4644   0.4893   0.4981
  0.5419   0.5943   0.6012   0.6072   0.6367   0.6613   0.6734   0.6884
  0.7158   0.7336   0.7485   0.7602   0.8031   0.8283   0.8349   0.8549
  0.8794   0.8873   0.9173   0.9546   0.9984   1.0297   1.0509   1.0924
  1.1003   1.1026   1.1079   1.1186   1.1342   1.1481   1.1621   1.1701
  1.1812   1.1947   1.2097   1.2480   1.2775   1.2918   1.3115   1.3715
  1.3988   1.4379   1.4884   1.5283   1.5572   1.5678   1.5962   1.6160
  1.6653   1.6731   1.6855   1.7504   1.7693   1.7946   1.8271   1.8327
  1.8803   1.9062   1.9684   1.9798   2.0307   2.0629   2.0974   2.1974
  2.2107   2.3098   2.3359   2.3703   2.4351   2.4620   2.4750   2.5002
  2.5793   2.6164   2.6527   2.6726   2.6958   2.7576   2.8168   2.8269
  2.8519   2.8849   2.9003   2.9522   3.0808   3.0957   3.1851   3.2315
  3.2873   3.2921   3.3261   3.3377   3.4045   3.4227   3.4780   3.4784
  3.5607   3.5904   3.6059   3.6330   3.6539   3.7253   3.7613   3.7733
  3.7968   3.8394   3.8655   3.9159   3.9588   4.0057   4.0325   4.0664
  4.1387   4.1998   4.2257   4.2704   4.3428   4.4153   4.7546   5.0709
  5.0878   5.1084   5.1142   5.1197   5.1342   5.1504   5.1596   5.1814
  5.1874   5.2024   5.2157   5.2291   5.2362   5.2544   5.2708   5.2803
  5.2976   5.3314   5.3344   5.3647   5.4165   5.4393   5.4767   5.5287
  5.5765   5.5855   5.5887   5.6007   5.6019   5.6344   5.6920   5.7396
  5.8444   5.8777   5.9473   6.0600   6.1146   6.1902   6.3442   6.4990
  6.6154   6.6765   6.8278   6.8811   6.8909   6.8969   6.9564   6.9933
  6.9985   7.0313   7.0471   7.0914   7.1535   7.1871   7.1968   7.2308
  7.2649   7.2758   7.3136   7.3507   7.3934   7.4335   7.4497   7.5048
  7.5423   7.5527   7.6306   7.6887   7.7412   7.8010   7.8644   7.8964
  7.9356   8.0511  25.0827  25.2047  50.4628  50.5608  50.6505  50.6819
 50.7598
 --------------------------------------------------------------
 
          Ground-State Mulliken Net Atomic Charges

     Atom                 Charge (a.u.)    Spin (a.u.)
  --------------------------------------------------------
      1 C                     0.323405       0.017324
      2 O                    -0.271022       0.004528
      3 O                    -0.439327       0.006875
      4 C                     0.354429      -0.024646
      5 O                    -0.367882       0.313653
      6 O                    -0.407346       0.010814
      7 H                     0.367705      -0.001044
      8 H                     0.416322      -0.009015
      9 O                    -0.335660       0.695648
     10 H                     0.359377      -0.014137
  --------------------------------------------------------
  Sum of atomic charges =     0.000000
  Sum of spin   charges =     1.000000

 -----------------------------------------------------------------
                    Cartesian Multipole Moments
 -----------------------------------------------------------------
    Charge (ESU x 10^10)
                 0.0000
    Dipole Moment (Debye)
         X      -0.2186      Y       1.3121      Z      -2.5370
       Tot       2.8645
    Quadrupole Moments (Debye-Ang)
        XX     -32.5527     XY      13.2018     YY     -44.2053
        XZ       1.5433     YZ       3.5792     ZZ     -37.5563
    Octopole Moments (Debye-Ang^2)
       XXX     -59.5425    XXY      37.7362    XYY     -29.0094
       YYY      33.7203    XXZ     -23.3692    XYZ       0.5172
       YYZ      -5.7959    XZZ     -29.1240    YZZ       8.3285
       ZZZ     -10.4165
    Hexadecapole Moments (Debye-Ang^3)
      XXXX    -672.8347   XXXY      99.9223   XXYY    -148.6425
      XYYY      -3.2952   YYYY    -235.1629   XXXZ     -17.4643
      XXYZ      17.9851   XYYZ      -8.5934   YYYZ      28.9865
      XXZZ    -127.2564   XYZZ      -4.3087   YYZZ     -47.3662
      XZZZ      -9.8978   YZZZ      27.7646   ZZZZ     -49.7245
 -----------------------------------------------------------------
 Calculating analytic gradient of the SCF energy
 Gradient of CDS energy
            1           2           3           4           5           6
    1   0.0025785  -0.0007536  -0.0008083  -0.0023578   0.0008882   0.0005880
    2   0.0018996  -0.0028534   0.0008955  -0.0007543  -0.0009829   0.0016677
    3  -0.0003994   0.0008180  -0.0003296   0.0000925   0.0004343  -0.0004280
            7           8           9          10
    1   0.0003127  -0.0001614   0.0001488  -0.0004352
    2   0.0002823  -0.0002156   0.0001370  -0.0000760
    3  -0.0000643   0.0001240   0.0000642  -0.0003117
 Gradient of SCF Energy
            1           2           3           4           5           6
    1   0.0006929  -0.0196836   0.0012994  -0.0020694  -0.0013033   0.0064306
    2   0.0022726   0.0005411  -0.0094586  -0.0007967   0.0066346  -0.0038765
    3  -0.0010289  -0.0011616   0.0033224  -0.0030228   0.0015997   0.0038539
            7           8           9          10
    1   0.0186888  -0.0017680  -0.0003600  -0.0019273
    2   0.0049113  -0.0027440   0.0055771  -0.0030610
    3  -0.0004869  -0.0040743   0.0189693  -0.0179706
 Max gradient component =       1.968E-02
 RMS gradient           =       7.658E-03
 Computing fast CPCM-SWIG gradient
 Updating gradient with PCM contributions...
 -- total gradient after adding PCM contribution --
---------------------------------------------------
  Atom         X              Y              Z     
---------------------------------------------------
   1      -0.000283       0.001401      -0.000361
   2      -0.000125      -0.000500       0.000069
   3       0.000483      -0.000691       0.000247
   4      -0.000267      -0.000097      -0.000061
   5       0.000147      -0.000091       0.000087
   6       0.000102       0.000016       0.000151
   7      -0.000036      -0.000025      -0.000001
   8      -0.000116      -0.000022      -0.000229
   9       0.000116       0.000050       0.000060
  10      -0.000020      -0.000041       0.000037
---------------------------------------------------
 Number of fixed atoms: 0
 Gradient time:  CPU 71.69 s  wall 10.58 s
 ----------------------------------------------------------------
             Standard Nuclear Orientation (Angstroms)
    I     Atom           X                Y                Z
 ----------------------------------------------------------------
    1      C       1.9143250109    -0.0465728881     0.1059143589
    2      O       2.1999161556     1.1921835170    -0.2511782905
    3      O       2.6989114745    -0.8987659151     0.4209795033
    4      C       0.3990458602    -0.3105716894     0.0814455598
    5      O      -0.3754775208     0.6131005689    -0.2289047623
    6      O       0.0248927904    -1.4779704877     0.3854210048
    7      H       3.1627816917     1.3211295086    -0.2234604547
    8      H      -1.1648396957    -1.2929633555     0.2541182473
    9      O      -2.1479405098    -0.6092700208     0.0637109205
   10      H      -2.3063839569    -0.5941041378    -0.8958608871
 ----------------------------------------------------------------
 Nuclear Repulsion Energy =         308.01270046 hartrees
 There are       28 alpha and       27 beta electrons
 Discretize the solute cavity surface with Lebedev spheres
	Using 110 Lebedev grid points for each H atom
	Using 194 Lebedev grid points for other atoms
	Atomic van der Waals radii will be scaled by 1.20
 Remove points where switching function is < 1.0e-08
 Keep 932 surface tesserae and discard 756 interior tesserae
 Molecular Surface Area = 112.011 Angst**2

                       Distance Matrix (Angstroms)
             C (  1)   O (  2)   O (  3)   C (  4)   O (  5)   O (  6)
   O (  2)  1.320453
   O (  3)  1.200448  2.252301
   C (  4)  1.538299  2.368976  2.398049
   O (  5)  2.406339  2.639789  3.487113  1.244739
   O (  6)  2.386834  3.502243  2.736260  1.263017  2.215913
   H (  7)  1.880889  0.971857  2.357629  3.223919  3.608409  4.248770
   H (  8)  3.325163  4.213414  3.887391  1.854898  2.118840  1.211169
   O (  9)  4.101269  4.716805  4.868616  2.564503  2.172887  2.362063
   H ( 10)  4.372382  4.890110  5.184580  2.890479  2.372883  2.803169
             H (  7)   H (  8)   O (  9)
   H (  8)  5.078373
   O (  9)  5.657975  1.212509
   H ( 10)  5.833697  1.764647  0.972683
 
 Requested basis set is 6-311++G(2df,2p)
 There are 74 shells and 268 basis functions
 A cutoff of  1.0D-12 yielded   2489 shell pairs
 There are     32968 function pairs (     41975 Cartesian)
 Smallest overlap matrix eigenvalue = 2.78E-05
 Guess MOs from SCF MO coefficient file

 -----------------------------------------------------------------------
  General SCF calculation program by
  Eric Jon Sundstrom, Paul Horn, Yuezhi Mao, Dmitri Zuev, Alec White,
  David Stuck, Shaama M.S., Shane Yost, Joonho Lee, David Small,
  Daniel Levine, Susi Lehtola, Hugh Burton, Evgeny Epifanovsky,
  Bang C. Huynh
 -----------------------------------------------------------------------
 Exchange:     0.1500 Hartree-Fock + 1.0000 wB97M-V + LR-HF
 Correlation:  1.0000 wB97M-V
 Using SG-2 standard quadrature grid
 Nonlocal Correlation:  VV10 with C = 0.0100 and b = 6.00 and scale = 1.00000
 Grid used for NLC:  SG-1 standard quadrature
 
 Citation of the SMD model:
 Marenich, A.V.; Cramer, C.J.; Truhlar, D.G.
 J. Phys. Chem. B 2009, 113, 6378-6396.
 iSolventCode=           1
 Solvent: water                                                           
 
 vradii
            1           2           3           4           5           6
    1   1.8500000   1.5200000   1.5200000   1.8500000   1.5200000   1.5200000
            7           8           9          10
    1   1.2000000   1.2000000   1.5200000   1.2000000
 -------------------------------------------------------
 OpenMP BLAS3 based DFT computing Module                
 Release: version 1.0, May 2013, Q-Chem Inc. Pittsburgh 
 -------------------------------------------------------
 A unrestricted SCF calculation will be
 performed using Roothaan-Hall, DIIS, GDM
 SCF converges when RMS gradient is below 1.0e-07
 ---------------------------------------
  Cycle       Energy         DIIS error
 ---------------------------------------
    1    -454.0923275069      3.12e-04  Roothaan Step
 ---------------------------------------
  Cycle       Energy         DIIS error
 ---------------------------------------
    1    -454.1230244249      3.67e-04  
    2    -454.1264665129      3.56e-04  Done DIIS. Switching to GDM
 ---------------------------------------
  Cycle       Energy        RMS Gradient
 ---------------------------------------
    1    -454.1264665129      1.62e-02   Normal BFGS step
    2    -454.1248097762      2.47e-02  Line search: overstep
    3    -454.1292873072      3.99e-03   Normal BFGS step
    4    -454.1294211457      1.17e-03   Normal BFGS step
    5    -454.1294456157      2.62e-03   Normal BFGS step
    6    -454.1294572781      9.08e-04   Normal BFGS step
    7    -454.1294609100      7.40e-04   Normal BFGS step
    8    -454.1294648311      2.63e-04   Normal BFGS step
    9    -454.1294661046      1.73e-04   Normal BFGS step
   10    -454.1294662174      4.53e-05   Normal BFGS step
   11    -454.1294662524      3.02e-05   Normal BFGS step
   12    -454.1294662575      2.06e-05   Normal BFGS step
   13    -454.1294662589      1.58e-05   Normal BFGS step
   14    -454.1294662597      1.05e-05   Normal BFGS step
   15    -454.1294662601      4.59e-06   Normal BFGS step
   16    -454.1294662602      1.86e-06   Normal BFGS step
   17    -454.1294662602      1.51e-06   Normal BFGS step
   18    -454.1294662602      7.46e-07   Normal BFGS step
   19    -454.1294662602      1.57e-07   Normal BFGS step
   20    -454.1294662602      8.40e-08  Convergence criterion met
 ---------------------------------------
 SCF time:   CPU 584.62s  wall 74.00s 
<S^2> =          0.756430476
(3)  G-ENP(liq) elect-nuc-pol free energy of system     -454.129466260 a.u.
(4)  G-CDS(liq) cavity-dispersion-solvent structure 
     free energy                                                5.9031 kcal/mol
(6)  G-S(liq) free energy of system                     -454.120059032 a.u.
 SCF   energy in the final basis set =     -454.1200590322
 Total energy in the final basis set =     -454.1200590322
 
 --------------------------------------------------------------
 
                    Orbital Energies (a.u.)
 --------------------------------------------------------------
 
 Alpha MOs
 -- Occupied --
-19.4079 -19.4028 -19.3849 -19.3700 -19.3574 -10.5157 -10.5106  -1.2836
 -1.2584  -1.1893  -1.1675  -1.1623  -0.8449  -0.7284  -0.6668  -0.6504
 -0.6368  -0.6215  -0.6105  -0.5746  -0.5563  -0.5339  -0.5200  -0.4598
 -0.4578  -0.4454  -0.4438  -0.4009
 -- Virtual --
  0.0096   0.0317   0.0405   0.0623   0.0812   0.0858   0.0926   0.1133
  0.1311   0.1374   0.1499   0.1643   0.1809   0.2035   0.2154   0.2207
  0.2333   0.2433   0.2529   0.2607   0.2725   0.2770   0.3025   0.3075
  0.3113   0.3227   0.3287   0.3339   0.3434   0.3544   0.3595   0.3733
  0.4019   0.4140   0.4154   0.4276   0.4599   0.4871   0.4955   0.5396
  0.5908   0.6007   0.6069   0.6342   0.6597   0.6709   0.6885   0.7127
  0.7332   0.7477   0.7587   0.8014   0.8266   0.8309   0.8531   0.8784
  0.8857   0.9159   0.9512   0.9969   1.0239   1.0482   1.0912   1.0927
  1.0996   1.1024   1.1163   1.1314   1.1376   1.1547   1.1662   1.1752
  1.1941   1.2029   1.2385   1.2762   1.2842   1.3042   1.3664   1.3912
  1.4342   1.4839   1.5188   1.5513   1.5641   1.5953   1.6125   1.6623
  1.6648   1.6781   1.7458   1.7625   1.7820   1.8153   1.8302   1.8750
  1.8836   1.9633   1.9747   2.0295   2.0589   2.0901   2.1905   2.1968
  2.3075   2.3321   2.3637   2.4326   2.4490   2.4711   2.4968   2.5769
  2.6147   2.6464   2.6721   2.6953   2.7504   2.8168   2.8259   2.8527
  2.8794   2.8967   2.9488   3.0804   3.0952   3.1846   3.2310   3.2867
  3.2916   3.3253   3.3370   3.4019   3.4228   3.4771   3.4780   3.5599
  3.5887   3.6041   3.6330   3.6522   3.7241   3.7535   3.7672   3.7953
  3.8342   3.8664   3.9124   3.9570   4.0049   4.0325   4.0636   4.1394
  4.1946   4.2251   4.2646   4.3405   4.4138   4.7520   5.0412   5.0424
  5.0660   5.1019   5.1101   5.1194   5.1410   5.1550   5.1620   5.1736
  5.1867   5.2066   5.2073   5.2192   5.2321   5.2425   5.2562   5.2771
  5.3179   5.3261   5.3509   5.4078   5.4158   5.4735   5.4991   5.5657
  5.5734   5.5802   5.5832   5.6000   5.6141   5.6867   5.7247   5.8386
  5.8719   5.9409   6.0559   6.1071   6.1885   6.3377   6.5007   6.5996
  6.6720   6.8225   6.8527   6.8576   6.8903   6.9191   6.9632   6.9737
  6.9955   7.0301   7.0880   7.1090   7.1626   7.1874   7.2275   7.2331
  7.2738   7.3044   7.3266   7.3843   7.4075   7.4291   7.4772   7.5301
  7.5468   7.6085   7.6733   7.7320   7.7904   7.8608   7.8878   7.9267
  8.0441  25.0821  25.2046  50.4493  50.5587  50.6511  50.6743  50.7612
 
 Beta MOs
 -- Occupied --
-19.4027 -19.3887 -19.3746 -19.3701 -19.3572 -10.5152 -10.5111  -1.2800
 -1.2534  -1.1872  -1.1560  -1.1194  -0.8408  -0.7261  -0.6556  -0.6440
 -0.6330  -0.6187  -0.5932  -0.5625  -0.5492  -0.5208  -0.4591  -0.4585
 -0.4393  -0.4313  -0.3997
 -- Virtual --
 -0.0930   0.0113   0.0326   0.0415   0.0628   0.0816   0.0870   0.0928
  0.1139   0.1314   0.1380   0.1508   0.1651   0.1829   0.2045   0.2171
  0.2225   0.2337   0.2442   0.2538   0.2620   0.2729   0.2794   0.3034
  0.3086   0.3132   0.3246   0.3311   0.3351   0.3440   0.3558   0.3623
  0.3750   0.4034   0.4165   0.4200   0.4290   0.4644   0.4893   0.4981
  0.5420   0.5943   0.6013   0.6073   0.6366   0.6613   0.6734   0.6886
[...]
    3  -0.0004078   0.0007930  -0.0003264  -0.0002073   0.0006244  -0.0002798
            7           8           9          10
    1   0.0002990  -0.0002281   0.0002093  -0.0004333
    2   0.0002926  -0.0002498   0.0001560  -0.0000104
    3  -0.0000682   0.0002033  -0.0000005  -0.0003306
 Gradient of SCF Energy
            1           2           3           4           5           6
    1  -0.0057244  -0.0188146   0.0045561  -0.0015718  -0.0046155   0.0035863
    2   0.0082271  -0.0002461  -0.0148427  -0.0010125   0.0061642  -0.0041334
    3  -0.0032072  -0.0007731   0.0051614  -0.0027728  -0.0005001   0.0033471
            7           8           9          10
    1   0.0197529   0.0054427  -0.0027627   0.0001511
    2   0.0055507  -0.0035065   0.0066595  -0.0028605
    3  -0.0006643  -0.0031046   0.0179099  -0.0153963
 Max gradient component =       1.975E-02
 RMS gradient           =       8.033E-03
 Computing fast CPCM-SWIG gradient
 Updating gradient with PCM contributions...
 -- total gradient after adding PCM contribution --
---------------------------------------------------
  Atom         X              Y              Z     
---------------------------------------------------
   1      -0.006429       0.005893      -0.002211
   2       0.000600      -0.000707       0.000233
   3       0.003432      -0.005382       0.001920
   4       0.000698       0.000012      -0.000007
   5      -0.001754       0.001935      -0.000580
   6      -0.001262       0.000251      -0.000345
   7       0.000213      -0.000953       0.000258
   8       0.002008       0.001629      -0.000464
   9       0.001762      -0.002235      -0.000509
  10       0.000732      -0.000441       0.001705
---------------------------------------------------
 Number of fixed atoms: 0
 Gradient time:  CPU 72.58 s  wall 10.79 s
rPathMan2.  file_steps = 952
 IRC --- Status = 3.  Assess initial corrector step
 IRC --- bisector search: b =  0.000000 E =     -454.133796 G.B =  -0.007278
 IRC --- bisector search: b =  0.017382 E =     -454.133762 G.B =   0.011137
 IRC --- performed gradient/energy interpolation
 IRC --- bisector search:  estimate b(min) =   6.833290577435914E-003
 ----------------------------------------------------------------
             Standard Nuclear Orientation (Angstroms)
    I     Atom           X                Y                Z
 ----------------------------------------------------------------
    1      C       1.9862622032    -0.0274523229     0.1059494711
    2      O       2.2068925358     1.2194905138    -0.2568464876
    3      O       2.8065665744    -0.8454798600     0.4114406258
    4      C       0.4814987917    -0.4169211751     0.1190323569
    5      O      -0.3052319441     0.5495649645    -0.1978379714
    6      O       0.1896036078    -1.5569907944     0.4182210829
    7      H       3.1650141342     1.3876693315    -0.2423039225
    8      H      -1.5862861867    -1.2794148288     0.2355328011
    9      O      -2.1989782616    -0.5418040049     0.0373909914
   10      H      -2.3401099914    -0.5914666433    -0.9183937448
 ----------------------------------------------------------------
 Nuclear Repulsion Energy =         304.55058757 hartrees
 There are       28 alpha and       27 beta electrons
 Discretize the solute cavity surface with Lebedev spheres
	Using 110 Lebedev grid points for each H atom
	Using 194 Lebedev grid points for other atoms
	Atomic van der Waals radii will be scaled by 1.20
 Remove points where switching function is < 1.0e-08
 Keep 940 surface tesserae and discard 748 interior tesserae
 Molecular Surface Area = 113.999 Angst**2

                       Distance Matrix (Angstroms)
             C (  1)   O (  2)   O (  3)   C (  4)   O (  5)   O (  6)
   O (  2)  1.317257
   O (  3)  1.198079  2.251737
   C (  4)  1.554403  2.407512  2.382248
   O (  5)  2.382474  2.600587  3.464197  1.285865
   O (  6)  2.380123  3.497716  2.711971  1.214280  2.249882
   H (  7)  1.874381  0.972879  2.354320  3.253977  3.570295  4.237969
   H (  8)  3.787784  4.568935  4.417737  2.243480  2.274660  1.806712
   O (  9)  4.217285  4.753991  5.028679  2.684626  2.198339  2.623158
   H ( 10)  4.481617  4.938871  5.321772  3.011344  2.441697  3.019640
             H (  7)   H (  8)   O (  9)
   H (  8)  5.469600
   O (  9)  5.707321  0.979143
   H ( 10)  5.889013  1.540477  0.967424
 
 Applying Cartesian multipole field
    Component          Value
    ---------          -----
     (2,0,0)        1.00000E-11
     (0,2,0)        2.00000E-11
     (0,0,2)       -3.00000E-11
 Nucleus-field energy     =     0.0000000094 hartrees
 Requested basis set is 6-311++G(2df,2p)
 There are 74 shells and 268 basis functions
 A cutoff of  1.0D-12 yielded   2465 shell pairs
 There are     32801 function pairs (     41794 Cartesian)
 Smallest overlap matrix eigenvalue = 2.75E-05
 Guess MOs from SCF MO coefficient file

 -----------------------------------------------------------------------
  General SCF calculation program by
  Eric Jon Sundstrom, Paul Horn, Yuezhi Mao, Dmitri Zuev, Alec White,
  David Stuck, Shaama M.S., Shane Yost, Joonho Lee, David Small,
  Daniel Levine, Susi Lehtola, Hugh Burton, Evgeny Epifanovsky,
  Bang C. Huynh
 -----------------------------------------------------------------------
 Exchange:     0.1500 Hartree-Fock + 1.0000 wB97M-V + LR-HF
 Correlation:  1.0000 wB97M-V
 Using SG-2 standard quadrature grid
 Nonlocal Correlation:  VV10 with C = 0.0100 and b = 6.00 and scale = 1.00000
 Grid used for NLC:  SG-1 standard quadrature
 
 Citation of the SMD model:
 Marenich, A.V.; Cramer, C.J.; Truhlar, D.G.
 J. Phys. Chem. B 2009, 113, 6378-6396.
 iSolventCode=           1
 Solvent: water                                                           
 
 vradii
            1           2           3           4           5           6
    1   1.8500000   1.5200000   1.5200000   1.8500000   1.5200000   1.5200000
            7           8           9          10
    1   1.2000000   1.2000000   1.5200000   1.2000000
 -------------------------------------------------------
 OpenMP BLAS3 based DFT computing Module                
 Release: version 1.0, May 2013, Q-Chem Inc. Pittsburgh 
 -------------------------------------------------------
 A unrestricted SCF calculation will be
 performed using Roothaan-Hall, DIIS, GDM
 SCF converges when RMS gradient is below 1.0e-07
 ---------------------------------------
  Cycle       Energy         DIIS error
 ---------------------------------------
    1    -454.1059203182      3.19e-04  Roothaan Step
 ---------------------------------------
  Cycle       Energy         DIIS error
 ---------------------------------------
    1    -454.1365802865      3.85e-04  
    2    -454.1395761114      4.08e-04  Done DIIS. Switching to GDM
 ---------------------------------------
  Cycle       Energy        RMS Gradient
 ---------------------------------------
    1    -454.1395761114      2.33e-02   Normal BFGS step
    2    -454.1370076354      3.92e-02  Line search: overstep
    3    -454.1433675893      3.79e-03   Normal BFGS step
    4    -454.1435051309      1.54e-03   Normal BFGS step
    5    -454.1435276597      9.07e-04   Normal BFGS step
    6    -454.1435362836      6.60e-04   Normal BFGS step
    7    -454.1435374074      2.96e-04   Normal BFGS step
    8    -454.1435383948      2.28e-04   Normal BFGS step
    9    -454.1435388436      8.82e-05   Normal BFGS step
   10    -454.1435388994      3.79e-05   Normal BFGS step
   11    -454.1435389143      1.13e-05   Normal BFGS step
   12    -454.1435389171      7.35e-06   Normal BFGS step
   13    -454.1435389174      6.19e-06   Normal BFGS step
   14    -454.1435389176      4.08e-06   Normal BFGS step
   15    -454.1435389177      2.75e-06   Normal BFGS step
   16    -454.1435389177      1.67e-06   Normal BFGS step
   17    -454.1435389177      7.62e-07   Normal BFGS step
   18    -454.1435389177      4.93e-07   Normal BFGS step
   19    -454.1435389177      2.61e-07   Normal BFGS step
   20    -454.1435389177      1.74e-07   Normal BFGS step
   21    -454.1435389177      8.00e-08  Convergence criterion met
 ---------------------------------------
 SCF time:   CPU 596.88s  wall 76.00s 
<S^2> =          0.756694721
(3)  G-ENP(liq) elect-nuc-pol free energy of system     -454.143538918 a.u.
(4)  G-CDS(liq) cavity-dispersion-solvent structure 
     free energy                                                6.0982 kcal/mol
(6)  G-S(liq) free energy of system                     -454.133820857 a.u.
 SCF   energy in the final basis set =     -454.1338208567
 Total energy in the final basis set =     -454.1338208567
 
 --------------------------------------------------------------
 
                    Orbital Energies (a.u.)
 --------------------------------------------------------------
 
 Alpha MOs
 -- Occupied --
-19.4325 -19.4067 -19.3759 -19.3613 -19.3554 -10.5194 -10.5112  -1.2864
 -1.2581  -1.1961  -1.1732  -1.1703  -0.8400  -0.7145  -0.6785  -0.6532
 -0.6440  -0.6233  -0.6135  -0.5682  -0.5588  -0.5346  -0.5281  -0.4664
 -0.4530  -0.4512  -0.4350  -0.4061
 -- Virtual --
  0.0127   0.0323   0.0397   0.0629   0.0798   0.0841   0.0926   0.1109
  0.1276   0.1391   0.1521   0.1622   0.1863   0.1976   0.2127   0.2203
  0.2242   0.2436   0.2523   0.2636   0.2730   0.2791   0.2947   0.3062
  0.3087   0.3146   0.3244   0.3345   0.3421   0.3479   0.3551   0.3807
  0.4018   0.4119   0.4197   0.4282   0.4649   0.4871   0.5117   0.5307
  0.5640   0.6017   0.6057   0.6483   0.6701   0.6883   0.6923   0.7119
  0.7335   0.7458   0.7483   0.7891   0.8118   0.8223   0.8595   0.8743
  0.8852   0.9160   0.9699   0.9832   1.0144   1.0433   1.0568   1.0777
  1.0935   1.1013   1.1196   1.1292   1.1416   1.1521   1.1610   1.1633
  1.1811   1.1892   1.2440   1.2618   1.2706   1.2985   1.3643   1.3821
  1.3986   1.4571   1.4933   1.5013   1.5747   1.5863   1.6041   1.6192
  1.6453   1.6559   1.6982   1.7200   1.7887   1.8236   1.8313   1.8719
  1.8880   1.9611   1.9840   2.0371   2.0485   2.0607   2.1096   2.1557
  2.2691   2.3345   2.3425   2.3880   2.4230   2.4459   2.4509   2.5339
  2.5990   2.6362   2.6513   2.6614   2.6906   2.7924   2.8135   2.8508
  2.8556   2.9110   2.9869   3.0634   3.0876   3.1128   3.1978   3.2476
  3.2778   3.3073   3.3317   3.3968   3.4166   3.4747   3.5160   3.5231
  3.5628   3.5664   3.6285   3.6406   3.7322   3.7421   3.7497   3.7665
  3.7990   3.9305   3.9625   3.9874   4.0014   4.0087   4.0747   4.1556
  4.1814   4.2499   4.3243   4.3422   4.4189   4.7403   5.0423   5.0559
  5.0649   5.0856   5.1120   5.1309   5.1408   5.1520   5.1660   5.1734
  5.1956   5.2044   5.2060   5.2320   5.2326   5.2542   5.2667   5.2992
  5.3171   5.3338   5.3735   5.4198   5.4607   5.4715   5.5165   5.5482
  5.5509   5.5751   5.5920   5.6300   5.6684   5.6986   5.7970   5.8282
  5.8562   5.8967   6.0335   6.1191   6.2448   6.3465   6.5484   6.6958
  6.8025   6.8438   6.8623   6.8828   6.9207   6.9385   6.9774   6.9906
  7.0289   7.0487   7.0730   7.1167   7.1596   7.1857   7.2105   7.2555
  7.2708   7.2870   7.3592   7.3736   7.4135   7.4164   7.4381   7.4532
  7.5405   7.5985   7.6504   7.7310   7.7428   7.7604   7.8498   7.8791
  7.9601  25.0587  25.1986  50.4582  50.5335  50.6135  50.6684  50.7768
 
 Beta MOs
 -- Occupied --
-19.4125 -19.4066 -19.3675 -19.3603 -19.3553 -10.5182 -10.5121  -1.2803
 -1.2436  -1.1907  -1.1592  -1.1482  -0.8308  -0.7094  -0.6657  -0.6428
 -0.6374  -0.6192  -0.5943  -0.5617  -0.5492  -0.5242  -0.4648  -0.4621
 -0.4409  -0.4203  -0.4122
 -- Virtual --
 -0.1032   0.0154   0.0332   0.0402   0.0634   0.0800   0.0854   0.0929
  0.1113   0.1279   0.1399   0.1525   0.1637   0.1881   0.1984   0.2137
  0.2215   0.2247   0.2451   0.2527   0.2649   0.2734   0.2804   0.2957
  0.3079   0.3135   0.3169   0.3255   0.3360   0.3444   0.3504   0.3567
  0.3841   0.4056   0.4138   0.4224   0.4329   0.4704   0.4938   0.5143
  0.5346   0.5668   0.6024   0.6062   0.6495   0.6716   0.6886   0.6934
  0.7176   0.7349   0.7468   0.7505   0.7907   0.8133   0.8242   0.8605
  0.8770   0.8876   0.9169   0.9736   0.9872   1.0194   1.0447   1.0611
  1.0830   1.0963   1.1062   1.1217   1.1306   1.1460   1.1581   1.1668
  1.1732   1.1844   1.1905   1.2496   1.2637   1.2726   1.3108   1.3706
  1.3864   1.4048   1.4609   1.4985   1.5089   1.5800   1.5894   1.6089
  1.6330   1.6488   1.6733   1.7013   1.7262   1.7950   1.8316   1.8376
  1.8786   1.8992   1.9656   1.9893   2.0419   2.0518   2.0685   2.1244
  2.1588   2.2722   2.3379   2.3470   2.3924   2.4337   2.4494   2.4592
  2.5377   2.6007   2.6425   2.6536   2.6626   2.6949   2.7950   2.8143
  2.8505   2.8616   2.9156   2.9910   3.0646   3.0884   3.1167   3.1990
  3.2486   3.2781   3.3088   3.3324   3.4016   3.4169   3.4762   3.5174
  3.5242   3.5651   3.5690   3.6322   3.6424   3.7350   3.7450   3.7530
  3.7712   3.8000   3.9336   3.9649   3.9912   4.0030   4.0131   4.0798
  4.1591   4.1840   4.2528   4.3279   4.3469   4.4232   4.7426   5.0831
  5.0938   5.1018   5.1090   5.1146   5.1443   5.1467   5.1587   5.1727
  5.1848   5.2106   5.2128   5.2172   5.2414   5.2562   5.2656   5.2904
  5.3175   5.3346   5.3493   5.3964   5.4540   5.4681   5.4800   5.5380
  5.5548   5.5655   5.5844   5.5923   5.6437   5.6795   5.7085   5.8034
  5.8369   5.8671   5.9084   6.0393   6.1348   6.2520   6.3504   6.5539
  6.7028   6.8663   6.8686   6.8732   6.8878   6.9478   6.9607   6.9880
  7.0196   7.0370   7.0764   7.0862   7.1462   7.1760   7.1980   7.2197
  7.2670   7.2808   7.2926   7.3710   7.3821   7.4293   7.4421   7.4551
  7.4900   7.5558   7.6139   7.6636   7.7423   7.7659   7.7715   7.8544
  7.8881   7.9711  25.0592  25.1987  50.4665  50.5399  50.6205  50.6688
 50.7773
 --------------------------------------------------------------
 
          Ground-State Mulliken Net Atomic Charges

     Atom                 Charge (a.u.)    Spin (a.u.)
  --------------------------------------------------------
      1 C                     0.331514       0.041025
      2 O                    -0.273104       0.010389
      3 O                    -0.421926       0.029425
      4 C                     0.340100      -0.030976
      5 O                    -0.172140       0.695336
      6 O                    -0.424977       0.009295
      7 H                     0.369037      -0.002320
      8 H                     0.333066      -0.007270
      9 O                    -0.426034       0.262435
     10 H                     0.344464      -0.007339
  --------------------------------------------------------
  Sum of atomic charges =     0.000000
  Sum of spin   charges =     1.000000

 -----------------------------------------------------------------
                    Cartesian Multipole Moments
 -----------------------------------------------------------------
    Charge (ESU x 10^10)
                 0.0000
    Dipole Moment (Debye)
         X       0.4398      Y       2.3640      Z      -2.8184
       Tot       3.7047
    Quadrupole Moments (Debye-Ang)
        XX     -34.5511     XY      13.4652     YY     -43.8352
        XZ       1.4460     YZ       3.4038     ZZ     -37.3833
    Octopole Moments (Debye-Ang^2)
       XXX     -60.5136    XXY      41.3641    XYY     -30.2514
       YYY      38.3825    XXZ     -24.7143    XYZ       0.5435
       YYZ      -6.9416    XZZ     -31.1489    YZZ       9.0136
       ZZZ     -11.4684
    Hexadecapole Moments (Debye-Ang^3)
      XXXX    -749.0108   XXXY     103.0323   XXYY    -152.4239
      XYYY       2.3324   YYYY    -240.7684   XXXZ     -20.3941
      XXYZ      16.9113   XYYZ     -10.1074   YYYZ      29.9535
      XXZZ    -133.6408   XYZZ      -3.4211   YYZZ     -48.1736
      XZZZ     -11.4632   YZZZ      28.1911   ZZZZ     -49.8524
 -----------------------------------------------------------------
 Calculating analytic gradient of the SCF energy
 Gradient of CDS energy
            1           2           3           4           5           6
    1   0.0024439  -0.0006085  -0.0008017  -0.0025244   0.0012993   0.0003470
    2   0.0020235  -0.0028179   0.0008351   0.0002222  -0.0015370   0.0010852
    3  -0.0004428   0.0008133  -0.0003096  -0.0001862   0.0006025  -0.0002804
            7           8           9          10
    1   0.0002982  -0.0002282   0.0002080  -0.0004337
    2   0.0002954  -0.0002491   0.0001524  -0.0000099
    3  -0.0000691   0.0002035  -0.0000012  -0.0003300
 Gradient of SCF Energy
            1           2           3           4           5           6
    1  -0.0001165  -0.0192440  -0.0001761  -0.0039199  -0.0031789   0.0041429
    2   0.0025061   0.0005418  -0.0099782   0.0003854   0.0042536  -0.0033650
    3  -0.0010931  -0.0010396   0.0033566  -0.0033235   0.0001299   0.0031884
            7           8           9          10
    1   0.0198454   0.0068136  -0.0041340  -0.0000325
    2   0.0053175  -0.0054117   0.0088712  -0.0031208
    3  -0.0005848  -0.0027937   0.0193661  -0.0172062
 Max gradient component =       1.985E-02
 RMS gradient           =       7.887E-03
 Computing fast CPCM-SWIG gradient
 Updating gradient with PCM contributions...
 -- total gradient after adding PCM contribution --
---------------------------------------------------
  Atom         X              Y              Z     
---------------------------------------------------
   1      -0.000778       0.000047      -0.000058
   2       0.000185       0.000049      -0.000024
   3      -0.001341      -0.000514       0.000116
   4      -0.001687       0.001461      -0.000565
   5      -0.000358       0.000009       0.000041
   6      -0.000706       0.001033      -0.000518
   7       0.000351      -0.001087       0.000309
   8       0.003425      -0.000259      -0.000121
   9       0.000378      -0.000094       0.000923
  10       0.000530      -0.000644      -0.000103
---------------------------------------------------
 Number of fixed atoms: 0
 Gradient time:  CPU 72.56 s  wall 10.78 s
rPathMan2.  file_steps = 952
 IRC --- Status = 4.  Checking bisector search.
 IRC --- Bisector search finished successfully.
 ------------------------------------------------------------------------
 Reaction path following.  The coordinates are cartesian              
 Step  16 E=    -454.133821 |G|=  0.004991 S_lin= 0.9949 S_tot= 1.1166
 ------------------------------------------------------------------------
  IRC -- convergence criterion reached.
 ----------------------------------------------------------------
             Standard Nuclear Orientation (Angstroms)
    I     Atom           X                Y                Z
 ----------------------------------------------------------------
    1      C       1.9143250109    -0.0455728881     0.1059143589
    2      O       2.1999161556     1.1921835170    -0.2511782905
    3      O       2.6989114745    -0.8987659151     0.4209795033
    4      C       0.3990458602    -0.3105716894     0.0814455598
    5      O      -0.3754775208     0.6131005689    -0.2289047623
    6      O       0.0248927904    -1.4779704877     0.3854210048
    7      H       3.1627816917     1.3211295086    -0.2234604547
    8      H      -1.1648396957    -1.2929633555     0.2541182473
    9      O      -2.1479405098    -0.6092700208     0.0637109205
   10      H      -2.3063839569    -0.5941041378    -0.8958608871
 ----------------------------------------------------------------
 Nuclear Repulsion Energy =         308.01132816 hartrees
 There are       28 alpha and       27 beta electrons
 Here is where we should summarize the reaction path
 Total job time:  7766.48s(wall), 60131.47s(cpu) 
 Mon Jun 19 20:54:07 2023

        *************************************************************
        *                                                           *
        *  Thank you very much for using Q-Chem.  Have a nice day.  *
        *                                                           *
        *************************************************************


