
Running Job 1 of 2 Q_in.in
qchem Q_in.in_103101.0 /scratch/ari.fischer/qChem1591345.hpc-mn1/qchem103101/ 0
/usr/local/qchem-5.4.1/exe/qcprog.exe_s Q_in.in_103101.0 /scratch/ari.fischer/qChem1591345.hpc-mn1/qchem103101/
                  Welcome to Q-Chem
     A Quantum Leap Into The Future Of Chemistry


 Q-Chem 5.4, Q-Chem, Inc., Pleasanton, CA (2021)

 License issued to: Nanyang Technological University (site)

 E. Epifanovsky,  A. T. B. Gilbert,  Xintian Feng,  Joonho Lee,  Yuezhi Mao,  
 N. Mardirossian,  P. Pokhilko,  A. White,  M. Wormit,  M. P. Coons,  
 A. L. Dempwolff,  Zhengting Gan,  D. Hait,  P. R. Horn,  L. D. Jacobson,  
 I. Kaliman,  J. Kussmann,  A. W. Lange,  Ka Un Lao,  D. S. Levine,  Jie Liu,  
 S. C. McKenzie,  A. F. Morrison,  K. Nanda,  F. Plasser,  D. R. Rehn,  
 M. L. Vidal,  Zhi-Qiang You,  Ying Zhu,  B. Alam,  B. Albrecht,  
 A. Aldossary,  E. Alguire,  J. H. Andersen,  D. Barton,  K. Begam,  A. Behn,  
 Y. A. Bernard,  E. J. Berquist,  H. Burton,  A. Carreras,  K. Carter-Fenk,  
 R. Chakraborty,  A. D. Chien,  K. D. Closser,  V. Cofer-Shabica,  
 S. Dasgupta,  Jia Deng,  M. de Wergifosse,  M. Diedenhofen,  Hainam Do,  
 S. Ehlert,  Po-Tung Fang,  S. Fatehi,  Qingguo Feng,  T. Friedhoff,  
 J. Gayvert,  Qinghui Ge,  G. Gidofalvi,  M. Goldey,  J. Gomes,  
 C. Gonzalez-Espinoza,  S. Gulania,  A. Gunina,  M. W. D. Hanson-Heine,  
 P. H. P. Harbach,  A. W. Hauser,  M. F. Herbst,  M. Hernandez Vera,  
 M. Hodecker,  Z. C. Holden,  S. Houck,  Xunkun Huang,  Kerwin Hui,  
 B. C. Huynh,  M. Ivanov,  Hyunjun Ji,  Hanjie Jiang,  B. Kaduk,  S. Kaehler,  
 K. Khistyaev,  Jaehoon Kim,  P. Klunzinger,  Z. Koczor-Benda,  
 Joong Hoon Koh,  D. Kosenkov,  L. Koulias,  T. Kowalczyk,  C. M. Krauter,  
 K. Kue,  A. Kunitsa,  T. Kus,  A. Landau,  K. V. Lawler,  D. Lefrancois,  
 S. Lehtola,  Rain Li,  Yi-Pei Li,  Jiashu Liang,  M. Liebenthal,  
 Hung-Hsuan Lin,  You-Sheng Lin,  Fenglai Liu,  Kuan-Yu Liu,  
 M. Loipersberger,  A. Luenser,  A. Manjanath,  P. Manohar,  E. Mansoor,  
 S. F. Manzer,  Shan-Ping Mao,  A. V. Marenich,  T. Markovich,  S. Mason,  
 S. A. Maurer,  P. F. McLaughlin,  M. F. S. J. Menger,  J.-M. Mewes,  
 S. A. Mewes,  P. Morgante,  J. W. Mullinax,  K. J. Oosterbaan,  G. Paran,  
 Alexander C. Paul,  Suranjan K. Paul,  F. Pavosevic,  Zheng Pei,  S. Prager,  
 E. I. Proynov,  E. Ramos,  B. Rana,  A. E. Rask,  A. Rettig,  R. M. Richard,  
 F. Rob,  E. Rossomme,  T. Scheele,  M. Scheurer,  M. Schneider,  
 N. Sergueev,  S. M. Sharada,  W. Skomorowski,  D. W. Small,  C. J. Stein,  
 Yu-Chuan Su,  E. J. Sundstrom,  Zhen Tao,  J. Thirman,  T. Tsuchimochi,  
 N. M. Tubman,  S. P. Veccham,  O. Vydrov,  J. Wenzel,  J. Witte,  A. Yamada,  
 Kun Yao,  S. Yeganeh,  S. R. Yost,  A. Zech,  Igor Ying Zhang,  Xing Zhang,  
 Yu Zhang,  D. Zuev,  A. Aspuru-Guzik,  A. T. Bell,  N. A. Besley,  
 K. B. Bravaya,  B. R. Brooks,  D. Casanova,  Jeng-Da Chai,  S. Coriani,  
 C. J. Cramer,  A. E. DePrince, III,  R. A. DiStasio Jr.,  A. Dreuw,  
 B. D. Dunietz,  T. R. Furlani,  W. A. Goddard III,  S. Grimme,  
 S. Hammes-Schiffer,  T. Head-Gordon,  W. J. Hehre,  Chao-Ping Hsu,  
 T.-C. Jagau,  Yousung Jung,  A. Klamt,  Jing Kong,  D. S. Lambrecht,  
 WanZhen Liang,  N. J. Mayhall,  C. W. McCurdy,  J. B. Neaton,  
 C. Ochsenfeld,  J. A. Parkhill,  R. Peverati,  V. A. Rassolov,  Yihan Shao,  
 L. V. Slipchenko,  T. Stauch,  R. P. Steele,  J. E. Subotnik,  
 A. J. W. Thom,  A. Tkatchenko,  D. G. Truhlar,  T. Van Voorhis,  
 T. A. Wesolowski,  K. B. Whaley,  H. L. Woodcock III,  P. M. Zimmerman,  
 S. Faraji,  P. M. W. Gill,  M. Head-Gordon,  J. M. Herbert,  A. I. Krylov

 Additional authors for Version 5.4.1: 
 S. Kotaru,  Shaozhi Li,  Xiangyuan Li,  F. Matz,  A. Molle,  Haisheng Ren,  
 Yingli Su,  Hung-Yi Tsai,  C. Utku,  Fang Wang

 Contributors to earlier versions of Q-Chem not listed above: 
 R. D. Adamson,  B. Austin,  R. Baer,  J. Baker,  G. J. O. Beran,  
 K. Brandhorst,  S. T. Brown,  E. F. C. Byrd,  A. K. Chakraborty,  
 G. K. L. Chan,  Chun-Min Chang,  Yunqing Chen,  C.-L. Cheng,  
 Siu Hung Chien,  D. M. Chipman,  D. L. Crittenden,  H. Dachsel,  
 R. J. Doerksen,  A. D. Dutoi,  R. G. Edgar,  J. Fosso-Tande,  
 L. Fusti-Molnar,  D. Ghosh,  A. Ghysels,  A. Golubeva-Zadorozhnaya,  
 J. Gonthier,  M. S. Gordon,  S. R. Gwaltney,  G. Hawkins,  J. E. Herr,  
 A. Heyden,  S. Hirata,  E. G. Hohenstein,  G. Kedziora,  F. J. Keil,  
 C. Kelley,  Jihan Kim,  R. A. King,  R. Z. Khaliullin,  P. P. Korambath,  
 W. Kurlancheek,  A. Laurent,  A. M. Lee,  M. S. Lee,  S. V. Levchenko,  
 Ching Yeh Lin,  D. Liotard,  E. Livshits,  R. C. Lochan,  I. Lotan,  
 L. A. Martinez-Martinez,  P. E. Maslen,  N. Nair,  D. P. O'Neill,  
 D. Neuhauser,  E. Neuscamman,  C. M. Oana,  R. Olivares-Amaya,  R. Olson,  
 T. M. Perrine,  B. Peters,  P. A. Pieniazek,  A. Prociuk,  Y. M. Rhee,  
 J. Ritchie,  M. A. Rohrdanz,  E. Rosta,  N. J. Russ,  H. F. Schaefer III,  
 M. W. Schmidt,  N. E. Schultz,  S. Sharma,  N. Shenvi,  C. D. Sherrill,  
 A. C. Simmonett,  A. Sodt,  T. Stein,  D. Stuck,  K. S. Thanthiriwatte,  
 V. Vanovschi,  L. Vogt,  Tao Wang,  A. Warshel,  M. A. Watson,  
 C. F. Williams,  Q. Wu,  X. Xu,  Jun Yang,  W. Zhang,  Yan Zhao

 Please cite Q-Chem as follows:
 Y. Shao et al., Mol. Phys. 113, 184-215 (2015)
 DOI: 10.1080/00268976.2014.952696

 Q-Chem 5.4.1 for Intel X86 EM64T Linux

 Parts of Q-Chem use Armadillo 9.800.1 (Horizon Scraper).
 http://arma.sourceforge.net/

 Q-Chem begins on Mon Jun 19 13:31:12 2023  

 Host: 
0

     Scratch files written to /scratch/ari.fischer/qChem1591345.hpc-mn1/qchem103101//
 Aug1521 |scratch|qcdevops|jenkins|workspace|build_RNUM 8249   
 Processing $rem in /usr/local/qchem-5.4.1/config/preferences:
 Processing $rem in /home/ari.fischer/.qchemrc:
 Symmetry turned off for PCM/SM12/SMD calculation


!!********************************************.
!!******************Warning*******************.
!!Desired Analytical derivatives not available.
!!Finite difference job might take a long time.
!!********************************************.
!!********************************************.


 2-order derivative to be evaluated numerically with 1-order analytical derivatives

 Checking the input file for inconsistencies... 	...done.

--------------------------------------------------------------
User input:
--------------------------------------------------------------
$molecule
0 2
C    1.8427675   -0.0533112    0.0805020
O    2.1165617    1.2035567   -0.2420372
O    2.6344872   -0.9137621    0.3740102
C    0.3211786   -0.3613793    0.0526874
O   -0.3897076    0.6651346   -0.2916236
O   -0.0605217   -1.4844530    0.3414988
H    3.0873509    1.3289538   -0.2051295
H   -1.1808589   -1.4784910    0.4467307
O   -1.9546936   -0.4811476    0.0639681
H   -2.0113328   -0.5279058   -0.9084217
$end

$rem
BASIS = 6-311++G(2df,2p)
GUI = 2
JOB_TYPE = Frequency
METHOD = wB97M-V
SCF_ALGORITHM = DIIS_GDM
MAX_SCF_CYCLES = 400
SCF_CONVERGENCE = 6
THRESH = 11
SYMMETRY_IGNORE = 1
solvent_method = SMD
$end

--------------------------------------------------------------
 ----------------------------------------------------------------
             Standard Nuclear Orientation (Angstroms)
    I     Atom           X                Y                Z
 ----------------------------------------------------------------
    1      C       1.8427675000    -0.0533112000     0.0805020000
    2      O       2.1165617000     1.2035567000    -0.2420372000
    3      O       2.6344872000    -0.9137621000     0.3740102000
    4      C       0.3211786000    -0.3613793000     0.0526874000
    5      O      -0.3897076000     0.6651346000    -0.2916236000
    6      O      -0.0605217000    -1.4844530000     0.3414988000
    7      H       3.0873509000     1.3289538000    -0.2051295000
    8      H      -1.1808589000    -1.4784910000     0.4467307000
    9      O      -1.9546936000    -0.4811476000     0.0639681000
   10      H      -2.0113328000    -0.5279058000    -0.9084217000
 ----------------------------------------------------------------
 Nuclear Repulsion Energy =         313.37660867 hartrees
 There are       28 alpha and       27 beta electrons
 Requested basis set is 6-311++G(2df,2p)
 There are 74 shells and 268 basis functions

 Total QAlloc Memory Limit 288000 MB
 Mega-Array Size       188 MB
 MEM_STATIC part       192 MB
 
 Citation of the SMD model:
 Marenich, A.V.; Cramer, C.J.; Truhlar, D.G.
 J. Phys. Chem. B 2009, 113, 6378-6396.
 iSolventCode=           1
 Solvent: water                                                           
 
 vradii
            1           2           3           4           5           6
    1   1.8500000   1.5200000   1.5200000   1.8500000   1.5200000   1.5200000
            7           8           9          10
    1   1.2000000   1.2000000   1.5200000   1.2000000
 Changing PCM_VDW_RADII to SMD_RADIUS
 Discretize the solute cavity surface with Lebedev spheres
	Using 110 Lebedev grid points for each H atom
	Using 194 Lebedev grid points for other atoms
	Atomic van der Waals radii will be scaled by 1.20
 Remove points where switching function is < 1.0e-08
 Keep 906 surface tesserae and discard 782 interior tesserae
 Molecular Surface Area = 109.451 Angst**2

                       Distance Matrix (Angstroms)
             C (  1)   O (  2)   O (  3)   C (  4)   O (  5)   O (  6)
   O (  2)  1.326164
   O (  3)  1.205547  2.265127
   C (  4)  1.552711  2.399852  2.399952
   O (  5)  2.374571  2.563931  3.475879  1.295237
   O (  6)  2.395578  3.507934  2.754962  1.220820  2.264936
   H (  7)  1.881816  0.979550  2.360140  3.251985  3.540914  4.257131
   H (  8)  3.362674  4.305899  3.857599  1.912936  2.401295  1.125284
   O (  9)  3.821522  4.416672  4.619942  2.279049  1.972204  2.161373
   H ( 10)  4.007156  4.525654  4.834993  2.528255  2.105577  2.506581
             H (  7)   H (  8)   O (  9)
   H (  8)  5.150173
   O (  9)  5.363869  1.319099
   H ( 10)  5.471665  1.851955  0.975160
 
 A cutoff of  1.0D-11 yielded   2469 shell pairs
 There are     32859 function pairs (     41857 Cartesian)
 Smallest overlap matrix eigenvalue = 2.84E-05
 Guess from superposition of atomic densities
 Warning:  Energy on first SCF cycle will be non-variational
 SAD guess density has 55.000000 electrons

 -----------------------------------------------------------------------
  General SCF calculation program by
  Eric Jon Sundstrom, Paul Horn, Yuezhi Mao, Dmitri Zuev, Alec White,
  David Stuck, Shaama M.S., Shane Yost, Joonho Lee, David Small,
  Daniel Levine, Susi Lehtola, Hugh Burton, Evgeny Epifanovsky,
  Bang C. Huynh
 -----------------------------------------------------------------------
 Exchange:     0.1500 Hartree-Fock + 1.0000 wB97M-V + LR-HF
 Correlation:  1.0000 wB97M-V
 Using SG-2 standard quadrature grid
 Nonlocal Correlation:  VV10 with C = 0.0100 and b = 6.00 and scale = 1.00000
 Grid used for NLC:  SG-1 standard quadrature
 using 16 threads for integral computing
 -------------------------------------------------------
 OpenMP Integral computing Module                
 Release: version 1.0, May 2013, Q-Chem Inc. Pittsburgh 
 -------------------------------------------------------
 
 Citation of the SMD model:
 Marenich, A.V.; Cramer, C.J.; Truhlar, D.G.
 J. Phys. Chem. B 2009, 113, 6378-6396.
 iSolventCode=           1
 Solvent: water                                                           
 
 vradii
            1           2           3           4           5           6
    1   1.8500000   1.5200000   1.5200000   1.8500000   1.5200000   1.5200000
            7           8           9          10
    1   1.2000000   1.2000000   1.5200000   1.2000000
 -------------------------------------------------------
 OpenMP BLAS3 based DFT computing Module                
 Release: version 1.0, May 2013, Q-Chem Inc. Pittsburgh 
 -------------------------------------------------------
 A unrestricted SCF calculation will be
 performed using DIIS, GDM
 SCF converges when RMS gradient is below 1.0e-06
 ---------------------------------------
  Cycle       Energy         DIIS error
 ---------------------------------------
    1    -455.3084508490      1.58e-02  
    2    -453.8730207365      2.72e-03  Done DIIS. Switching to GDM
 ---------------------------------------
  Cycle       Energy        RMS Gradient
 ---------------------------------------
    1    -453.8730207365      1.90e-01   Descent step
    2    -454.0665667768      6.65e-02   Normal BFGS step
    3    -454.0933078412      3.12e-02   Normal BFGS step
    4    -454.0954675971      1.89e-02   Normal BFGS step
    5    -454.0973869260      9.55e-03   Normal BFGS step
    6    -454.0977116974      4.59e-03   Normal BFGS step
    7    -454.0978885128      6.36e-03   Normal BFGS step
    8    -454.0979497907      1.50e-03   Normal BFGS step
    9    -454.0979628656      7.25e-04   Normal BFGS step
   10    -454.0979649871      1.98e-04   Normal BFGS step
   11    -454.0979655327      2.25e-04   Normal BFGS step
   12    -454.0979656740      1.00e-04   Normal BFGS step
   13    -454.0979657076      3.55e-05   Normal BFGS step
   14    -454.0979657180      2.38e-05   Normal BFGS step
   15    -454.0979657211      1.46e-05   Normal BFGS step
   16    -454.0979657219      8.00e-06   Normal BFGS step
   17    -454.0979657221      4.74e-06   Normal BFGS step
   18    -454.0979657222      1.82e-06   Normal BFGS step
   19    -454.0979657223      9.22e-07  Convergence criterion met
 ---------------------------------------
 SCF time:   CPU 686.03s  wall 45.00s 
<S^2> =          0.756297080
(3)  G-ENP(liq) elect-nuc-pol free energy of system     -454.097965722 a.u.
(4)  G-CDS(liq) cavity-dispersion-solvent structure 
     free energy                                                5.7937 kcal/mol
(6)  G-S(liq) free energy of system                     -454.088732883 a.u.
 SCF   energy in the final basis set =     -454.0887328826
 Total energy in the final basis set =     -454.0887328826
 
 --------------------------------------------------------------
 
                    Orbital Energies (a.u.)
 --------------------------------------------------------------
 
 Alpha MOs
 -- Occupied --
-19.4039 -19.3884 -19.3863 -19.3696 -19.3568 -10.5199 -10.5166  -1.2938
 -1.2623  -1.1893  -1.1725  -1.1278  -0.8417  -0.7470  -0.6698  -0.6661
 -0.6347  -0.6274  -0.5923  -0.5682  -0.5523  -0.5291  -0.5173  -0.4613
 -0.4517  -0.4344  -0.4263  -0.3828
 -- Virtual --
  0.0073   0.0310   0.0406   0.0612   0.0804   0.0856   0.0947   0.1124
  0.1322   0.1411   0.1472   0.1559   0.1782   0.2043   0.2172   0.2188
  0.2297   0.2492   0.2586   0.2635   0.2691   0.2755   0.2994   0.3062
  0.3113   0.3153   0.3194   0.3311   0.3444   0.3484   0.3588   0.3749
  0.3957   0.4173   0.4257   0.4345   0.4440   0.4798   0.4873   0.5184
  0.5862   0.6004   0.6087   0.6365   0.6515   0.6648   0.6927   0.7189
  0.7372   0.7470   0.7782   0.8076   0.8199   0.8470   0.8655   0.8936
  0.8989   0.9173   0.9714   0.9863   1.0471   1.0603   1.0773   1.0940
  1.1055   1.1232   1.1287   1.1414   1.1541   1.1666   1.1738   1.1819
  1.2012   1.2194   1.2510   1.2633   1.2969   1.3257   1.3379   1.3708
  1.4034   1.4488   1.4789   1.5145   1.5595   1.5911   1.6248   1.6620
  1.6820   1.6935   1.7122   1.7681   1.8019   1.8280   1.8738   1.8921
  1.9497   1.9758   1.9878   2.0289   2.0529   2.0614   2.1594   2.2166
  2.2768   2.3460   2.3541   2.4146   2.4303   2.4525   2.4824   2.5562
  2.6055   2.6464   2.6571   2.6955   2.7642   2.7840   2.8287   2.8641
  2.8885   2.9143   3.0029   3.1036   3.1093   3.1393   3.1947   3.2592
  3.2895   3.3068   3.3494   3.4047   3.4286   3.4816   3.5088   3.5453
  3.5633   3.5915   3.6434   3.6632   3.7382   3.7605   3.7920   3.8192
  3.8510   3.8765   3.9001   3.9807   3.9912   4.0083   4.0875   4.1323
  4.1948   4.2570   4.2781   4.3298   4.4073   4.7200   5.0401   5.0653
  5.0880   5.1013   5.1127   5.1192   5.1214   5.1515   5.1652   5.1742
  5.1820   5.2076   5.2219   5.2362   5.2433   5.2664   5.2995   5.3092
  5.3239   5.3551   5.3892   5.4079   5.4135   5.4533   5.4760   5.5286
  5.5631   5.5786   5.5871   5.6085   5.6390   5.6846   5.7735   5.8122
  5.8509   5.9036   6.0172   6.1101   6.2121   6.3117   6.5220   6.5307
  6.6783   6.8265   6.8537   6.8889   6.8903   6.9335   6.9907   7.0042
  7.0231   7.0394   7.0672   7.0965   7.1179   7.2011   7.2191   7.2598
  7.2798   7.2957   7.3106   7.3478   7.4305   7.4354   7.4708   7.5276
  7.5601   7.6425   7.6613   7.7618   7.7675   7.8586   7.8828   7.9281
  8.0219  25.0509  25.1672  50.4995  50.5583  50.6487  50.6724  50.7694
 
 Beta MOs
 -- Occupied --
-19.4038 -19.3889 -19.3737 -19.3566 -19.3511 -10.5204 -10.5163  -1.2899
 -1.2616  -1.1843  -1.1582  -1.0880  -0.8375  -0.7457  -0.6612  -0.6577
 -0.6331  -0.6238  -0.5812  -0.5614  -0.5424  -0.5087  -0.4640  -0.4575
 -0.4440  -0.4107  -0.4016
 -- Virtual --
 -0.0458   0.0093   0.0320   0.0424   0.0616   0.0806   0.0870   0.0950
  0.1129   0.1324   0.1415   0.1479   0.1565   0.1805   0.2049   0.2186
  0.2195   0.2312   0.2497   0.2605   0.2641   0.2702   0.2773   0.2998
  0.3067   0.3141   0.3166   0.3198   0.3327   0.3453   0.3491   0.3597
  0.3772   0.3965   0.4185   0.4280   0.4366   0.4466   0.4822   0.4911
  0.5197   0.5878   0.6008   0.6093   0.6369   0.6547   0.6661   0.6927
  0.7215   0.7378   0.7479   0.7807   0.8089   0.8208   0.8489   0.8665
  0.8969   0.9016   0.9189   0.9746   0.9888   1.0484   1.0635   1.0785
  1.0965   1.1067   1.1237   1.1307   1.1426   1.1663   1.1722   1.1813
  1.1877   1.2160   1.2290   1.2547   1.2707   1.3044   1.3350   1.3479
  1.3745   1.4086   1.4512   1.4866   1.5164   1.5634   1.5923   1.6262
  1.6649   1.6919   1.7015   1.7200   1.7740   1.8052   1.8301   1.8820
  1.9103   1.9589   1.9801   1.9936   2.0375   2.0584   2.0671   2.1624
  2.2288   2.2821   2.3490   2.3552   2.4245   2.4347   2.4620   2.4934
  2.5585   2.6067   2.6489   2.6572   2.6962   2.7661   2.7887   2.8306
  2.8644   2.8902   2.9186   3.0035   3.1044   3.1095   3.1395   3.1948
  3.2593   3.2894   3.3073   3.3497   3.4068   3.4285   3.4820   3.5089
  3.5466   3.5643   3.5933   3.6439   3.6641   3.7395   3.7627   3.7922
  3.8223   3.8542   3.8770   3.9074   3.9819   3.9929   4.0082   4.0887
  4.1336   4.1968   4.2603   4.2838   4.3336   4.4092   4.7236   5.0767
  5.0849   5.1075   5.1199   5.1211   5.1439   5.1471   5.1620   5.1841
  5.1849   5.2015   5.2157   5.2333   5.2446   5.2630   5.2858   5.3199
  5.3274   5.3432   5.3752   5.3996   5.4292   5.4432   5.4650   5.4985
  5.5327   5.5657   5.5788   5.6026   5.6159   5.6749   5.6938   5.7837
  5.8189   5.8600   5.9104   6.0202   6.1195   6.2159   6.3140   6.5239
  6.5348   6.6816   6.8361   6.8590   6.8907   6.9365   6.9700   6.9970
  7.0202   7.0552   7.0702   7.0932   7.1401   7.1460   7.2225   7.2255
  7.2652   7.2993   7.3050   7.3337   7.3498   7.4385   7.4439   7.5096
  7.5312   7.5754   7.6663   7.6935   7.7680   7.7857   7.8604   7.8890
  7.9454   8.0266  25.0510  25.1671  50.5100  50.5622  50.6518  50.6786
 50.7694
 --------------------------------------------------------------
 
          Ground-State Mulliken Net Atomic Charges

     Atom                 Charge (a.u.)    Spin (a.u.)
  --------------------------------------------------------
      1 C                     0.393598       0.006114
      2 O                    -0.281348       0.004084
      3 O                    -0.441587       0.003003
      4 C                     0.264365      -0.018973
      5 O                    -0.346662       0.386673
      6 O                    -0.276665      -0.004544
      7 H                     0.370882      -0.000046
      8 H                     0.410788       0.001450
      9 O                    -0.446539       0.637542
     10 H                     0.353167      -0.015304
  --------------------------------------------------------
  Sum of atomic charges =     0.000000
  Sum of spin   charges =     1.000000

 -----------------------------------------------------------------
                    Cartesian Multipole Moments
 -----------------------------------------------------------------
    Charge (ESU x 10^10)
                 0.0000
    Dipole Moment (Debye)
         X       0.7868      Y       0.1942      Z      -1.7401
       Tot       1.9196
    Quadrupole Moments (Debye-Ang)
        XX     -36.6745     XY      13.3045     YY     -42.2887
        XZ       0.4940     YZ       2.3635     ZZ     -37.1213
    Octopole Moments (Debye-Ang^2)
       XXX     -47.7726    XXY      36.5619    XYY     -28.8606
       YYY      27.3018    XXZ     -17.4340    XYZ       1.8553
       YYZ      -2.6935    XZZ     -27.5280    YZZ       6.5293
       ZZZ      -6.6999
    Hexadecapole Moments (Debye-Ang^3)
      XXXX    -652.0288   XXXY      96.1955   XXYY    -138.6258
      XYYY       4.9572   YYYY    -228.3543   XXXZ     -20.5412
      XXYZ      13.6798   XYYZ      -9.2328   YYYZ      24.9740
      XXZZ    -119.2942   XYZZ      -2.8372   YYZZ     -45.9846
      XZZZ      -7.6299   YZZZ      26.0306   ZZZZ     -48.1158
 -----------------------------------------------------------------
 Calculating analytic gradient of the SCF energy
 Gradient of CDS energy
            1           2           3           4           5           6
    1   0.0026357  -0.0007886  -0.0008402  -0.0024915   0.0012447   0.0004012
    2   0.0021063  -0.0030873   0.0009448   0.0006894  -0.0018096   0.0009945
    3  -0.0003797   0.0007832  -0.0003200  -0.0003274   0.0007011  -0.0002697
            7           8           9          10
    1   0.0003115  -0.0002426   0.0002065  -0.0004366
    2   0.0002933  -0.0001980   0.0001256  -0.0000589
    3  -0.0000571   0.0001552   0.0000215  -0.0003071
 Gradient of SCF Energy
            1           2           3           4           5           6
    1   0.0015443  -0.0254123   0.0033888  -0.0141166  -0.0284974  -0.0163525
    2   0.0142099   0.0087197  -0.0157286  -0.0892917   0.0495541   0.0573729
    3  -0.0017729  -0.0038855   0.0046087   0.0225177  -0.0152356  -0.0251722
            7           8           9          10
    1   0.0257253  -0.0185032   0.0657489   0.0064747
    2   0.0052733  -0.0340801   0.0078649  -0.0038944
    3   0.0001047   0.0200345   0.0188149  -0.0200142
 Max gradient component =       8.929E-02
 RMS gradient           =       2.909E-02
 Computing fast CPCM-SWIG gradient
 Updating gradient with PCM contributions...
 -- total gradient after adding PCM contribution --
---------------------------------------------------
  Atom         X              Y              Z     
---------------------------------------------------
   1       0.002023       0.012594      -0.001112
   2      -0.005562       0.007353      -0.002437
   3       0.000637      -0.006283       0.001467
   4      -0.013077      -0.089085       0.025737
   5      -0.026153       0.042215      -0.016331
   6      -0.022273       0.059923      -0.026256
   7       0.006820       0.000562       0.000275
   8      -0.012395      -0.028260       0.020470
   9       0.064791      -0.000712       0.004896
  10       0.005188       0.001693      -0.006709
---------------------------------------------------
 Number of fixed atoms: 0
 Gradient time:  CPU 85.66 s  wall 7.64 s
 ######################################################
 ######################################################
 # Starting finite difference calculation for IDERIV  #
 Finite diff step size:  1.88973e-03 a.u.
 ----------------------------------------------------------------
             Standard Nuclear Orientation (Angstroms)
    I     Atom           X                Y                Z
 ----------------------------------------------------------------
    1      C       1.8437675000    -0.0533112000     0.0805020000
    2      O       2.1165617000     1.2035567000    -0.2420372000
    3      O       2.6344872000    -0.9137621000     0.3740102000
    4      C       0.3211786000    -0.3613793000     0.0526874000
    5      O      -0.3897076000     0.6651346000    -0.2916236000
    6      O      -0.0605217000    -1.4844530000     0.3414988000
    7      H       3.0873509000     1.3289538000    -0.2051295000
    8      H      -1.1808589000    -1.4784910000     0.4467307000
    9      O      -1.9546936000    -0.4811476000     0.0639681000
   10      H      -2.0113328000    -0.5279058000    -0.9084217000
 ----------------------------------------------------------------
 Nuclear Repulsion Energy =         313.37400040 hartrees
 There are       28 alpha and       27 beta electrons
 Discretize the solute cavity surface with Lebedev spheres
	Using 110 Lebedev grid points for each H atom
	Using 194 Lebedev grid points for other atoms
	Atomic van der Waals radii will be scaled by 1.20
 Remove points where switching function is < 1.0e-08
 Keep 906 surface tesserae and discard 782 interior tesserae
 Molecular Surface Area = 109.451 Angst**2

                       Distance Matrix (Angstroms)
             C (  1)   O (  2)   O (  3)   C (  4)   O (  5)   O (  6)
   O (  2)  1.325958
   O (  3)  1.204890  2.265127
   C (  4)  1.553691  2.399852  2.399952
   O (  5)  2.375511  2.563931  3.475879  1.295237
   O (  6)  2.396373  3.507934  2.754962  1.220820  2.264936
   H (  7)  1.881154  0.979550  2.360140  3.251985  3.540914  4.257131
   H (  8)  3.363573  4.305899  3.857599  1.912936  2.401295  1.125284
   O (  9)  3.822515  4.416672  4.619942  2.279049  1.972204  2.161373
   H ( 10)  4.008118  4.525654  4.834993  2.528255  2.105577  2.506581
             H (  7)   H (  8)   O (  9)
   H (  8)  5.150173
   O (  9)  5.363869  1.319099
   H ( 10)  5.471665  1.851955  0.975160
 
 Requested basis set is 6-311++G(2df,2p)
 There are 74 shells and 268 basis functions
 A cutoff of  1.0D-11 yielded   2469 shell pairs
 There are     32859 function pairs (     41857 Cartesian)
 Smallest overlap matrix eigenvalue = 2.85E-05
 Guess MOs from SCF MO coefficient file

 -----------------------------------------------------------------------
  General SCF calculation program by
  Eric Jon Sundstrom, Paul Horn, Yuezhi Mao, Dmitri Zuev, Alec White,
  David Stuck, Shaama M.S., Shane Yost, Joonho Lee, David Small,
  Daniel Levine, Susi Lehtola, Hugh Burton, Evgeny Epifanovsky,
  Bang C. Huynh
 -----------------------------------------------------------------------
 Exchange:     0.1500 Hartree-Fock + 1.0000 wB97M-V + LR-HF
 Correlation:  1.0000 wB97M-V
 Using SG-2 standard quadrature grid
 Nonlocal Correlation:  VV10 with C = 0.0100 and b = 6.00 and scale = 1.00000
 Grid used for NLC:  SG-1 standard quadrature
 
 Citation of the SMD model:
 Marenich, A.V.; Cramer, C.J.; Truhlar, D.G.
 J. Phys. Chem. B 2009, 113, 6378-6396.
 iSolventCode=           1
 Solvent: water                                                           
 
 vradii
            1           2           3           4           5           6
    1   1.8500000   1.5200000   1.5200000   1.8500000   1.5200000   1.5200000
            7           8           9          10
    1   1.2000000   1.2000000   1.5200000   1.2000000
 -------------------------------------------------------
 OpenMP BLAS3 based DFT computing Module                
 Release: version 1.0, May 2013, Q-Chem Inc. Pittsburgh 
 -------------------------------------------------------
 A unrestricted SCF calculation will be
 performed using Roothaan-Hall, DIIS, GDM
 SCF converges when RMS gradient is below 1.0e-06
 ---------------------------------------
  Cycle       Energy         DIIS error
 ---------------------------------------
    1    -454.0609402662      3.15e-04  Roothaan Step
 ---------------------------------------
  Cycle       Energy         DIIS error
 ---------------------------------------
    1    -454.0911263281      3.83e-04  
    2    -454.0944161731      3.86e-04  Done DIIS. Switching to GDM
 ---------------------------------------
  Cycle       Energy        RMS Gradient
 ---------------------------------------
    1    -454.0944161731      2.37e-02   Normal BFGS step
    2    -454.0922053622      3.90e-02  Line search: overstep
    3    -454.0977957719      3.66e-03   Normal BFGS step
    4    -454.0979248542      1.37e-03   Normal BFGS step
    5    -454.0979545173      1.78e-03   Normal BFGS step
    6    -454.0979635852      4.03e-04   Normal BFGS step
    7    -454.0979645164      3.49e-04   Normal BFGS step
    8    -454.0979652223      2.18e-04   Normal BFGS step
    9    -454.0979654927      9.19e-05   Normal BFGS step
   10    -454.0979655616      4.62e-05   Normal BFGS step
   11    -454.0979655757      1.68e-05   Normal BFGS step
   12    -454.0979655793      8.63e-06   Normal BFGS step
   13    -454.0979655795      2.64e-06   Normal BFGS step
   14    -454.0979655796      1.10e-06   Normal BFGS step
   15    -454.0979655798      7.16e-07  Convergence criterion met
 ---------------------------------------
 SCF time:   CPU 595.32s  wall 39.00s 
<S^2> =          0.756296684
(3)  G-ENP(liq) elect-nuc-pol free energy of system     -454.097965580 a.u.
(4)  G-CDS(liq) cavity-dispersion-solvent structure 
     free energy                                                5.7968 kcal/mol
(6)  G-S(liq) free energy of system                     -454.088727768 a.u.
 SCF   energy in the final basis set =     -454.0887277675
 Total energy in the final basis set =     -454.0887277675
 
 --------------------------------------------------------------
 
                    Orbital Energies (a.u.)
 --------------------------------------------------------------
 
 Alpha MOs
 -- Occupied --
-19.4039 -19.3884 -19.3863 -19.3695 -19.3568 -10.5198 -10.5165  -1.2938
 -1.2625  -1.1894  -1.1726  -1.1278  -0.8414  -0.7470  -0.6697  -0.6661
 -0.6347  -0.6273  -0.5923  -0.5683  -0.5524  -0.5291  -0.5173  -0.4614
 -0.4518  -0.4345  -0.4263  -0.3828
 -- Virtual --
  0.0076   0.0310   0.0405   0.0612   0.0804   0.0856   0.0947   0.1124
  0.1322   0.1411   0.1472   0.1559   0.1782   0.2043   0.2172   0.2188
  0.2297   0.2492   0.2586   0.2635   0.2691   0.2755   0.2994   0.3062
  0.3112   0.3153   0.3194   0.3311   0.3444   0.3483   0.3588   0.3749
  0.3956   0.4174   0.4256   0.4346   0.4440   0.4798   0.4875   0.5184
  0.5862   0.6003   0.6088   0.6365   0.6515   0.6649   0.6925   0.7191
  0.7373   0.7471   0.7782   0.8077   0.8200   0.8470   0.8655   0.8936
  0.8989   0.9174   0.9715   0.9863   1.0471   1.0603   1.0772   1.0940
  1.1054   1.1232   1.1287   1.1413   1.1541   1.1666   1.1738   1.1819
  1.2012   1.2194   1.2511   1.2633   1.2969   1.3256   1.3379   1.3707
  1.4036   1.4488   1.4789   1.5145   1.5595   1.5909   1.6248   1.6620
  1.6819   1.6936   1.7124   1.7680   1.8018   1.8281   1.8739   1.8921
  1.9498   1.9759   1.9878   2.0289   2.0530   2.0615   2.1592   2.2166
  2.2767   2.3460   2.3542   2.4146   2.4304   2.4526   2.4823   2.5564
  2.6056   2.6462   2.6569   2.6959   2.7642   2.7841   2.8288   2.8642
  2.8884   2.9142   3.0031   3.1035   3.1095   3.1389   3.1949   3.2591
  3.2896   3.3067   3.3495   3.4048   3.4282   3.4820   3.5096   3.5452
  3.5632   3.5913   3.6433   3.6631   3.7381   3.7606   3.7919   3.8193
  3.8510   3.8764   3.9000   3.9803   3.9914   4.0067   4.0875   4.1322
  4.1949   4.2570   4.2778   4.3293   4.4077   4.7190   5.0402   5.0653
  5.0880   5.1013   5.1127   5.1192   5.1214   5.1514   5.1652   5.1742
  5.1821   5.2079   5.2220   5.2362   5.2433   5.2664   5.2996   5.3093
  5.3240   5.3551   5.3893   5.4080   5.4137   5.4534   5.4759   5.5286
  5.5634   5.5784   5.5873   5.6087   5.6390   5.6846   5.7734   5.8121
  5.8511   5.9035   6.0182   6.1106   6.2125   6.3129   6.5234   6.5308
  6.6798   6.8269   6.8536   6.8890   6.8903   6.9336   6.9908   7.0043
  7.0231   7.0395   7.0680   7.0966   7.1179   7.2013   7.2191   7.2598
  7.2799   7.2956   7.3107   7.3480   7.4307   7.4355   7.4711   7.5279
  7.5600   7.6425   7.6611   7.7624   7.7676   7.8588   7.8824   7.9280
  8.0222  25.0517  25.1667  50.4995  50.5585  50.6489  50.6727  50.7699
 
 Beta MOs
 -- Occupied --
-19.4038 -19.3888 -19.3737 -19.3567 -19.3510 -10.5203 -10.5162  -1.2899
 -1.2617  -1.1846  -1.1582  -1.0880  -0.8372  -0.7456  -0.6611  -0.6577
 -0.6332  -0.6238  -0.5813  -0.5615  -0.5425  -0.5087  -0.4641  -0.4576
 -0.4440  -0.4106  -0.4015
 -- Virtual --
 -0.0458   0.0096   0.0320   0.0424   0.0616   0.0806   0.0870   0.0950
  0.1129   0.1324   0.1415   0.1478   0.1565   0.1805   0.2049   0.2186
  0.2195   0.2312   0.2497   0.2605   0.2641   0.2702   0.2773   0.2998
  0.3067   0.3140   0.3165   0.3198   0.3327   0.3453   0.3491   0.3597
  0.3772   0.3964   0.4186   0.4279   0.4366   0.4466   0.4822   0.4913
  0.5197   0.5878   0.6007   0.6093   0.6370   0.6547   0.6661   0.6925
  0.7217   0.7379   0.7480   0.7808   0.8090   0.8209   0.8489   0.8664
  0.8969   0.9016   0.9190   0.9746   0.9888   1.0484   1.0635   1.0784
  1.0965   1.1066   1.1237   1.1307   1.1425   1.1663   1.1721   1.1813
  1.1877   1.2159   1.2290   1.2549   1.2707   1.3044   1.3349   1.3479
  1.3744   1.4088   1.4512   1.4865   1.5164   1.5634   1.5921   1.6262
  1.6649   1.6919   1.7016   1.7201   1.7740   1.8051   1.8302   1.8822
  1.9103   1.9590   1.9802   1.9936   2.0375   2.0584   2.0672   2.1622
  2.2288   2.2821   2.3490   2.3552   2.4245   2.4348   2.4620   2.4934
  2.5587   2.6067   2.6487   2.6570   2.6966   2.7661   2.7887   2.8308
  2.8645   2.8901   2.9184   3.0037   3.1044   3.1096   3.1391   3.1949
  3.2592   3.2895   3.3072   3.3497   3.4070   3.4281   3.4824   3.5096
  3.5465   3.5642   3.5931   3.6438   3.6640   3.7394   3.7627   3.7922
  3.8224   3.8541   3.8769   3.9073   3.9816   3.9931   4.0066   4.0887
  4.1335   4.1970   4.2602   4.2835   4.3331   4.4096   4.7226   5.0767
  5.0849   5.1075   5.1199   5.1211   5.1440   5.1471   5.1620   5.1841
  5.1850   5.2015   5.2161   5.2334   5.2446   5.2629   5.2858   5.3199
  5.3275   5.3433   5.3752   5.3997   5.4294   5.4433   5.4651   5.4985
  5.5327   5.5659   5.5785   5.6028   5.6160   5.6748   5.6939   5.7836
  5.8187   5.8602   5.9103   6.0212   6.1201   6.2163   6.3152   6.5253
  6.5349   6.6831   6.8363   6.8590   6.8907   6.9366   6.9701   6.9971
  7.0203   7.0553   7.0709   7.0933   7.1401   7.1460   7.2225   7.2256
  7.2653   7.2995   7.3050   7.3338   7.3500   7.4387   7.4441   7.5098
  7.5315   7.5753   7.6662   7.6935   7.7686   7.7857   7.8605   7.8886
  7.9453   8.0269  25.0518  25.1667  50.5100  50.5624  50.6520  50.6788
 50.7699
 --------------------------------------------------------------
 
          Ground-State Mulliken Net Atomic Charges

     Atom                 Charge (a.u.)    Spin (a.u.)
  --------------------------------------------------------
      1 C                     0.393298       0.006169
      2 O                    -0.281080       0.004091
      3 O                    -0.441088       0.003027
      4 C                     0.264258      -0.019020
      5 O                    -0.346705       0.386816
      6 O                    -0.276666      -0.004529
      7 H                     0.370781      -0.000051
      8 H                     0.410771       0.001452
      9 O                    -0.446711       0.637346
     10 H                     0.353143      -0.015300
  --------------------------------------------------------
  Sum of atomic charges =     0.000000
  Sum of spin   charges =     1.000000

 -----------------------------------------------------------------
                    Cartesian Multipole Moments
 -----------------------------------------------------------------
    Charge (ESU x 10^10)
                 0.0000
    Dipole Moment (Debye)
         X       0.7959      Y       0.1938      Z      -1.7395
       Tot       1.9228
    Quadrupole Moments (Debye-Ang)
        XX     -36.6577     XY      13.2991     YY     -42.2867
        XZ       0.4959     YZ       2.3628     ZZ     -37.1205
    Octopole Moments (Debye-Ang^2)
       XXX     -47.7087    XXY      36.5520    XYY     -28.8538
       YYY      27.3010    XXZ     -17.4287    XYZ       1.8537
       YYZ      -2.6931    XZZ     -27.5247    YZZ       6.5284
       ZZZ      -6.6976
    Hexadecapole Moments (Debye-Ang^3)
      XXXX    -651.9851   XXXY      96.1484   XXYY    -138.6307
      XYYY       4.9405   YYYY    -228.3416   XXXZ     -20.5268
      XXYZ      13.6783   XYYZ      -9.2302   YYYZ      24.9710
      XXZZ    -119.2963   XYZZ      -2.8417   YYZZ     -45.9823
      XZZZ      -7.6256   YZZZ      26.0286   ZZZZ     -48.1134
 -----------------------------------------------------------------
 Calculating analytic gradient of the SCF energy
 Gradient of CDS energy
            1           2           3           4           5           6
    1   0.0026270  -0.0007844  -0.0008336  -0.0024930   0.0012445   0.0004010
    2   0.0021056  -0.0030806   0.0009390   0.0006891  -0.0018097   0.0009945
    3  -0.0003799   0.0007815  -0.0003181  -0.0003274   0.0007011  -0.0002697
            7           8           9          10
    1   0.0003113  -0.0002426   0.0002065  -0.0004366
    2   0.0002933  -0.0001980   0.0001256  -0.0000589
    3  -0.0000571   0.0001552   0.0000215  -0.0003071
 Gradient of SCF Energy
            1           2           3           4           5           6
    1   0.0029065  -0.0257019   0.0026552  -0.0144341  -0.0285102  -0.0163615
    2   0.0139116   0.0086394  -0.0151949  -0.0893257   0.0495542   0.0573580
    3  -0.0016201  -0.0038763   0.0044172   0.0225263  -0.0152413  -0.0251706
            7           8           9          10
    1   0.0257193  -0.0184933   0.0657483   0.0064718
    2   0.0051653  -0.0340775   0.0078624  -0.0038927
    3   0.0001329   0.0200319   0.0188080  -0.0200079
 Max gradient component =       8.933E-02
 RMS gradient           =       2.909E-02
 Computing fast CPCM-SWIG gradient
 Updating gradient with PCM contributions...
 -- total gradient after adding PCM contribution --
---------------------------------------------------
  Atom         X              Y              Z     
---------------------------------------------------
   1       0.003391       0.012278      -0.000951
   2      -0.005831       0.007265      -0.002425
   3      -0.000103      -0.005736       0.001272
   4      -0.013394      -0.089118       0.025741
   5      -0.026172       0.042223      -0.016339
   6      -0.022280       0.059907      -0.026254
   7       0.006799       0.000460       0.000300
   8      -0.012393      -0.028262       0.020469
   9       0.064796      -0.000711       0.004900
  10       0.005187       0.001693      -0.006714
---------------------------------------------------
 Number of fixed atoms: 0
 Gradient time:  CPU 84.76 s  wall 7.00 s
 ----------------------------------------------------------------
             Standard Nuclear Orientation (Angstroms)
    I     Atom           X                Y                Z
 ----------------------------------------------------------------
    1      C       1.8417675000    -0.0533112000     0.0805020000
    2      O       2.1165617000     1.2035567000    -0.2420372000
    3      O       2.6344872000    -0.9137621000     0.3740102000
    4      C       0.3211786000    -0.3613793000     0.0526874000
    5      O      -0.3897076000     0.6651346000    -0.2916236000
    6      O      -0.0605217000    -1.4844530000     0.3414988000
    7      H       3.0873509000     1.3289538000    -0.2051295000
    8      H      -1.1808589000    -1.4784910000     0.4467307000
    9      O      -1.9546936000    -0.4811476000     0.0639681000
   10      H      -2.0113328000    -0.5279058000    -0.9084217000
 ----------------------------------------------------------------
 Nuclear Repulsion Energy =         313.37922730 hartrees
 There are       28 alpha and       27 beta electrons
 Discretize the solute cavity surface with Lebedev spheres
	Using 110 Lebedev grid points for each H atom
	Using 194 Lebedev grid points for other atoms
	Atomic van der Waals radii will be scaled by 1.20
 Remove points where switching function is < 1.0e-08
 Keep 906 surface tesserae and discard 782 interior tesserae
 Molecular Surface Area = 109.451 Angst**2

                       Distance Matrix (Angstroms)
             C (  1)   O (  2)   O (  3)   C (  4)   O (  5)   O (  6)
   O (  2)  1.326371
   O (  3)  1.206204  2.265127
   C (  4)  1.551731  2.399852  2.399952
   O (  5)  2.373631  2.563931  3.475879  1.295237
   O (  6)  2.394784  3.507934  2.754962  1.220820  2.264936
   H (  7)  1.882477  0.979550  2.360140  3.251985  3.540914  4.257131
   H (  8)  3.361775  4.305899  3.857599  1.912936  2.401295  1.125284
   O (  9)  3.820528  4.416672  4.619942  2.279049  1.972204  2.161373
   H ( 10)  4.006194  4.525654  4.834993  2.528255  2.105577  2.506581
             H (  7)   H (  8)   O (  9)
   H (  8)  5.150173
   O (  9)  5.363869  1.319099
   H ( 10)  5.471665  1.851955  0.975160
 
 Requested basis set is 6-311++G(2df,2p)
 There are 74 shells and 268 basis functions
 A cutoff of  1.0D-11 yielded   2469 shell pairs
 There are     32859 function pairs (     41857 Cartesian)
 Smallest overlap matrix eigenvalue = 2.83E-05
 Guess MOs from SCF MO coefficient file

 -----------------------------------------------------------------------
  General SCF calculation program by
  Eric Jon Sundstrom, Paul Horn, Yuezhi Mao, Dmitri Zuev, Alec White,
  David Stuck, Shaama M.S., Shane Yost, Joonho Lee, David Small,
  Daniel Levine, Susi Lehtola, Hugh Burton, Evgeny Epifanovsky,
  Bang C. Huynh
 -----------------------------------------------------------------------
 Exchange:     0.1500 Hartree-Fock + 1.0000 wB97M-V + LR-HF
 Correlation:  1.0000 wB97M-V
 Using SG-2 standard quadrature grid
 Nonlocal Correlation:  VV10 with C = 0.0100 and b = 6.00 and scale = 1.00000
 Grid used for NLC:  SG-1 standard quadrature
 
 Citation of the SMD model:
 Marenich, A.V.; Cramer, C.J.; Truhlar, D.G.
 J. Phys. Chem. B 2009, 113, 6378-6396.
 iSolventCode=           1
 Solvent: water                                                           
 
 vradii
            1           2           3           4           5           6
    1   1.8500000   1.5200000   1.5200000   1.8500000   1.5200000   1.5200000
            7           8           9          10
    1   1.2000000   1.2000000   1.5200000   1.2000000
 -------------------------------------------------------
 OpenMP BLAS3 based DFT computing Module                
 Release: version 1.0, May 2013, Q-Chem Inc. Pittsburgh 
 -------------------------------------------------------
 A unrestricted SCF calculation will be
 performed using Roothaan-Hall, DIIS, GDM
 SCF converges when RMS gradient is below 1.0e-06
 ---------------------------------------
  Cycle       Energy         DIIS error
 ---------------------------------------
    1    -454.0609372135      3.14e-04  Roothaan Step
 ---------------------------------------
  Cycle       Energy         DIIS error
 ---------------------------------------
    1    -454.0910768096      3.85e-04  
    2    -454.0943331084      3.91e-04  Done DIIS. Switching to GDM
 ---------------------------------------
  Cycle       Energy        RMS Gradient
 ---------------------------------------
    1    -454.0943331084      2.40e-02   Normal BFGS step
    2    -454.0920570708      3.95e-02  Line search: overstep
    3    -454.0977923557      3.66e-03   Normal BFGS step
    4    -454.0979219184      1.33e-03   Normal BFGS step
    5    -454.0979520565      1.80e-03   Normal BFGS step
    6    -454.0979611661      4.09e-04   Normal BFGS step
    7    -454.0979621429      3.60e-04   Normal BFGS step
    8    -454.0979628889      2.23e-04   Normal BFGS step
    9    -454.0979631772      9.07e-05   Normal BFGS step
   10    -454.0979632457      4.66e-05   Normal BFGS step
   11    -454.0979632604      1.66e-05   Normal BFGS step
   12    -454.0979632639      8.70e-06   Normal BFGS step
   13    -454.0979632641      2.80e-06   Normal BFGS step
   14    -454.0979632643      1.34e-06   Normal BFGS step
   15    -454.0979632643      1.12e-06   Normal BFGS step
   16    -454.0979632646      8.23e-07  Convergence criterion met
 ---------------------------------------
 SCF time:   CPU 621.34s  wall 41.00s 
<S^2> =          0.756297601
(3)  G-ENP(liq) elect-nuc-pol free energy of system     -454.097963265 a.u.
(4)  G-CDS(liq) cavity-dispersion-solvent structure 
     free energy                                                5.7906 kcal/mol
(6)  G-S(liq) free energy of system                     -454.088735414 a.u.
 SCF   energy in the final basis set =     -454.0887354138
 Total energy in the final basis set =     -454.0887354138
 
 --------------------------------------------------------------
 
                    Orbital Energies (a.u.)
 --------------------------------------------------------------
 
 Alpha MOs
 -- Occupied --
-19.4039 -19.3885 -19.3863 -19.3696 -19.3568 -10.5199 -10.5166  -1.2939
 -1.2622  -1.1891  -1.1724  -1.1279  -0.8420  -0.7471  -0.6698  -0.6661
 -0.6347  -0.6274  -0.5923  -0.5681  -0.5523  -0.5291  -0.5173  -0.4613
 -0.4517  -0.4344  -0.4264  -0.3829
 -- Virtual --
  0.0071   0.0310   0.0406   0.0612   0.0804   0.0856   0.0947   0.1124
  0.1322   0.1411   0.1473   0.1559   0.1782   0.2043   0.2172   0.2188
  0.2297   0.2492   0.2586   0.2635   0.2691   0.2755   0.2995   0.3062
  0.3114   0.3153   0.3194   0.3311   0.3444   0.3484   0.3588   0.3749
  0.3958   0.4173   0.4258   0.4345   0.4440   0.4798   0.4872   0.5185
  0.5862   0.6005   0.6086   0.6365   0.6515   0.6648   0.6928   0.7187
  0.7371   0.7469   0.7781   0.8075   0.8199   0.8469   0.8655   0.8935
  0.8989   0.9171   0.9714   0.9863   1.0471   1.0603   1.0774   1.0940
  1.1055   1.1232   1.1287   1.1414   1.1541   1.1667   1.1738   1.1819
  1.2012   1.2194   1.2509   1.2633   1.2969   1.3258   1.3379   1.3709
  1.4032   1.4488   1.4789   1.5145   1.5595   1.5914   1.6247   1.6620
  1.6821   1.6935   1.7121   1.7681   1.8020   1.8279   1.8736   1.8921
  1.9496   1.9758   1.9877   2.0289   2.0529   2.0613   2.1595   2.2167
  2.2768   2.3459   2.3540   2.4146   2.4303   2.4524   2.4824   2.5560
  2.6055   2.6466   2.6573   2.6951   2.7642   2.7840   2.8285   2.8641
  2.8886   2.9145   3.0027   3.1036   3.1091   3.1398   3.1946   3.2593
  3.2895   3.3068   3.3493   3.4045   3.4291   3.4811   3.5081   3.5454
  3.5633   3.5917   3.6434   3.6633   3.7383   3.7605   3.7921   3.8192
  3.8510   3.8766   3.9002   3.9811   3.9909   4.0100   4.0876   4.1324
  4.1946   4.2570   4.2783   4.3303   4.4070   4.7209   5.0401   5.0653
  5.0879   5.1014   5.1128   5.1192   5.1215   5.1515   5.1652   5.1742
  5.1820   5.2073   5.2217   5.2362   5.2433   5.2664   5.2995   5.3091
  5.3239   5.3550   5.3891   5.4077   5.4133   5.4533   5.4760   5.5286
  5.5627   5.5788   5.5869   5.6084   5.6390   5.6845   5.7736   5.8123
  5.8507   5.9037   6.0162   6.1095   6.2117   6.3105   6.5206   6.5306
  6.6768   6.8262   6.8538   6.8889   6.8903   6.9335   6.9906   7.0042
  7.0231   7.0393   7.0664   7.0965   7.1179   7.2010   7.2191   7.2597
  7.2797   7.2958   7.3104   7.3476   7.4303   7.4353   7.4706   7.5272
  7.5601   7.6425   7.6615   7.7611   7.7675   7.8585   7.8831   7.9282
  8.0215  25.0501  25.1677  50.4994  50.5581  50.6485  50.6721  50.7690
 
 Beta MOs
 -- Occupied --
-19.4038 -19.3889 -19.3737 -19.3566 -19.3511 -10.5204 -10.5163  -1.2900
 -1.2614  -1.1840  -1.1582  -1.0881  -0.8377  -0.7457  -0.6612  -0.6578
 -0.6330  -0.6238  -0.5812  -0.5613  -0.5424  -0.5087  -0.4639  -0.4574
 -0.4440  -0.4107  -0.4016
 -- Virtual --
 -0.0459   0.0091   0.0320   0.0424   0.0616   0.0806   0.0870   0.0950
  0.1129   0.1324   0.1415   0.1479   0.1565   0.1805   0.2049   0.2186
  0.2195   0.2312   0.2497   0.2605   0.2641   0.2702   0.2773   0.2998
  0.3067   0.3142   0.3166   0.3198   0.3327   0.3453   0.3491   0.3597
  0.3772   0.3966   0.4184   0.4281   0.4365   0.4466   0.4821   0.4910
  0.5197   0.5878   0.6009   0.6092   0.6369   0.6547   0.6660   0.6928
  0.7212   0.7377   0.7478   0.7807   0.8088   0.8208   0.8489   0.8665
  0.8968   0.9016   0.9187   0.9746   0.9888   1.0484   1.0635   1.0786
  1.0965   1.1067   1.1237   1.1307   1.1426   1.1664   1.1723   1.1812
  1.1877   1.2160   1.2290   1.2546   1.2707   1.3044   1.3351   1.3479
  1.3745   1.4084   1.4512   1.4866   1.5165   1.5634   1.5925   1.6261
  1.6649   1.6920   1.7014   1.7199   1.7741   1.8053   1.8299   1.8818
  1.9103   1.9589   1.9800   1.9936   2.0375   2.0583   2.0670   2.1626
  2.2288   2.2822   2.3489   2.3551   2.4245   2.4346   2.4619   2.4934
  2.5583   2.6066   2.6491   2.6574   2.6958   2.7661   2.7886   2.8304
  2.8644   2.8902   2.9188   3.0033   3.1044   3.1093   3.1399   3.1946
  3.2595   3.2894   3.3073   3.3496   3.4067   3.4289   3.4815   3.5081
  3.5466   3.5643   3.5935   3.6439   3.6642   3.7396   3.7627   3.7923
  3.8223   3.8542   3.8771   3.9075   3.9823   3.9927   4.0099   4.0888
  4.1337   4.1967   4.2603   4.2840   4.3340   4.4088   4.7246   5.0767
  5.0849   5.1075   5.1199   5.1211   5.1439   5.1472   5.1620   5.1840
  5.1849   5.2015   5.2153   5.2333   5.2447   5.2630   5.2857   5.3199
  5.3272   5.3432   5.3751   5.3995   5.4289   5.4432   5.4650   5.4985
  5.5326   5.5654   5.5790   5.6024   5.6158   5.6749   5.6937   5.7837
  5.8190   5.8598   5.9104   6.0192   6.1190   6.2156   6.3128   6.5226
  6.5347   6.6801   6.8357   6.8590   6.8906   6.9365   6.9699   6.9970
  7.0202   7.0551   7.0696   7.0931   7.1400   7.1459   7.2224   7.2254
  7.2651   7.2992   7.3050   7.3337   7.3496   7.4384   7.4437   7.5093
  7.5310   7.5754   7.6665   7.6936   7.7673   7.7857   7.8602   7.8894
  7.9455   8.0263  25.0502  25.1676  50.5100  50.5620  50.6515  50.6783
 50.7690
 --------------------------------------------------------------
 
          Ground-State Mulliken Net Atomic Charges

     Atom                 Charge (a.u.)    Spin (a.u.)
  --------------------------------------------------------
      1 C                     0.393899       0.006060
      2 O                    -0.281616       0.004076
      3 O                    -0.442084       0.002979
      4 C                     0.264472      -0.018925
      5 O                    -0.346620       0.386533
      6 O                    -0.276664      -0.004560
      7 H                     0.370982      -0.000040
      8 H                     0.410805       0.001447
      9 O                    -0.446366       0.637738
     10 H                     0.353192      -0.015307
  --------------------------------------------------------
  Sum of atomic charges =     0.000000
  Sum of spin   charges =     1.000000

 -----------------------------------------------------------------
                    Cartesian Multipole Moments
 -----------------------------------------------------------------
    Charge (ESU x 10^10)
                 0.0000
    Dipole Moment (Debye)
         X       0.7776      Y       0.1945      Z      -1.7407
       Tot       1.9164
    Quadrupole Moments (Debye-Ang)
        XX     -36.6913     XY      13.3099     YY     -42.2907
        XZ       0.4922     YZ       2.3642     ZZ     -37.1221
    Octopole Moments (Debye-Ang^2)
       XXX     -47.8361    XXY      36.5717    XYY     -28.8674
       YYY      27.3024    XXZ     -17.4392    XYZ       1.8568
       YYZ      -2.6940    XZZ     -27.5313    YZZ       6.5302
       ZZZ      -6.7021
    Hexadecapole Moments (Debye-Ang^3)
      XXXX    -652.0719   XXXY      96.2424   XXYY    -138.6209
      XYYY       4.9739   YYYY    -228.3670   XXXZ     -20.5554
      XXYZ      13.6812   XYYZ      -9.2354   YYYZ      24.9771
      XXZZ    -119.2920   XYZZ      -2.8326   YYZZ     -45.9868
      XZZZ      -7.6341   YZZZ      26.0325   ZZZZ     -48.1182
 -----------------------------------------------------------------
 Calculating analytic gradient of the SCF energy
 Gradient of CDS energy
            1           2           3           4           5           6
    1   0.0026444  -0.0007927  -0.0008469  -0.0024899   0.0012448   0.0004013
    2   0.0021070  -0.0030941   0.0009506   0.0006896  -0.0018096   0.0009944
    3  -0.0003794   0.0007849  -0.0003220  -0.0003274   0.0007011  -0.0002696
            7           8           9          10
    1   0.0003116  -0.0002426   0.0002065  -0.0004366
    2   0.0002933  -0.0001980   0.0001256  -0.0000589
    3  -0.0000571   0.0001552   0.0000215  -0.0003071
 Gradient of SCF Energy
            1           2           3           4           5           6
    1   0.0001814  -0.0251224   0.0041207  -0.0137972  -0.0284842  -0.0163436
    2   0.0145047   0.0088000  -0.0162592  -0.0892570   0.0495537   0.0573878
    3  -0.0019246  -0.0038947   0.0047990   0.0225090  -0.0152297  -0.0251738
            7           8           9          10
    1   0.0257311  -0.0185130   0.0657495   0.0064776
    2   0.0053811  -0.0340827   0.0078676  -0.0038960
    3   0.0000764   0.0200371   0.0188219  -0.0200206
 Max gradient component =       8.926E-02
 RMS gradient           =       2.909E-02
 Computing fast CPCM-SWIG gradient
 Updating gradient with PCM contributions...
 -- total gradient after adding PCM contribution --
---------------------------------------------------
  Atom         X              Y              Z     
---------------------------------------------------
   1       0.000655       0.012906      -0.001272
   2      -0.005294       0.007441      -0.002449
   3       0.001375      -0.006827       0.001662
   4      -0.012758      -0.089050       0.025733
   5      -0.026133       0.042206      -0.016323
   6      -0.022266       0.059939      -0.026258
   7       0.006842       0.000663       0.000249
   8      -0.012396      -0.028257       0.020470
   9       0.064786      -0.000713       0.004891
  10       0.005189       0.001692      -0.006703
---------------------------------------------------
 Number of fixed atoms: 0
 Gradient time:  CPU 84.25 s  wall 7.10 s
 ----------------------------------------------------------------
             Standard Nuclear Orientation (Angstroms)
    I     Atom           X                Y                Z
 ----------------------------------------------------------------
    1      C       1.8427675000    -0.0523112000     0.0805020000
    2      O       2.1165617000     1.2035567000    -0.2420372000
    3      O       2.6344872000    -0.9137621000     0.3740102000
    4      C       0.3211786000    -0.3613793000     0.0526874000
    5      O      -0.3897076000     0.6651346000    -0.2916236000
    6      O      -0.0605217000    -1.4844530000     0.3414988000
    7      H       3.0873509000     1.3289538000    -0.2051295000
    8      H      -1.1808589000    -1.4784910000     0.4467307000
    9      O      -1.9546936000    -0.4811476000     0.0639681000
   10      H      -2.0113328000    -0.5279058000    -0.9084217000
 ----------------------------------------------------------------
 Nuclear Repulsion Energy =         313.37530489 hartrees
 There are       28 alpha and       27 beta electrons
 Discretize the solute cavity surface with Lebedev spheres
	Using 110 Lebedev grid points for each H atom
	Using 194 Lebedev grid points for other atoms
	Atomic van der Waals radii will be scaled by 1.20
 Remove points where switching function is < 1.0e-08
 Keep 906 surface tesserae and discard 782 interior tesserae
 Molecular Surface Area = 109.451 Angst**2

                       Distance Matrix (Angstroms)
             C (  1)   O (  2)   O (  3)   C (  4)   O (  5)   O (  6)
   O (  2)  1.325217
   O (  3)  1.206261  2.265127
   C (  4)  1.552910  2.399852  2.399952
   O (  5)  2.374269  2.563931  3.475879  1.295237
   O (  6)  2.396176  3.507934  2.754962  1.220820  2.264936
   H (  7)  1.881081  0.979550  2.360140  3.251985  3.540914  4.257131
   H (  8)  3.363098  4.305899  3.857599  1.912936  2.401295  1.125284
   O (  9)  3.821634  4.416672  4.619942  2.279049  1.972204  2.161373
   H ( 10)  4.007275  4.525654  4.834993  2.528255  2.105577  2.506581
             H (  7)   H (  8)   O (  9)
   H (  8)  5.150173
   O (  9)  5.363869  1.319099
   H ( 10)  5.471665  1.851955  0.975160
 
 Requested basis set is 6-311++G(2df,2p)
 There are 74 shells and 268 basis functions
 A cutoff of  1.0D-11 yielded   2469 shell pairs
 There are     32859 function pairs (     41857 Cartesian)
 Smallest overlap matrix eigenvalue = 2.84E-05
 Guess MOs from SCF MO coefficient file

 -----------------------------------------------------------------------
  General SCF calculation program by
  Eric Jon Sundstrom, Paul Horn, Yuezhi Mao, Dmitri Zuev, Alec White,
  David Stuck, Shaama M.S., Shane Yost, Joonho Lee, David Small,
  Daniel Levine, Susi Lehtola, Hugh Burton, Evgeny Epifanovsky,
  Bang C. Huynh
 -----------------------------------------------------------------------
 Exchange:     0.1500 Hartree-Fock + 1.0000 wB97M-V + LR-HF
 Correlation:  1.0000 wB97M-V
 Using SG-2 standard quadrature grid
 Nonlocal Correlation:  VV10 with C = 0.0100 and b = 6.00 and scale = 1.00000
 Grid used for NLC:  SG-1 standard quadrature
 
 Citation of the SMD model:
 Marenich, A.V.; Cramer, C.J.; Truhlar, D.G.
 J. Phys. Chem. B 2009, 113, 6378-6396.
 iSolventCode=           1
 Solvent: water                                                           
 
 vradii
            1           2           3           4           5           6
    1   1.8500000   1.5200000   1.5200000   1.8500000   1.5200000   1.5200000
            7           8           9          10
    1   1.2000000   1.2000000   1.5200000   1.2000000
 -------------------------------------------------------
 OpenMP BLAS3 based DFT computing Module                
 Release: version 1.0, May 2013, Q-Chem Inc. Pittsburgh 
 -------------------------------------------------------
 A unrestricted SCF calculation will be
 performed using Roothaan-Hall, DIIS, GDM
 SCF converges when RMS gradient is below 1.0e-06
 ---------------------------------------
  Cycle       Energy         DIIS error
 ---------------------------------------
    1    -454.0608888947      3.15e-04  Roothaan Step
 ---------------------------------------
  Cycle       Energy         DIIS error
 ---------------------------------------
    1    -454.0910781683      3.83e-04  
    2    -454.0943538854      3.89e-04  Done DIIS. Switching to GDM
 ---------------------------------------
  Cycle       Energy        RMS Gradient
 ---------------------------------------
    1    -454.0943538854      2.39e-02   Normal BFGS step
    2    -454.0921037499      3.94e-02  Line search: overstep
    3    -454.0977740185      3.68e-03   Normal BFGS step
    4    -454.0979038758      1.35e-03   Normal BFGS step
    5    -454.0979334290      1.79e-03   Normal BFGS step
    6    -454.0979425689      4.06e-04   Normal BFGS step
    7    -454.0979435017      3.49e-04   Normal BFGS step
    8    -454.0979442099      2.20e-04   Normal BFGS step
    9    -454.0979444795      9.33e-05   Normal BFGS step
   10    -454.0979445495      4.66e-05   Normal BFGS step
   11    -454.0979445638      1.71e-05   Normal BFGS step
   12    -454.0979445674      8.70e-06   Normal BFGS step
   13    -454.0979445676      2.64e-06   Normal BFGS step
   14    -454.0979445678      1.09e-06   Normal BFGS step
   15    -454.0979445679      6.77e-07  Convergence criterion met
 ---------------------------------------
 SCF time:   CPU 590.51s  wall 40.00s 
<S^2> =          0.756297587
(3)  G-ENP(liq) elect-nuc-pol free energy of system     -454.097944568 a.u.
(4)  G-CDS(liq) cavity-dispersion-solvent structure 
     free energy                                                5.7962 kcal/mol
(6)  G-S(liq) free energy of system                     -454.088707784 a.u.
 SCF   energy in the final basis set =     -454.0887077843
 Total energy in the final basis set =     -454.0887077843
 
 --------------------------------------------------------------
 
                    Orbital Energies (a.u.)
 --------------------------------------------------------------
 
 Alpha MOs
 -- Occupied --
-19.4041 -19.3884 -19.3863 -19.3695 -19.3566 -10.5199 -10.5166  -1.2938
 -1.2625  -1.1891  -1.1725  -1.1278  -0.8417  -0.7472  -0.6699  -0.6661
 -0.6347  -0.6274  -0.5923  -0.5682  -0.5524  -0.5291  -0.5172  -0.4613
 -0.4517  -0.4343  -0.4263  -0.3828
 -- Virtual --
  0.0073   0.0310   0.0405   0.0612   0.0804   0.0856   0.0947   0.1124
  0.1322   0.1411   0.1473   0.1558   0.1782   0.2043   0.2172   0.2187
  0.2297   0.2492   0.2586   0.2635   0.2691   0.2755   0.2994   0.3062
  0.3114   0.3153   0.3194   0.3311   0.3444   0.3484   0.3588   0.3749
  0.3957   0.4175   0.4256   0.4345   0.4440   0.4798   0.4873   0.5185
  0.5862   0.6003   0.6087   0.6365   0.6515   0.6649   0.6926   0.7189
  0.7372   0.7470   0.7781   0.8075   0.8200   0.8469   0.8656   0.8935
  0.8989   0.9171   0.9714   0.9863   1.0472   1.0604   1.0773   1.0940
  1.1055   1.1232   1.1288   1.1413   1.1541   1.1667   1.1737   1.1819
  1.2012   1.2195   1.2511   1.2633   1.2969   1.3257   1.3379   1.3708
  1.4034   1.4486   1.4789   1.5144   1.5595   1.5911   1.6247   1.6620
  1.6819   1.6935   1.7123   1.7680   1.8018   1.8279   1.8738   1.8920
  1.9497   1.9759   1.9878   2.0288   2.0528   2.0613   2.1593   2.2166
  2.2766   2.3463   2.3541   2.4146   2.4303   2.4525   2.4822   2.5560
  2.6056   2.6463   2.6570   2.6953   2.7642   2.7841   2.8286   2.8641
  2.8890   2.9142   3.0032   3.1036   3.1094   3.1390   3.1948   3.2591
  3.2898   3.3070   3.3494   3.4050   3.4286   3.4815   3.5087   3.5453
  3.5634   3.5916   3.6429   3.6631   3.7382   3.7603   3.7920   3.8193
  3.8510   3.8765   3.9001   3.9810   3.9911   4.0079   4.0875   4.1323
  4.1944   4.2570   4.2780   4.3296   4.4075   4.7197   5.0401   5.0653
  5.0879   5.1013   5.1128   5.1192   5.1215   5.1516   5.1652   5.1742
  5.1820   5.2078   5.2218   5.2361   5.2433   5.2665   5.2995   5.3091
  5.3239   5.3550   5.3892   5.4077   5.4135   5.4533   5.4760   5.5285
  5.5631   5.5784   5.5870   5.6087   5.6390   5.6846   5.7737   5.8121
  5.8505   5.9036   6.0183   6.1103   6.2128   6.3109   6.5210   6.5307
  6.6788   6.8262   6.8539   6.8889   6.8903   6.9335   6.9907   7.0042
  7.0231   7.0394   7.0665   7.0965   7.1179   7.2011   7.2192   7.2598
  7.2797   7.2957   7.3106   7.3482   7.4302   7.4354   7.4707   7.5278
  7.5600   7.6425   7.6613   7.7617   7.7675   7.8587   7.8829   7.9280
  8.0219  25.0512  25.1671  50.4995  50.5586  50.6486  50.6722  50.7689
 
 Beta MOs
 -- Occupied --
-19.4040 -19.3889 -19.3737 -19.3565 -19.3511 -10.5204 -10.5163  -1.2900
 -1.2617  -1.1841  -1.1582  -1.0880  -0.8375  -0.7458  -0.6613  -0.6577
 -0.6331  -0.6238  -0.5812  -0.5614  -0.5424  -0.5086  -0.4639  -0.4574
 -0.4440  -0.4107  -0.4015
 -- Virtual --
 -0.0458   0.0093   0.0320   0.0424   0.0616   0.0806   0.0870   0.0950
  0.1129   0.1324   0.1415   0.1479   0.1564   0.1805   0.2049   0.2186
  0.2195   0.2312   0.2497   0.2605   0.2641   0.2702   0.2773   0.2998
  0.3067   0.3142   0.3165   0.3198   0.3328   0.3453   0.3492   0.3597
  0.3772   0.3965   0.4187   0.4279   0.4366   0.4466   0.4822   0.4911
  0.5198   0.5878   0.6007   0.6093   0.6370   0.6547   0.6661   0.6926
  0.7214   0.7378   0.7479   0.7807   0.8088   0.8209   0.8488   0.8666
  0.8968   0.9016   0.9186   0.9746   0.9888   1.0485   1.0636   1.0785
  1.0965   1.1066   1.1237   1.1308   1.1425   1.1664   1.1722   1.1813
  1.1877   1.2160   1.2291   1.2548   1.2707   1.3044   1.3350   1.3479
  1.3744   1.4086   1.4510   1.4866   1.5163   1.5634   1.5922   1.6261
  1.6649   1.6919   1.7015   1.7201   1.7740   1.8051   1.8300   1.8820
  1.9103   1.9589   1.9802   1.9936   2.0375   2.0583   2.0671   2.1623
  2.2288   2.2820   2.3493   2.3552   2.4245   2.4347   2.4619   2.4933
  2.5584   2.6067   2.6489   2.6572   2.6960   2.7661   2.7887   2.8306
  2.8645   2.8906   2.9185   3.0038   3.1045   3.1096   3.1392   3.1948
  3.2593   3.2897   3.3075   3.3497   3.4072   3.4284   3.4819   3.5088
  3.5466   3.5644   3.5933   3.6434   3.6640   3.7395   3.7625   3.7922
  3.8224   3.8541   3.8770   3.9074   3.9822   3.9928   4.0078   4.0887
  4.1336   4.1965   4.2602   4.2836   4.3334   4.4093   4.7233   5.0767
  5.0848   5.1075   5.1199   5.1211   5.1439   5.1473   5.1621   5.1841
  5.1849   5.2015   5.2159   5.2332   5.2445   5.2630   5.2858   5.3199
  5.3272   5.3432   5.3751   5.3996   5.4290   5.4432   5.4650   5.4985
  5.5326   5.5658   5.5785   5.6024   5.6161   5.6749   5.6938   5.7839
  5.8187   5.8597   5.9104   6.0212   6.1198   6.2166   6.3131   6.5229
  6.5348   6.6821   6.8358   6.8592   6.8906   6.9365   6.9700   6.9970
  7.0202   7.0551   7.0696   7.0932   7.1401   7.1459   7.2225   7.2256
  7.2652   7.2992   7.3051   7.3337   7.3501   7.4384   7.4438   7.5095
  7.5314   7.5753   7.6664   7.6935   7.7680   7.7856   7.8604   7.8892
  7.9453   8.0266  25.0513  25.1671  50.5101  50.5626  50.6516  50.6784
 50.7689
 --------------------------------------------------------------
 
          Ground-State Mulliken Net Atomic Charges

     Atom                 Charge (a.u.)    Spin (a.u.)
  --------------------------------------------------------
      1 C                     0.393657       0.006129
      2 O                    -0.280454       0.004080
      3 O                    -0.442385       0.003010
      4 C                     0.264126      -0.018991
      5 O                    -0.346562       0.386757
      6 O                    -0.276761      -0.004539
      7 H                     0.371028      -0.000049
      8 H                     0.410787       0.001451
      9 O                    -0.446602       0.637454
     10 H                     0.353165      -0.015302
  --------------------------------------------------------
  Sum of atomic charges =     0.000000
  Sum of spin   charges =     1.000000

 -----------------------------------------------------------------
                    Cartesian Multipole Moments
 -----------------------------------------------------------------
    Charge (ESU x 10^10)
                 0.0000
    Dipole Moment (Debye)
         X       0.7864      Y       0.2069      Z      -1.7430
       Tot       1.9234
    Quadrupole Moments (Debye-Ang)
        XX     -36.6839     XY      13.3334     YY     -42.2847
        XZ       0.4866     YZ       2.3635     ZZ     -37.1223
    Octopole Moments (Debye-Ang^2)
       XXX     -47.8040    XXY      36.6327    XYY     -28.8524
       YYY      27.3171    XXZ     -17.4540    XYZ       1.8554
       YYZ      -2.6968    XZZ     -27.5309    YZZ       6.5340
       ZZZ      -6.7076
    Hexadecapole Moments (Debye-Ang^3)
      XXXX    -652.1978   XXXY      96.3752   XXYY    -138.6106
      XYYY       4.9981   YYYY    -228.3310   XXXZ     -20.6017
      XXYZ      13.6796   XYYZ      -9.2411   YYYZ      24.9717
      XXZZ    -119.3079   XYZZ      -2.8244   YYZZ     -45.9817
      XZZZ      -7.6490   YZZZ      26.0297   ZZZZ     -48.1195
 -----------------------------------------------------------------
 Calculating analytic gradient of the SCF energy
 Gradient of CDS energy
            1           2           3           4           5           6
    1   0.0026350  -0.0007816  -0.0008460  -0.0024917   0.0012442   0.0004013
    2   0.0020677  -0.0030540   0.0009523   0.0006887  -0.0018101   0.0009944
    3  -0.0003698   0.0007753  -0.0003222  -0.0003275   0.0007012  -0.0002696
            7           8           9          10
    1   0.0003115  -0.0002426   0.0002065  -0.0004366
    2   0.0002922  -0.0001980   0.0001256  -0.0000589
    3  -0.0000569   0.0001552   0.0000215  -0.0003071
 Gradient of SCF Energy
            1           2           3           4           5           6
    1   0.0012499  -0.0255254   0.0038712  -0.0141882  -0.0284425  -0.0164174
    2   0.0155711   0.0082523  -0.0164420  -0.0894233   0.0495464   0.0573424
    3  -0.0020628  -0.0038008   0.0048028   0.0224917  -0.0152206  -0.0251560
            7           8           9          10
    1   0.0257214  -0.0184887   0.0657443   0.0064755
    2   0.0052631  -0.0340853   0.0078653  -0.0038901
    3   0.0001091   0.0200370   0.0188144  -0.0200148
 Max gradient component =       8.942E-02
 RMS gradient           =       2.914E-02
 Computing fast CPCM-SWIG gradient
 Updating gradient with PCM contributions...
 -- total gradient after adding PCM contribution --
---------------------------------------------------
  Atom         X              Y              Z     
---------------------------------------------------
   1       0.001711       0.013970      -0.001414
   2      -0.005659       0.006897      -0.002351
   3       0.001133      -0.006988       0.001660
   4      -0.013134      -0.089219       0.025715
   5      -0.026091       0.042208      -0.016315
   6      -0.022347       0.059890      -0.026240
   7       0.006792       0.000526       0.000285
   8      -0.012383      -0.028270       0.020474
   9       0.064789      -0.000708       0.004897
  10       0.005189       0.001694      -0.006711
---------------------------------------------------
 Number of fixed atoms: 0
 Gradient time:  CPU 84.06 s  wall 6.93 s
 ----------------------------------------------------------------
             Standard Nuclear Orientation (Angstroms)
    I     Atom           X                Y                Z
 ----------------------------------------------------------------
    1      C       1.8427675000    -0.0543112000     0.0805020000
    2      O       2.1165617000     1.2035567000    -0.2420372000
    3      O       2.6344872000    -0.9137621000     0.3740102000
    4      C       0.3211786000    -0.3613793000     0.0526874000
    5      O      -0.3897076000     0.6651346000    -0.2916236000
    6      O      -0.0605217000    -1.4844530000     0.3414988000
    7      H       3.0873509000     1.3289538000    -0.2051295000
    8      H      -1.1808589000    -1.4784910000     0.4467307000
    9      O      -1.9546936000    -0.4811476000     0.0639681000
   10      H      -2.0113328000    -0.5279058000    -0.9084217000
 ----------------------------------------------------------------
 Nuclear Repulsion Energy =         313.37793260 hartrees
 There are       28 alpha and       27 beta electrons
 Discretize the solute cavity surface with Lebedev spheres
	Using 110 Lebedev grid points for each H atom
	Using 194 Lebedev grid points for other atoms
	Atomic van der Waals radii will be scaled by 1.20
 Remove points where switching function is < 1.0e-08
 Keep 906 surface tesserae and discard 782 interior tesserae
 Molecular Surface Area = 109.451 Angst**2

                       Distance Matrix (Angstroms)
             C (  1)   O (  2)   O (  3)   C (  4)   O (  5)   O (  6)
   O (  2)  1.327112
   O (  3)  1.204833  2.265127
   C (  4)  1.552513  2.399852  2.399952
   O (  5)  2.374874  2.563931  3.475879  1.295237
   O (  6)  2.394981  3.507934  2.754962  1.220820  2.264936
   H (  7)  1.882550  0.979550  2.360140  3.251985  3.540914  4.257131
   H (  8)  3.362250  4.305899  3.857599  1.912936  2.401295  1.125284
   O (  9)  3.821410  4.416672  4.619942  2.279049  1.972204  2.161373
   H ( 10)  4.007038  4.525654  4.834993  2.528255  2.105577  2.506581
             H (  7)   H (  8)   O (  9)
   H (  8)  5.150173
   O (  9)  5.363869  1.319099
   H ( 10)  5.471665  1.851955  0.975160
 
 Requested basis set is 6-311++G(2df,2p)
 There are 74 shells and 268 basis functions
 A cutoff of  1.0D-11 yielded   2469 shell pairs
 There are     32859 function pairs (     41857 Cartesian)
 Smallest overlap matrix eigenvalue = 2.84E-05
 Guess MOs from SCF MO coefficient file

 -----------------------------------------------------------------------
  General SCF calculation program by
  Eric Jon Sundstrom, Paul Horn, Yuezhi Mao, Dmitri Zuev, Alec White,
  David Stuck, Shaama M.S., Shane Yost, Joonho Lee, David Small,
  Daniel Levine, Susi Lehtola, Hugh Burton, Evgeny Epifanovsky,
  Bang C. Huynh
 -----------------------------------------------------------------------
 Exchange:     0.1500 Hartree-Fock + 1.0000 wB97M-V + LR-HF
 Correlation:  1.0000 wB97M-V
 Using SG-2 standard quadrature grid
 Nonlocal Correlation:  VV10 with C = 0.0100 and b = 6.00 and scale = 1.00000
 Grid used for NLC:  SG-1 standard quadrature
 
 Citation of the SMD model:
 Marenich, A.V.; Cramer, C.J.; Truhlar, D.G.
 J. Phys. Chem. B 2009, 113, 6378-6396.
 iSolventCode=           1
 Solvent: water                                                           
 
 vradii
            1           2           3           4           5           6
    1   1.8500000   1.5200000   1.5200000   1.8500000   1.5200000   1.5200000
            7           8           9          10
    1   1.2000000   1.2000000   1.5200000   1.2000000
 -------------------------------------------------------
 OpenMP BLAS3 based DFT computing Module                
 Release: version 1.0, May 2013, Q-Chem Inc. Pittsburgh 
 -------------------------------------------------------
 A unrestricted SCF calculation will be
 performed using Roothaan-Hall, DIIS, GDM
 SCF converges when RMS gradient is below 1.0e-06
 ---------------------------------------
  Cycle       Energy         DIIS error
 ---------------------------------------
    1    -454.0609414708      3.15e-04  Roothaan Step
 ---------------------------------------
  Cycle       Energy         DIIS error
 ---------------------------------------
    1    -454.0911622927      3.82e-04  
    2    -454.0944594023      3.85e-04  Done DIIS. Switching to GDM
 ---------------------------------------
  Cycle       Energy        RMS Gradient
 ---------------------------------------
    1    -454.0944594023      2.35e-02   Normal BFGS step
    2    -454.0922724299      3.87e-02  Line search: overstep
    3    -454.0978149649      3.63e-03   Normal BFGS step
    4    -454.0979432990      1.35e-03   Normal BFGS step
    5    -454.0979731764      1.78e-03   Normal BFGS step
    6    -454.0979821697      4.01e-04   Normal BFGS step
    7    -454.0979831189      3.54e-04   Normal BFGS step
    8    -454.0979838407      2.19e-04   Normal BFGS step
    9    -454.0979841200      8.97e-05   Normal BFGS step
   10    -454.0979841873      4.56e-05   Normal BFGS step
   11    -454.0979842015      1.64e-05   Normal BFGS step
   12    -454.0979842049      8.60e-06   Normal BFGS step
   13    -454.0979842051      2.75e-06   Normal BFGS step
   14    -454.0979842053      1.20e-06   Normal BFGS step
   15    -454.0979842054      9.44e-07  Convergence criterion met
 ---------------------------------------
 SCF time:   CPU 589.48s  wall 39.00s 
<S^2> =          0.756296753
(3)  G-ENP(liq) elect-nuc-pol free energy of system     -454.097984205 a.u.
(4)  G-CDS(liq) cavity-dispersion-solvent structure 
     free energy                                                5.7912 kcal/mol
(6)  G-S(liq) free energy of system                     -454.088755383 a.u.
 SCF   energy in the final basis set =     -454.0887553827
 Total energy in the final basis set =     -454.0887553827
 
 --------------------------------------------------------------
 
                    Orbital Energies (a.u.)
 --------------------------------------------------------------
 
 Alpha MOs
 -- Occupied --
-19.4037 -19.3884 -19.3863 -19.3696 -19.3569 -10.5199 -10.5165  -1.2938
 -1.2622  -1.1894  -1.1725  -1.1278  -0.8417  -0.7469  -0.6697  -0.6661
 -0.6347  -0.6273  -0.5923  -0.5682  -0.5523  -0.5292  -0.5174  -0.4614
 -0.4517  -0.4345  -0.4263  -0.3829
 -- Virtual --
  0.0073   0.0310   0.0406   0.0612   0.0804   0.0856   0.0947   0.1124
  0.1322   0.1411   0.1472   0.1559   0.1782   0.2043   0.2172   0.2188
  0.2297   0.2492   0.2586   0.2635   0.2691   0.2755   0.2994   0.3062
  0.3113   0.3153   0.3194   0.3310   0.3444   0.3483   0.3588   0.3749
  0.3957   0.4172   0.4257   0.4345   0.4440   0.4798   0.4874   0.5184
  0.5862   0.6005   0.6087   0.6365   0.6515   0.6648   0.6927   0.7189
  0.7373   0.7470   0.7782   0.8077   0.8199   0.8470   0.8654   0.8936
  0.8989   0.9175   0.9714   0.9863   1.0471   1.0603   1.0774   1.0940
  1.1055   1.1232   1.1286   1.1415   1.1541   1.1666   1.1738   1.1819
  1.2012   1.2193   1.2509   1.2633   1.2969   1.3257   1.3379   1.3708
  1.4034   1.4490   1.4789   1.5147   1.5595   1.5912   1.6248   1.6620
  1.6821   1.6936   1.7121   1.7681   1.8020   1.8281   1.8737   1.8921
  1.9497   1.9758   1.9878   2.0289   2.0530   2.0614   2.1595   2.2166
  2.2769   2.3456   2.3541   2.4146   2.4304   2.4525   2.4825   2.5563
  2.6055   2.6464   2.6571   2.6956   2.7642   2.7840   2.8287   2.8641
  2.8881   2.9144   3.0026   3.1035   3.1092   3.1397   3.1946   3.2592
  3.2893   3.3065   3.3494   3.4043   3.4287   3.4816   3.5089   3.5453
  3.5631   3.5915   3.6438   3.6632   3.7382   3.7607   3.7921   3.8191
  3.8510   3.8765   3.9002   3.9804   3.9913   4.0087   4.0876   4.1323
  4.1951   4.2570   4.2782   4.3299   4.4072   4.7202   5.0402   5.0653
  5.0880   5.1013   5.1127   5.1191   5.1214   5.1514   5.1651   5.1742
  5.1820   5.2075   5.2220   5.2363   5.2433   5.2664   5.2995   5.3093
  5.3240   5.3551   5.3892   5.4080   5.4135   5.4534   5.4759   5.5287
  5.5630   5.5788   5.5872   5.6083   5.6390   5.6845   5.7733   5.8123
  5.8512   5.9035   6.0162   6.1098   6.2114   6.3126   6.5230   6.5307
  6.6779   6.8269   6.8534   6.8890   6.8903   6.9335   6.9907   7.0043
  7.0231   7.0394   7.0680   7.0965   7.1179   7.2012   7.2190   7.2597
  7.2799   7.2957   7.3105   7.3475   7.4307   7.4354   7.4709   7.5273
  7.5601   7.6425   7.6613   7.7618   7.7675   7.8586   7.8826   7.9283
  8.0218  25.0507  25.1673  50.4994  50.5579  50.6488  50.6726  50.7700
 
 Beta MOs
 -- Occupied --
-19.4036 -19.3889 -19.3737 -19.3568 -19.3511 -10.5204 -10.5162  -1.2899
 -1.2614  -1.1844  -1.1582  -1.0880  -0.8374  -0.7455  -0.6611  -0.6577
 -0.6331  -0.6238  -0.5812  -0.5614  -0.5424  -0.5088  -0.4641  -0.4576
 -0.4440  -0.4107  -0.4016
 -- Virtual --
 -0.0458   0.0093   0.0320   0.0424   0.0616   0.0806   0.0870   0.0950
  0.1129   0.1324   0.1415   0.1478   0.1565   0.1805   0.2049   0.2186
  0.2196   0.2312   0.2497   0.2605   0.2641   0.2702   0.2773   0.2998
  0.3067   0.3141   0.3166   0.3198   0.3327   0.3453   0.3490   0.3597
  0.3772   0.3965   0.4183   0.4281   0.4365   0.4466   0.4822   0.4912
  0.5196   0.5878   0.6009   0.6093   0.6369   0.6547   0.6661   0.6927
  0.7215   0.7378   0.7479   0.7808   0.8090   0.8208   0.8489   0.8664
  0.8969   0.9016   0.9191   0.9746   0.9888   1.0483   1.0635   1.0786
  1.0965   1.1067   1.1237   1.1307   1.1427   1.1663   1.1721   1.1813
  1.1877   1.2159   1.2290   1.2546   1.2707   1.3044   1.3350   1.3479
  1.3745   1.4087   1.4514   1.4866   1.5166   1.5634   1.5923   1.6262
  1.6649   1.6920   1.7015   1.7199   1.7741   1.8053   1.8302   1.8820
  1.9103   1.9589   1.9800   1.9936   2.0375   2.0584   2.0671   2.1625
  2.2288   2.2823   2.3486   2.3552   2.4245   2.4347   2.4620   2.4935
  2.5586   2.6066   2.6489   2.6573   2.6963   2.7661   2.7886   2.8306
  2.8644   2.8897   2.9186   3.0032   3.1043   3.1093   3.1398   3.1947
  3.2594   3.2892   3.3070   3.3496   3.4065   3.4286   3.4820   3.5090
  3.5465   3.5641   3.5933   3.6443   3.6642   3.7395   3.7629   3.7923
  3.8222   3.8542   3.8770   3.9074   3.9817   3.9930   4.0086   4.0888
  4.1336   4.1972   4.2603   4.2839   4.3337   4.4091   4.7238   5.0767
  5.0849   5.1075   5.1199   5.1210   5.1439   5.1470   5.1620   5.1841
  5.1849   5.2015   5.2155   5.2334   5.2447   5.2629   5.2858   5.3199
  5.3275   5.3433   5.3752   5.3996   5.4294   5.4432   5.4651   5.4985
  5.5328   5.5656   5.5790   5.6027   5.6157   5.6748   5.6938   5.7834
  5.8190   5.8603   5.9103   6.0191   6.1193   6.2153   6.3149   6.5250
  6.5348   6.6811   6.8363   6.8588   6.8907   6.9365   6.9700   6.9971
  7.0203   7.0553   7.0709   7.0932   7.1400   7.1460   7.2224   7.2254
[...]
  1.6647   1.6780   1.7457   1.7625   1.7821   1.8153   1.8301   1.8750
  1.8836   1.9635   1.9748   2.0294   2.0587   2.0901   2.1905   2.1967
  2.3073   2.3324   2.3638   2.4328   2.4489   2.4710   2.4968   2.5768
  2.6146   2.6464   2.6719   2.6951   2.7505   2.8167   2.8260   2.8527
  2.8794   2.8974   2.9486   3.0803   3.0953   3.1846   3.2309   3.2869
  3.2916   3.3255   3.3372   3.4021   3.4227   3.4769   3.4780   3.5600
  3.5888   3.6043   3.6324   3.6521   3.7242   3.7535   3.7671   3.7952
  3.8341   3.8664   3.9125   3.9576   4.0047   4.0321   4.0636   4.1391
  4.1947   4.2249   4.2646   4.3403   4.4139   4.7518   5.0412   5.0425
  5.0660   5.1019   5.1101   5.1194   5.1410   5.1550   5.1621   5.1737
  5.1868   5.2066   5.2073   5.2192   5.2321   5.2425   5.2562   5.2771
  5.3179   5.3261   5.3509   5.4079   5.4157   5.4734   5.4991   5.5657
  5.5736   5.5800   5.5832   5.5998   5.6140   5.6868   5.7247   5.8388
  5.8717   5.9407   6.0570   6.1074   6.1886   6.3376   6.4992   6.5996
  6.6723   6.8229   6.8526   6.8575   6.8903   6.9191   6.9632   6.9737
  6.9955   7.0301   7.0870   7.1088   7.1626   7.1874   7.2276   7.2330
  7.2738   7.3044   7.3266   7.3848   7.4075   7.4292   7.4770   7.5298
  7.5470   7.6084   7.6733   7.7321   7.7906   7.8606   7.8879   7.9268
  8.0442  25.0823  25.2047  50.4493  50.5591  50.6508  50.6744  50.7605
 
 Beta MOs
 -- Occupied --
-19.4029 -19.3887 -19.3746 -19.3701 -19.3571 -10.5152 -10.5112  -1.2801
 -1.2535  -1.1870  -1.1560  -1.1194  -0.8408  -0.7262  -0.6556  -0.6440
 -0.6330  -0.6187  -0.5932  -0.5625  -0.5492  -0.5207  -0.4591  -0.4584
 -0.4393  -0.4313  -0.3996
 -- Virtual --
 -0.0930   0.0113   0.0326   0.0415   0.0628   0.0817   0.0870   0.0928
  0.1139   0.1314   0.1381   0.1509   0.1651   0.1829   0.2045   0.2171
  0.2225   0.2337   0.2442   0.2538   0.2620   0.2729   0.2794   0.3034
  0.3086   0.3132   0.3246   0.3310   0.3352   0.3439   0.3558   0.3624
  0.3750   0.4034   0.4167   0.4199   0.4290   0.4644   0.4893   0.4981
  0.5419   0.5943   0.6012   0.6073   0.6366   0.6613   0.6734   0.6885
  0.7158   0.7336   0.7486   0.7601   0.8031   0.8285   0.8350   0.8547
  0.8794   0.8873   0.9176   0.9546   0.9984   1.0297   1.0508   1.0924
  1.1003   1.1027   1.1080   1.1186   1.1341   1.1480   1.1621   1.1701
  1.1812   1.1947   1.2096   1.2480   1.2775   1.2918   1.3114   1.3715
  1.3988   1.4381   1.4885   1.5283   1.5574   1.5678   1.5963   1.6160
  1.6654   1.6731   1.6855   1.7504   1.7692   1.7946   1.8272   1.8328
  1.8803   1.9062   1.9682   1.9797   2.0308   2.0631   2.0973   2.1975
  2.2107   2.3100   2.3355   2.3702   2.4350   2.4621   2.4751   2.5001
  2.5795   2.6164   2.6526   2.6727   2.6960   2.7574   2.8169   2.8269
  2.8519   2.8849   2.8997   2.9524   3.0809   3.0956   3.1851   3.2315
  3.2871   3.2922   3.3259   3.3375   3.4043   3.4228   3.4782   3.4784
  3.5606   3.5904   3.6057   3.6335   3.6540   3.7252   3.7614   3.7733
  3.7968   3.8394   3.8655   3.9159   3.9583   4.0060   4.0329   4.0664
  4.1390   4.1998   4.2259   4.2704   4.3430   4.4153   4.7549   5.0709
  5.0878   5.1085   5.1141   5.1196   5.1342   5.1504   5.1596   5.1814
  5.1874   5.2023   5.2158   5.2291   5.2362   5.2544   5.2709   5.2802
  5.2976   5.3314   5.3344   5.3647   5.4165   5.4394   5.4768   5.5287
  5.5764   5.5855   5.5887   5.6009   5.6022   5.6345   5.6918   5.7396
  5.8442   5.8779   5.9475   6.0589   6.1143   6.1901   6.3443   6.5004
  6.6154   6.6762   6.8275   6.8812   6.8909   6.8969   6.9564   6.9933
  6.9985   7.0313   7.0472   7.0926   7.1535   7.1871   7.1968   7.2307
  7.2649   7.2758   7.3136   7.3507   7.3928   7.4334   7.4499   7.5049
  7.5426   7.5525   7.6307   7.6886   7.7412   7.8009   7.8645   7.8962
  7.9356   8.0510  25.0826  25.2046  50.4628  50.5604  50.6508  50.6819
 50.7606
 --------------------------------------------------------------
 
          Ground-State Mulliken Net Atomic Charges

     Atom                 Charge (a.u.)    Spin (a.u.)
  --------------------------------------------------------
      1 C                     0.323442       0.017304
      2 O                    -0.271934       0.004539
      3 O                    -0.438553       0.006862
      4 C                     0.354648      -0.024630
      5 O                    -0.368035       0.313518
      6 O                    -0.407292       0.010814
      7 H                     0.367567      -0.001043
      8 H                     0.416329      -0.009016
      9 O                    -0.335555       0.695789
     10 H                     0.359382      -0.014137
  --------------------------------------------------------
  Sum of atomic charges =     0.000000
  Sum of spin   charges =     1.000000

 -----------------------------------------------------------------
                    Cartesian Multipole Moments
 -----------------------------------------------------------------
    Charge (ESU x 10^10)
                 0.0000
    Dipole Moment (Debye)
         X      -0.2190      Y       1.2992      Z      -2.5338
       Tot       2.8559
    Quadrupole Moments (Debye-Ang)
        XX     -32.5426     XY      13.1728     YY     -44.2094
        XZ       1.5516     YZ       3.5791     ZZ     -37.5553
    Octopole Moments (Debye-Ang^2)
       XXX     -59.5167    XXY      37.6609    XYY     -29.0189
       YYY      33.7051    XXZ     -23.3462    XYZ       0.5168
       YYZ      -5.7924    XZZ     -29.1213    YZZ       8.3237
       ZZZ     -10.4081
    Hexadecapole Moments (Debye-Ang^3)
      XXXX    -672.6567   XXXY      99.7348   XXYY    -148.6582
      XYYY      -3.3349   YYYY    -235.1862   XXXZ     -17.3937
      XXYZ      17.9847   XYYZ      -8.5844   YYYZ      28.9891
      XXZZ    -127.2414   XYZZ      -4.3214   YYZZ     -47.3691
      XZZZ      -9.8762   YZZZ      27.7656   ZZZZ     -49.7204
 -----------------------------------------------------------------
 Calculating analytic gradient of the SCF energy
 Gradient of CDS energy
            1           2           3           4           5           6
    1   0.0025794  -0.0007604  -0.0008029  -0.0023577   0.0008886   0.0005879
    2   0.0019353  -0.0028842   0.0008884  -0.0007536  -0.0009825   0.0016678
    3  -0.0004095   0.0008262  -0.0003274   0.0000926   0.0004342  -0.0004280
            7           8           9          10
    1   0.0003127  -0.0001614   0.0001488  -0.0004352
    2   0.0002833  -0.0002156   0.0001370  -0.0000760
    3  -0.0000645   0.0001240   0.0000642  -0.0003117
 Gradient of SCF Energy
            1           2           3           4           5           6
    1   0.0009935  -0.0195572   0.0007952  -0.0020021  -0.0013550   0.0064967
    2   0.0008843   0.0010319  -0.0087250  -0.0006775   0.0066397  -0.0038500
    3  -0.0007011  -0.0012639   0.0031038  -0.0029951   0.0015861   0.0038432
            7           8           9          10
    1   0.0186905  -0.0017828  -0.0003507  -0.0019281
    2   0.0049188  -0.0027364   0.0055792  -0.0030649
    3  -0.0004913  -0.0040808   0.0189692  -0.0179700
 Max gradient component =       1.956E-02
 RMS gradient           =       7.606E-03
 Computing fast CPCM-SWIG gradient
 Updating gradient with PCM contributions...
 -- total gradient after adding PCM contribution --
---------------------------------------------------
  Atom         X              Y              Z     
---------------------------------------------------
   1       0.000030      -0.000009      -0.000020
   2      -0.000015      -0.000019      -0.000035
   3      -0.000033       0.000034       0.000031
   4      -0.000208       0.000031      -0.000039
   5       0.000085      -0.000088       0.000073
   6       0.000174       0.000049       0.000139
   7      -0.000009       0.000008      -0.000012
   8      -0.000130      -0.000011      -0.000235
   9       0.000126       0.000048       0.000057
  10      -0.000020      -0.000042       0.000040
---------------------------------------------------
 Number of fixed atoms: 0
 Gradient time:  CPU 88.18 s  wall 7.43 s
 Geometry Optimization Parameters
   NAtoms,    NIC,     NZ,  NCons,   NDum,   NFix, NCnnct, MaxDiis
       10      49       0       0       0       0       0       0

 Cartesian Hessian Update
 Hessian updated using Powell/Murtagh-Sargent update
  Mixing factors:     0.999926 Powell                      0.000074 Murtagh-Sargent


** GEOMETRY OPTIMIZATION IN DELOCALIZED INTERNAL COORDINATES **
   Searching for a Transition State

   Optimization Cycle:  20

                       Coordinates (Angstroms)
     ATOM                X               Y               Z
      1  C         1.9143250109   -0.0455728881    0.1059143589
      2  O         2.1999161556    1.1921835170   -0.2511782905
      3  O         2.6989114745   -0.8987659151    0.4209795033
      4  C         0.3990458602   -0.3105716894    0.0814455598
      5  O        -0.3754775208    0.6131005689   -0.2289047623
      6  O         0.0248927904   -1.4779704877    0.3854210048
      7  H         3.1627816917    1.3211295086   -0.2234604547
      8  H        -1.1648396957   -1.2929633555    0.2541182473
      9  O        -2.1479405098   -0.6092700208    0.0637109205
     10  H        -2.3063839569   -0.5941041378   -0.8958608871
   Point Group: c1    Number of degrees of freedom:    24


   Energy is   -454.120060380

 Hessian updated using Powell/Murtagh-Sargent update
  Mixing factors:     0.996641 Powell                      0.003359 Murtagh-Sargent

 24 Hessian modes will be used to form the next step
  Hessian Eigenvalues:
    -0.046247    0.002870    0.022051    0.022960    0.050891    0.063547
     0.068149    0.075642    0.103417    0.158656    0.165250    0.195223
     0.211386    0.218146    0.241539    0.320504    0.407365    0.427478
     0.445878    0.480397    0.491333    0.794740    0.854377    2.303590

 Transition state search - taking P-RFO step
 Searching for Lamda that Maximizes Along the Lowest mode
 Value Taken    Lamda =   0.00000020
 Searching for Lamda that Minimizes Along All other modes
 Value Taken    Lamda =  -0.00000036
 Step Taken.  Stepsize is  0.006086

                             Maximum     Tolerance    Cnvgd?
         Gradient           0.000249      0.000300     YES
         Displacement       0.003625      0.001200      NO
         Energy change     -0.000000      0.000001     YES


                       Distance Matrix (Angstroms)
             C (  1)   O (  2)   O (  3)   C (  4)   O (  5)   O (  6)
   O (  2)  1.319514
   O (  3)  1.201158  2.252301
   C (  4)  1.538471  2.368976  2.398049
   O (  5)  2.406065  2.639789  3.487113  1.244739
   O (  6)  2.387434  3.502243  2.736260  1.263017  2.215913
   H (  7)  1.880162  0.971857  2.357629  3.223919  3.608409  4.248770
   H (  8)  3.325538  4.213414  3.887391  1.854898  2.118840  1.211169
   O (  9)  4.101407  4.716805  4.868616  2.564503  2.172887  2.362063
   H ( 10)  4.372508  4.890110  5.184580  2.890479  2.372883  2.803169
             H (  7)   H (  8)   O (  9)
   H (  8)  5.078373
   O (  9)  5.657975  1.212509
   H ( 10)  5.833697  1.764647  0.972683
 
 Final energy is   -454.120060380182     


 ******************************
 **  OPTIMIZATION CONVERGED  **
 ******************************

                       Coordinates (Angstroms)
     ATOM                X               Y               Z
      1  C         1.9143250109   -0.0455728881    0.1059143589
      2  O         2.1999161556    1.1921835170   -0.2511782905
      3  O         2.6989114745   -0.8987659151    0.4209795033
      4  C         0.3990458602   -0.3105716894    0.0814455598
      5  O        -0.3754775208    0.6131005689   -0.2289047623
      6  O         0.0248927904   -1.4779704877    0.3854210048
      7  H         3.1627816917    1.3211295086   -0.2234604547
      8  H        -1.1648396957   -1.2929633555    0.2541182473
      9  O        -2.1479405098   -0.6092700208    0.0637109205
     10  H        -2.3063839569   -0.5941041378   -0.8958608871

Z-matrix Print:
$molecule
0 2
O 
C  1 1.244739
O  2 1.263017 1 124.163728
H  3 1.211169 2 97.106627 1 0.075526 0
O  4 1.212509 3 154.105965 2 -7.047255 0
H  5 0.972683 4 107.204571 3 90.446627 0
C  2 1.538471 1 119.275171 3 -179.993340 0
O  7 1.201158 2 121.679518 1 178.714028 0
O  7 1.319514 2 111.743073 1 -1.242956 0
H  9 0.971857 7 109.340105 2 179.990569 0
$end

 
 --------------------------------------------------------------
 
                    Orbital Energies (a.u.)
 --------------------------------------------------------------
 
 Alpha MOs
 -- Occupied --
-19.4079 -19.4030 -19.3849 -19.3700 -19.3573 -10.5158 -10.5106  -1.2837
 -1.2585  -1.1892  -1.1675  -1.1622  -0.8450  -0.7286  -0.6668  -0.6505
 -0.6367  -0.6216  -0.6106  -0.5747  -0.5563  -0.5338  -0.5200  -0.4597
 -0.4578  -0.4454  -0.4438  -0.4008
 -- Virtual --
  0.0096   0.0317   0.0405   0.0623   0.0812   0.0858   0.0926   0.1133
  0.1311   0.1374   0.1499   0.1643   0.1810   0.2034   0.2154   0.2207
  0.2333   0.2433   0.2529   0.2607   0.2725   0.2770   0.3026   0.3075
  0.3113   0.3227   0.3286   0.3339   0.3434   0.3544   0.3595   0.3733
  0.4019   0.4140   0.4155   0.4277   0.4599   0.4872   0.4955   0.5396
  0.5908   0.6007   0.6069   0.6342   0.6597   0.6708   0.6884   0.7127
  0.7331   0.7475   0.7588   0.8014   0.8265   0.8308   0.8533   0.8784
  0.8857   0.9157   0.9512   0.9969   1.0239   1.0483   1.0912   1.0926
  1.0996   1.1024   1.1163   1.1315   1.1376   1.1546   1.1662   1.1752
  1.1941   1.2030   1.2386   1.2762   1.2843   1.3042   1.3663   1.3912
  1.4340   1.4838   1.5188   1.5511   1.5641   1.5953   1.6125   1.6623
  1.6647   1.6780   1.7457   1.7625   1.7821   1.8153   1.8301   1.8750
  1.8836   1.9635   1.9748   2.0294   2.0587   2.0901   2.1905   2.1967
  2.3073   2.3324   2.3638   2.4328   2.4489   2.4710   2.4968   2.5768
  2.6146   2.6464   2.6719   2.6951   2.7505   2.8167   2.8260   2.8527
  2.8794   2.8974   2.9486   3.0803   3.0953   3.1846   3.2309   3.2869
  3.2916   3.3255   3.3372   3.4021   3.4227   3.4769   3.4780   3.5600
  3.5888   3.6043   3.6324   3.6521   3.7242   3.7535   3.7671   3.7952
  3.8341   3.8664   3.9125   3.9576   4.0047   4.0321   4.0636   4.1391
  4.1947   4.2249   4.2646   4.3403   4.4139   4.7518   5.0412   5.0425
  5.0660   5.1019   5.1101   5.1194   5.1410   5.1550   5.1621   5.1737
  5.1868   5.2066   5.2073   5.2192   5.2321   5.2425   5.2562   5.2771
  5.3179   5.3261   5.3509   5.4079   5.4157   5.4734   5.4991   5.5657
  5.5736   5.5800   5.5832   5.5998   5.6140   5.6868   5.7247   5.8388
  5.8717   5.9407   6.0570   6.1074   6.1886   6.3376   6.4992   6.5996
  6.6723   6.8229   6.8526   6.8575   6.8903   6.9191   6.9632   6.9737
  6.9955   7.0301   7.0870   7.1088   7.1626   7.1874   7.2276   7.2330
  7.2738   7.3044   7.3266   7.3848   7.4075   7.4292   7.4770   7.5298
  7.5470   7.6084   7.6733   7.7321   7.7906   7.8606   7.8879   7.9268
  8.0442  25.0823  25.2047  50.4493  50.5591  50.6508  50.6744  50.7605
 
 Beta MOs
 -- Occupied --
-19.4029 -19.3887 -19.3746 -19.3701 -19.3571 -10.5152 -10.5112  -1.2801
 -1.2535  -1.1870  -1.1560  -1.1194  -0.8408  -0.7262  -0.6556  -0.6440
 -0.6330  -0.6187  -0.5932  -0.5625  -0.5492  -0.5207  -0.4591  -0.4584
 -0.4393  -0.4313  -0.3996
 -- Virtual --
 -0.0930   0.0113   0.0326   0.0415   0.0628   0.0817   0.0870   0.0928
  0.1139   0.1314   0.1381   0.1509   0.1651   0.1829   0.2045   0.2171
  0.2225   0.2337   0.2442   0.2538   0.2620   0.2729   0.2794   0.3034
  0.3086   0.3132   0.3246   0.3310   0.3352   0.3439   0.3558   0.3624
  0.3750   0.4034   0.4167   0.4199   0.4290   0.4644   0.4893   0.4981
  0.5419   0.5943   0.6012   0.6073   0.6366   0.6613   0.6734   0.6885
  0.7158   0.7336   0.7486   0.7601   0.8031   0.8285   0.8350   0.8547
  0.8794   0.8873   0.9176   0.9546   0.9984   1.0297   1.0508   1.0924
  1.1003   1.1027   1.1080   1.1186   1.1341   1.1480   1.1621   1.1701
  1.1812   1.1947   1.2096   1.2480   1.2775   1.2918   1.3114   1.3715
  1.3988   1.4381   1.4885   1.5283   1.5574   1.5678   1.5963   1.6160
  1.6654   1.6731   1.6855   1.7504   1.7692   1.7946   1.8272   1.8328
  1.8803   1.9062   1.9682   1.9797   2.0308   2.0631   2.0973   2.1975
  2.2107   2.3100   2.3355   2.3702   2.4350   2.4621   2.4751   2.5001
  2.5795   2.6164   2.6526   2.6727   2.6960   2.7574   2.8169   2.8269
  2.8519   2.8849   2.8997   2.9524   3.0809   3.0956   3.1851   3.2315
  3.2871   3.2922   3.3259   3.3375   3.4043   3.4228   3.4782   3.4784
  3.5606   3.5904   3.6057   3.6335   3.6540   3.7252   3.7614   3.7733
  3.7968   3.8394   3.8655   3.9159   3.9583   4.0060   4.0329   4.0664
  4.1390   4.1998   4.2259   4.2704   4.3430   4.4153   4.7549   5.0709
  5.0878   5.1085   5.1141   5.1196   5.1342   5.1504   5.1596   5.1814
  5.1874   5.2023   5.2158   5.2291   5.2362   5.2544   5.2709   5.2802
  5.2976   5.3314   5.3344   5.3647   5.4165   5.4394   5.4768   5.5287
  5.5764   5.5855   5.5887   5.6009   5.6022   5.6345   5.6918   5.7396
  5.8442   5.8779   5.9475   6.0589   6.1143   6.1901   6.3443   6.5004
  6.6154   6.6762   6.8275   6.8812   6.8909   6.8969   6.9564   6.9933
  6.9985   7.0313   7.0472   7.0926   7.1535   7.1871   7.1968   7.2307
  7.2649   7.2758   7.3136   7.3507   7.3928   7.4334   7.4499   7.5049
  7.5426   7.5525   7.6307   7.6886   7.7412   7.8009   7.8645   7.8962
  7.9356   8.0510  25.0826  25.2046  50.4628  50.5604  50.6508  50.6819
 50.7606
 --------------------------------------------------------------
 
          Ground-State Mulliken Net Atomic Charges

     Atom                 Charge (a.u.)    Spin (a.u.)
  --------------------------------------------------------
      1 C                     0.323442       0.017304
      2 O                    -0.271934       0.004539
      3 O                    -0.438553       0.006862
      4 C                     0.354648      -0.024630
      5 O                    -0.368035       0.313518
      6 O                    -0.407292       0.010814
      7 H                     0.367567      -0.001043
      8 H                     0.416329      -0.009016
      9 O                    -0.335555       0.695789
     10 H                     0.359382      -0.014137
  --------------------------------------------------------
  Sum of atomic charges =     0.000000
  Sum of spin   charges =     1.000000

 -----------------------------------------------------------------
                    Cartesian Multipole Moments
 -----------------------------------------------------------------
    Charge (ESU x 10^10)
                 0.0000
    Dipole Moment (Debye)
         X      -0.2190      Y       1.2992      Z      -2.5338
       Tot       2.8559
    Quadrupole Moments (Debye-Ang)
        XX     -32.5426     XY      13.1728     YY     -44.2094
        XZ       1.5516     YZ       3.5791     ZZ     -37.5553
    Octopole Moments (Debye-Ang^2)
       XXX     -59.5167    XXY      37.6609    XYY     -29.0189
       YYY      33.7051    XXZ     -23.3462    XYZ       0.5168
       YYZ      -5.7924    XZZ     -29.1213    YZZ       8.3237
       ZZZ     -10.4081
    Hexadecapole Moments (Debye-Ang^3)
      XXXX    -672.6567   XXXY      99.7348   XXYY    -148.6582
      XYYY      -3.3349   YYYY    -235.1862   XXXZ     -17.3937
      XXYZ      17.9847   XYYZ      -8.5844   YYYZ      28.9891
      XXZZ    -127.2414   XYZZ      -4.3214   YYZZ     -47.3691
      XZZZ      -9.8762   YZZZ      27.7656   ZZZZ     -49.7204
 -----------------------------------------------------------------
 Total job time:  1159.07s(wall), 16962.96s(cpu) 
 Mon Jun 19 14:38:29 2023

        *************************************************************
        *                                                           *
        *  Thank you very much for using Q-Chem.  Have a nice day.  *
        *                                                           *
        *************************************************************


