
Running Job 1 of 2 Q_in.in
qchem Q_in.in_22682.0 /scratch/ari.fischer/qChem1592027.hpc-mn1/qchem22682/ 0
/usr/local/qchem-5.4.1/exe/qcprog.exe_s Q_in.in_22682.0 /scratch/ari.fischer/qChem1592027.hpc-mn1/qchem22682/
                  Welcome to Q-Chem
     A Quantum Leap Into The Future Of Chemistry


 Q-Chem 5.4, Q-Chem, Inc., Pleasanton, CA (2021)

 License issued to: Nanyang Technological University (site)

 E. Epifanovsky,  A. T. B. Gilbert,  Xintian Feng,  Joonho Lee,  Yuezhi Mao,  
 N. Mardirossian,  P. Pokhilko,  A. White,  M. Wormit,  M. P. Coons,  
 A. L. Dempwolff,  Zhengting Gan,  D. Hait,  P. R. Horn,  L. D. Jacobson,  
 I. Kaliman,  J. Kussmann,  A. W. Lange,  Ka Un Lao,  D. S. Levine,  Jie Liu,  
 S. C. McKenzie,  A. F. Morrison,  K. Nanda,  F. Plasser,  D. R. Rehn,  
 M. L. Vidal,  Zhi-Qiang You,  Ying Zhu,  B. Alam,  B. Albrecht,  
 A. Aldossary,  E. Alguire,  J. H. Andersen,  D. Barton,  K. Begam,  A. Behn,  
 Y. A. Bernard,  E. J. Berquist,  H. Burton,  A. Carreras,  K. Carter-Fenk,  
 R. Chakraborty,  A. D. Chien,  K. D. Closser,  V. Cofer-Shabica,  
 S. Dasgupta,  Jia Deng,  M. de Wergifosse,  M. Diedenhofen,  Hainam Do,  
 S. Ehlert,  Po-Tung Fang,  S. Fatehi,  Qingguo Feng,  T. Friedhoff,  
 J. Gayvert,  Qinghui Ge,  G. Gidofalvi,  M. Goldey,  J. Gomes,  
 C. Gonzalez-Espinoza,  S. Gulania,  A. Gunina,  M. W. D. Hanson-Heine,  
 P. H. P. Harbach,  A. W. Hauser,  M. F. Herbst,  M. Hernandez Vera,  
 M. Hodecker,  Z. C. Holden,  S. Houck,  Xunkun Huang,  Kerwin Hui,  
 B. C. Huynh,  M. Ivanov,  Hyunjun Ji,  Hanjie Jiang,  B. Kaduk,  S. Kaehler,  
 K. Khistyaev,  Jaehoon Kim,  P. Klunzinger,  Z. Koczor-Benda,  
 Joong Hoon Koh,  D. Kosenkov,  L. Koulias,  T. Kowalczyk,  C. M. Krauter,  
 K. Kue,  A. Kunitsa,  T. Kus,  A. Landau,  K. V. Lawler,  D. Lefrancois,  
 S. Lehtola,  Rain Li,  Yi-Pei Li,  Jiashu Liang,  M. Liebenthal,  
 Hung-Hsuan Lin,  You-Sheng Lin,  Fenglai Liu,  Kuan-Yu Liu,  
 M. Loipersberger,  A. Luenser,  A. Manjanath,  P. Manohar,  E. Mansoor,  
 S. F. Manzer,  Shan-Ping Mao,  A. V. Marenich,  T. Markovich,  S. Mason,  
 S. A. Maurer,  P. F. McLaughlin,  M. F. S. J. Menger,  J.-M. Mewes,  
 S. A. Mewes,  P. Morgante,  J. W. Mullinax,  K. J. Oosterbaan,  G. Paran,  
 Alexander C. Paul,  Suranjan K. Paul,  F. Pavosevic,  Zheng Pei,  S. Prager,  
 E. I. Proynov,  E. Ramos,  B. Rana,  A. E. Rask,  A. Rettig,  R. M. Richard,  
 F. Rob,  E. Rossomme,  T. Scheele,  M. Scheurer,  M. Schneider,  
 N. Sergueev,  S. M. Sharada,  W. Skomorowski,  D. W. Small,  C. J. Stein,  
 Yu-Chuan Su,  E. J. Sundstrom,  Zhen Tao,  J. Thirman,  T. Tsuchimochi,  
 N. M. Tubman,  S. P. Veccham,  O. Vydrov,  J. Wenzel,  J. Witte,  A. Yamada,  
 Kun Yao,  S. Yeganeh,  S. R. Yost,  A. Zech,  Igor Ying Zhang,  Xing Zhang,  
 Yu Zhang,  D. Zuev,  A. Aspuru-Guzik,  A. T. Bell,  N. A. Besley,  
 K. B. Bravaya,  B. R. Brooks,  D. Casanova,  Jeng-Da Chai,  S. Coriani,  
 C. J. Cramer,  A. E. DePrince, III,  R. A. DiStasio Jr.,  A. Dreuw,  
 B. D. Dunietz,  T. R. Furlani,  W. A. Goddard III,  S. Grimme,  
 S. Hammes-Schiffer,  T. Head-Gordon,  W. J. Hehre,  Chao-Ping Hsu,  
 T.-C. Jagau,  Yousung Jung,  A. Klamt,  Jing Kong,  D. S. Lambrecht,  
 WanZhen Liang,  N. J. Mayhall,  C. W. McCurdy,  J. B. Neaton,  
 C. Ochsenfeld,  J. A. Parkhill,  R. Peverati,  V. A. Rassolov,  Yihan Shao,  
 L. V. Slipchenko,  T. Stauch,  R. P. Steele,  J. E. Subotnik,  
 A. J. W. Thom,  A. Tkatchenko,  D. G. Truhlar,  T. Van Voorhis,  
 T. A. Wesolowski,  K. B. Whaley,  H. L. Woodcock III,  P. M. Zimmerman,  
 S. Faraji,  P. M. W. Gill,  M. Head-Gordon,  J. M. Herbert,  A. I. Krylov

 Additional authors for Version 5.4.1: 
 S. Kotaru,  Shaozhi Li,  Xiangyuan Li,  F. Matz,  A. Molle,  Haisheng Ren,  
 Yingli Su,  Hung-Yi Tsai,  C. Utku,  Fang Wang

 Contributors to earlier versions of Q-Chem not listed above: 
 R. D. Adamson,  B. Austin,  R. Baer,  J. Baker,  G. J. O. Beran,  
 K. Brandhorst,  S. T. Brown,  E. F. C. Byrd,  A. K. Chakraborty,  
 G. K. L. Chan,  Chun-Min Chang,  Yunqing Chen,  C.-L. Cheng,  
 Siu Hung Chien,  D. M. Chipman,  D. L. Crittenden,  H. Dachsel,  
 R. J. Doerksen,  A. D. Dutoi,  R. G. Edgar,  J. Fosso-Tande,  
 L. Fusti-Molnar,  D. Ghosh,  A. Ghysels,  A. Golubeva-Zadorozhnaya,  
 J. Gonthier,  M. S. Gordon,  S. R. Gwaltney,  G. Hawkins,  J. E. Herr,  
 A. Heyden,  S. Hirata,  E. G. Hohenstein,  G. Kedziora,  F. J. Keil,  
 C. Kelley,  Jihan Kim,  R. A. King,  R. Z. Khaliullin,  P. P. Korambath,  
 W. Kurlancheek,  A. Laurent,  A. M. Lee,  M. S. Lee,  S. V. Levchenko,  
 Ching Yeh Lin,  D. Liotard,  E. Livshits,  R. C. Lochan,  I. Lotan,  
 L. A. Martinez-Martinez,  P. E. Maslen,  N. Nair,  D. P. O'Neill,  
 D. Neuhauser,  E. Neuscamman,  C. M. Oana,  R. Olivares-Amaya,  R. Olson,  
 T. M. Perrine,  B. Peters,  P. A. Pieniazek,  A. Prociuk,  Y. M. Rhee,  
 J. Ritchie,  M. A. Rohrdanz,  E. Rosta,  N. J. Russ,  H. F. Schaefer III,  
 M. W. Schmidt,  N. E. Schultz,  S. Sharma,  N. Shenvi,  C. D. Sherrill,  
 A. C. Simmonett,  A. Sodt,  T. Stein,  D. Stuck,  K. S. Thanthiriwatte,  
 V. Vanovschi,  L. Vogt,  Tao Wang,  A. Warshel,  M. A. Watson,  
 C. F. Williams,  Q. Wu,  X. Xu,  Jun Yang,  W. Zhang,  Yan Zhao

 Please cite Q-Chem as follows:
 Y. Shao et al., Mol. Phys. 113, 184-215 (2015)
 DOI: 10.1080/00268976.2014.952696

 Q-Chem 5.4.1 for Intel X86 EM64T Linux

 Parts of Q-Chem use Armadillo 9.800.1 (Horizon Scraper).
 http://arma.sourceforge.net/

 Q-Chem begins on Tue Jun 20 11:13:17 2023  

 Host: 
0

     Scratch files written to /scratch/ari.fischer/qChem1592027.hpc-mn1/qchem22682//
 Aug1521 |scratch|qcdevops|jenkins|workspace|build_RNUM 8249   
 Processing $rem in /usr/local/qchem-5.4.1/config/preferences:
 Processing $rem in /home/ari.fischer/.qchemrc:
 Symmetry turned off for PCM/SM12/SMD calculation


!!********************************************.
!!******************Warning*******************.
!!Desired Analytical derivatives not available.
!!Finite difference job might take a long time.
!!********************************************.
!!********************************************.


 2-order derivative to be evaluated numerically with 1-order analytical derivatives

 Checking the input file for inconsistencies... 	...done.

--------------------------------------------------------------
User input:
--------------------------------------------------------------
$molecule
-1 2
C         1.4980164545    0.7660547243   -0.1383624944
O         1.8026323618    1.4121745551    0.8766832452
O         1.9798924524    0.8168866210   -1.2928620119
C         0.3676719600   -0.2762671958    0.0083766160
O        -0.0592124773   -0.7989272362   -1.1237456197
O        -0.4187979559   -0.3089060280    1.0215964248
H         0.0738809553   -1.0384616266    1.7114023966
O         1.5892850633   -1.6572546214    0.7212176276
O         1.0518619496   -1.9085083887    1.8610669549
H         0.5714289363   -0.4987389036   -1.8095437390
$end

$rem
BASIS = 6-311++G(2df,2p)
GUI = 2
JOB_TYPE = Frequency
METHOD = wB97M-V
SCF_ALGORITHM = DIIS_GDM
MAX_SCF_CYCLES = 400
SCF_CONVERGENCE = 6
THRESH = 11
SYMMETRY_IGNORE = 1
solvent_method = SMD
$end

--------------------------------------------------------------
 ----------------------------------------------------------------
             Standard Nuclear Orientation (Angstroms)
    I     Atom           X                Y                Z
 ----------------------------------------------------------------
    1      C       1.4980164545     0.7660547243    -0.1383624944
    2      O       1.8026323618     1.4121745551     0.8766832452
    3      O       1.9798924524     0.8168866210    -1.2928620119
    4      C       0.3676719600    -0.2762671958     0.0083766160
    5      O      -0.0592124773    -0.7989272362    -1.1237456197
    6      O      -0.4187979559    -0.3089060280     1.0215964248
    7      H       0.0738809553    -1.0384616266     1.7114023966
    8      O       1.5892850633    -1.6572546214     0.7212176276
    9      O       1.0518619496    -1.9085083887     1.8610669549
   10      H       0.5714289363    -0.4987389036    -1.8095437390
 ----------------------------------------------------------------
 Nuclear Repulsion Energy =         396.51812469 hartrees
 There are       32 alpha and       31 beta electrons
 Requested basis set is 6-311++G(2df,2p)
 There are 76 shells and 292 basis functions

 Total QAlloc Memory Limit 288000 MB
 Mega-Array Size       188 MB
 MEM_STATIC part       192 MB
 
 Citation of the SMD model:
 Marenich, A.V.; Cramer, C.J.; Truhlar, D.G.
 J. Phys. Chem. B 2009, 113, 6378-6396.
 iSolventCode=           1
 Solvent: water                                                           
 
 vradii
            1           2           3           4           5           6
    1   1.8500000   1.5200000   1.5200000   1.8500000   1.5200000   1.5200000
            7           8           9          10
    1   1.2000000   1.5200000   1.5200000   1.2000000
 Changing PCM_VDW_RADII to SMD_RADIUS
 Discretize the solute cavity surface with Lebedev spheres
	Using 110 Lebedev grid points for each H atom
	Using 194 Lebedev grid points for other atoms
	Atomic van der Waals radii will be scaled by 1.20
 Remove points where switching function is < 1.0e-08
 Keep 951 surface tesserae and discard 821 interior tesserae
 Molecular Surface Area = 113.207 Angst**2

                       Distance Matrix (Angstroms)
             C (  1)   O (  2)   O (  3)   C (  4)   O (  5)   O (  6)
   O (  2)  1.241201
   O (  3)  1.252061  2.256705
   C (  4)  1.544554  2.379896  2.342533
   O (  5)  2.417666  3.515274  2.607183  1.317993
   O (  6)  2.485000  2.813871  3.518216  1.283049  2.229779
   H (  7)  2.950605  3.113030  4.012580  1.888796  2.848360  1.118399
   O (  8)  2.572865  3.080760  3.214104  1.976767  2.618809  2.437349
   O (  9)  3.368985  3.543953  4.270397  2.562184  3.372649  2.329437
   H ( 10)  2.291531  3.518987  1.995395  1.842782  0.978847  3.005319
             H (  7)   O (  8)   O (  9)
   O (  8)  1.913066
   O (  9)  1.317508  1.284994
   H ( 10)  3.596653  2.963603  3.961269
 
 A cutoff of  1.0D-11 yielded   2650 shell pairs
 There are     39807 function pairs (     51300 Cartesian)
 Smallest overlap matrix eigenvalue = 6.07E-05
 Guess from superposition of atomic densities
 Warning:  Energy on first SCF cycle will be non-variational
 SAD guess density has 62.000000 electrons

 -----------------------------------------------------------------------
  General SCF calculation program by
  Eric Jon Sundstrom, Paul Horn, Yuezhi Mao, Dmitri Zuev, Alec White,
  David Stuck, Shaama M.S., Shane Yost, Joonho Lee, David Small,
  Daniel Levine, Susi Lehtola, Hugh Burton, Evgeny Epifanovsky,
  Bang C. Huynh
 -----------------------------------------------------------------------
 Exchange:     0.1500 Hartree-Fock + 1.0000 wB97M-V + LR-HF
 Correlation:  1.0000 wB97M-V
 Using SG-2 standard quadrature grid
 Nonlocal Correlation:  VV10 with C = 0.0100 and b = 6.00 and scale = 1.00000
 Grid used for NLC:  SG-1 standard quadrature
 using 8 threads for integral computing
 -------------------------------------------------------
 OpenMP Integral computing Module                
 Release: version 1.0, May 2013, Q-Chem Inc. Pittsburgh 
 -------------------------------------------------------
 
 Citation of the SMD model:
 Marenich, A.V.; Cramer, C.J.; Truhlar, D.G.
 J. Phys. Chem. B 2009, 113, 6378-6396.
 iSolventCode=           1
 Solvent: water                                                           
 
 vradii
            1           2           3           4           5           6
    1   1.8500000   1.5200000   1.5200000   1.8500000   1.5200000   1.5200000
            7           8           9          10
    1   1.2000000   1.5200000   1.5200000   1.2000000
 -------------------------------------------------------
 OpenMP BLAS3 based DFT computing Module                
 Release: version 1.0, May 2013, Q-Chem Inc. Pittsburgh 
 -------------------------------------------------------
 A unrestricted SCF calculation will be
 performed using DIIS, GDM
 SCF converges when RMS gradient is below 1.0e-06
 ---------------------------------------
  Cycle       Energy         DIIS error
 ---------------------------------------
    1    -529.9580814259      1.48e-02  
    2    -528.6257281473      2.73e-03  Done DIIS. Switching to GDM
 ---------------------------------------
  Cycle       Energy        RMS Gradient
 ---------------------------------------
    1    -528.6257281473      1.30e-01   Descent step
    2    -528.8340654133      3.37e-02   Normal BFGS step
    3    -528.8652340381      1.08e-02   Normal BFGS step
    4    -528.8661027321      1.11e-02   Normal BFGS step
    5    -528.8666578858      2.50e-03   Normal BFGS step
    6    -528.8667330314      1.25e-03   Normal BFGS step
    7    -528.8667519109      8.37e-04   Normal BFGS step
    8    -528.8667562802      4.76e-04   Normal BFGS step
    9    -528.8667580587      2.55e-04   Normal BFGS step
   10    -528.8667584895      1.73e-04   Normal BFGS step
   11    -528.8667586139      1.19e-04   Normal BFGS step
   12    -528.8667586901      1.04e-04   Normal BFGS step
   13    -528.8667587248      8.53e-05   Normal BFGS step
   14    -528.8667587477      4.11e-05   Normal BFGS step
   15    -528.8667587545      1.26e-05   Normal BFGS step
   16    -528.8667587565      5.04e-06   Normal BFGS step
   17    -528.8667587567      2.23e-06   Normal BFGS step
   18    -528.8667587569      1.23e-06   Normal BFGS step
   19    -528.8667587569      4.73e-07  Convergence criterion met
 ---------------------------------------
 SCF time:   CPU 666.49s  wall 85.00s 
<S^2> =          0.756172738
(3)  G-ENP(liq) elect-nuc-pol free energy of system     -528.866758757 a.u.
(4)  G-CDS(liq) cavity-dispersion-solvent structure 
     free energy                                                4.4950 kcal/mol
(6)  G-S(liq) free energy of system                     -528.859595562 a.u.
 SCF   energy in the final basis set =     -528.8595955621
 Total energy in the final basis set =     -528.8595955621
 
 --------------------------------------------------------------
 
                    Orbital Energies (a.u.)
 --------------------------------------------------------------
 
 Alpha MOs
 -- Occupied --
-19.4290 -19.4254 -19.3865 -19.3551 -19.3038 -19.3009 -10.5108 -10.4599
 -1.3392  -1.2574  -1.1847  -1.1795  -1.1007  -0.9511  -0.7916  -0.7339
 -0.6990  -0.6230  -0.6109  -0.6056  -0.6013  -0.5501  -0.5446  -0.5277
 -0.5110  -0.4819  -0.4605  -0.3967  -0.3865  -0.3848  -0.3757  -0.3623
 -- Virtual --
  0.0416   0.0453   0.0547   0.0729   0.0833   0.1016   0.1072   0.1129
  0.1286   0.1488   0.1652   0.1829   0.1880   0.2081   0.2328   0.2366
  0.2458   0.2497   0.2683   0.2747   0.2887   0.3016   0.3034   0.3188
  0.3230   0.3282   0.3333   0.3431   0.3459   0.3510   0.3548   0.3607
  0.3676   0.3861   0.3915   0.4018   0.4259   0.4312   0.4426   0.4495
  0.4630   0.5201   0.5555   0.6009   0.6147   0.6618   0.6858   0.7004
  0.7213   0.7363   0.7431   0.7893   0.8009   0.8397   0.8485   0.8671
  0.8983   0.9338   0.9433   1.0469   1.0604   1.0763   1.0805   1.0957
  1.1111   1.1152   1.1367   1.1484   1.1509   1.1604   1.1866   1.1951
  1.2015   1.2170   1.2218   1.2336   1.2621   1.2716   1.2840   1.3002
  1.3539   1.3791   1.4130   1.4699   1.4752   1.5260   1.5379   1.5466
  1.5813   1.6042   1.6339   1.6495   1.6781   1.6854   1.7349   1.7464
  1.7734   1.7989   1.8363   1.8870   1.9022   1.9446   2.0005   2.0264
  2.0526   2.0996   2.1636   2.1849   2.2213   2.2348   2.2930   2.3128
  2.3875   2.4316   2.4465   2.4661   2.4901   2.5623   2.5952   2.6197
  2.6645   2.6983   2.7071   2.7659   2.8401   2.8641   2.8951   2.9137
  2.9748   3.1221   3.1713   3.1906   3.2394   3.2697   3.3348   3.3996
  3.4143   3.4362   3.4577   3.4755   3.5121   3.5686   3.5910   3.6107
  3.6507   3.7244   3.7674   3.7699   3.8212   3.8471   3.8549   3.9528
  3.9871   4.0403   4.0782   4.1421   4.1964   4.2126   4.2644   4.3046
  4.3517   4.5594   4.6910   4.6989   4.7689   4.7896   4.8893   5.0252
  5.0647   5.1191   5.1499   5.1641   5.1697   5.1806   5.1830   5.1925
  5.2006   5.2037   5.2140   5.2290   5.2379   5.2592   5.2632   5.2732
  5.2813   5.2998   5.3265   5.3367   5.3536   5.3858   5.4035   5.4192
  5.4348   5.4763   5.5137   5.5591   5.5841   5.5906   5.6231   5.6406
  5.6438   5.6818   5.6912   5.7851   5.8367   5.9935   6.0614   6.1429
  6.2087   6.3178   6.5049   6.5378   6.5392   6.6184   6.6577   6.7193
  6.8094   6.9162   6.9307   6.9412   6.9984   7.0085   7.0226   7.0516
  7.0873   7.0958   7.1039   7.1100   7.1382   7.2340   7.2464   7.2834
  7.3345   7.3467   7.3650   7.3748   7.4218   7.4726   7.4879   7.5072
  7.5331   7.5572   7.6986   7.7075   7.7679   7.7969   7.8414   7.8663
  7.9204   7.9621   8.0525   8.1416  24.9979  25.2326  50.4895  50.5049
 50.6079  50.6895  50.7179  50.7499
 
 Beta MOs
 -- Occupied --
-19.4132 -19.4107 -19.3866 -19.3552 -19.3038 -19.3009 -10.5111 -10.4598
 -1.3124  -1.2555  -1.1846  -1.1792  -1.1007  -0.9109  -0.7894  -0.7326
 -0.6936  -0.6212  -0.6049  -0.5820  -0.5503  -0.5420  -0.5353  -0.5198
 -0.5017  -0.4761  -0.4588  -0.3879  -0.3840  -0.3760  -0.3522
 -- Virtual --
 -0.0199   0.0421   0.0479   0.0551   0.0732   0.0837   0.1021   0.1077
  0.1134   0.1296   0.1491   0.1666   0.1839   0.1912   0.2106   0.2374
  0.2389   0.2469   0.2508   0.2702   0.2754   0.2930   0.3033   0.3058
  0.3201   0.3236   0.3296   0.3346   0.3446   0.3471   0.3536   0.3578
  0.3628   0.3679   0.3871   0.3952   0.4028   0.4268   0.4328   0.4432
  0.4496   0.4631   0.5208   0.5555   0.6011   0.6156   0.6634   0.6866
  0.7003   0.7218   0.7366   0.7431   0.7898   0.8010   0.8400   0.8501
  0.8698   0.8992   0.9343   0.9445   1.0488   1.0645   1.0769   1.0852
  1.1029   1.1120   1.1279   1.1378   1.1488   1.1588   1.1653   1.1911
  1.1978   1.2068   1.2227   1.2360   1.2388   1.2658   1.2754   1.2856
  1.3010   1.3643   1.3835   1.4144   1.4739   1.4878   1.5278   1.5500
  1.5522   1.5897   1.6067   1.6356   1.6520   1.6852   1.7052   1.7417
  1.7514   1.7744   1.7999   1.8403   1.8895   1.9054   1.9514   2.0039
  2.0301   2.0625   2.1023   2.1664   2.1940   2.2266   2.2386   2.3047
  2.3308   2.3926   2.4337   2.4474   2.4664   2.4904   2.5658   2.5953
  2.6208   2.6668   2.7075   2.7080   2.7671   2.8399   2.8645   2.8945
  2.9135   2.9735   3.1210   3.1712   3.1898   3.2391   3.2696   3.3348
  3.3992   3.4140   3.4353   3.4571   3.4753   3.5114   3.5680   3.5906
  3.6102   3.6502   3.7242   3.7669   3.7696   3.8209   3.8449   3.8539
  3.9533   3.9870   4.0398   4.0774   4.1415   4.1947   4.2125   4.2651
  4.3046   4.3514   4.5992   4.7057   4.7241   4.7845   4.7997   4.9012
  5.0609   5.1286   5.1486   5.1609   5.1690   5.1759   5.1831   5.1913
  5.2019   5.2147   5.2293   5.2375   5.2474   5.2555   5.2735   5.2824
  5.2827   5.2939   5.3052   5.3350   5.3463   5.3626   5.3894   5.4048
  5.4253   5.4470   5.4810   5.5168   5.5602   5.5862   5.5944   5.6245
  5.6448   5.6665   5.6886   5.7105   5.7866   5.8376   5.9939   6.0613
  6.1429   6.2096   6.3180   6.5054   6.5465   6.5887   6.6186   6.6583
  6.7269   6.8618   6.9171   6.9431   6.9856   7.0056   7.0235   7.0402
  7.0689   7.0915   7.1128   7.1394   7.1515   7.1598   7.2417   7.2711
  7.2870   7.3410   7.3507   7.3913   7.3980   7.4400   7.4791   7.4898
  7.5075   7.5500   7.5620   7.7003   7.7082   7.7688   7.7993   7.8425
  7.8682   7.9229   7.9628   8.0652   8.1609  24.9978  25.2326  50.5011
 50.5162  50.6081  50.6899  50.7179  50.7499
 --------------------------------------------------------------
 
          Ground-State Mulliken Net Atomic Charges

     Atom                 Charge (a.u.)    Spin (a.u.)
  --------------------------------------------------------
      1 C                     0.494664      -0.000792
      2 O                    -0.628931       0.000281
      3 O                    -0.617395       0.000255
      4 C                     0.123766      -0.019366
      5 O                    -0.293192      -0.003582
      6 O                    -0.442681      -0.001054
      7 H                     0.370462      -0.008662
      8 O                    -0.161607       0.530663
      9 O                    -0.174265       0.502272
     10 H                     0.329179      -0.000016
  --------------------------------------------------------
  Sum of atomic charges =    -1.000000
  Sum of spin   charges =     1.000000

 -----------------------------------------------------------------
                    Cartesian Multipole Moments
 -----------------------------------------------------------------
    Charge (ESU x 10^10)
                -4.8032
    Dipole Moment (Debye)
         X      -8.3587      Y      -2.8961      Z      -2.3332
       Tot       9.1487
    Quadrupole Moments (Debye-Ang)
        XX     -68.8605     XY      -8.0626     YY     -60.0421
        XZ      -1.4028     YZ       1.3017     ZZ     -52.9046
    Octopole Moments (Debye-Ang^2)
       XXX    -181.5632    XXY      -5.9414    XYY     -70.9095
       YYY      32.6193    XXZ      -9.0278    XYZ       6.7213
       YYZ     -20.8489    XZZ     -61.9612    YZZ       4.4534
       ZZZ     -39.3257
    Hexadecapole Moments (Debye-Ang^3)
      XXXX    -615.4254   XXXY     -59.0531   XXYY    -203.8903
      XYYY     -24.7445   YYYY    -453.1617   XXXZ     -10.6350
      XXYZ      32.6997   XYYZ     -26.5525   YYYZ      79.5699
      XXZZ    -185.2380   XYZZ     -15.4322   YYZZ    -154.4810
      XZZZ     -29.5969   YZZZ      84.9087   ZZZZ    -360.9466
 -----------------------------------------------------------------
 Calculating analytic gradient of the SCF energy
 Gradient of CDS energy
            1           2           3           4           5           6
    1   0.0019969  -0.0004785  -0.0007212  -0.0031250   0.0010621   0.0012972
    2   0.0019391  -0.0010584  -0.0001043  -0.0015521   0.0011334   0.0000343
    3  -0.0003431  -0.0015083   0.0018087  -0.0010963   0.0029419  -0.0018112
            7           8           9          10
    1  -0.0001237  -0.0000905   0.0002033  -0.0000205
    2  -0.0000688  -0.0001082  -0.0001220  -0.0000930
    3   0.0002830   0.0001362  -0.0001068  -0.0003043
 Gradient of SCF Energy
            1           2           3           4           5           6
    1   0.0136350  -0.0099845  -0.0072824   0.0088360   0.0092277   0.0048185
    2   0.0230137  -0.0177069  -0.0015324  -0.0129249   0.0091665  -0.0003448
    3  -0.0046620  -0.0198580   0.0209119  -0.0035523  -0.0043375   0.0018237
            7           8           9          10
    1  -0.0046937  -0.0039274   0.0032634  -0.0138927
    2   0.0037018  -0.0002239   0.0034896  -0.0066388
    3  -0.0082052   0.0061512  -0.0068091   0.0185372
 Max gradient component =       2.301E-02
 RMS gradient           =       1.051E-02
 Computing fast CPCM-SWIG gradient
 Updating gradient with PCM contributions...
 -- total gradient after adding PCM contribution --
---------------------------------------------------
  Atom         X              Y              Z     
---------------------------------------------------
   1       0.000099      -0.000003      -0.000126
   2      -0.000030      -0.000040      -0.000039
   3      -0.000120      -0.000027       0.000141
   4      -0.000162       0.000032       0.000078
   5       0.000061       0.000021       0.000137
   6       0.000049       0.000041      -0.000087
   7      -0.000045       0.000003       0.000028
   8       0.000013      -0.000000       0.000072
   9       0.000088      -0.000046      -0.000023
  10       0.000047       0.000019      -0.000181
---------------------------------------------------
 Number of fixed atoms: 0
 Gradient time:  CPU 93.14 s  wall 13.90 s
 ######################################################
 ######################################################
 # Starting finite difference calculation for IDERIV  #
 Finite diff step size:  1.88973e-03 a.u.
 ----------------------------------------------------------------
             Standard Nuclear Orientation (Angstroms)
    I     Atom           X                Y                Z
 ----------------------------------------------------------------
    1      C       1.4990164545     0.7660547243    -0.1383624944
    2      O       1.8026323618     1.4121745551     0.8766832452
    3      O       1.9798924524     0.8168866210    -1.2928620119
    4      C       0.3676719600    -0.2762671958     0.0083766160
    5      O      -0.0592124773    -0.7989272362    -1.1237456197
    6      O      -0.4187979559    -0.3089060280     1.0215964248
    7      H       0.0738809553    -1.0384616266     1.7114023966
    8      O       1.5892850633    -1.6572546214     0.7212176276
    9      O       1.0518619496    -1.9085083887     1.8610669549
   10      H       0.5714289363    -0.4987389036    -1.8095437390
 ----------------------------------------------------------------
 Nuclear Repulsion Energy =         396.51600274 hartrees
 There are       32 alpha and       31 beta electrons
 Discretize the solute cavity surface with Lebedev spheres
	Using 110 Lebedev grid points for each H atom
	Using 194 Lebedev grid points for other atoms
	Atomic van der Waals radii will be scaled by 1.20
 Remove points where switching function is < 1.0e-08
 Keep 951 surface tesserae and discard 821 interior tesserae
 Molecular Surface Area = 113.206 Angst**2

                       Distance Matrix (Angstroms)
             C (  1)   O (  2)   O (  3)   C (  4)   O (  5)   O (  6)
   O (  2)  1.240956
   O (  3)  1.251677  2.256705
   C (  4)  1.545286  2.379896  2.342533
   O (  5)  2.418311  3.515274  2.607183  1.317993
   O (  6)  2.485771  2.813871  3.518216  1.283049  2.229779
   H (  7)  2.951088  3.113030  4.012580  1.888796  2.848360  1.118399
   O (  8)  2.572830  3.080760  3.214104  1.976767  2.618809  2.437349
   O (  9)  3.369118  3.543953  4.270397  2.562184  3.372649  2.329437
   H ( 10)  2.291935  3.518987  1.995395  1.842782  0.978847  3.005319
             H (  7)   O (  8)   O (  9)
   O (  8)  1.913066
   O (  9)  1.317508  1.284994
   H ( 10)  3.596653  2.963603  3.961269
 
 Requested basis set is 6-311++G(2df,2p)
 There are 76 shells and 292 basis functions
 A cutoff of  1.0D-11 yielded   2650 shell pairs
 There are     39807 function pairs (     51300 Cartesian)
 Smallest overlap matrix eigenvalue = 6.09E-05
 Guess MOs from SCF MO coefficient file

 -----------------------------------------------------------------------
  General SCF calculation program by
  Eric Jon Sundstrom, Paul Horn, Yuezhi Mao, Dmitri Zuev, Alec White,
  David Stuck, Shaama M.S., Shane Yost, Joonho Lee, David Small,
  Daniel Levine, Susi Lehtola, Hugh Burton, Evgeny Epifanovsky,
  Bang C. Huynh
 -----------------------------------------------------------------------
 Exchange:     0.1500 Hartree-Fock + 1.0000 wB97M-V + LR-HF
 Correlation:  1.0000 wB97M-V
 Using SG-2 standard quadrature grid
 Nonlocal Correlation:  VV10 with C = 0.0100 and b = 6.00 and scale = 1.00000
 Grid used for NLC:  SG-1 standard quadrature
 
 Citation of the SMD model:
 Marenich, A.V.; Cramer, C.J.; Truhlar, D.G.
 J. Phys. Chem. B 2009, 113, 6378-6396.
 iSolventCode=           1
 Solvent: water                                                           
 
 vradii
            1           2           3           4           5           6
    1   1.8500000   1.5200000   1.5200000   1.8500000   1.5200000   1.5200000
            7           8           9          10
    1   1.2000000   1.5200000   1.5200000   1.2000000
 -------------------------------------------------------
 OpenMP BLAS3 based DFT computing Module                
 Release: version 1.0, May 2013, Q-Chem Inc. Pittsburgh 
 -------------------------------------------------------
 A unrestricted SCF calculation will be
 performed using Roothaan-Hall, DIIS, GDM
 SCF converges when RMS gradient is below 1.0e-06
 ---------------------------------------
  Cycle       Energy         DIIS error
 ---------------------------------------
    1    -528.7585898585      2.53e-04  Roothaan Step
 ---------------------------------------
  Cycle       Energy         DIIS error
 ---------------------------------------
    1    -528.8609866516      3.04e-04  
    2    -528.8639090906      3.20e-04  Done DIIS. Switching to GDM
 ---------------------------------------
  Cycle       Energy        RMS Gradient
 ---------------------------------------
    1    -528.8639090906      1.13e-02   Normal BFGS step
    2    -528.8625800425      1.86e-02  Line search: overstep
    3    -528.8666102361      2.36e-03   Normal BFGS step
    4    -528.8667218335      1.36e-03   Normal BFGS step
    5    -528.8667512844      1.17e-03   Normal BFGS step
    6    -528.8667605561      2.55e-04   Normal BFGS step
    7    -528.8667610925      2.12e-04   Normal BFGS step
    8    -528.8667614772      8.57e-05   Normal BFGS step
    9    -528.8667615592      5.67e-05   Normal BFGS step
   10    -528.8667615942      3.84e-05   Normal BFGS step
   11    -528.8667616028      2.71e-05   Normal BFGS step
   12    -528.8667616058      2.17e-05   Normal BFGS step
   13    -528.8667616074      1.61e-05   Normal BFGS step
   14    -528.8667616084      7.42e-06   Normal BFGS step
   15    -528.8667616088      4.54e-06   Normal BFGS step
   16    -528.8667616089      1.28e-06   Normal BFGS step
   17    -528.8667616089      4.63e-07  Convergence criterion met
 ---------------------------------------
 SCF time:   CPU 646.93s  wall 82.00s 
<S^2> =          0.756168392
(3)  G-ENP(liq) elect-nuc-pol free energy of system     -528.866761609 a.u.
(4)  G-CDS(liq) cavity-dispersion-solvent structure 
     free energy                                                4.4973 kcal/mol
(6)  G-S(liq) free energy of system                     -528.859594646 a.u.
 SCF   energy in the final basis set =     -528.8595946461
 Total energy in the final basis set =     -528.8595946461
 
 --------------------------------------------------------------
 
                    Orbital Energies (a.u.)
 --------------------------------------------------------------
 
 Alpha MOs
 -- Occupied --
-19.4290 -19.4254 -19.3865 -19.3551 -19.3038 -19.3009 -10.5107 -10.4598
 -1.3391  -1.2574  -1.1848  -1.1795  -1.1009  -0.9510  -0.7914  -0.7338
 -0.6989  -0.6229  -0.6109  -0.6057  -0.6013  -0.5501  -0.5446  -0.5277
 -0.5111  -0.4819  -0.4606  -0.3967  -0.3866  -0.3848  -0.3758  -0.3622
 -- Virtual --
  0.0416   0.0454   0.0547   0.0729   0.0833   0.1016   0.1072   0.1129
  0.1286   0.1488   0.1652   0.1829   0.1880   0.2081   0.2329   0.2366
  0.2458   0.2497   0.2683   0.2746   0.2888   0.3016   0.3034   0.3188
  0.3230   0.3282   0.3333   0.3431   0.3459   0.3510   0.3548   0.3607
  0.3676   0.3860   0.3914   0.4018   0.4258   0.4312   0.4426   0.4496
  0.4631   0.5202   0.5555   0.6009   0.6148   0.6619   0.6861   0.7004
  0.7215   0.7362   0.7431   0.7894   0.8011   0.8398   0.8486   0.8671
  0.8980   0.9337   0.9432   1.0471   1.0605   1.0763   1.0805   1.0958
  1.1110   1.1151   1.1366   1.1484   1.1510   1.1604   1.1866   1.1952
  1.2015   1.2170   1.2218   1.2336   1.2621   1.2716   1.2840   1.3003
  1.3539   1.3792   1.4129   1.4699   1.4751   1.5260   1.5378   1.5466
  1.5813   1.6042   1.6339   1.6493   1.6781   1.6855   1.7350   1.7464
  1.7736   1.7988   1.8364   1.8871   1.9023   1.9447   2.0005   2.0262
  2.0526   2.0997   2.1637   2.1850   2.2213   2.2348   2.2931   2.3129
  2.3876   2.4318   2.4465   2.4662   2.4901   2.5624   2.5953   2.6197
  2.6645   2.6984   2.7073   2.7659   2.8401   2.8641   2.8947   2.9136
  2.9749   3.1218   3.1715   3.1902   3.2392   3.2697   3.3346   3.3995
  3.4144   3.4362   3.4578   3.4757   3.5123   3.5688   3.5908   3.6107
  3.6512   3.7243   3.7673   3.7698   3.8211   3.8472   3.8548   3.9527
  3.9870   4.0401   4.0774   4.1418   4.1961   4.2130   4.2644   4.3045
  4.3518   4.5594   4.6910   4.6989   4.7688   4.7889   4.8894   5.0252
  5.0647   5.1191   5.1499   5.1641   5.1697   5.1806   5.1830   5.1926
  5.2006   5.2037   5.2140   5.2290   5.2379   5.2592   5.2632   5.2732
  5.2814   5.2998   5.3265   5.3367   5.3536   5.3861   5.4040   5.4192
  5.4349   5.4763   5.5139   5.5590   5.5841   5.5906   5.6235   5.6407
  5.6438   5.6819   5.6914   5.7852   5.8366   5.9940   6.0614   6.1431
  6.2087   6.3187   6.5070   6.5379   6.5393   6.6186   6.6576   6.7194
  6.8095   6.9162   6.9311   6.9416   6.9984   7.0087   7.0227   7.0516
  7.0874   7.0958   7.1040   7.1100   7.1382   7.2341   7.2464   7.2834
  7.3345   7.3467   7.3650   7.3749   7.4219   7.4728   7.4883   7.5072
  7.5332   7.5573   7.6990   7.7074   7.7688   7.7969   7.8418   7.8664
  7.9204   7.9621   8.0525   8.1416  24.9979  25.2329  50.4896  50.5050
 50.6080  50.6896  50.7182  50.7503
 
 Beta MOs
 -- Occupied --
-19.4131 -19.4106 -19.3866 -19.3552 -19.3038 -19.3009 -10.5110 -10.4598
 -1.3123  -1.2555  -1.1848  -1.1792  -1.1009  -0.9109  -0.7892  -0.7326
 -0.6935  -0.6212  -0.6049  -0.5819  -0.5503  -0.5420  -0.5353  -0.5198
 -0.5017  -0.4761  -0.4589  -0.3879  -0.3839  -0.3761  -0.3521
 -- Virtual --
 -0.0199   0.0421   0.0480   0.0552   0.0732   0.0837   0.1021   0.1077
  0.1134   0.1296   0.1491   0.1666   0.1839   0.1912   0.2106   0.2374
  0.2389   0.2469   0.2508   0.2702   0.2754   0.2930   0.3033   0.3059
  0.3201   0.3235   0.3296   0.3346   0.3446   0.3471   0.3536   0.3578
  0.3628   0.3680   0.3870   0.3951   0.4028   0.4268   0.4328   0.4432
  0.4497   0.4631   0.5208   0.5556   0.6011   0.6157   0.6635   0.6869
  0.7003   0.7219   0.7365   0.7431   0.7899   0.8011   0.8400   0.8502
  0.8698   0.8989   0.9342   0.9445   1.0490   1.0646   1.0769   1.0852
  1.1029   1.1119   1.1279   1.1378   1.1488   1.1588   1.1653   1.1911
  1.1978   1.2068   1.2227   1.2360   1.2388   1.2659   1.2754   1.2856
  1.3010   1.3642   1.3836   1.4143   1.4739   1.4877   1.5278   1.5499
  1.5522   1.5897   1.6067   1.6356   1.6518   1.6853   1.7052   1.7418
  1.7515   1.7746   1.7998   1.8404   1.8895   1.9056   1.9515   2.0040
  2.0300   2.0625   2.1024   2.1664   2.1941   2.2266   2.2386   2.3048
  2.3308   2.3927   2.4338   2.4474   2.4665   2.4903   2.5659   2.5955
  2.6208   2.6668   2.7077   2.7080   2.7672   2.8399   2.8645   2.8941
  2.9134   2.9737   3.1207   3.1714   3.1894   3.2390   3.2696   3.3347
  3.3991   3.4141   3.4353   3.4571   3.4755   3.5116   3.5681   3.5904
  3.6102   3.6507   3.7241   3.7667   3.7695   3.8208   3.8449   3.8537
  3.9532   3.9869   4.0396   4.0766   4.1412   4.1944   4.2128   4.2652
  4.3045   4.3516   4.5992   4.7057   4.7241   4.7839   4.7995   4.9012
  5.0609   5.1287   5.1486   5.1608   5.1690   5.1759   5.1831   5.1914
  5.2019   5.2147   5.2293   5.2375   5.2474   5.2555   5.2735   5.2825
  5.2827   5.2939   5.3052   5.3350   5.3463   5.3627   5.3897   5.4054
  5.4254   5.4471   5.4810   5.5169   5.5600   5.5862   5.5944   5.6248
  5.6447   5.6665   5.6887   5.7105   5.7867   5.8375   5.9944   6.0613
  6.1431   6.2096   6.3189   6.5076   6.5466   6.5887   6.6189   6.6582
  6.7269   6.8619   6.9171   6.9441   6.9857   7.0056   7.0236   7.0403
  7.0689   7.0916   7.1128   7.1395   7.1515   7.1598   7.2416   7.2711
  7.2870   7.3409   7.3508   7.3914   7.3981   7.4401   7.4793   7.4902
  7.5075   7.5501   7.5621   7.7007   7.7081   7.7696   7.7993   7.8429
  7.8683   7.9229   7.9628   8.0653   8.1609  24.9977  25.2329  50.5012
 50.5163  50.6081  50.6901  50.7182  50.7504
 --------------------------------------------------------------
 
          Ground-State Mulliken Net Atomic Charges

     Atom                 Charge (a.u.)    Spin (a.u.)
  --------------------------------------------------------
      1 C                     0.494385      -0.000796
      2 O                    -0.628763       0.000289
      3 O                    -0.617063       0.000262
      4 C                     0.123856      -0.019338
      5 O                    -0.293230      -0.003571
      6 O                    -0.442699      -0.001051
      7 H                     0.370432      -0.008661
      8 O                    -0.161639       0.530666
      9 O                    -0.174469       0.502217
     10 H                     0.329190      -0.000016
  --------------------------------------------------------
  Sum of atomic charges =    -1.000000
  Sum of spin   charges =     1.000000

 -----------------------------------------------------------------
                    Cartesian Multipole Moments
 -----------------------------------------------------------------
    Charge (ESU x 10^10)
                -4.8032
    Dipole Moment (Debye)
         X      -8.3547      Y      -2.8920      Z      -2.3361
       Tot       9.1446
    Quadrupole Moments (Debye-Ang)
        XX     -68.8504     XY      -8.0551     YY     -60.0439
        XZ      -1.4078     YZ       1.3036     ZZ     -52.9043
    Octopole Moments (Debye-Ang^2)
       XXX    -181.5498    XXY      -5.9248    XYY     -70.9146
       YYY      32.6371    XXZ      -9.0384    XYZ       6.7226
       YYZ     -20.8571    XZZ     -61.9638    YZZ       4.4645
       ZZZ     -39.3390
    Hexadecapole Moments (Debye-Ang^3)
      XXXX    -615.4493   XXXY     -59.0282   XXYY    -203.9059
      XYYY     -24.7307   YYYY    -453.1764   XXXZ     -10.6561
      XXYZ      32.6997   XYYZ     -26.5661   YYYZ      79.5828
      XXZZ    -185.2538   XYZZ     -15.4250   YYZZ    -154.4889
      XZZZ     -29.6139   YZZZ      84.9205   ZZZZ    -360.9429
 -----------------------------------------------------------------
 Calculating analytic gradient of the SCF energy
 Gradient of CDS energy
            1           2           3           4           5           6
    1   0.0019909  -0.0004758  -0.0007167  -0.0031260   0.0010621   0.0012972
    2   0.0019365  -0.0010559  -0.0001037  -0.0015523   0.0011333   0.0000342
    3  -0.0003402  -0.0015045   0.0018018  -0.0010963   0.0029419  -0.0018111
            7           8           9          10
    1  -0.0001237  -0.0000907   0.0002033  -0.0000206
    2  -0.0000688  -0.0001083  -0.0001220  -0.0000930
    3   0.0002830   0.0001363  -0.0001067  -0.0003042
 Gradient of SCF Energy
            1           2           3           4           5           6
    1   0.0142220  -0.0101280  -0.0075084   0.0086097   0.0092350   0.0048202
    2   0.0233088  -0.0178586  -0.0015771  -0.0130174   0.0091410  -0.0003567
    3  -0.0047725  -0.0200428   0.0212241  -0.0035645  -0.0043346   0.0018411
            7           8           9          10
    1  -0.0046978  -0.0039312   0.0032673  -0.0138887
    2   0.0037128  -0.0002139   0.0034962  -0.0066350
    3  -0.0082069   0.0061622  -0.0068311   0.0185251
 Max gradient component =       2.331E-02
 RMS gradient           =       1.061E-02
 Computing fast CPCM-SWIG gradient
 Updating gradient with PCM contributions...
 -- total gradient after adding PCM contribution --
---------------------------------------------------
  Atom         X              Y              Z     
---------------------------------------------------
   1       0.000870       0.000288      -0.000233
   2      -0.000261      -0.000197      -0.000235
   3      -0.000421      -0.000075       0.000449
   4      -0.000397      -0.000058       0.000086
   5       0.000065      -0.000004       0.000138
   6       0.000052       0.000024      -0.000069
   7      -0.000055       0.000008       0.000029
   8      -0.000002       0.000030       0.000083
   9       0.000099      -0.000039      -0.000058
  10       0.000051       0.000022      -0.000189
---------------------------------------------------
 Number of fixed atoms: 0
 Gradient time:  CPU 93.41 s  wall 13.96 s
 ----------------------------------------------------------------
             Standard Nuclear Orientation (Angstroms)
    I     Atom           X                Y                Z
 ----------------------------------------------------------------
    1      C       1.4970164545     0.7660547243    -0.1383624944
    2      O       1.8026323618     1.4121745551     0.8766832452
    3      O       1.9798924524     0.8168866210    -1.2928620119
    4      C       0.3676719600    -0.2762671958     0.0083766160
    5      O      -0.0592124773    -0.7989272362    -1.1237456197
    6      O      -0.4187979559    -0.3089060280     1.0215964248
    7      H       0.0738809553    -1.0384616266     1.7114023966
    8      O       1.5892850633    -1.6572546214     0.7212176276
    9      O       1.0518619496    -1.9085083887     1.8610669549
   10      H       0.5714289363    -0.4987389036    -1.8095437390
 ----------------------------------------------------------------
 Nuclear Repulsion Energy =         396.52023115 hartrees
 There are       32 alpha and       31 beta electrons
 Discretize the solute cavity surface with Lebedev spheres
	Using 110 Lebedev grid points for each H atom
	Using 194 Lebedev grid points for other atoms
	Atomic van der Waals radii will be scaled by 1.20
 Remove points where switching function is < 1.0e-08
 Keep 951 surface tesserae and discard 821 interior tesserae
 Molecular Surface Area = 113.207 Angst**2

                       Distance Matrix (Angstroms)
             C (  1)   O (  2)   O (  3)   C (  4)   O (  5)   O (  6)
   O (  2)  1.241447
   O (  3)  1.252447  2.256705
   C (  4)  1.543822  2.379896  2.342533
   O (  5)  2.417022  3.515274  2.607183  1.317993
   O (  6)  2.484228  2.813871  3.518216  1.283049  2.229779
   H (  7)  2.950123  3.113030  4.012580  1.888796  2.848360  1.118399
   O (  8)  2.572901  3.080760  3.214104  1.976767  2.618809  2.437349
   O (  9)  3.368853  3.543953  4.270397  2.562184  3.372649  2.329437
   H ( 10)  2.291127  3.518987  1.995395  1.842782  0.978847  3.005319
             H (  7)   O (  8)   O (  9)
   O (  8)  1.913066
   O (  9)  1.317508  1.284994
   H ( 10)  3.596653  2.963603  3.961269
 
 Requested basis set is 6-311++G(2df,2p)
 There are 76 shells and 292 basis functions
 A cutoff of  1.0D-11 yielded   2650 shell pairs
 There are     39807 function pairs (     51300 Cartesian)
 Smallest overlap matrix eigenvalue = 6.06E-05
 Guess MOs from SCF MO coefficient file

 -----------------------------------------------------------------------
  General SCF calculation program by
  Eric Jon Sundstrom, Paul Horn, Yuezhi Mao, Dmitri Zuev, Alec White,
  David Stuck, Shaama M.S., Shane Yost, Joonho Lee, David Small,
  Daniel Levine, Susi Lehtola, Hugh Burton, Evgeny Epifanovsky,
  Bang C. Huynh
 -----------------------------------------------------------------------
 Exchange:     0.1500 Hartree-Fock + 1.0000 wB97M-V + LR-HF
 Correlation:  1.0000 wB97M-V
 Using SG-2 standard quadrature grid
 Nonlocal Correlation:  VV10 with C = 0.0100 and b = 6.00 and scale = 1.00000
 Grid used for NLC:  SG-1 standard quadrature
 
 Citation of the SMD model:
 Marenich, A.V.; Cramer, C.J.; Truhlar, D.G.
 J. Phys. Chem. B 2009, 113, 6378-6396.
 iSolventCode=           1
 Solvent: water                                                           
 
 vradii
            1           2           3           4           5           6
    1   1.8500000   1.5200000   1.5200000   1.8500000   1.5200000   1.5200000
            7           8           9          10
    1   1.2000000   1.5200000   1.5200000   1.2000000
 -------------------------------------------------------
 OpenMP BLAS3 based DFT computing Module                
 Release: version 1.0, May 2013, Q-Chem Inc. Pittsburgh 
 -------------------------------------------------------
 A unrestricted SCF calculation will be
 performed using Roothaan-Hall, DIIS, GDM
 SCF converges when RMS gradient is below 1.0e-06
 ---------------------------------------
  Cycle       Energy         DIIS error
 ---------------------------------------
    1    -528.7585559037      2.53e-04  Roothaan Step
 ---------------------------------------
  Cycle       Energy         DIIS error
 ---------------------------------------
    1    -528.8609404152      3.05e-04  
    2    -528.8638629835      3.22e-04  Done DIIS. Switching to GDM
 ---------------------------------------
  Cycle       Energy        RMS Gradient
 ---------------------------------------
    1    -528.8638629835      1.14e-02   Normal BFGS step
    2    -528.8625194826      1.86e-02  Line search: overstep
    3    -528.8666023858      2.36e-03   Normal BFGS step
    4    -528.8667143655      1.37e-03   Normal BFGS step
    5    -528.8667439933      1.18e-03   Normal BFGS step
    6    -528.8667533508      2.51e-04   Normal BFGS step
    7    -528.8667539004      2.13e-04   Normal BFGS step
    8    -528.8667542907      8.93e-05   Normal BFGS step
    9    -528.8667543783      5.87e-05   Normal BFGS step
   10    -528.8667544161      4.54e-05   Normal BFGS step
   11    -528.8667544261      3.13e-05   Normal BFGS step
   12    -528.8667544298      2.45e-05   Normal BFGS step
   13    -528.8667544320      1.71e-05   Normal BFGS step
   14    -528.8667544333      8.23e-06   Normal BFGS step
   15    -528.8667544338      4.49e-06   Normal BFGS step
   16    -528.8667544339      1.19e-06   Normal BFGS step
   17    -528.8667544339      4.83e-07  Convergence criterion met
 ---------------------------------------
 SCF time:   CPU 650.40s  wall 83.00s 
<S^2> =          0.756176973
(3)  G-ENP(liq) elect-nuc-pol free energy of system     -528.866754434 a.u.
(4)  G-CDS(liq) cavity-dispersion-solvent structure 
     free energy                                                4.4926 kcal/mol
(6)  G-S(liq) free energy of system                     -528.859595018 a.u.
 SCF   energy in the final basis set =     -528.8595950183
 Total energy in the final basis set =     -528.8595950183
 
 --------------------------------------------------------------
 
                    Orbital Energies (a.u.)
 --------------------------------------------------------------
 
 Alpha MOs
 -- Occupied --
-19.4291 -19.4255 -19.3866 -19.3551 -19.3038 -19.3009 -10.5108 -10.4599
 -1.3392  -1.2575  -1.1846  -1.1795  -1.1005  -0.9511  -0.7918  -0.7340
 -0.6991  -0.6230  -0.6109  -0.6056  -0.6013  -0.5501  -0.5445  -0.5277
 -0.5110  -0.4820  -0.4605  -0.3967  -0.3865  -0.3848  -0.3757  -0.3625
 -- Virtual --
  0.0415   0.0451   0.0547   0.0729   0.0833   0.1016   0.1072   0.1129
  0.1286   0.1488   0.1652   0.1829   0.1880   0.2081   0.2328   0.2366
  0.2458   0.2497   0.2682   0.2747   0.2887   0.3017   0.3034   0.3188
  0.3230   0.3282   0.3333   0.3431   0.3459   0.3510   0.3549   0.3607
  0.3676   0.3861   0.3916   0.4018   0.4259   0.4313   0.4427   0.4495
  0.4630   0.5201   0.5555   0.6009   0.6147   0.6617   0.6856   0.7004
  0.7211   0.7364   0.7432   0.7892   0.8008   0.8396   0.8485   0.8671
  0.8986   0.9339   0.9433   1.0467   1.0604   1.0763   1.0805   1.0957
  1.1111   1.1152   1.1367   1.1484   1.1509   1.1604   1.1866   1.1951
  1.2016   1.2170   1.2218   1.2336   1.2620   1.2716   1.2840   1.3002
  1.3540   1.3790   1.4130   1.4699   1.4753   1.5260   1.5380   1.5465
  1.5813   1.6042   1.6338   1.6497   1.6780   1.6854   1.7348   1.7464
  1.7732   1.7989   1.8362   1.8870   1.9020   1.9445   2.0004   2.0266
  2.0525   2.0995   2.1636   2.1848   2.2213   2.2348   2.2929   2.3128
  2.3875   2.4315   2.4465   2.4661   2.4902   2.5622   2.5950   2.6198
  2.6645   2.6983   2.7069   2.7659   2.8401   2.8641   2.8956   2.9138
  2.9747   3.1224   3.1710   3.1910   3.2395   3.2697   3.3350   3.3998
  3.4142   3.4362   3.4577   3.4754   3.5120   3.5685   3.5912   3.6107
  3.6502   3.7245   3.7676   3.7700   3.8213   3.8471   3.8551   3.9529
  3.9872   4.0405   4.0789   4.1424   4.1967   4.2123   4.2643   4.3046
  4.3515   4.5593   4.6910   4.6989   4.7690   4.7903   4.8893   5.0251
  5.0646   5.1191   5.1499   5.1642   5.1697   5.1807   5.1829   5.1925
  5.2006   5.2037   5.2140   5.2290   5.2379   5.2592   5.2632   5.2731
  5.2812   5.2999   5.3265   5.3366   5.3535   5.3856   5.4029   5.4191
  5.4347   5.4763   5.5136   5.5593   5.5840   5.5906   5.6228   5.6405
  5.6439   5.6818   5.6911   5.7850   5.8367   5.9930   6.0614   6.1427
  6.2087   6.3169   6.5027   6.5378   6.5391   6.6182   6.6578   6.7193
  6.8094   6.9162   6.9303   6.9408   6.9984   7.0083   7.0225   7.0515
  7.0873   7.0958   7.1039   7.1100   7.1382   7.2340   7.2464   7.2834
  7.3346   7.3467   7.3649   7.3746   7.4217   7.4725   7.4874   7.5072
  7.5330   7.5571   7.6982   7.7077   7.7671   7.7969   7.8409   7.8662
  7.9204   7.9621   8.0524   8.1415  24.9980  25.2323  50.4895  50.5049
 50.6079  50.6894  50.7176  50.7494
 
 Beta MOs
 -- Occupied --
-19.4133 -19.4107 -19.3867 -19.3552 -19.3038 -19.3009 -10.5112 -10.4599
 -1.3124  -1.2556  -1.1845  -1.1792  -1.1005  -0.9110  -0.7896  -0.7327
 -0.6936  -0.6213  -0.6049  -0.5820  -0.5502  -0.5419  -0.5353  -0.5198
 -0.5016  -0.4762  -0.4588  -0.3878  -0.3840  -0.3759  -0.3523
 -- Virtual --
 -0.0200   0.0421   0.0477   0.0551   0.0732   0.0837   0.1021   0.1077
  0.1134   0.1296   0.1491   0.1666   0.1839   0.1912   0.2106   0.2374
  0.2389   0.2469   0.2508   0.2702   0.2754   0.2930   0.3033   0.3058
  0.3200   0.3236   0.3296   0.3346   0.3446   0.3471   0.3536   0.3578
  0.3628   0.3679   0.3872   0.3952   0.4028   0.4268   0.4329   0.4432
  0.4496   0.4630   0.5207   0.5555   0.6011   0.6156   0.6632   0.6863
  0.7003   0.7216   0.7366   0.7432   0.7897   0.8009   0.8399   0.8501
  0.8697   0.8994   0.9343   0.9445   1.0486   1.0645   1.0769   1.0852
  1.1028   1.1121   1.1280   1.1379   1.1489   1.1587   1.1653   1.1911
  1.1977   1.2068   1.2227   1.2360   1.2389   1.2657   1.2754   1.2856
  1.3009   1.3643   1.3834   1.4144   1.4739   1.4879   1.5279   1.5500
  1.5522   1.5897   1.6067   1.6356   1.6523   1.6851   1.7052   1.7416
  1.7514   1.7743   1.8000   1.8402   1.8895   1.9053   1.9513   2.0039
  2.0303   2.0624   2.1022   2.1663   2.1938   2.2265   2.2386   2.3046
  2.3307   2.3925   2.4335   2.4474   2.4664   2.4904   2.5657   2.5952
  2.6209   2.6668   2.7072   2.7079   2.7671   2.8399   2.8645   2.8950
  2.9136   2.9734   3.1213   3.1710   3.1902   3.2393   3.2697   3.3350
  3.3994   3.4139   3.4353   3.4570   3.4752   3.5113   3.5679   3.5907
  3.6102   3.6497   3.7243   3.7670   3.7697   3.8210   3.8448   3.8541
  3.9534   3.9871   4.0400   4.0781   4.1418   4.1950   4.2121   4.2650
  4.3046   4.3513   4.5991   4.7057   4.7241   4.7850   4.7999   4.9011
  5.0609   5.1286   5.1486   5.1609   5.1691   5.1759   5.1831   5.1913
  5.2019   5.2147   5.2293   5.2374   5.2474   5.2555   5.2735   5.2824
  5.2826   5.2939   5.3052   5.3350   5.3463   5.3626   5.3891   5.4043
  5.4252   5.4469   5.4810   5.5166   5.5603   5.5861   5.5945   5.6241
  5.6448   5.6664   5.6886   5.7104   5.7865   5.8376   5.9934   6.0613
  6.1427   6.2096   6.3171   6.5033   6.5465   6.5886   6.6184   6.6584
  6.7268   6.8617   6.9172   6.9422   6.9856   7.0057   7.0235   7.0402
  7.0689   7.0915   7.1129   7.1394   7.1514   7.1598   7.2417   7.2710
  7.2870   7.3411   7.3507   7.3912   7.3980   7.4399   7.4789   7.4894
  7.5075   7.5499   7.5619   7.6999   7.7084   7.7680   7.7992   7.8421
  7.8681   7.9230   7.9627   8.0651   8.1608  24.9978  25.2323  50.5011
 50.5162  50.6080  50.6898  50.7176  50.7495
 --------------------------------------------------------------
 
          Ground-State Mulliken Net Atomic Charges

     Atom                 Charge (a.u.)    Spin (a.u.)
  --------------------------------------------------------
      1 C                     0.494943      -0.000787
      2 O                    -0.629100       0.000274
      3 O                    -0.617726       0.000249
      4 C                     0.123675      -0.019393
      5 O                    -0.293155      -0.003593
      6 O                    -0.442663      -0.001057
      7 H                     0.370492      -0.008663
      8 O                    -0.161576       0.530658
      9 O                    -0.174060       0.502328
     10 H                     0.329168      -0.000015
  --------------------------------------------------------
  Sum of atomic charges =    -1.000000
  Sum of spin   charges =     1.000000

 -----------------------------------------------------------------
                    Cartesian Multipole Moments
 -----------------------------------------------------------------
    Charge (ESU x 10^10)
                -4.8032
    Dipole Moment (Debye)
         X      -8.3627      Y      -2.9001      Z      -2.3304
       Tot       9.1529
    Quadrupole Moments (Debye-Ang)
        XX     -68.8706     XY      -8.0700     YY     -60.0402
        XZ      -1.3978     YZ       1.2997     ZZ     -52.9049
    Octopole Moments (Debye-Ang^2)
       XXX    -181.5766    XXY      -5.9580    XYY     -70.9044
       YYY      32.6014    XXZ      -9.0173    XYZ       6.7201
       YYZ     -20.8407    XZZ     -61.9586    YZZ       4.4422
       ZZZ     -39.3124
    Hexadecapole Moments (Debye-Ang^3)
      XXXX    -615.4013   XXXY     -59.0779   XXYY    -203.8748
      XYYY     -24.7583   YYYY    -453.1470   XXXZ     -10.6140
      XXYZ      32.6996   XYYZ     -26.5390   YYYZ      79.5569
      XXZZ    -185.2223   XYZZ     -15.4393   YYZZ    -154.4732
      XZZZ     -29.5798   YZZZ      84.8968   ZZZZ    -360.9503
 -----------------------------------------------------------------
 Calculating analytic gradient of the SCF energy
 Gradient of CDS energy
            1           2           3           4           5           6
    1   0.0020029  -0.0004812  -0.0007257  -0.0031241   0.0010620   0.0012972
    2   0.0019417  -0.0010610  -0.0001048  -0.0015520   0.0011335   0.0000344
    3  -0.0003461  -0.0015122   0.0018157  -0.0010962   0.0029419  -0.0018112
            7           8           9          10
    1  -0.0001237  -0.0000903   0.0002033  -0.0000204
    2  -0.0000688  -0.0001081  -0.0001220  -0.0000929
    3   0.0002830   0.0001362  -0.0001068  -0.0003044
 Gradient of SCF Energy
            1           2           3           4           5           6
    1   0.0130462  -0.0098403  -0.0070560   0.0090630   0.0092205   0.0048170
    2   0.0227175  -0.0175550  -0.0014878  -0.0128316   0.0091921  -0.0003327
    3  -0.0045519  -0.0196731   0.0206002  -0.0035404  -0.0043403   0.0018063
            7           8           9          10
    1  -0.0046895  -0.0039236   0.0032595  -0.0138967
    2   0.0036907  -0.0002338   0.0034831  -0.0066425
    3  -0.0082032   0.0061403  -0.0067873   0.0185493
 Max gradient component =       2.272E-02
 RMS gradient           =       1.042E-02
 Computing fast CPCM-SWIG gradient
 Updating gradient with PCM contributions...
 -- total gradient after adding PCM contribution --
---------------------------------------------------
  Atom         X              Y              Z     
---------------------------------------------------
   1      -0.000674      -0.000295      -0.000018
   2       0.000201       0.000117       0.000158
   3       0.000181       0.000020      -0.000165
   4       0.000074       0.000124       0.000069
   5       0.000058       0.000046       0.000135
   6       0.000046       0.000057      -0.000105
   7      -0.000036      -0.000002       0.000027
   8       0.000027      -0.000031       0.000061
   9       0.000077      -0.000053       0.000012
  10       0.000044       0.000016      -0.000174
---------------------------------------------------
 Number of fixed atoms: 0
 Gradient time:  CPU 93.22 s  wall 13.92 s
 ----------------------------------------------------------------
             Standard Nuclear Orientation (Angstroms)
    I     Atom           X                Y                Z
 ----------------------------------------------------------------
    1      C       1.4980164545     0.7670547243    -0.1383624944
    2      O       1.8026323618     1.4121745551     0.8766832452
    3      O       1.9798924524     0.8168866210    -1.2928620119
    4      C       0.3676719600    -0.2762671958     0.0083766160
    5      O      -0.0592124773    -0.7989272362    -1.1237456197
    6      O      -0.4187979559    -0.3089060280     1.0215964248
    7      H       0.0738809553    -1.0384616266     1.7114023966
    8      O       1.5892850633    -1.6572546214     0.7212176276
    9      O       1.0518619496    -1.9085083887     1.8610669549
   10      H       0.5714289363    -0.4987389036    -1.8095437390
 ----------------------------------------------------------------
 Nuclear Repulsion Energy =         396.51143133 hartrees
 There are       32 alpha and       31 beta electrons
 Discretize the solute cavity surface with Lebedev spheres
	Using 110 Lebedev grid points for each H atom
	Using 194 Lebedev grid points for other atoms
	Atomic van der Waals radii will be scaled by 1.20
 Remove points where switching function is < 1.0e-08
 Keep 950 surface tesserae and discard 822 interior tesserae
 Molecular Surface Area = 113.210 Angst**2

                       Distance Matrix (Angstroms)
             C (  1)   O (  2)   O (  3)   C (  4)   O (  5)   O (  6)
   O (  2)  1.240681
   O (  3)  1.252021  2.256705
   C (  4)  1.545229  2.379896  2.342533
   O (  5)  2.418314  3.515274  2.607183  1.317993
   O (  6)  2.485432  2.813871  3.518216  1.283049  2.229779
   H (  7)  2.951217  3.113030  4.012580  1.888796  2.848360  1.118399
   O (  8)  2.573807  3.080760  3.214104  1.976767  2.618809  2.437349
   O (  9)  3.369779  3.543953  4.270397  2.562184  3.372649  2.329437
   H ( 10)  2.292083  3.518987  1.995395  1.842782  0.978847  3.005319
             H (  7)   O (  8)   O (  9)
   O (  8)  1.913066
   O (  9)  1.317508  1.284994
   H ( 10)  3.596653  2.963603  3.961269
 
 Requested basis set is 6-311++G(2df,2p)
 There are 76 shells and 292 basis functions
 A cutoff of  1.0D-11 yielded   2650 shell pairs
 There are     39807 function pairs (     51300 Cartesian)
 Smallest overlap matrix eigenvalue = 6.09E-05
 Guess MOs from SCF MO coefficient file

 -----------------------------------------------------------------------
  General SCF calculation program by
  Eric Jon Sundstrom, Paul Horn, Yuezhi Mao, Dmitri Zuev, Alec White,
  David Stuck, Shaama M.S., Shane Yost, Joonho Lee, David Small,
  Daniel Levine, Susi Lehtola, Hugh Burton, Evgeny Epifanovsky,
  Bang C. Huynh
 -----------------------------------------------------------------------
 Exchange:     0.1500 Hartree-Fock + 1.0000 wB97M-V + LR-HF
 Correlation:  1.0000 wB97M-V
 Using SG-2 standard quadrature grid
 Nonlocal Correlation:  VV10 with C = 0.0100 and b = 6.00 and scale = 1.00000
 Grid used for NLC:  SG-1 standard quadrature
 
 Citation of the SMD model:
 Marenich, A.V.; Cramer, C.J.; Truhlar, D.G.
 J. Phys. Chem. B 2009, 113, 6378-6396.
 iSolventCode=           1
 Solvent: water                                                           
 
 vradii
            1           2           3           4           5           6
    1   1.8500000   1.5200000   1.5200000   1.8500000   1.5200000   1.5200000
            7           8           9          10
    1   1.2000000   1.5200000   1.5200000   1.2000000
 -------------------------------------------------------
 OpenMP BLAS3 based DFT computing Module                
 Release: version 1.0, May 2013, Q-Chem Inc. Pittsburgh 
 -------------------------------------------------------
 A unrestricted SCF calculation will be
 performed using Roothaan-Hall, DIIS, GDM
 SCF converges when RMS gradient is below 1.0e-06
 ---------------------------------------
  Cycle       Energy         DIIS error
 ---------------------------------------
    1    -528.7585792268      2.54e-04  Roothaan Step
 ---------------------------------------
  Cycle       Energy         DIIS error
 ---------------------------------------
    1    -528.8609987011      3.03e-04  
    2    -528.8639236439      3.19e-04  Done DIIS. Switching to GDM
 ---------------------------------------
  Cycle       Energy        RMS Gradient
 ---------------------------------------
    1    -528.8639236439      1.13e-02   Normal BFGS step
    2    -528.8626023051      1.86e-02  Line search: overstep
    3    -528.8666105528      2.36e-03   Normal BFGS step
    4    -528.8667218932      1.36e-03   Normal BFGS step
    5    -528.8667513726      1.17e-03   Normal BFGS step
    6    -528.8667606183      2.53e-04   Normal BFGS step
    7    -528.8667611546      2.11e-04   Normal BFGS step
    8    -528.8667615369      8.59e-05   Normal BFGS step
    9    -528.8667616190      5.67e-05   Normal BFGS step
   10    -528.8667616539      3.83e-05   Normal BFGS step
   11    -528.8667616625      2.70e-05   Normal BFGS step
   12    -528.8667616654      2.17e-05   Normal BFGS step
   13    -528.8667616671      1.61e-05   Normal BFGS step
   14    -528.8667616680      7.38e-06   Normal BFGS step
   15    -528.8667616684      4.50e-06   Normal BFGS step
   16    -528.8667616685      1.26e-06   Normal BFGS step
   17    -528.8667616686      4.64e-07  Convergence criterion met
 ---------------------------------------
 SCF time:   CPU 646.68s  wall 82.00s 
<S^2> =          0.756170287
(3)  G-ENP(liq) elect-nuc-pol free energy of system     -528.866761669 a.u.
(4)  G-CDS(liq) cavity-dispersion-solvent structure 
     free energy                                                4.4973 kcal/mol
(6)  G-S(liq) free energy of system                     -528.859594816 a.u.
 SCF   energy in the final basis set =     -528.8595948160
 Total energy in the final basis set =     -528.8595948160
 
 --------------------------------------------------------------
 
                    Orbital Energies (a.u.)
 --------------------------------------------------------------
 
 Alpha MOs
 -- Occupied --
-19.4290 -19.4254 -19.3865 -19.3551 -19.3038 -19.3010 -10.5107 -10.4598
 -1.3392  -1.2574  -1.1848  -1.1795  -1.1009  -0.9510  -0.7914  -0.7338
 -0.6990  -0.6229  -0.6109  -0.6057  -0.6013  -0.5501  -0.5446  -0.5277
 -0.5110  -0.4819  -0.4605  -0.3967  -0.3866  -0.3848  -0.3758  -0.3622
 -- Virtual --
  0.0416   0.0454   0.0547   0.0729   0.0833   0.1016   0.1072   0.1129
  0.1286   0.1488   0.1652   0.1830   0.1880   0.2081   0.2328   0.2366
  0.2458   0.2497   0.2682   0.2747   0.2887   0.3016   0.3034   0.3188
  0.3230   0.3282   0.3333   0.3431   0.3459   0.3510   0.3548   0.3607
  0.3676   0.3860   0.3914   0.4018   0.4259   0.4312   0.4427   0.4496
  0.4631   0.5202   0.5555   0.6009   0.6147   0.6616   0.6858   0.7004
  0.7213   0.7363   0.7432   0.7894   0.8010   0.8398   0.8485   0.8670
  0.8985   0.9339   0.9434   1.0468   1.0604   1.0764   1.0805   1.0957
  1.1109   1.1152   1.1367   1.1483   1.1509   1.1604   1.1866   1.1951
  1.2015   1.2170   1.2219   1.2336   1.2621   1.2715   1.2839   1.3002
  1.3538   1.3791   1.4130   1.4699   1.4752   1.5258   1.5380   1.5466
  1.5812   1.6043   1.6337   1.6495   1.6781   1.6855   1.7349   1.7465
  1.7735   1.7987   1.8362   1.8872   1.9022   1.9446   2.0005   2.0265
  2.0525   2.0997   2.1636   2.1848   2.2213   2.2348   2.2930   2.3129
  2.3877   2.4318   2.4465   2.4662   2.4900   2.5623   2.5952   2.6197
  2.6645   2.6983   2.7067   2.7659   2.8403   2.8643   2.8950   2.9138
  2.9750   3.1221   3.1711   3.1904   3.2394   3.2695   3.3347   3.3998
  3.4142   3.4359   3.4579   3.4756   3.5123   3.5687   3.5908   3.6107
  3.6510   3.7243   3.7673   3.7700   3.8212   3.8471   3.8549   3.9527
  3.9870   4.0399   4.0776   4.1418   4.1962   4.2128   4.2645   4.3046
  4.3516   4.5594   4.6910   4.6989   4.7688   4.7888   4.8894   5.0252
  5.0646   5.1191   5.1499   5.1641   5.1697   5.1806   5.1829   5.1925
  5.2006   5.2037   5.2140   5.2290   5.2379   5.2592   5.2632   5.2732
  5.2813   5.2998   5.3264   5.3367   5.3536   5.3860   5.4039   5.4192
  5.4348   5.4765   5.5140   5.5591   5.5842   5.5905   5.6233   5.6406
  5.6437   5.6818   5.6912   5.7851   5.8365   5.9939   6.0614   6.1433
  6.2095   6.3177   6.5067   6.5378   6.5392   6.6186   6.6579   6.7194
  6.8095   6.9162   6.9310   6.9416   6.9983   7.0086   7.0227   7.0516
  7.0874   7.0958   7.1040   7.1101   7.1382   7.2340   7.2463   7.2835
  7.3345   7.3466   7.3650   7.3748   7.4219   7.4727   7.4884   7.5072
  7.5332   7.5573   7.6987   7.7074   7.7685   7.7970   7.8416   7.8663
  7.9204   7.9620   8.0525   8.1416  24.9979  25.2330  50.4896  50.5050
 50.6080  50.6897  50.7180  50.7502
 
 Beta MOs
 -- Occupied --
-19.4132 -19.4106 -19.3866 -19.3552 -19.3038 -19.3009 -10.5110 -10.4598
 -1.3124  -1.2555  -1.1847  -1.1792  -1.1009  -0.9109  -0.7892  -0.7325
 -0.6935  -0.6212  -0.6049  -0.5819  -0.5503  -0.5420  -0.5353  -0.5198
 -0.5017  -0.4761  -0.4588  -0.3879  -0.3839  -0.3761  -0.3522
 -- Virtual --
 -0.0199   0.0421   0.0480   0.0551   0.0732   0.0837   0.1021   0.1077
  0.1134   0.1296   0.1491   0.1666   0.1840   0.1912   0.2106   0.2374
  0.2389   0.2469   0.2508   0.2702   0.2754   0.2930   0.3033   0.3058
  0.3201   0.3236   0.3296   0.3346   0.3446   0.3471   0.3536   0.3578
  0.3628   0.3680   0.3871   0.3951   0.4028   0.4268   0.4328   0.4432
  0.4497   0.4631   0.5208   0.5555   0.6011   0.6156   0.6632   0.6865
  0.7003   0.7218   0.7366   0.7432   0.7899   0.8010   0.8401   0.8501
  0.8697   0.8994   0.9344   0.9446   1.0487   1.0645   1.0769   1.0851
  1.1028   1.1119   1.1280   1.1378   1.1488   1.1587   1.1653   1.1911
  1.1977   1.2068   1.2227   1.2360   1.2388   1.2658   1.2753   1.2856
  1.3010   1.3642   1.3834   1.4143   1.4740   1.4878   1.5277   1.5500
  1.5522   1.5896   1.6067   1.6354   1.6520   1.6852   1.7053   1.7417
  1.7516   1.7745   1.7997   1.8402   1.8897   1.9054   1.9513   2.0040
  2.0303   2.0624   2.1023   2.1663   2.1939   2.2266   2.2386   2.3047
  2.3308   2.3928   2.4338   2.4474   2.4665   2.4903   2.5658   2.5953
  2.6208   2.6668   2.7071   2.7079   2.7671   2.8401   2.8647   2.8944
  2.9136   2.9737   3.1210   3.1711   3.1896   3.2392   3.2694   3.3348
  3.3994   3.4139   3.4350   3.4572   3.4754   3.5116   3.5681   3.5904
  3.6102   3.6505   3.7241   3.7667   3.7697   3.8209   3.8449   3.8538
  3.9532   3.9869   4.0395   4.0768   4.1412   4.1945   4.2126   4.2652
  4.3046   4.3514   4.5992   4.7057   4.7240   4.7838   4.7995   4.9012
  5.0609   5.1286   5.1486   5.1609   5.1690   5.1759   5.1831   5.1913
  5.2019   5.2147   5.2293   5.2374   5.2475   5.2555   5.2735   5.2825
  5.2826   5.2939   5.3051   5.3349   5.3464   5.3627   5.3896   5.4052
  5.4254   5.4471   5.4811   5.5170   5.5601   5.5863   5.5944   5.6247
  5.6445   5.6665   5.6886   5.7105   5.7866   5.8374   5.9943   6.0613
  6.1433   6.2104   6.3179   6.5072   6.5465   6.5887   6.6188   6.6585
  6.7269   6.8619   6.9171   6.9439   6.9857   7.0055   7.0236   7.0402
  7.0689   7.0916   7.1129   7.1395   7.1515   7.1598   7.2415   7.2710
  7.2871   7.3409   7.3506   7.3913   7.3981   7.4400   7.4791   7.4904
  7.5075   7.5501   7.5621   7.7004   7.7081   7.7693   7.7994   7.8427
  7.8682   7.9229   7.9627   8.0652   8.1609  24.9977  25.2329  50.5012
 50.5163  50.6081  50.6901  50.7180  50.7503
 --------------------------------------------------------------
 
          Ground-State Mulliken Net Atomic Charges

     Atom                 Charge (a.u.)    Spin (a.u.)
  --------------------------------------------------------
      1 C                     0.494699      -0.000800
      2 O                    -0.628356       0.000275
      3 O                    -0.617468       0.000260
      4 C                     0.123354      -0.019347
      5 O                    -0.293209      -0.003577
      6 O                    -0.442706      -0.001058
      7 H                     0.370451      -0.008660
      8 O                    -0.161688       0.530675
      9 O                    -0.174275       0.502248
     10 H                     0.329198      -0.000015
  --------------------------------------------------------
  Sum of atomic charges =    -1.000000
  Sum of spin   charges =     1.000000

 -----------------------------------------------------------------
                    Cartesian Multipole Moments
 -----------------------------------------------------------------
    Charge (ESU x 10^10)
                -4.8032
    Dipole Moment (Debye)
         X      -8.3562      Y      -2.8899      Z      -2.3307
       Tot       9.1439
    Quadrupole Moments (Debye-Ang)
        XX     -68.8565     XY      -8.0539     YY     -60.0365
        XZ      -1.3971     YZ       1.3068     ZZ     -52.9059
    Octopole Moments (Debye-Ang^2)
       XXX    -181.5502    XXY      -5.9293    XYY     -70.8984
       YYY      32.6284    XXZ      -9.0148    XYZ       6.7305
       YYZ     -20.8456    XZZ     -61.9588    YZZ       4.4538
       ZZZ     -39.3181
    Hexadecapole Moments (Debye-Ang^3)
      XXXX    -615.3941   XXXY     -59.0411   XXYY    -203.8792
      XYYY     -24.7344   YYYY    -453.1916   XXXZ     -10.5978
      XXYZ      32.7215   XYYZ     -26.5451   YYYZ      79.5908
      XXZZ    -185.2365   XYZZ     -15.4367   YYZZ    -154.4973
      XZZZ     -29.5789   YZZZ      84.9345   ZZZZ    -360.9525
 -----------------------------------------------------------------
 Calculating analytic gradient of the SCF energy
 Gradient of CDS energy
            1           2           3           4           5           6
    1   0.0019943  -0.0004759  -0.0007207  -0.0031256   0.0010621   0.0012972
    2   0.0019320  -0.0010517  -0.0001029  -0.0015529   0.0011334   0.0000341
    3  -0.0003500  -0.0015004   0.0018078  -0.0010962   0.0029419  -0.0018112
            7           8           9          10
    1  -0.0001237  -0.0000904   0.0002033  -0.0000205
    2  -0.0000688  -0.0001082  -0.0001221  -0.0000930
    3   0.0002830   0.0001361  -0.0001068  -0.0003043
 Gradient of SCF Energy
            1           2           3           4           5           6
    1   0.0139268  -0.0101355  -0.0073329   0.0087415   0.0092192   0.0048293
    2   0.0236125  -0.0180392  -0.0016229  -0.0131130   0.0091877  -0.0003323
    3  -0.0043115  -0.0202580   0.0209669  -0.0035406  -0.0043472   0.0018094
            7           8           9          10
    1  -0.0046865  -0.0039253   0.0032634  -0.0139002
    2   0.0037040  -0.0002480   0.0034982  -0.0066470
    3  -0.0082001   0.0061691  -0.0068234   0.0185354
 Max gradient component =       2.361E-02
 RMS gradient           =       1.063E-02
 Computing fast CPCM-SWIG gradient
 Updating gradient with PCM contributions...
 -- total gradient after adding PCM contribution --
---------------------------------------------------
  Atom         X              Y              Z     
---------------------------------------------------
   1       0.000390       0.000791       0.000174
   2      -0.000175      -0.000440      -0.000409
   3      -0.000184      -0.000195       0.000220
   4      -0.000254      -0.000209       0.000089
   5       0.000046       0.000037       0.000140
   6       0.000067       0.000072      -0.000114
   7      -0.000039      -0.000001       0.000035
   8       0.000014      -0.000027       0.000093
   9       0.000088      -0.000041      -0.000036
  10       0.000046       0.000012      -0.000192
---------------------------------------------------
 Number of fixed atoms: 0
 Gradient time:  CPU 93.27 s  wall 13.83 s
 ----------------------------------------------------------------
             Standard Nuclear Orientation (Angstroms)
    I     Atom           X                Y                Z
 ----------------------------------------------------------------
    1      C       1.4980164545     0.7650547243    -0.1383624944
    2      O       1.8026323618     1.4121745551     0.8766832452
    3      O       1.9798924524     0.8168866210    -1.2928620119
    4      C       0.3676719600    -0.2762671958     0.0083766160
    5      O      -0.0592124773    -0.7989272362    -1.1237456197
    6      O      -0.4187979559    -0.3089060280     1.0215964248
    7      H       0.0738809553    -1.0384616266     1.7114023966
    8      O       1.5892850633    -1.6572546214     0.7212176276
    9      O       1.0518619496    -1.9085083887     1.8610669549
   10      H       0.5714289363    -0.4987389036    -1.8095437390
 ----------------------------------------------------------------
 Nuclear Repulsion Energy =         396.52480738 hartrees
 There are       32 alpha and       31 beta electrons
 Discretize the solute cavity surface with Lebedev spheres
	Using 110 Lebedev grid points for each H atom
	Using 194 Lebedev grid points for other atoms
	Atomic van der Waals radii will be scaled by 1.20
 Remove points where switching function is < 1.0e-08
 Keep 951 surface tesserae and discard 821 interior tesserae
 Molecular Surface Area = 113.203 Angst**2

                       Distance Matrix (Angstroms)
             C (  1)   O (  2)   O (  3)   C (  4)   O (  5)   O (  6)
   O (  2)  1.241722
   O (  3)  1.252102  2.256705
   C (  4)  1.543879  2.379896  2.342533
   O (  5)  2.417019  3.515274  2.607183  1.317993
   O (  6)  2.484567  2.813871  3.518216  1.283049  2.229779
   H (  7)  2.949994  3.113030  4.012580  1.888796  2.848360  1.118399
   O (  8)  2.571924  3.080760  3.214104  1.976767  2.618809  2.437349
   O (  9)  3.368191  3.543953  4.270397  2.562184  3.372649  2.329437
   H ( 10)  2.290979  3.518987  1.995395  1.842782  0.978847  3.005319
             H (  7)   O (  8)   O (  9)
   O (  8)  1.913066
   O (  9)  1.317508  1.284994
   H ( 10)  3.596653  2.963603  3.961269
 
 Requested basis set is 6-311++G(2df,2p)
 There are 76 shells and 292 basis functions
 A cutoff of  1.0D-11 yielded   2650 shell pairs
 There are     39807 function pairs (     51300 Cartesian)
 Smallest overlap matrix eigenvalue = 6.06E-05
 Guess MOs from SCF MO coefficient file

 -----------------------------------------------------------------------
  General SCF calculation program by
  Eric Jon Sundstrom, Paul Horn, Yuezhi Mao, Dmitri Zuev, Alec White,
  David Stuck, Shaama M.S., Shane Yost, Joonho Lee, David Small,
  Daniel Levine, Susi Lehtola, Hugh Burton, Evgeny Epifanovsky,
  Bang C. Huynh
 -----------------------------------------------------------------------
 Exchange:     0.1500 Hartree-Fock + 1.0000 wB97M-V + LR-HF
 Correlation:  1.0000 wB97M-V
 Using SG-2 standard quadrature grid
 Nonlocal Correlation:  VV10 with C = 0.0100 and b = 6.00 and scale = 1.00000
 Grid used for NLC:  SG-1 standard quadrature
 
 Citation of the SMD model:
 Marenich, A.V.; Cramer, C.J.; Truhlar, D.G.
 J. Phys. Chem. B 2009, 113, 6378-6396.
 iSolventCode=           1
 Solvent: water                                                           
 
 vradii
            1           2           3           4           5           6
    1   1.8500000   1.5200000   1.5200000   1.8500000   1.5200000   1.5200000
            7           8           9          10
    1   1.2000000   1.5200000   1.5200000   1.2000000
 -------------------------------------------------------
 OpenMP BLAS3 based DFT computing Module                
 Release: version 1.0, May 2013, Q-Chem Inc. Pittsburgh 
 -------------------------------------------------------
 A unrestricted SCF calculation will be
 performed using Roothaan-Hall, DIIS, GDM
 SCF converges when RMS gradient is below 1.0e-06
 ---------------------------------------
  Cycle       Energy         DIIS error
 ---------------------------------------
    1    -528.7585610384      2.53e-04  Roothaan Step
 ---------------------------------------
  Cycle       Energy         DIIS error
 ---------------------------------------
    1    -528.8609339626      3.05e-04  
    2    -528.8638538029      3.23e-04  Done DIIS. Switching to GDM
 ---------------------------------------
  Cycle       Energy        RMS Gradient
 ---------------------------------------
    1    -528.8638538029      1.14e-02   Normal BFGS step
    2    -528.8625021663      1.85e-02  Line search: overstep
    3    -528.8666020052      2.35e-03   Normal BFGS step
    4    -528.8667143153      1.36e-03   Normal BFGS step
    5    -528.8667438957      1.18e-03   Normal BFGS step
    6    -528.8667532608      2.54e-04   Normal BFGS step
    7    -528.8667538035      2.14e-04   Normal BFGS step
    8    -528.8667541934      8.55e-05   Normal BFGS step
    9    -528.8667542774      5.64e-05   Normal BFGS step
   10    -528.8667543133      4.09e-05   Normal BFGS step
   11    -528.8667543225      2.86e-05   Normal BFGS step
   12    -528.8667543257      2.28e-05   Normal BFGS step
   13    -528.8667543275      1.66e-05   Normal BFGS step
   14    -528.8667543286      7.73e-06   Normal BFGS step
   15    -528.8667543290      4.57e-06   Normal BFGS step
   16    -528.8667543291      1.28e-06   Normal BFGS step
   17    -528.8667543291      4.64e-07  Convergence criterion met
 ---------------------------------------
 SCF time:   CPU 648.67s  wall 82.00s 
<S^2> =          0.756175071
(3)  G-ENP(liq) elect-nuc-pol free energy of system     -528.866754329 a.u.
(4)  G-CDS(liq) cavity-dispersion-solvent structure 
     free energy                                                4.4927 kcal/mol
(6)  G-S(liq) free energy of system                     -528.859594805 a.u.
 SCF   energy in the final basis set =     -528.8595948054
 Total energy in the final basis set =     -528.8595948054
 
 --------------------------------------------------------------
 
                    Orbital Energies (a.u.)
 --------------------------------------------------------------
 
 Alpha MOs
 -- Occupied --
-19.4290 -19.4255 -19.3866 -19.3552 -19.3039 -19.3009 -10.5108 -10.4599
 -1.3392  -1.2575  -1.1846  -1.1795  -1.1006  -0.9511  -0.7917  -0.7340
 -0.6990  -0.6230  -0.6109  -0.6056  -0.6013  -0.5501  -0.5445  -0.5277
 -0.5110  -0.4820  -0.4605  -0.3968  -0.3865  -0.3848  -0.3757  -0.3624
 -- Virtual --
  0.0416   0.0452   0.0547   0.0729   0.0833   0.1016   0.1072   0.1129
  0.1286   0.1488   0.1652   0.1829   0.1880   0.2081   0.2329   0.2366
  0.2458   0.2497   0.2683   0.2747   0.2888   0.3017   0.3034   0.3188
  0.3230   0.3282   0.3333   0.3431   0.3459   0.3510   0.3548   0.3607
  0.3676   0.3861   0.3916   0.4018   0.4259   0.4312   0.4426   0.4494
  0.4630   0.5201   0.5556   0.6009   0.6148   0.6619   0.6859   0.7004
  0.7213   0.7362   0.7431   0.7892   0.8009   0.8396   0.8485   0.8672
  0.8980   0.9337   0.9432   1.0470   1.0605   1.0763   1.0805   1.0957
  1.1112   1.1151   1.1367   1.1485   1.1510   1.1604   1.1866   1.1952
  1.2016   1.2170   1.2218   1.2336   1.2621   1.2717   1.2840   1.3003
  1.3540   1.3791   1.4130   1.4698   1.4753   1.5261   1.5378   1.5466
  1.5814   1.6042   1.6341   1.6495   1.6780   1.6854   1.7349   1.7463
  1.7734   1.7991   1.8363   1.8869   1.9021   1.9447   2.0004   2.0263
  2.0527   2.0996   2.1636   2.1850   2.2213   2.2348   2.2931   2.3128
  2.3874   2.4315   2.4465   2.4661   2.4902   2.5623   2.5951   2.6197
  2.6645   2.6984   2.7075   2.7659   2.8399   2.8639   2.8952   2.9136
  2.9747   3.1221   3.1714   3.1908   3.2393   3.2699   3.3349   3.3995
  3.4144   3.4365   3.4576   3.4754   3.5120   3.5685   3.5911   3.6107
  3.6504   3.7246   3.7676   3.7698   3.8212   3.8471   3.8550   3.9530
  3.9872   4.0406   4.0787   4.1424   4.1966   4.2125   4.2643   4.3046
  4.3517   4.5594   4.6910   4.6989   4.7690   4.7904   4.8893   5.0251
  5.0647   5.1191   5.1499   5.1642   5.1697   5.1806   5.1830   5.1925
  5.2006   5.2036   5.2139   5.2290   5.2379   5.2592   5.2632   5.2731
  5.2812   5.2999   5.3266   5.3366   5.3535   5.3857   5.4031   5.4191
  5.4347   5.4761   5.5134   5.5592   5.5839   5.5907   5.6230   5.6406
  5.6440   5.6819   5.6912   5.7851   5.8368   5.9931   6.0614   6.1425
  6.2079   6.3179   6.5031   6.5378   6.5392   6.6182   6.6575   6.7193
  6.8094   6.9162   6.9304   6.9408   6.9985   7.0084   7.0226   7.0515
  7.0873   7.0958   7.1039   7.1099   7.1382   7.2341   7.2465   7.2833
[...]
  5.2005   5.2037   5.2141   5.2290   5.2379   5.2593   5.2631   5.2732
  5.2813   5.2999   5.3265   5.3369   5.3537   5.3860   5.4033   5.4195
  5.4353   5.4764   5.5142   5.5592   5.5841   5.5906   5.6231   5.6406
  5.6439   5.6817   5.6914   5.7850   5.8365   5.9934   6.0612   6.1427
  6.2083   6.3174   6.5044   6.5374   6.5389   6.6179   6.6571   6.7193
  6.8095   6.9162   6.9304   6.9411   6.9983   7.0085   7.0227   7.0516
  7.0872   7.0957   7.1039   7.1100   7.1384   7.2342   7.2463   7.2839
  7.3346   7.3466   7.3648   7.3752   7.4217   7.4729   7.4876   7.5072
  7.5333   7.5574   7.6984   7.7076   7.7678   7.7967   7.8410   7.8662
  7.9205   7.9624   8.0522   8.1417  24.9975  25.2322  50.4894  50.5049
 50.6079  50.6895  50.7178  50.7497
 
 Beta MOs
 -- Occupied --
-19.4134 -19.4108 -19.3866 -19.3551 -19.3038 -19.3009 -10.5111 -10.4599
 -1.3125  -1.2554  -1.1846  -1.1791  -1.1006  -0.9111  -0.7893  -0.7326
 -0.6936  -0.6212  -0.6049  -0.5821  -0.5502  -0.5420  -0.5354  -0.5198
 -0.5016  -0.4761  -0.4587  -0.3879  -0.3840  -0.3760  -0.3524
 -- Virtual --
 -0.0201   0.0421   0.0479   0.0552   0.0732   0.0837   0.1021   0.1077
  0.1134   0.1296   0.1491   0.1666   0.1840   0.1912   0.2106   0.2374
  0.2389   0.2469   0.2509   0.2702   0.2753   0.2930   0.3033   0.3058
  0.3201   0.3236   0.3297   0.3346   0.3446   0.3471   0.3536   0.3578
  0.3628   0.3679   0.3871   0.3952   0.4028   0.4268   0.4328   0.4432
  0.4496   0.4631   0.5207   0.5555   0.6011   0.6156   0.6633   0.6864
  0.7004   0.7217   0.7367   0.7431   0.7896   0.8011   0.8400   0.8502
  0.8696   0.8995   0.9343   0.9447   1.0489   1.0644   1.0769   1.0851
  1.1029   1.1121   1.1279   1.1379   1.1488   1.1587   1.1652   1.1911
  1.1977   1.2069   1.2227   1.2361   1.2388   1.2659   1.2753   1.2856
  1.3009   1.3642   1.3833   1.4145   1.4742   1.4877   1.5279   1.5500
  1.5525   1.5896   1.6068   1.6356   1.6521   1.6853   1.7050   1.7417
  1.7515   1.7746   1.7998   1.8404   1.8899   1.9055   1.9513   2.0038
  2.0298   2.0624   2.1023   2.1662   2.1938   2.2263   2.2389   2.3046
  2.3308   2.3926   2.4335   2.4474   2.4661   2.4904   2.5659   2.5955
  2.6210   2.6671   2.7068   2.7078   2.7672   2.8399   2.8646   2.8948
  2.9137   2.9735   3.1212   3.1712   3.1899   3.2392   3.2698   3.3349
  3.3993   3.4141   3.4354   3.4572   3.4755   3.5112   3.5682   3.5904
  3.6103   3.6502   3.7243   3.7666   3.7698   3.8207   3.8448   3.8539
  3.9527   3.9868   4.0397   4.0774   4.1413   4.1946   4.2123   4.2651
  4.3048   4.3510   4.5991   4.7058   4.7240   4.7843   4.7996   4.9011
  5.0606   5.1286   5.1488   5.1608   5.1690   5.1760   5.1831   5.1913
  5.2019   5.2147   5.2293   5.2374   5.2475   5.2554   5.2735   5.2825
  5.2826   5.2940   5.3052   5.3350   5.3466   5.3627   5.3895   5.4046
  5.4256   5.4475   5.4811   5.5172   5.5602   5.5862   5.5944   5.6244
  5.6449   5.6664   5.6885   5.7106   5.7866   5.8374   5.9938   6.0611
  6.1427   6.2092   6.3176   6.5050   6.5461   6.5884   6.6182   6.6577
  6.7269   6.8619   6.9171   6.9428   6.9856   7.0056   7.0235   7.0402
  7.0690   7.0914   7.1127   7.1396   7.1516   7.1598   7.2414   7.2714
  7.2874   7.3411   7.3506   7.3916   7.3978   7.4400   7.4793   7.4896
  7.5075   7.5502   7.5622   7.7002   7.7083   7.7686   7.7991   7.8421
  7.8681   7.9231   7.9631   8.0650   8.1609  24.9973  25.2321  50.5010
 50.5162  50.6080  50.6899  50.7178  50.7498
 --------------------------------------------------------------
 
          Ground-State Mulliken Net Atomic Charges

     Atom                 Charge (a.u.)    Spin (a.u.)
  --------------------------------------------------------
      1 C                     0.494670      -0.000817
      2 O                    -0.628724       0.000271
      3 O                    -0.617587       0.000283
      4 C                     0.123313      -0.019312
      5 O                    -0.293197      -0.003556
      6 O                    -0.443164      -0.001058
      7 H                     0.370515      -0.008654
      8 O                    -0.161192       0.530649
      9 O                    -0.173683       0.502208
     10 H                     0.329051      -0.000016
  --------------------------------------------------------
  Sum of atomic charges =    -1.000000
  Sum of spin   charges =     1.000000

 -----------------------------------------------------------------
                    Cartesian Multipole Moments
 -----------------------------------------------------------------
    Charge (ESU x 10^10)
                -4.8032
    Dipole Moment (Debye)
         X      -8.3511      Y      -2.9054      Z      -2.3246
       Tot       9.1425
    Quadrupole Moments (Debye-Ang)
        XX     -68.8551     XY      -8.0748     YY     -60.0382
        XZ      -1.3777     YZ       1.2807     ZZ     -52.8957
    Octopole Moments (Debye-Ang^2)
       XXX    -181.5399    XXY      -5.9632    XYY     -70.8923
       YYY      32.5477    XXZ      -8.9597    XYZ       6.6973
       YYZ     -20.8384    XZZ     -61.9253    YZZ       4.4250
       ZZZ     -39.2654
    Hexadecapole Moments (Debye-Ang^3)
      XXXX    -615.3766   XXXY     -59.1197   XXYY    -203.8716
      XYYY     -24.8529   YYYY    -453.2816   XXXZ     -10.3783
      XXYZ      32.6447   XYYZ     -26.5073   YYYZ      79.3690
      XXZZ    -185.1645   XYZZ     -15.4698   YYZZ    -154.3959
      XZZZ     -29.4431   YZZZ      84.7142   ZZZZ    -360.6733
 -----------------------------------------------------------------
 Calculating analytic gradient of the SCF energy
 Gradient of CDS energy
            1           2           3           4           5           6
    1   0.0019983  -0.0004768  -0.0007246  -0.0031294   0.0010661   0.0012976
    2   0.0019404  -0.0010608  -0.0001034  -0.0015532   0.0011352   0.0000338
    3  -0.0003448  -0.0015084   0.0018109  -0.0011003   0.0029477  -0.0018125
            7           8           9          10
    1  -0.0001236  -0.0000904   0.0002032  -0.0000204
    2  -0.0000686  -0.0001082  -0.0001221  -0.0000932
    3   0.0002832   0.0001355  -0.0001070  -0.0003044
 Gradient of SCF Energy
            1           2           3           4           5           6
    1   0.0135173  -0.0099355  -0.0072067   0.0090110   0.0092024   0.0047669
    2   0.0230196  -0.0176882  -0.0014959  -0.0129436   0.0091729  -0.0003902
    3  -0.0045704  -0.0198340   0.0207742  -0.0035567  -0.0045073   0.0018776
            7           8           9          10
    1  -0.0046240  -0.0039461   0.0031814  -0.0139668
    2   0.0036670  -0.0002164   0.0035369  -0.0066620
    3  -0.0081948   0.0061180  -0.0068161   0.0187095
 Max gradient component =       2.302E-02
 RMS gradient           =       1.051E-02
 Computing fast CPCM-SWIG gradient
 Updating gradient with PCM contributions...
 -- total gradient after adding PCM contribution --
---------------------------------------------------
  Atom         X              Y              Z     
---------------------------------------------------
   1      -0.000005       0.000002      -0.000003
   2      -0.000008       0.000006      -0.000005
   3      -0.000006       0.000001      -0.000003
   4      -0.000000      -0.000003      -0.000000
   5       0.000002      -0.000007       0.000002
   6       0.000000      -0.000004       0.000001
   7       0.000004       0.000000       0.000002
   8       0.000006       0.000005       0.000003
   9       0.000008       0.000005       0.000004
  10      -0.000000      -0.000006       0.000001
---------------------------------------------------
 Number of fixed atoms: 0
 Gradient time:  CPU 101.04 s  wall 14.80 s
 Geometry Optimization Parameters
   NAtoms,    NIC,     NZ,  NCons,   NDum,   NFix, NCnnct, MaxDiis
       10      49       0       0       0       0       0       0

 Cartesian Hessian Update
 Hessian updated using Powell/Murtagh-Sargent update
**WARNING** Small scalar product
 Hessian update skipped this cycle


** GEOMETRY OPTIMIZATION IN DELOCALIZED INTERNAL COORDINATES **
   Searching for a Transition State

   Optimization Cycle:   2

                       Coordinates (Angstroms)
     ATOM                X               Y               Z
      1  C         1.4979951295    0.7662471080   -0.1381908963
      2  O         1.8012825456    1.4137528004    0.8763974119
      3  O         1.9813955242    0.8158790991   -1.2922655685
      4  C         0.3677790888   -0.2763323448    0.0085801420
      5  O        -0.0598306152   -0.7986720759   -1.1236275381
      6  O        -0.4185629257   -0.3087505402    1.0219700377
      7  H         0.0748305691   -1.0387043504    1.7115517037
      8  O         1.5884684422   -1.6575878546    0.7199842579
      9  O         1.0517603297   -1.9084675621    1.8602834531
     10  H         0.5715416119   -0.4993123794   -1.8088536033
   Point Group: c1    Number of degrees of freedom:    24


   Energy is   -528.859595934

 Hessian updated using Powell/Murtagh-Sargent update
**WARNING** Small scalar product
 Hessian update skipped this cycle

 24 Hessian modes will be used to form the next step
  Hessian Eigenvalues:
    -0.055725    0.003425    0.006675    0.023003    0.028030    0.033068
     0.097566    0.115831    0.135800    0.195460    0.207369    0.231129
     0.243397    0.254828    0.328779    0.382290    0.394204    0.449492
     0.491825    0.544715    0.558234    0.676780    0.766753    0.948715

 Transition state search - taking P-RFO step
 Searching for Lamda that Maximizes Along the Lowest mode
 Value Taken    Lamda =   0.00000000
 Searching for Lamda that Minimizes Along All other modes
 Value Taken    Lamda =  -0.00000000
 Step Taken.  Stepsize is  0.000032

                             Maximum     Tolerance    Cnvgd?
         Gradient           0.000001      0.000300     YES
         Displacement       0.000019      0.001200     YES
         Energy change     -0.000000      0.000001     YES


                       Distance Matrix (Angstroms)
             C (  1)   O (  2)   O (  3)   C (  4)   O (  5)   O (  6)
   O (  2)  1.241224
   O (  3)  1.252209  2.256766
   C (  4)  1.544637  2.380006  2.342837
   O (  5)  2.418032  3.515489  2.608030  1.318174
   O (  6)  2.484912  2.813525  3.518562  1.283099  2.229866
   H (  7)  2.950389  3.113305  4.012155  1.888688  2.848507  1.118835
   O (  8)  2.572863  3.082676  3.212722  1.975866  2.617925  2.436951
   O (  9)  3.368549  3.544991  4.269057  2.561347  3.372092  2.328887
   H ( 10)  2.291522  3.518900  1.996066  1.842364  0.978663  3.005026
             H (  7)   O (  8)   O (  9)
   O (  8)  1.912413
   O (  9)  1.316435  1.285021
   H ( 10)  3.595959  2.961547  3.959658
 
 Final energy is   -528.859595934436     


 ******************************
 **  OPTIMIZATION CONVERGED  **
 ******************************

                       Coordinates (Angstroms)
     ATOM                X               Y               Z
      1  C         1.4979951295    0.7662471080   -0.1381908963
      2  O         1.8012825456    1.4137528004    0.8763974119
      3  O         1.9813955242    0.8158790991   -1.2922655685
      4  C         0.3677790888   -0.2763323448    0.0085801420
      5  O        -0.0598306152   -0.7986720759   -1.1236275381
      6  O        -0.4185629257   -0.3087505402    1.0219700377
      7  H         0.0748305691   -1.0387043504    1.7115517037
      8  O         1.5884684422   -1.6575878546    0.7199842579
      9  O         1.0517603297   -1.9084675621    1.8602834531
     10  H         0.5715416119   -0.4993123794   -1.8088536033

Z-matrix Print:
$molecule
-1 2
O 
O  1 1.285021
H  2 1.316435 1 94.628994
O  3 1.118835 2 145.888341 1 4.902525 0
C  4 1.283099 3 103.474310 2 -6.570536 0
O  5 1.318174 4 118.005644 3 110.771875 0
H  6 0.978663 5 105.717629 4 167.235872 0
C  5 1.544637 4 122.719137 3 -93.525331 0
O  8 1.241224 5 116.950899 4 14.012459 0
O  8 1.252209 5 113.377741 4 -166.527044 0
$end

 
 --------------------------------------------------------------
 
                    Orbital Energies (a.u.)
 --------------------------------------------------------------
 
 Alpha MOs
 -- Occupied --
-19.4292 -19.4256 -19.3865 -19.3550 -19.3038 -19.3009 -10.5108 -10.4599
 -1.3394  -1.2574  -1.1846  -1.1794  -1.1007  -0.9513  -0.7915  -0.7339
 -0.6991  -0.6229  -0.6110  -0.6057  -0.6013  -0.5501  -0.5445  -0.5278
 -0.5109  -0.4819  -0.4604  -0.3968  -0.3866  -0.3849  -0.3757  -0.3624
 -- Virtual --
  0.0416   0.0453   0.0547   0.0729   0.0833   0.1016   0.1072   0.1129
  0.1286   0.1488   0.1652   0.1830   0.1880   0.2081   0.2329   0.2365
  0.2458   0.2498   0.2682   0.2746   0.2887   0.3016   0.3034   0.3188
  0.3230   0.3282   0.3333   0.3431   0.3460   0.3510   0.3548   0.3607
  0.3676   0.3861   0.3915   0.4018   0.4258   0.4312   0.4427   0.4495
  0.4630   0.5201   0.5555   0.6009   0.6147   0.6617   0.6857   0.7005
  0.7212   0.7364   0.7431   0.7892   0.8011   0.8397   0.8486   0.8669
  0.8987   0.9338   0.9435   1.0469   1.0603   1.0763   1.0805   1.0958
  1.1111   1.1152   1.1367   1.1484   1.1509   1.1603   1.1865   1.1951
  1.2016   1.2170   1.2218   1.2338   1.2622   1.2715   1.2840   1.3002
  1.3538   1.3789   1.4131   1.4702   1.4751   1.5261   1.5379   1.5469
  1.5812   1.6044   1.6339   1.6496   1.6780   1.6854   1.7348   1.7465
  1.7736   1.7987   1.8364   1.8874   1.9021   1.9446   2.0004   2.0261
  2.0525   2.0996   2.1634   2.1848   2.2211   2.2350   2.2929   2.3129
  2.3876   2.4315   2.4464   2.4657   2.4901   2.5624   2.5953   2.6199
  2.6648   2.6983   2.7064   2.7659   2.8401   2.8642   2.8954   2.9139
  2.9747   3.1223   3.1713   3.1907   3.2394   3.2699   3.3348   3.3997
  3.4144   3.4363   3.4579   3.4757   3.5119   3.5688   3.5908   3.6107
  3.6506   3.7245   3.7672   3.7700   3.8210   3.8470   3.8550   3.9522
  3.9869   4.0401   4.0782   4.1419   4.1963   4.2125   4.2643   4.3049
  4.3512   4.5593   4.6910   4.6988   4.7689   4.7894   4.8893   5.0250
  5.0646   5.1193   5.1498   5.1642   5.1696   5.1806   5.1830   5.1925
  5.2005   5.2037   5.2141   5.2290   5.2379   5.2593   5.2631   5.2732
  5.2813   5.2999   5.3265   5.3369   5.3537   5.3860   5.4033   5.4195
  5.4353   5.4764   5.5142   5.5592   5.5841   5.5906   5.6231   5.6406
  5.6439   5.6817   5.6914   5.7850   5.8365   5.9934   6.0612   6.1427
  6.2083   6.3174   6.5044   6.5374   6.5389   6.6179   6.6571   6.7193
  6.8095   6.9162   6.9304   6.9411   6.9983   7.0085   7.0227   7.0516
  7.0872   7.0957   7.1039   7.1100   7.1384   7.2342   7.2463   7.2839
  7.3346   7.3466   7.3648   7.3752   7.4217   7.4729   7.4876   7.5072
  7.5333   7.5574   7.6984   7.7076   7.7678   7.7967   7.8410   7.8662
  7.9205   7.9624   8.0522   8.1417  24.9975  25.2322  50.4894  50.5049
 50.6079  50.6895  50.7178  50.7497
 
 Beta MOs
 -- Occupied --
-19.4134 -19.4108 -19.3866 -19.3551 -19.3038 -19.3009 -10.5111 -10.4599
 -1.3125  -1.2554  -1.1846  -1.1791  -1.1006  -0.9111  -0.7893  -0.7326
 -0.6936  -0.6212  -0.6049  -0.5821  -0.5502  -0.5420  -0.5354  -0.5198
 -0.5016  -0.4761  -0.4587  -0.3879  -0.3840  -0.3760  -0.3524
 -- Virtual --
 -0.0201   0.0421   0.0479   0.0552   0.0732   0.0837   0.1021   0.1077
  0.1134   0.1296   0.1491   0.1666   0.1840   0.1912   0.2106   0.2374
  0.2389   0.2469   0.2509   0.2702   0.2753   0.2930   0.3033   0.3058
  0.3201   0.3236   0.3297   0.3346   0.3446   0.3471   0.3536   0.3578
  0.3628   0.3679   0.3871   0.3952   0.4028   0.4268   0.4328   0.4432
  0.4496   0.4631   0.5207   0.5555   0.6011   0.6156   0.6633   0.6864
  0.7004   0.7217   0.7367   0.7431   0.7896   0.8011   0.8400   0.8502
  0.8696   0.8995   0.9343   0.9447   1.0489   1.0644   1.0769   1.0851
  1.1029   1.1121   1.1279   1.1379   1.1488   1.1587   1.1652   1.1911
  1.1977   1.2069   1.2227   1.2361   1.2388   1.2659   1.2753   1.2856
  1.3009   1.3642   1.3833   1.4145   1.4742   1.4877   1.5279   1.5500
  1.5525   1.5896   1.6068   1.6356   1.6521   1.6853   1.7050   1.7417
  1.7515   1.7746   1.7998   1.8404   1.8899   1.9055   1.9513   2.0038
  2.0298   2.0624   2.1023   2.1662   2.1938   2.2263   2.2389   2.3046
  2.3308   2.3926   2.4335   2.4474   2.4661   2.4904   2.5659   2.5955
  2.6210   2.6671   2.7068   2.7078   2.7672   2.8399   2.8646   2.8948
  2.9137   2.9735   3.1212   3.1712   3.1899   3.2392   3.2698   3.3349
  3.3993   3.4141   3.4354   3.4572   3.4755   3.5112   3.5682   3.5904
  3.6103   3.6502   3.7243   3.7666   3.7698   3.8207   3.8448   3.8539
  3.9527   3.9868   4.0397   4.0774   4.1413   4.1946   4.2123   4.2651
  4.3048   4.3510   4.5991   4.7058   4.7240   4.7843   4.7996   4.9011
  5.0606   5.1286   5.1488   5.1608   5.1690   5.1760   5.1831   5.1913
  5.2019   5.2147   5.2293   5.2374   5.2475   5.2554   5.2735   5.2825
  5.2826   5.2940   5.3052   5.3350   5.3466   5.3627   5.3895   5.4046
  5.4256   5.4475   5.4811   5.5172   5.5602   5.5862   5.5944   5.6244
  5.6449   5.6664   5.6885   5.7106   5.7866   5.8374   5.9938   6.0611
  6.1427   6.2092   6.3176   6.5050   6.5461   6.5884   6.6182   6.6577
  6.7269   6.8619   6.9171   6.9428   6.9856   7.0056   7.0235   7.0402
  7.0690   7.0914   7.1127   7.1396   7.1516   7.1598   7.2414   7.2714
  7.2874   7.3411   7.3506   7.3916   7.3978   7.4400   7.4793   7.4896
  7.5075   7.5502   7.5622   7.7002   7.7083   7.7686   7.7991   7.8421
  7.8681   7.9231   7.9631   8.0650   8.1609  24.9973  25.2321  50.5010
 50.5162  50.6080  50.6899  50.7178  50.7498
 --------------------------------------------------------------
 
          Ground-State Mulliken Net Atomic Charges

     Atom                 Charge (a.u.)    Spin (a.u.)
  --------------------------------------------------------
      1 C                     0.494670      -0.000817
      2 O                    -0.628724       0.000271
      3 O                    -0.617587       0.000283
      4 C                     0.123313      -0.019312
      5 O                    -0.293197      -0.003556
      6 O                    -0.443164      -0.001058
      7 H                     0.370515      -0.008654
      8 O                    -0.161192       0.530649
      9 O                    -0.173683       0.502208
     10 H                     0.329051      -0.000016
  --------------------------------------------------------
  Sum of atomic charges =    -1.000000
  Sum of spin   charges =     1.000000

 -----------------------------------------------------------------
                    Cartesian Multipole Moments
 -----------------------------------------------------------------
    Charge (ESU x 10^10)
                -4.8032
    Dipole Moment (Debye)
         X      -8.3511      Y      -2.9054      Z      -2.3246
       Tot       9.1425
    Quadrupole Moments (Debye-Ang)
        XX     -68.8551     XY      -8.0748     YY     -60.0382
        XZ      -1.3777     YZ       1.2807     ZZ     -52.8957
    Octopole Moments (Debye-Ang^2)
       XXX    -181.5399    XXY      -5.9632    XYY     -70.8923
       YYY      32.5477    XXZ      -8.9597    XYZ       6.6973
       YYZ     -20.8384    XZZ     -61.9253    YZZ       4.4250
       ZZZ     -39.2654
    Hexadecapole Moments (Debye-Ang^3)
      XXXX    -615.3766   XXXY     -59.1197   XXYY    -203.8716
      XYYY     -24.8529   YYYY    -453.2816   XXXZ     -10.3783
      XXYZ      32.6447   XYYZ     -26.5073   YYYZ      79.3690
      XXZZ    -185.1645   XYZZ     -15.4698   YYZZ    -154.3959
      XZZZ     -29.4431   YZZZ      84.7142   ZZZZ    -360.6733
 -----------------------------------------------------------------
 Total job time:  226.43s(wall), 1749.24s(cpu) 
 Tue Jun 20 12:54:24 2023

        *************************************************************
        *                                                           *
        *  Thank you very much for using Q-Chem.  Have a nice day.  *
        *                                                           *
        *************************************************************


