
Running Job 1 of 2 Q_in.in
qchem Q_in.in_202561.0 /scratch/ari.fischer/qChem1591975.hpc-mn1/qchem202561/ 0
/usr/local/qchem-5.4.1/exe/qcprog.exe_s Q_in.in_202561.0 /scratch/ari.fischer/qChem1591975.hpc-mn1/qchem202561/
                  Welcome to Q-Chem
     A Quantum Leap Into The Future Of Chemistry


 Q-Chem 5.4, Q-Chem, Inc., Pleasanton, CA (2021)

 License issued to: Nanyang Technological University (site)

 E. Epifanovsky,  A. T. B. Gilbert,  Xintian Feng,  Joonho Lee,  Yuezhi Mao,  
 N. Mardirossian,  P. Pokhilko,  A. White,  M. Wormit,  M. P. Coons,  
 A. L. Dempwolff,  Zhengting Gan,  D. Hait,  P. R. Horn,  L. D. Jacobson,  
 I. Kaliman,  J. Kussmann,  A. W. Lange,  Ka Un Lao,  D. S. Levine,  Jie Liu,  
 S. C. McKenzie,  A. F. Morrison,  K. Nanda,  F. Plasser,  D. R. Rehn,  
 M. L. Vidal,  Zhi-Qiang You,  Ying Zhu,  B. Alam,  B. Albrecht,  
 A. Aldossary,  E. Alguire,  J. H. Andersen,  D. Barton,  K. Begam,  A. Behn,  
 Y. A. Bernard,  E. J. Berquist,  H. Burton,  A. Carreras,  K. Carter-Fenk,  
 R. Chakraborty,  A. D. Chien,  K. D. Closser,  V. Cofer-Shabica,  
 S. Dasgupta,  Jia Deng,  M. de Wergifosse,  M. Diedenhofen,  Hainam Do,  
 S. Ehlert,  Po-Tung Fang,  S. Fatehi,  Qingguo Feng,  T. Friedhoff,  
 J. Gayvert,  Qinghui Ge,  G. Gidofalvi,  M. Goldey,  J. Gomes,  
 C. Gonzalez-Espinoza,  S. Gulania,  A. Gunina,  M. W. D. Hanson-Heine,  
 P. H. P. Harbach,  A. W. Hauser,  M. F. Herbst,  M. Hernandez Vera,  
 M. Hodecker,  Z. C. Holden,  S. Houck,  Xunkun Huang,  Kerwin Hui,  
 B. C. Huynh,  M. Ivanov,  Hyunjun Ji,  Hanjie Jiang,  B. Kaduk,  S. Kaehler,  
 K. Khistyaev,  Jaehoon Kim,  P. Klunzinger,  Z. Koczor-Benda,  
 Joong Hoon Koh,  D. Kosenkov,  L. Koulias,  T. Kowalczyk,  C. M. Krauter,  
 K. Kue,  A. Kunitsa,  T. Kus,  A. Landau,  K. V. Lawler,  D. Lefrancois,  
 S. Lehtola,  Rain Li,  Yi-Pei Li,  Jiashu Liang,  M. Liebenthal,  
 Hung-Hsuan Lin,  You-Sheng Lin,  Fenglai Liu,  Kuan-Yu Liu,  
 M. Loipersberger,  A. Luenser,  A. Manjanath,  P. Manohar,  E. Mansoor,  
 S. F. Manzer,  Shan-Ping Mao,  A. V. Marenich,  T. Markovich,  S. Mason,  
 S. A. Maurer,  P. F. McLaughlin,  M. F. S. J. Menger,  J.-M. Mewes,  
 S. A. Mewes,  P. Morgante,  J. W. Mullinax,  K. J. Oosterbaan,  G. Paran,  
 Alexander C. Paul,  Suranjan K. Paul,  F. Pavosevic,  Zheng Pei,  S. Prager,  
 E. I. Proynov,  E. Ramos,  B. Rana,  A. E. Rask,  A. Rettig,  R. M. Richard,  
 F. Rob,  E. Rossomme,  T. Scheele,  M. Scheurer,  M. Schneider,  
 N. Sergueev,  S. M. Sharada,  W. Skomorowski,  D. W. Small,  C. J. Stein,  
 Yu-Chuan Su,  E. J. Sundstrom,  Zhen Tao,  J. Thirman,  T. Tsuchimochi,  
 N. M. Tubman,  S. P. Veccham,  O. Vydrov,  J. Wenzel,  J. Witte,  A. Yamada,  
 Kun Yao,  S. Yeganeh,  S. R. Yost,  A. Zech,  Igor Ying Zhang,  Xing Zhang,  
 Yu Zhang,  D. Zuev,  A. Aspuru-Guzik,  A. T. Bell,  N. A. Besley,  
 K. B. Bravaya,  B. R. Brooks,  D. Casanova,  Jeng-Da Chai,  S. Coriani,  
 C. J. Cramer,  A. E. DePrince, III,  R. A. DiStasio Jr.,  A. Dreuw,  
 B. D. Dunietz,  T. R. Furlani,  W. A. Goddard III,  S. Grimme,  
 S. Hammes-Schiffer,  T. Head-Gordon,  W. J. Hehre,  Chao-Ping Hsu,  
 T.-C. Jagau,  Yousung Jung,  A. Klamt,  Jing Kong,  D. S. Lambrecht,  
 WanZhen Liang,  N. J. Mayhall,  C. W. McCurdy,  J. B. Neaton,  
 C. Ochsenfeld,  J. A. Parkhill,  R. Peverati,  V. A. Rassolov,  Yihan Shao,  
 L. V. Slipchenko,  T. Stauch,  R. P. Steele,  J. E. Subotnik,  
 A. J. W. Thom,  A. Tkatchenko,  D. G. Truhlar,  T. Van Voorhis,  
 T. A. Wesolowski,  K. B. Whaley,  H. L. Woodcock III,  P. M. Zimmerman,  
 S. Faraji,  P. M. W. Gill,  M. Head-Gordon,  J. M. Herbert,  A. I. Krylov

 Additional authors for Version 5.4.1: 
 S. Kotaru,  Shaozhi Li,  Xiangyuan Li,  F. Matz,  A. Molle,  Haisheng Ren,  
 Yingli Su,  Hung-Yi Tsai,  C. Utku,  Fang Wang

 Contributors to earlier versions of Q-Chem not listed above: 
 R. D. Adamson,  B. Austin,  R. Baer,  J. Baker,  G. J. O. Beran,  
 K. Brandhorst,  S. T. Brown,  E. F. C. Byrd,  A. K. Chakraborty,  
 G. K. L. Chan,  Chun-Min Chang,  Yunqing Chen,  C.-L. Cheng,  
 Siu Hung Chien,  D. M. Chipman,  D. L. Crittenden,  H. Dachsel,  
 R. J. Doerksen,  A. D. Dutoi,  R. G. Edgar,  J. Fosso-Tande,  
 L. Fusti-Molnar,  D. Ghosh,  A. Ghysels,  A. Golubeva-Zadorozhnaya,  
 J. Gonthier,  M. S. Gordon,  S. R. Gwaltney,  G. Hawkins,  J. E. Herr,  
 A. Heyden,  S. Hirata,  E. G. Hohenstein,  G. Kedziora,  F. J. Keil,  
 C. Kelley,  Jihan Kim,  R. A. King,  R. Z. Khaliullin,  P. P. Korambath,  
 W. Kurlancheek,  A. Laurent,  A. M. Lee,  M. S. Lee,  S. V. Levchenko,  
 Ching Yeh Lin,  D. Liotard,  E. Livshits,  R. C. Lochan,  I. Lotan,  
 L. A. Martinez-Martinez,  P. E. Maslen,  N. Nair,  D. P. O'Neill,  
 D. Neuhauser,  E. Neuscamman,  C. M. Oana,  R. Olivares-Amaya,  R. Olson,  
 T. M. Perrine,  B. Peters,  P. A. Pieniazek,  A. Prociuk,  Y. M. Rhee,  
 J. Ritchie,  M. A. Rohrdanz,  E. Rosta,  N. J. Russ,  H. F. Schaefer III,  
 M. W. Schmidt,  N. E. Schultz,  S. Sharma,  N. Shenvi,  C. D. Sherrill,  
 A. C. Simmonett,  A. Sodt,  T. Stein,  D. Stuck,  K. S. Thanthiriwatte,  
 V. Vanovschi,  L. Vogt,  Tao Wang,  A. Warshel,  M. A. Watson,  
 C. F. Williams,  Q. Wu,  X. Xu,  Jun Yang,  W. Zhang,  Yan Zhao

 Please cite Q-Chem as follows:
 Y. Shao et al., Mol. Phys. 113, 184-215 (2015)
 DOI: 10.1080/00268976.2014.952696

 Q-Chem 5.4.1 for Intel X86 EM64T Linux

 Parts of Q-Chem use Armadillo 9.800.1 (Horizon Scraper).
 http://arma.sourceforge.net/

 Q-Chem begins on Tue Jun 20 05:52:31 2023  

 Host: 
0

     Scratch files written to /scratch/ari.fischer/qChem1591975.hpc-mn1/qchem202561//
 Aug1521 |scratch|qcdevops|jenkins|workspace|build_RNUM 8249   
 Processing $rem in /usr/local/qchem-5.4.1/config/preferences:
 Processing $rem in /home/ari.fischer/.qchemrc:
 Symmetry turned off for PCM/SM12/SMD calculation


!!********************************************.
!!******************Warning*******************.
!!Desired Analytical derivatives not available.
!!Finite difference job might take a long time.
!!********************************************.
!!********************************************.


 2-order derivative to be evaluated numerically with 1-order analytical derivatives

 Checking the input file for inconsistencies... 	...done.

--------------------------------------------------------------
User input:
--------------------------------------------------------------
$molecule
-1 2
C    1.5844599    0.7594531   -0.0366919
O    1.6319663    1.6456081    0.7783033
O    2.4088445    0.6104429   -1.0653695
C    0.5464731   -0.3561399    0.0029388
O    0.2543258   -0.8575610   -1.2204214
O   -0.3789196   -0.2825919    0.8689141
H    0.0988543   -1.1618877    1.6971768
O    1.6270215   -1.6027184    0.7737238
O    0.9821077   -1.8702309    1.8414499
H   -0.2984738   -0.3763224   -1.8041945
$end

$rem
BASIS = 6-311++G(2df,2p)
GUI = 2
JOB_TYPE = Frequency
METHOD = wB97M-V
SCF_ALGORITHM = DIIS_GDM
MAX_SCF_CYCLES = 400
SCF_CONVERGENCE = 6
THRESH = 11
SYMMETRY_IGNORE = 1
solvent_method = SMD
$end

--------------------------------------------------------------
 ----------------------------------------------------------------
             Standard Nuclear Orientation (Angstroms)
    I     Atom           X                Y                Z
 ----------------------------------------------------------------
    1      C       1.5844599000     0.7594531000    -0.0366919000
    2      O       1.6319663000     1.6456081000     0.7783033000
    3      O       2.4088445000     0.6104429000    -1.0653695000
    4      C       0.5464731000    -0.3561399000     0.0029388000
    5      O       0.2543258000    -0.8575610000    -1.2204214000
    6      O      -0.3789196000    -0.2825919000     0.8689141000
    7      H       0.0988543000    -1.1618877000     1.6971768000
    8      O       1.6270215000    -1.6027184000     0.7737238000
    9      O       0.9821077000    -1.8702309000     1.8414499000
   10      H      -0.2984738000    -0.3763224000    -1.8041945000
 ----------------------------------------------------------------
 Nuclear Repulsion Energy =         398.44159922 hartrees
 There are       32 alpha and       31 beta electrons
 Requested basis set is 6-311++G(2df,2p)
 There are 76 shells and 292 basis functions

 Total QAlloc Memory Limit 288000 MB
 Mega-Array Size       188 MB
 MEM_STATIC part       192 MB
 
 Citation of the SMD model:
 Marenich, A.V.; Cramer, C.J.; Truhlar, D.G.
 J. Phys. Chem. B 2009, 113, 6378-6396.
 iSolventCode=           1
 Solvent: water                                                           
 
 vradii
            1           2           3           4           5           6
    1   1.8500000   1.5200000   1.5200000   1.8500000   1.5200000   1.5200000
            7           8           9          10
    1   1.2000000   1.5200000   1.5200000   1.2000000
 Changing PCM_VDW_RADII to SMD_RADIUS
 Discretize the solute cavity surface with Lebedev spheres
	Using 110 Lebedev grid points for each H atom
	Using 194 Lebedev grid points for other atoms
	Atomic van der Waals radii will be scaled by 1.20
 Remove points where switching function is < 1.0e-08
 Keep 961 surface tesserae and discard 811 interior tesserae
 Molecular Surface Area = 114.224 Angst**2

                       Distance Matrix (Angstroms)
             C (  1)   O (  2)   O (  3)   C (  4)   O (  5)   O (  6)
   O (  2)  1.204884
   O (  3)  1.326647  2.252607
   C (  4)  1.524315  2.405510  2.354568
   O (  5)  2.405246  3.486925  2.611710  1.354025
   O (  6)  2.400175  2.787441  3.508645  1.269517  2.257634
   H (  7)  2.984104  3.328182  4.013586  1.928739  2.937544  1.299018
   O (  8)  2.497687  3.248333  2.981878  1.820893  2.533016  2.403247
   O (  9)  3.287169  3.730110  4.079083  2.421234  3.306089  2.306256
   H ( 10)  2.821257  3.805798  2.974750  1.995012  0.937000  2.675961
             H (  7)   O (  8)   O (  9)
   O (  8)  1.839128
   O (  9)  1.141359  1.275741
   H ( 10)  3.610344  3.443435  4.142750
 
 A cutoff of  1.0D-11 yielded   2645 shell pairs
 There are     39761 function pairs (     51263 Cartesian)
 Smallest overlap matrix eigenvalue = 5.79E-05
 Guess from superposition of atomic densities
 Warning:  Energy on first SCF cycle will be non-variational
 SAD guess density has 62.000000 electrons

 -----------------------------------------------------------------------
  General SCF calculation program by
  Eric Jon Sundstrom, Paul Horn, Yuezhi Mao, Dmitri Zuev, Alec White,
  David Stuck, Shaama M.S., Shane Yost, Joonho Lee, David Small,
  Daniel Levine, Susi Lehtola, Hugh Burton, Evgeny Epifanovsky,
  Bang C. Huynh
 -----------------------------------------------------------------------
 Exchange:     0.1500 Hartree-Fock + 1.0000 wB97M-V + LR-HF
 Correlation:  1.0000 wB97M-V
 Using SG-2 standard quadrature grid
 Nonlocal Correlation:  VV10 with C = 0.0100 and b = 6.00 and scale = 1.00000
 Grid used for NLC:  SG-1 standard quadrature
 using 16 threads for integral computing
 -------------------------------------------------------
 OpenMP Integral computing Module                
 Release: version 1.0, May 2013, Q-Chem Inc. Pittsburgh 
 -------------------------------------------------------
 
 Citation of the SMD model:
 Marenich, A.V.; Cramer, C.J.; Truhlar, D.G.
 J. Phys. Chem. B 2009, 113, 6378-6396.
 iSolventCode=           1
 Solvent: water                                                           
 
 vradii
            1           2           3           4           5           6
    1   1.8500000   1.5200000   1.5200000   1.8500000   1.5200000   1.5200000
            7           8           9          10
    1   1.2000000   1.5200000   1.5200000   1.2000000
 -------------------------------------------------------
 OpenMP BLAS3 based DFT computing Module                
 Release: version 1.0, May 2013, Q-Chem Inc. Pittsburgh 
 -------------------------------------------------------
 A unrestricted SCF calculation will be
 performed using DIIS, GDM
 SCF converges when RMS gradient is below 1.0e-06
 ---------------------------------------
  Cycle       Energy         DIIS error
 ---------------------------------------
    1    -529.9578262876      1.47e-02  
    2    -528.5489097293      2.96e-03  Done DIIS. Switching to GDM
 ---------------------------------------
  Cycle       Energy        RMS Gradient
 ---------------------------------------
    1    -528.5489097293      1.31e-01   Descent step
    2    -528.7870037226      3.44e-02   Normal BFGS step
    3    -528.8301489556      1.79e-02   Normal BFGS step
    4    -528.8315303567      2.37e-02   Normal BFGS step
    5    -528.8331544972      5.71e-03   Normal BFGS step
    6    -528.8332584577      3.36e-03   Normal BFGS step
    7    -528.8333158462      1.56e-03   Normal BFGS step
    8    -528.8333264941      7.50e-04   Normal BFGS step
    9    -528.8333306101      5.57e-04   Normal BFGS step
   10    -528.8333318134      4.47e-04   Normal BFGS step
   11    -528.8333325063      2.90e-04   Normal BFGS step
   12    -528.8333327608      1.02e-04   Normal BFGS step
   13    -528.8333328083      3.23e-05   Normal BFGS step
   14    -528.8333328266      1.59e-05   Normal BFGS step
   15    -528.8333328293      8.23e-06   Normal BFGS step
   16    -528.8333328299      3.92e-06   Normal BFGS step
   17    -528.8333328299      1.25e-06   Normal BFGS step
   18    -528.8333328301      5.69e-07  Convergence criterion met
 ---------------------------------------
 SCF time:   CPU 825.50s  wall 55.00s 
<S^2> =          0.754963624
(3)  G-ENP(liq) elect-nuc-pol free energy of system     -528.833332830 a.u.
(4)  G-CDS(liq) cavity-dispersion-solvent structure 
     free energy                                                4.3349 kcal/mol
(6)  G-S(liq) free energy of system                     -528.826424785 a.u.
 SCF   energy in the final basis set =     -528.8264247845
 Total energy in the final basis set =     -528.8264247845
 
 --------------------------------------------------------------
 
                    Orbital Energies (a.u.)
 --------------------------------------------------------------
 
 Alpha MOs
 -- Occupied --
-19.4723 -19.4682 -19.3550 -19.3345 -19.3054 -19.2789 -10.5091 -10.4490
 -1.3896  -1.2341  -1.1822  -1.1536  -1.0675  -1.0006  -0.8047  -0.7342
 -0.7138  -0.6435  -0.6402  -0.6131  -0.5899  -0.5543  -0.5364  -0.5147
 -0.4685  -0.4587  -0.4470  -0.4254  -0.4207  -0.3723  -0.3636  -0.3506
 -- Virtual --
  0.0393   0.0482   0.0621   0.0716   0.0826   0.1038   0.1094   0.1128
  0.1239   0.1552   0.1664   0.1749   0.1856   0.1989   0.2260   0.2364
  0.2490   0.2566   0.2618   0.2642   0.2828   0.3018   0.3103   0.3210
  0.3255   0.3286   0.3411   0.3422   0.3476   0.3501   0.3544   0.3669
  0.3775   0.3804   0.3909   0.4141   0.4170   0.4323   0.4433   0.4717
  0.4871   0.5257   0.5435   0.5868   0.6299   0.6339   0.6852   0.7081
  0.7210   0.7368   0.7630   0.7988   0.8154   0.8477   0.8517   0.8789
  0.9207   0.9439   0.9962   1.0179   1.0304   1.0571   1.0799   1.0952
  1.1081   1.1190   1.1271   1.1452   1.1579   1.1594   1.1773   1.1908
  1.2068   1.2291   1.2455   1.2578   1.2708   1.2961   1.3062   1.3244
  1.3474   1.3762   1.3886   1.4650   1.4806   1.5093   1.5621   1.5676
  1.5800   1.6411   1.6445   1.6636   1.6714   1.6933   1.7249   1.7332
  1.7486   1.8069   1.8088   1.8540   1.9228   1.9562   1.9663   1.9998
  2.0515   2.0767   2.1079   2.1503   2.2008   2.2225   2.2499   2.3133
  2.3565   2.4030   2.4287   2.4577   2.4745   2.5220   2.5750   2.6222
  2.6346   2.6623   2.6763   2.7720   2.8706   2.8941   2.9472   2.9712
  2.9971   3.1198   3.1734   3.2068   3.2814   3.2838   3.3748   3.4031
  3.4258   3.4681   3.4805   3.5166   3.5480   3.5630   3.5953   3.6233
  3.6655   3.7351   3.7730   3.8023   3.8117   3.8537   3.8814   3.9362
  3.9785   4.0217   4.0911   4.1764   4.1832   4.2574   4.2699   4.2815
  4.4303   4.5361   4.6802   4.6938   4.7872   4.8011   4.9101   5.0258
  5.0706   5.1185   5.1387   5.1569   5.1693   5.1705   5.1798   5.2000
  5.2020   5.2129   5.2233   5.2351   5.2510   5.2523   5.2697   5.2861
  5.2984   5.3180   5.3244   5.3408   5.3576   5.3777   5.4167   5.4273
  5.4548   5.4835   5.5342   5.5495   5.5679   5.6017   5.6083   5.6318
  5.6516   5.7079   5.7582   5.7703   5.8655   5.9006   6.0269   6.1756
  6.2232   6.2547   6.4264   6.4918   6.5403   6.5929   6.6743   6.7350
  6.8134   6.8157   6.9302   6.9362   6.9934   7.0100   7.0352   7.0570
  7.0643   7.0778   7.0799   7.1060   7.1394   7.2269   7.2575   7.3081
  7.3224   7.3496   7.3578   7.3906   7.4103   7.4233   7.4675   7.5133
  7.5484   7.5753   7.6275   7.7376   7.7744   7.8221   7.8266   7.8504
  7.9497   8.0076   8.0459   8.1516  24.9500  25.1938  50.4645  50.5071
 50.6246  50.6593  50.7057  50.7857
 
 Beta MOs
 -- Occupied --
-19.4562 -19.4537 -19.3549 -19.3346 -19.3054 -19.2788 -10.5094 -10.4490
 -1.3616  -1.2333  -1.1822  -1.1533  -1.0673  -0.9616  -0.8016  -0.7250
 -0.7094  -0.6248  -0.6071  -0.5909  -0.5598  -0.5492  -0.5349  -0.5123
 -0.4635  -0.4572  -0.4358  -0.4204  -0.3721  -0.3632  -0.3506
 -- Virtual --
 -0.0504   0.0396   0.0498   0.0652   0.0720   0.0832   0.1042   0.1102
  0.1133   0.1247   0.1571   0.1672   0.1766   0.1874   0.2054   0.2270
  0.2404   0.2512   0.2574   0.2628   0.2655   0.2889   0.3034   0.3112
  0.3228   0.3268   0.3299   0.3418   0.3426   0.3499   0.3513   0.3557
  0.3680   0.3806   0.3836   0.3913   0.4145   0.4179   0.4332   0.4442
  0.4721   0.4877   0.5264   0.5438   0.5884   0.6301   0.6355   0.6853
  0.7081   0.7211   0.7381   0.7644   0.7992   0.8154   0.8513   0.8535
  0.8800   0.9212   0.9452   0.9983   1.0209   1.0320   1.0584   1.0851
  1.1083   1.1188   1.1218   1.1296   1.1482   1.1585   1.1623   1.1812
  1.1958   1.2154   1.2444   1.2482   1.2601   1.2725   1.2978   1.3103
  1.3284   1.3528   1.3811   1.3917   1.4688   1.4938   1.5132   1.5640
  1.5726   1.5916   1.6430   1.6502   1.6704   1.6797   1.6962   1.7271
  1.7397   1.7517   1.8081   1.8154   1.8638   1.9238   1.9597   1.9722
  2.0084   2.0538   2.0827   2.1103   2.1597   2.2060   2.2237   2.2597
  2.3302   2.3626   2.4055   2.4309   2.4617   2.4755   2.5252   2.5753
  2.6247   2.6363   2.6649   2.6857   2.7723   2.8717   2.8937   2.9467
  2.9714   2.9969   3.1197   3.1726   3.2069   3.2814   3.2831   3.3754
  3.4041   3.4259   3.4678   3.4804   3.5166   3.5478   3.5638   3.5941
  3.6232   3.6652   3.7347   3.7728   3.8021   3.8121   3.8545   3.8814
  3.9375   3.9786   4.0215   4.0906   4.1763   4.1829   4.2579   4.2698
  4.2813   4.4317   4.5760   4.7004   4.7192   4.8017   4.8055   4.9217
  5.0768   5.1117   5.1503   5.1656   5.1696   5.1717   5.1804   5.1910
  5.2121   5.2159   5.2197   5.2383   5.2480   5.2612   5.2715   5.2779
  5.2972   5.3132   5.3235   5.3310   5.3515   5.3728   5.3790   5.4223
  5.4345   5.4587   5.4921   5.5355   5.5524   5.5732   5.6040   5.6134
  5.6512   5.6612   5.7083   5.7627   5.7857   5.8666   5.9014   6.0271
  6.1758   6.2232   6.2572   6.4359   6.4927   6.5905   6.5938   6.6781
  6.7447   6.8154   6.8662   6.9342   6.9843   7.0039   7.0144   7.0375
  7.0697   7.0821   7.1210   7.1253   7.1365   7.1558   7.2368   7.2607
  7.3216   7.3356   7.3588   7.3771   7.3941   7.4240   7.4350   7.4857
  7.5249   7.5578   7.5776   7.6298   7.7384   7.7773   7.8246   7.8286
  7.8541   7.9514   8.0099   8.0590   8.1704  24.9498  25.1938  50.4760
 50.5189  50.6251  50.6595  50.7057  50.7857
 --------------------------------------------------------------
 
          Ground-State Mulliken Net Atomic Charges

     Atom                 Charge (a.u.)    Spin (a.u.)
  --------------------------------------------------------
      1 C                     0.465223      -0.002627
      2 O                    -0.578706       0.000099
      3 O                    -0.748664       0.004593
      4 C                     0.165903      -0.013683
      5 O                    -0.401725       0.001643
      6 O                    -0.545452      -0.004062
      7 H                     0.369758      -0.007981
      8 O                    -0.054339       0.536709
      9 O                    -0.020073       0.484903
     10 H                     0.348075       0.000407
  --------------------------------------------------------
  Sum of atomic charges =    -1.000000
  Sum of spin   charges =     1.000000

 -----------------------------------------------------------------
                    Cartesian Multipole Moments
 -----------------------------------------------------------------
    Charge (ESU x 10^10)
                -4.8032
    Dipole Moment (Debye)
         X     -10.9696      Y      -4.3310      Z       0.2406
       Tot      11.7961
    Quadrupole Moments (Debye-Ang)
        XX     -74.1874     XY      -9.4358     YY     -58.3682
        XZ       8.5290     YZ      -3.9864     ZZ     -49.7978
    Octopole Moments (Debye-Ang^2)
       XXX    -216.5842    XXY     -11.3705    XYY     -72.3211
       YYY      19.1730    XXZ       7.8165    XYZ       1.3941
       YYZ     -14.3493    XZZ     -71.1234    YZZ       4.2524
       ZZZ     -30.9751
    Hexadecapole Moments (Debye-Ang^3)
      XXXX    -754.8452   XXXY     -73.7337   XXYY    -209.9341
      XYYY     -42.0192   YYYY    -449.4391   XXXZ      43.7465
      XXYZ      26.7078   XYYZ     -15.5152   YYYZ      45.0028
      XXZZ    -190.3030   XYZZ     -12.1788   YYZZ    -140.8662
      XZZZ       4.2881   YZZZ      51.6493   ZZZZ    -320.2680
 -----------------------------------------------------------------
 Calculating analytic gradient of the SCF energy
 Gradient of CDS energy
            1           2           3           4           5           6
    1   0.0036134  -0.0000233  -0.0029292  -0.0028013   0.0010243   0.0013571
    2   0.0012873  -0.0009704   0.0003849  -0.0016149   0.0013926  -0.0001280
    3  -0.0026574  -0.0009257   0.0036207  -0.0020828   0.0036913  -0.0014312
            7           8           9          10
    1  -0.0001686  -0.0000881   0.0002576  -0.0002419
    2  -0.0000709  -0.0001198  -0.0001168  -0.0000441
    3   0.0002841   0.0000307  -0.0001031  -0.0004265
 Gradient of SCF Energy
            1           2           3           4           5           6
    1  -0.0329356   0.0009179   0.0165424   0.0056168  -0.0221616   0.0066783
    2   0.0509901  -0.0511631  -0.0096710  -0.0160718   0.0440063   0.0106225
    3   0.0649759  -0.0494569  -0.0226801   0.0192747  -0.0253492  -0.0134125
            7           8           9          10
    1   0.0030866  -0.0052886   0.0023158   0.0252281
    2  -0.0075392   0.0005411   0.0070021  -0.0287170
    3   0.0020325   0.0142352  -0.0169266   0.0273072
 Max gradient component =       6.498E-02
 RMS gradient           =       2.631E-02
 Computing fast CPCM-SWIG gradient
 Updating gradient with PCM contributions...
 -- total gradient after adding PCM contribution --
---------------------------------------------------
  Atom         X              Y              Z     
---------------------------------------------------
   1      -0.055670       0.029001       0.080092
   2       0.008398      -0.024354      -0.033261
   3       0.027091      -0.009241      -0.039940
   4       0.022563      -0.035149       0.004450
   5      -0.026130       0.050077      -0.015375
   6       0.000402       0.010476      -0.008556
   7       0.001660      -0.001668       0.002499
   8       0.004997       0.002765       0.007829
   9      -0.001454       0.003158      -0.005536
  10       0.018143      -0.025064       0.007797
---------------------------------------------------
 Number of fixed atoms: 0
 Gradient time:  CPU 109.86 s  wall 10.25 s
 ######################################################
 ######################################################
 # Starting finite difference calculation for IDERIV  #
 Finite diff step size:  1.88973e-03 a.u.
 ----------------------------------------------------------------
             Standard Nuclear Orientation (Angstroms)
    I     Atom           X                Y                Z
 ----------------------------------------------------------------
    1      C       1.5854599000     0.7594531000    -0.0366919000
    2      O       1.6319663000     1.6456081000     0.7783033000
    3      O       2.4088445000     0.6104429000    -1.0653695000
    4      C       0.5464731000    -0.3561399000     0.0029388000
    5      O       0.2543258000    -0.8575610000    -1.2204214000
    6      O      -0.3789196000    -0.2825919000     0.8689141000
    7      H       0.0988543000    -1.1618877000     1.6971768000
    8      O       1.6270215000    -1.6027184000     0.7737238000
    9      O       0.9821077000    -1.8702309000     1.8414499000
   10      H      -0.2984738000    -0.3763224000    -1.8041945000
 ----------------------------------------------------------------
 Nuclear Repulsion Energy =         398.43882872 hartrees
 There are       32 alpha and       31 beta electrons
 Discretize the solute cavity surface with Lebedev spheres
	Using 110 Lebedev grid points for each H atom
	Using 194 Lebedev grid points for other atoms
	Atomic van der Waals radii will be scaled by 1.20
 Remove points where switching function is < 1.0e-08
 Keep 961 surface tesserae and discard 811 interior tesserae
 Molecular Surface Area = 114.223 Angst**2

                       Distance Matrix (Angstroms)
             C (  1)   O (  2)   O (  3)   C (  4)   O (  5)   O (  6)
   O (  2)  1.204845
   O (  3)  1.326026  2.252607
   C (  4)  1.524996  2.405510  2.354568
   O (  5)  2.405799  3.486925  2.611710  1.354025
   O (  6)  2.400993  2.787441  3.508645  1.269517  2.257634
   H (  7)  2.984602  3.328182  4.013586  1.928739  2.937544  1.299018
   O (  8)  2.497670  3.248333  2.981878  1.820893  2.533016  2.403247
   O (  9)  3.287353  3.730110  4.079083  2.421234  3.306089  2.306256
   H ( 10)  2.821924  3.805798  2.974750  1.995012  0.937000  2.675961
             H (  7)   O (  8)   O (  9)
   O (  8)  1.839128
   O (  9)  1.141359  1.275741
   H ( 10)  3.610344  3.443435  4.142750
 
 Requested basis set is 6-311++G(2df,2p)
 There are 76 shells and 292 basis functions
 A cutoff of  1.0D-11 yielded   2645 shell pairs
 There are     39761 function pairs (     51263 Cartesian)
 Smallest overlap matrix eigenvalue = 5.80E-05
 Guess MOs from SCF MO coefficient file

 -----------------------------------------------------------------------
  General SCF calculation program by
  Eric Jon Sundstrom, Paul Horn, Yuezhi Mao, Dmitri Zuev, Alec White,
  David Stuck, Shaama M.S., Shane Yost, Joonho Lee, David Small,
  Daniel Levine, Susi Lehtola, Hugh Burton, Evgeny Epifanovsky,
  Bang C. Huynh
 -----------------------------------------------------------------------
 Exchange:     0.1500 Hartree-Fock + 1.0000 wB97M-V + LR-HF
 Correlation:  1.0000 wB97M-V
 Using SG-2 standard quadrature grid
 Nonlocal Correlation:  VV10 with C = 0.0100 and b = 6.00 and scale = 1.00000
 Grid used for NLC:  SG-1 standard quadrature
 
 Citation of the SMD model:
 Marenich, A.V.; Cramer, C.J.; Truhlar, D.G.
 J. Phys. Chem. B 2009, 113, 6378-6396.
 iSolventCode=           1
 Solvent: water                                                           
 
 vradii
            1           2           3           4           5           6
    1   1.8500000   1.5200000   1.5200000   1.8500000   1.5200000   1.5200000
            7           8           9          10
    1   1.2000000   1.5200000   1.5200000   1.2000000
 -------------------------------------------------------
 OpenMP BLAS3 based DFT computing Module                
 Release: version 1.0, May 2013, Q-Chem Inc. Pittsburgh 
 -------------------------------------------------------
 A unrestricted SCF calculation will be
 performed using Roothaan-Hall, DIIS, GDM
 SCF converges when RMS gradient is below 1.0e-06
 ---------------------------------------
  Cycle       Energy         DIIS error
 ---------------------------------------
    1    -528.6983053646      3.35e-04  Roothaan Step
 ---------------------------------------
  Cycle       Energy         DIIS error
 ---------------------------------------
    1    -528.8229156884      4.11e-04  
    2    -528.8273418288      4.69e-04  Done DIIS. Switching to GDM
 ---------------------------------------
  Cycle       Energy        RMS Gradient
 ---------------------------------------
    1    -528.8273418288      3.69e-02   Normal BFGS step
    2    -528.8234080968      5.94e-02  Line search: overstep
    3    -528.8331382142      4.71e-03   Normal BFGS step
    4    -528.8333473822      2.13e-03   Normal BFGS step
    5    -528.8334302307      1.83e-03   Normal BFGS step
    6    -528.8334402449      3.66e-04   Normal BFGS step
    7    -528.8334427822      4.43e-04   Normal BFGS step
    8    -528.8334437186      1.92e-04   Normal BFGS step
    9    -528.8334440161      1.17e-04   Normal BFGS step
   10    -528.8334441141      7.53e-05   Normal BFGS step
   11    -528.8334441377      4.97e-05   Normal BFGS step
   12    -528.8334441467      2.50e-05   Normal BFGS step
   13    -528.8334441497      8.81e-06   Normal BFGS step
   14    -528.8334441510      4.72e-06   Normal BFGS step
   15    -528.8334441514      2.41e-06   Normal BFGS step
   16    -528.8334441515      7.06e-07  Convergence criterion met
 ---------------------------------------
 SCF time:   CPU 793.48s  wall 53.00s 
<S^2> =          0.754962448
(3)  G-ENP(liq) elect-nuc-pol free energy of system     -528.833444152 a.u.
(4)  G-CDS(liq) cavity-dispersion-solvent structure 
     free energy                                                4.3391 kcal/mol
(6)  G-S(liq) free energy of system                     -528.826529298 a.u.
 SCF   energy in the final basis set =     -528.8265292984
 Total energy in the final basis set =     -528.8265292984
 
 --------------------------------------------------------------
 
                    Orbital Energies (a.u.)
 --------------------------------------------------------------
 
 Alpha MOs
 -- Occupied --
-19.4722 -19.4682 -19.3550 -19.3345 -19.3053 -19.2790 -10.5090 -10.4490
 -1.3896  -1.2341  -1.1822  -1.1536  -1.0678  -1.0006  -0.8046  -0.7341
 -0.7137  -0.6434  -0.6402  -0.6130  -0.5899  -0.5543  -0.5364  -0.5148
 -0.4685  -0.4588  -0.4470  -0.4254  -0.4207  -0.3724  -0.3636  -0.3506
 -- Virtual --
  0.0393   0.0482   0.0622   0.0716   0.0826   0.1038   0.1094   0.1128
  0.1239   0.1552   0.1664   0.1749   0.1856   0.1989   0.2260   0.2364
  0.2490   0.2565   0.2618   0.2642   0.2828   0.3017   0.3103   0.3210
  0.3255   0.3286   0.3410   0.3422   0.3476   0.3501   0.3544   0.3669
  0.3775   0.3804   0.3909   0.4142   0.4170   0.4322   0.4433   0.4718
  0.4871   0.5257   0.5436   0.5868   0.6300   0.6339   0.6852   0.7082
  0.7210   0.7368   0.7630   0.7989   0.8153   0.8477   0.8517   0.8788
  0.9206   0.9439   0.9962   1.0179   1.0305   1.0570   1.0800   1.0953
  1.1081   1.1190   1.1271   1.1452   1.1578   1.1594   1.1773   1.1909
  1.2068   1.2291   1.2455   1.2578   1.2708   1.2961   1.3062   1.3244
  1.3474   1.3762   1.3886   1.4651   1.4806   1.5093   1.5620   1.5677
  1.5800   1.6411   1.6445   1.6634   1.6714   1.6935   1.7250   1.7333
  1.7486   1.8068   1.8086   1.8541   1.9228   1.9562   1.9665   1.9997
  2.0514   2.0767   2.1078   2.1504   2.2008   2.2228   2.2499   2.3134
  2.3565   2.4032   2.4287   2.4579   2.4747   2.5221   2.5749   2.6222
  2.6344   2.6623   2.6764   2.7722   2.8706   2.8942   2.9472   2.9710
  2.9968   3.1198   3.1731   3.2068   3.2813   3.2835   3.3750   3.4033
  3.4260   3.4680   3.4804   3.5164   3.5482   3.5631   3.5952   3.6235
  3.6655   3.7350   3.7729   3.8022   3.8117   3.8536   3.8813   3.9361
  3.9784   4.0219   4.0908   4.1759   4.1828   4.2573   4.2702   4.2811
  4.4302   4.5361   4.6803   4.6939   4.7872   4.8004   4.9101   5.0258
  5.0706   5.1186   5.1388   5.1569   5.1692   5.1705   5.1798   5.2000
  5.2020   5.2129   5.2233   5.2351   5.2510   5.2524   5.2696   5.2861
  5.2984   5.3183   5.3243   5.3408   5.3579   5.3777   5.4168   5.4273
  5.4548   5.4836   5.5344   5.5495   5.5682   5.6018   5.6082   5.6318
  5.6517   5.7081   5.7584   5.7704   5.8653   5.9006   6.0275   6.1770
  6.2232   6.2546   6.4264   6.4926   6.5404   6.5930   6.6741   6.7349
  6.8141   6.8163   6.9303   6.9362   6.9933   7.0100   7.0352   7.0570
  7.0643   7.0778   7.0800   7.1061   7.1394   7.2270   7.2575   7.3081
  7.3223   7.3499   7.3577   7.3912   7.4107   7.4234   7.4675   7.5136
  7.5485   7.5764   7.6274   7.7376   7.7742   7.8221   7.8267   7.8504
  7.9496   8.0076   8.0460   8.1517  24.9499  25.1940  50.4645  50.5071
 50.6246  50.6598  50.7057  50.7858
 
 Beta MOs
 -- Occupied --
-19.4561 -19.4536 -19.3549 -19.3346 -19.3053 -19.2789 -10.5093 -10.4489
 -1.3616  -1.2333  -1.1822  -1.1533  -1.0675  -0.9615  -0.8014  -0.7249
 -0.7093  -0.6248  -0.6071  -0.5909  -0.5598  -0.5492  -0.5349  -0.5123
 -0.4634  -0.4572  -0.4358  -0.4204  -0.3722  -0.3631  -0.3506
 -- Virtual --
 -0.0503   0.0396   0.0498   0.0653   0.0720   0.0832   0.1042   0.1102
  0.1133   0.1247   0.1571   0.1672   0.1766   0.1873   0.2054   0.2271
  0.2404   0.2512   0.2574   0.2628   0.2655   0.2889   0.3033   0.3113
  0.3228   0.3268   0.3299   0.3418   0.3426   0.3499   0.3513   0.3557
  0.3680   0.3806   0.3836   0.3913   0.4146   0.4179   0.4331   0.4442
  0.4721   0.4877   0.5264   0.5440   0.5884   0.6302   0.6355   0.6854
  0.7081   0.7211   0.7381   0.7644   0.7993   0.8153   0.8513   0.8536
  0.8800   0.9211   0.9452   0.9983   1.0209   1.0321   1.0583   1.0852
  1.1083   1.1188   1.1218   1.1297   1.1482   1.1583   1.1623   1.1812
  1.1959   1.2153   1.2444   1.2482   1.2601   1.2725   1.2978   1.3104
  1.3284   1.3529   1.3811   1.3916   1.4688   1.4938   1.5132   1.5639
  1.5726   1.5916   1.6430   1.6502   1.6702   1.6798   1.6963   1.7272
  1.7397   1.7516   1.8078   1.8154   1.8639   1.9238   1.9596   1.9724
  2.0084   2.0538   2.0827   2.1102   2.1597   2.2060   2.2240   2.2597
  2.3302   2.3626   2.4056   2.4309   2.4619   2.4757   2.5253   2.5753
  2.6247   2.6361   2.6650   2.6858   2.7726   2.8717   2.8939   2.9466
  2.9711   2.9966   3.1198   3.1723   3.2069   3.2813   3.2828   3.3756
  3.4043   3.4261   3.4677   3.4804   3.5164   3.5480   3.5639   3.5941
  3.6234   3.6652   3.7347   3.7727   3.8020   3.8120   3.8543   3.8813
  3.9374   3.9785   4.0217   4.0902   4.1757   4.1825   4.2578   4.2701
  4.2809   4.4317   4.5760   4.7005   4.7192   4.8010   4.8055   4.9217
  5.0768   5.1117   5.1504   5.1655   5.1696   5.1717   5.1804   5.1910
  5.2121   5.2159   5.2197   5.2383   5.2480   5.2613   5.2716   5.2779
  5.2972   5.3132   5.3238   5.3309   5.3516   5.3729   5.3790   5.4224
  5.4346   5.4587   5.4922   5.5356   5.5524   5.5734   5.6041   5.6133
  5.6513   5.6613   5.7085   5.7629   5.7858   5.8664   5.9014   6.0277
  6.1772   6.2233   6.2572   6.4360   6.4935   6.5906   6.5939   6.6779
  6.7447   6.8166   6.8662   6.9341   6.9843   7.0039   7.0143   7.0376
  7.0697   7.0822   7.1211   7.1253   7.1366   7.1558   7.2369   7.2607
  7.3217   7.3355   7.3588   7.3773   7.3950   7.4243   7.4350   7.4857
  7.5253   7.5577   7.5787   7.6298   7.7384   7.7772   7.8246   7.8286
  7.8541   7.9513   8.0099   8.0590   8.1705  24.9497  25.1940  50.4761
 50.5189  50.6251  50.6599  50.7057  50.7858
 --------------------------------------------------------------
 
          Ground-State Mulliken Net Atomic Charges

     Atom                 Charge (a.u.)    Spin (a.u.)
  --------------------------------------------------------
      1 C                     0.464885      -0.002635
      2 O                    -0.578800       0.000108
      3 O                    -0.748083       0.004596
      4 C                     0.165997      -0.013651
      5 O                    -0.401701       0.001645
      6 O                    -0.545501      -0.004052
      7 H                     0.369747      -0.007981
      8 O                    -0.054357       0.536732
      9 O                    -0.020245       0.484830
     10 H                     0.348058       0.000409
  --------------------------------------------------------
  Sum of atomic charges =    -1.000000
  Sum of spin   charges =     1.000000

 -----------------------------------------------------------------
                    Cartesian Multipole Moments
 -----------------------------------------------------------------
    Charge (ESU x 10^10)
                -4.8032
    Dipole Moment (Debye)
         X     -10.9644      Y      -4.3293      Z       0.2354
       Tot      11.7905
    Quadrupole Moments (Debye-Ang)
        XX     -74.1706     XY      -9.4313     YY     -58.3732
        XZ       8.5186     YZ      -3.9871     ZZ     -49.7971
    Octopole Moments (Debye-Ang^2)
       XXX    -216.5464    XXY     -11.3580    XYY     -72.3299
       YYY      19.1771    XXZ       7.7929    XYZ       1.3899
       YYZ     -14.3618    XZZ     -71.1220    YZZ       4.2604
       ZZZ     -30.9959
    Hexadecapole Moments (Debye-Ang^3)
      XXXX    -754.7862   XXXY     -73.7120   XXYY    -209.9527
      XYYY     -42.0273   YYYY    -449.4774   XXXZ      43.6885
      XXYZ      26.6954   XYYZ     -15.5389   YYYZ      45.0032
      XXZZ    -190.3024   XYZZ     -12.1740   YYZZ    -140.8757
      XZZZ       4.2488   YZZZ      51.6518   ZZZZ    -320.2625
 -----------------------------------------------------------------
 Calculating analytic gradient of the SCF energy
 Gradient of CDS energy
            1           2           3           4           5           6
    1   0.0035914  -0.0000228  -0.0029065  -0.0028020   0.0010240   0.0013572
    2   0.0012908  -0.0009701   0.0003815  -0.0016151   0.0013925  -0.0001280
    3  -0.0026345  -0.0009249   0.0035965  -0.0020828   0.0036915  -0.0014312
            7           8           9          10
    1  -0.0001686  -0.0000884   0.0002576  -0.0002419
    2  -0.0000709  -0.0001199  -0.0001168  -0.0000440
    3   0.0002841   0.0000308  -0.0001031  -0.0004266
 Gradient of SCF Energy
            1           2           3           4           5           6
    1  -0.0323706   0.0008623   0.0162638   0.0053995  -0.0221740   0.0066705
    2   0.0512197  -0.0512425  -0.0096674  -0.0161984   0.0439740   0.0105975
    3   0.0648091  -0.0494825  -0.0224731   0.0192543  -0.0253556  -0.0133839
            7           8           9          10
    1   0.0030795  -0.0052888   0.0023234   0.0252345
    2  -0.0075282   0.0005512   0.0070058  -0.0287117
    3   0.0020304   0.0142463  -0.0169507   0.0273056
 Max gradient component =       6.481E-02
 RMS gradient           =       2.628E-02
 Computing fast CPCM-SWIG gradient
 Updating gradient with PCM contributions...
 -- total gradient after adding PCM contribution --
---------------------------------------------------
  Atom         X              Y              Z     
---------------------------------------------------
   1      -0.054943       0.029249       0.080003
   2       0.008253      -0.024461      -0.033322
   3       0.026784      -0.009251      -0.039790
   4       0.022317      -0.035269       0.004431
   5      -0.026130       0.050051      -0.015370
   6       0.000376       0.010441      -0.008519
   7       0.001649      -0.001658       0.002499
   8       0.004991       0.002800       0.007837
   9      -0.001442       0.003159      -0.005567
  10       0.018144      -0.025061       0.007797
---------------------------------------------------
 Number of fixed atoms: 0
 Gradient time:  CPU 108.88 s  wall 9.64 s
 ----------------------------------------------------------------
             Standard Nuclear Orientation (Angstroms)
    I     Atom           X                Y                Z
 ----------------------------------------------------------------
    1      C       1.5834599000     0.7594531000    -0.0366919000
    2      O       1.6319663000     1.6456081000     0.7783033000
    3      O       2.4088445000     0.6104429000    -1.0653695000
    4      C       0.5464731000    -0.3561399000     0.0029388000
    5      O       0.2543258000    -0.8575610000    -1.2204214000
    6      O      -0.3789196000    -0.2825919000     0.8689141000
    7      H       0.0988543000    -1.1618877000     1.6971768000
    8      O       1.6270215000    -1.6027184000     0.7737238000
    9      O       0.9821077000    -1.8702309000     1.8414499000
   10      H      -0.2984738000    -0.3763224000    -1.8041945000
 ----------------------------------------------------------------
 Nuclear Repulsion Energy =         398.44435854 hartrees
 There are       32 alpha and       31 beta electrons
 Discretize the solute cavity surface with Lebedev spheres
	Using 110 Lebedev grid points for each H atom
	Using 194 Lebedev grid points for other atoms
	Atomic van der Waals radii will be scaled by 1.20
 Remove points where switching function is < 1.0e-08
 Keep 961 surface tesserae and discard 811 interior tesserae
 Molecular Surface Area = 114.224 Angst**2

                       Distance Matrix (Angstroms)
             C (  1)   O (  2)   O (  3)   C (  4)   O (  5)   O (  6)
   O (  2)  1.204924
   O (  3)  1.327268  2.252607
   C (  4)  1.523634  2.405510  2.354568
   O (  5)  2.404693  3.486925  2.611710  1.354025
   O (  6)  2.399357  2.787441  3.508645  1.269517  2.257634
   H (  7)  2.983606  3.328182  4.013586  1.928739  2.937544  1.299018
   O (  8)  2.497704  3.248333  2.981878  1.820893  2.533016  2.403247
   O (  9)  3.286986  3.730110  4.079083  2.421234  3.306089  2.306256
   H ( 10)  2.820590  3.805798  2.974750  1.995012  0.937000  2.675961
             H (  7)   O (  8)   O (  9)
   O (  8)  1.839128
   O (  9)  1.141359  1.275741
   H ( 10)  3.610344  3.443435  4.142750
 
 Requested basis set is 6-311++G(2df,2p)
 There are 76 shells and 292 basis functions
 A cutoff of  1.0D-11 yielded   2645 shell pairs
 There are     39761 function pairs (     51263 Cartesian)
 Smallest overlap matrix eigenvalue = 5.78E-05
 Guess MOs from SCF MO coefficient file

 -----------------------------------------------------------------------
  General SCF calculation program by
  Eric Jon Sundstrom, Paul Horn, Yuezhi Mao, Dmitri Zuev, Alec White,
  David Stuck, Shaama M.S., Shane Yost, Joonho Lee, David Small,
  Daniel Levine, Susi Lehtola, Hugh Burton, Evgeny Epifanovsky,
  Bang C. Huynh
 -----------------------------------------------------------------------
 Exchange:     0.1500 Hartree-Fock + 1.0000 wB97M-V + LR-HF
 Correlation:  1.0000 wB97M-V
 Using SG-2 standard quadrature grid
 Nonlocal Correlation:  VV10 with C = 0.0100 and b = 6.00 and scale = 1.00000
 Grid used for NLC:  SG-1 standard quadrature
 
 Citation of the SMD model:
 Marenich, A.V.; Cramer, C.J.; Truhlar, D.G.
 J. Phys. Chem. B 2009, 113, 6378-6396.
 iSolventCode=           1
 Solvent: water                                                           
 
 vradii
            1           2           3           4           5           6
    1   1.8500000   1.5200000   1.5200000   1.8500000   1.5200000   1.5200000
            7           8           9          10
    1   1.2000000   1.5200000   1.5200000   1.2000000
 -------------------------------------------------------
 OpenMP BLAS3 based DFT computing Module                
 Release: version 1.0, May 2013, Q-Chem Inc. Pittsburgh 
 -------------------------------------------------------
 A unrestricted SCF calculation will be
 performed using Roothaan-Hall, DIIS, GDM
 SCF converges when RMS gradient is below 1.0e-06
 ---------------------------------------
  Cycle       Energy         DIIS error
 ---------------------------------------
    1    -528.6980545664      3.34e-04  Roothaan Step
 ---------------------------------------
  Cycle       Energy         DIIS error
 ---------------------------------------
    1    -528.8226185058      4.13e-04  
    2    -528.8270272854      4.73e-04  Done DIIS. Switching to GDM
 ---------------------------------------
  Cycle       Energy        RMS Gradient
 ---------------------------------------
    1    -528.8270272854      3.68e-02   Normal BFGS step
    2    -528.8230267836      5.94e-02  Line search: overstep
    3    -528.8329116612      4.72e-03   Normal BFGS step
    4    -528.8331223844      2.12e-03   Normal BFGS step
    5    -528.8332058866      1.85e-03   Normal BFGS step
    6    -528.8332160798      3.69e-04   Normal BFGS step
    7    -528.8332186744      4.49e-04   Normal BFGS step
    8    -528.8332196416      1.91e-04   Normal BFGS step
    9    -528.8332199502      1.22e-04   Normal BFGS step
   10    -528.8332200524      7.83e-05   Normal BFGS step
   11    -528.8332200776      5.12e-05   Normal BFGS step
   12    -528.8332200874      2.50e-05   Normal BFGS step
   13    -528.8332200905      8.73e-06   Normal BFGS step
   14    -528.8332200920      4.67e-06   Normal BFGS step
   15    -528.8332200923      2.36e-06   Normal BFGS step
   16    -528.8332200925      6.95e-07  Convergence criterion met
 ---------------------------------------
 SCF time:   CPU 794.87s  wall 53.00s 
<S^2> =          0.754964690
(3)  G-ENP(liq) elect-nuc-pol free energy of system     -528.833220092 a.u.
(4)  G-CDS(liq) cavity-dispersion-solvent structure 
     free energy                                                4.3306 kcal/mol
(6)  G-S(liq) free energy of system                     -528.826318896 a.u.
 SCF   energy in the final basis set =     -528.8263188961
 Total energy in the final basis set =     -528.8263188961
 
 --------------------------------------------------------------
 
                    Orbital Energies (a.u.)
 --------------------------------------------------------------
 
 Alpha MOs
 -- Occupied --
-19.4723 -19.4683 -19.3550 -19.3345 -19.3054 -19.2789 -10.5092 -10.4490
 -1.3897  -1.2342  -1.1822  -1.1536  -1.0673  -1.0007  -0.8049  -0.7343
 -0.7139  -0.6435  -0.6402  -0.6131  -0.5899  -0.5544  -0.5363  -0.5146
 -0.4685  -0.4587  -0.4470  -0.4254  -0.4207  -0.3723  -0.3637  -0.3505
 -- Virtual --
  0.0393   0.0481   0.0619   0.0716   0.0826   0.1038   0.1094   0.1128
  0.1239   0.1552   0.1664   0.1749   0.1856   0.1989   0.2260   0.2364
  0.2490   0.2566   0.2618   0.2642   0.2828   0.3018   0.3103   0.3210
  0.3255   0.3287   0.3411   0.3422   0.3476   0.3501   0.3544   0.3669
  0.3775   0.3803   0.3909   0.4141   0.4170   0.4323   0.4433   0.4717
  0.4871   0.5257   0.5433   0.5867   0.6299   0.6338   0.6851   0.7081
  0.7210   0.7367   0.7630   0.7987   0.8155   0.8477   0.8517   0.8789
  0.9208   0.9439   0.9963   1.0180   1.0303   1.0571   1.0799   1.0952
  1.1081   1.1190   1.1270   1.1452   1.1581   1.1595   1.1773   1.1908
  1.2068   1.2292   1.2455   1.2578   1.2708   1.2961   1.3061   1.3245
  1.3473   1.3761   1.3886   1.4650   1.4806   1.5093   1.5622   1.5676
  1.5800   1.6411   1.6445   1.6638   1.6713   1.6932   1.7247   1.7331
  1.7486   1.8068   1.8091   1.8540   1.9228   1.9562   1.9661   1.9998
  2.0515   2.0767   2.1080   2.1503   2.2008   2.2222   2.2498   2.3132
  2.3564   2.4029   2.4286   2.4575   2.4743   2.5219   2.5750   2.6221
  2.6347   2.6622   2.6762   2.7717   2.8705   2.8940   2.9473   2.9715
  2.9974   3.1197   3.1737   3.2068   3.2815   3.2841   3.3746   3.4029
  3.4256   3.4682   3.4805   3.5168   3.5478   3.5629   3.5954   3.6231
  3.6655   3.7351   3.7731   3.8024   3.8118   3.8539   3.8815   3.9364
  3.9786   4.0216   4.0915   4.1769   4.1836   4.2576   4.2697   4.2819
  4.4303   4.5360   4.6802   4.6938   4.7871   4.8017   4.9101   5.0257
  5.0706   5.1185   5.1386   5.1569   5.1694   5.1705   5.1798   5.2001
  5.2020   5.2129   5.2233   5.2352   5.2510   5.2523   5.2697   5.2861
  5.2984   5.3177   5.3245   5.3408   5.3573   5.3777   5.4166   5.4272
  5.4548   5.4834   5.5341   5.5495   5.5677   5.6017   5.6084   5.6317
  5.6515   5.7077   5.7581   5.7702   5.8656   5.9007   6.0264   6.1741
  6.2231   6.2548   6.4263   6.4909   6.5403   6.5927   6.6745   6.7350
  6.8125   6.8154   6.9302   6.9362   6.9935   7.0100   7.0351   7.0569
  7.0642   7.0778   7.0799   7.1059   7.1394   7.2269   7.2575   7.3080
  7.3225   7.3494   7.3578   7.3900   7.4098   7.4233   7.4675   7.5130
  7.5482   7.5742   7.6275   7.7376   7.7745   7.8222   7.8266   7.8504
  7.9497   8.0077   8.0459   8.1516  24.9500  25.1936  50.4644  50.5071
 50.6246  50.6589  50.7057  50.7857
 
 Beta MOs
 -- Occupied --
-19.4562 -19.4537 -19.3549 -19.3346 -19.3054 -19.2787 -10.5094 -10.4490
 -1.3617  -1.2333  -1.1821  -1.1533  -1.0670  -0.9616  -0.8017  -0.7251
 -0.7095  -0.6249  -0.6072  -0.5909  -0.5598  -0.5493  -0.5349  -0.5122
 -0.4635  -0.4572  -0.4358  -0.4204  -0.3721  -0.3632  -0.3505
 -- Virtual --
 -0.0504   0.0396   0.0498   0.0650   0.0720   0.0832   0.1042   0.1102
  0.1133   0.1247   0.1572   0.1672   0.1766   0.1874   0.2054   0.2270
  0.2404   0.2512   0.2574   0.2628   0.2655   0.2889   0.3034   0.3112
  0.3228   0.3268   0.3299   0.3418   0.3426   0.3499   0.3513   0.3557
  0.3679   0.3806   0.3836   0.3914   0.4144   0.4179   0.4332   0.4442
  0.4721   0.4877   0.5263   0.5436   0.5883   0.6301   0.6354   0.6852
  0.7080   0.7211   0.7380   0.7644   0.7991   0.8155   0.8513   0.8535
  0.8801   0.9214   0.9452   0.9984   1.0209   1.0319   1.0584   1.0851
  1.1083   1.1188   1.1218   1.1296   1.1482   1.1586   1.1624   1.1812
  1.1958   1.2154   1.2444   1.2482   1.2601   1.2725   1.2978   1.3103
  1.3284   1.3528   1.3811   1.3917   1.4687   1.4938   1.5132   1.5641
  1.5725   1.5916   1.6430   1.6502   1.6705   1.6796   1.6960   1.7269
  1.7396   1.7517   1.8083   1.8153   1.8638   1.9238   1.9597   1.9719
  2.0085   2.0539   2.0827   2.1104   2.1597   2.2060   2.2234   2.2596
  2.3301   2.3625   2.4053   2.4309   2.4615   2.4753   2.5251   2.5754
  2.6246   2.6364   2.6649   2.6856   2.7720   2.8716   2.8936   2.9467
  2.9717   2.9972   3.1196   3.1729   3.2069   3.2815   3.2834   3.3752
  3.4039   3.4257   3.4679   3.4805   3.5168   3.5476   3.5637   3.5942
  3.6230   3.6652   3.7347   3.7729   3.8022   3.8122   3.8546   3.8815
  3.9377   3.9787   4.0214   4.0910   4.1769   4.1833   4.2581   4.2696
  4.2817   4.4318   4.5759   4.7004   4.7192   4.8023   4.8055   4.9217
  5.0768   5.1117   5.1503   5.1656   5.1697   5.1717   5.1804   5.1911
  5.2121   5.2159   5.2197   5.2383   5.2480   5.2612   5.2715   5.2779
  5.2971   5.3132   5.3232   5.3311   5.3514   5.3727   5.3789   5.4222
  5.4345   5.4586   5.4921   5.5354   5.5524   5.5730   5.6040   5.6135
  5.6512   5.6611   5.7082   5.7625   5.7857   5.8667   5.9015   6.0266
  6.1743   6.2232   6.2573   6.4359   6.4918   6.5905   6.5936   6.6783
  6.7447   6.8142   6.8661   6.9342   6.9843   7.0040   7.0145   7.0374
  7.0697   7.0821   7.1210   7.1252   7.1365   7.1558   7.2368   7.2608
  7.3216   7.3357   7.3588   7.3768   7.3933   7.4238   7.4350   7.4856
  7.5244   7.5578   7.5765   7.6299   7.7384   7.7775   7.8247   7.8285
  7.8540   7.9514   8.0099   8.0590   8.1704  24.9498  25.1935  50.4760
 50.5188  50.6251  50.6591  50.7057  50.7857
 --------------------------------------------------------------
 
          Ground-State Mulliken Net Atomic Charges

     Atom                 Charge (a.u.)    Spin (a.u.)
  --------------------------------------------------------
      1 C                     0.465559      -0.002619
      2 O                    -0.578610       0.000091
      3 O                    -0.749243       0.004590
      4 C                     0.165810      -0.013715
      5 O                    -0.401751       0.001642
      6 O                    -0.545404      -0.004072
      7 H                     0.369770      -0.007981
      8 O                    -0.054322       0.536683
      9 O                    -0.019900       0.484976
     10 H                     0.348092       0.000405
  --------------------------------------------------------
  Sum of atomic charges =    -1.000000
  Sum of spin   charges =     1.000000

 -----------------------------------------------------------------
                    Cartesian Multipole Moments
 -----------------------------------------------------------------
    Charge (ESU x 10^10)
                -4.8032
    Dipole Moment (Debye)
         X     -10.9748      Y      -4.3327      Z       0.2458
       Tot      11.8017
    Quadrupole Moments (Debye-Ang)
        XX     -74.2043     XY      -9.4404     YY     -58.3633
        XZ       8.5393     YZ      -3.9856     ZZ     -49.7985
    Octopole Moments (Debye-Ang^2)
       XXX    -216.6219    XXY     -11.3830    XYY     -72.3123
       YYY      19.1688    XXZ       7.8402    XYZ       1.3984
       YYZ     -14.3368    XZZ     -71.1248    YZZ       4.2445
       ZZZ     -30.9542
    Hexadecapole Moments (Debye-Ang^3)
      XXXX    -754.9042   XXXY     -73.7553   XXYY    -209.9156
      XYYY     -42.0111   YYYY    -449.4008   XXXZ      43.8046
      XXYZ      26.7203   XYYZ     -15.4915   YYYZ      45.0024
      XXZZ    -190.3035   XYZZ     -12.1837   YYZZ    -140.8568
      XZZZ       4.3275   YZZZ      51.6468   ZZZZ    -320.2736
 -----------------------------------------------------------------
 Calculating analytic gradient of the SCF energy
 Gradient of CDS energy
            1           2           3           4           5           6
    1   0.0036355  -0.0000238  -0.0029520  -0.0028007   0.0010247   0.0013571
    2   0.0012837  -0.0009707   0.0003883  -0.0016147   0.0013928  -0.0001280
    3  -0.0026806  -0.0009265   0.0036451  -0.0020828   0.0036911  -0.0014312
            7           8           9          10
    1  -0.0001686  -0.0000878   0.0002576  -0.0002420
    2  -0.0000709  -0.0001196  -0.0001167  -0.0000442
    3   0.0002841   0.0000305  -0.0001031  -0.0004265
 Gradient of SCF Energy
            1           2           3           4           5           6
    1  -0.0335008   0.0009737   0.0168201   0.0058344  -0.0221493   0.0066862
    2   0.0507586  -0.0510830  -0.0096745  -0.0159441   0.0440387   0.0106476
    3   0.0651407  -0.0494307  -0.0228858   0.0192949  -0.0253430  -0.0134412
            7           8           9          10
    1   0.0030938  -0.0052883   0.0023081   0.0252219
    2  -0.0075502   0.0005309   0.0069983  -0.0287223
    3   0.0020345   0.0142244  -0.0169027   0.0273089
 Max gradient component =       6.514E-02
 RMS gradient           =       2.634E-02
 Computing fast CPCM-SWIG gradient
 Updating gradient with PCM contributions...
 -- total gradient after adding PCM contribution --
---------------------------------------------------
  Atom         X              Y              Z     
---------------------------------------------------
   1      -0.056397       0.028751       0.080179
   2       0.008543      -0.024245      -0.033200
   3       0.027397      -0.009231      -0.040088
   4       0.022808      -0.035029       0.004469
   5      -0.026130       0.050102      -0.015380
   6       0.000429       0.010511      -0.008593
   7       0.001672      -0.001679       0.002499
   8       0.005003       0.002731       0.007821
   9      -0.001467       0.003156      -0.005505
  10       0.018142      -0.025067       0.007798
---------------------------------------------------
 Number of fixed atoms: 0
 Gradient time:  CPU 109.06 s  wall 9.54 s
 ----------------------------------------------------------------
             Standard Nuclear Orientation (Angstroms)
    I     Atom           X                Y                Z
 ----------------------------------------------------------------
    1      C       1.5844599000     0.7604531000    -0.0366919000
    2      O       1.6319663000     1.6456081000     0.7783033000
    3      O       2.4088445000     0.6104429000    -1.0653695000
    4      C       0.5464731000    -0.3561399000     0.0029388000
    5      O       0.2543258000    -0.8575610000    -1.2204214000
    6      O      -0.3789196000    -0.2825919000     0.8689141000
    7      H       0.0988543000    -1.1618877000     1.6971768000
    8      O       1.6270215000    -1.6027184000     0.7737238000
    9      O       0.9821077000    -1.8702309000     1.8414499000
   10      H      -0.2984738000    -0.3763224000    -1.8041945000
 ----------------------------------------------------------------
 Nuclear Repulsion Energy =         398.43586102 hartrees
 There are       32 alpha and       31 beta electrons
 Discretize the solute cavity surface with Lebedev spheres
	Using 110 Lebedev grid points for each H atom
	Using 194 Lebedev grid points for other atoms
	Atomic van der Waals radii will be scaled by 1.20
 Remove points where switching function is < 1.0e-08
 Keep 961 surface tesserae and discard 811 interior tesserae
 Molecular Surface Area = 114.227 Angst**2

                       Distance Matrix (Angstroms)
             C (  1)   O (  2)   O (  3)   C (  4)   O (  5)   O (  6)
   O (  2)  1.204148
   O (  3)  1.326759  2.252607
   C (  4)  1.525047  2.405510  2.354568
   O (  5)  2.405918  3.486925  2.611710  1.354025
   O (  6)  2.400609  2.787441  3.508645  1.269517  2.257634
   H (  7)  2.984748  3.328182  4.013586  1.928739  2.937544  1.299018
   O (  8)  2.498633  3.248333  2.981878  1.820893  2.533016  2.403247
   O (  9)  3.287969  3.730110  4.079083  2.421234  3.306089  2.306256
   H ( 10)  2.821660  3.805798  2.974750  1.995012  0.937000  2.675961
             H (  7)   O (  8)   O (  9)
   O (  8)  1.839128
   O (  9)  1.141359  1.275741
   H ( 10)  3.610344  3.443435  4.142750
 
 Requested basis set is 6-311++G(2df,2p)
 There are 76 shells and 292 basis functions
 A cutoff of  1.0D-11 yielded   2645 shell pairs
 There are     39761 function pairs (     51263 Cartesian)
 Smallest overlap matrix eigenvalue = 5.81E-05
 Guess MOs from SCF MO coefficient file

 -----------------------------------------------------------------------
  General SCF calculation program by
  Eric Jon Sundstrom, Paul Horn, Yuezhi Mao, Dmitri Zuev, Alec White,
  David Stuck, Shaama M.S., Shane Yost, Joonho Lee, David Small,
  Daniel Levine, Susi Lehtola, Hugh Burton, Evgeny Epifanovsky,
  Bang C. Huynh
 -----------------------------------------------------------------------
 Exchange:     0.1500 Hartree-Fock + 1.0000 wB97M-V + LR-HF
 Correlation:  1.0000 wB97M-V
 Using SG-2 standard quadrature grid
 Nonlocal Correlation:  VV10 with C = 0.0100 and b = 6.00 and scale = 1.00000
 Grid used for NLC:  SG-1 standard quadrature
 
 Citation of the SMD model:
 Marenich, A.V.; Cramer, C.J.; Truhlar, D.G.
 J. Phys. Chem. B 2009, 113, 6378-6396.
 iSolventCode=           1
 Solvent: water                                                           
 
 vradii
            1           2           3           4           5           6
    1   1.8500000   1.5200000   1.5200000   1.8500000   1.5200000   1.5200000
            7           8           9          10
    1   1.2000000   1.5200000   1.5200000   1.2000000
 -------------------------------------------------------
 OpenMP BLAS3 based DFT computing Module                
 Release: version 1.0, May 2013, Q-Chem Inc. Pittsburgh 
 -------------------------------------------------------
 A unrestricted SCF calculation will be
 performed using Roothaan-Hall, DIIS, GDM
 SCF converges when RMS gradient is below 1.0e-06
 ---------------------------------------
  Cycle       Energy         DIIS error
 ---------------------------------------
    1    -528.6981038528      3.35e-04  Roothaan Step
 ---------------------------------------
  Cycle       Energy         DIIS error
 ---------------------------------------
    1    -528.8227362476      4.11e-04  
    2    -528.8271514926      4.70e-04  Done DIIS. Switching to GDM
 ---------------------------------------
  Cycle       Energy        RMS Gradient
 ---------------------------------------
    1    -528.8271514926      3.70e-02   Normal BFGS step
    2    -528.8231794477      5.95e-02  Line search: overstep
    3    -528.8329726974      4.69e-03   Normal BFGS step
    4    -528.8331824680      2.12e-03   Normal BFGS step
    5    -528.8332653218      1.83e-03   Normal BFGS step
    6    -528.8332753430      3.70e-04   Normal BFGS step
    7    -528.8332778867      4.45e-04   Normal BFGS step
    8    -528.8332788260      1.93e-04   Normal BFGS step
    9    -528.8332791233      1.17e-04   Normal BFGS step
   10    -528.8332792217      7.53e-05   Normal BFGS step
   11    -528.8332792453      4.96e-05   Normal BFGS step
   12    -528.8332792542      2.49e-05   Normal BFGS step
   13    -528.8332792572      8.82e-06   Normal BFGS step
   14    -528.8332792585      4.71e-06   Normal BFGS step
   15    -528.8332792589      2.39e-06   Normal BFGS step
   16    -528.8332792590      7.00e-07  Convergence criterion met
 ---------------------------------------
 SCF time:   CPU 789.01s  wall 53.00s 
<S^2> =          0.754962962
(3)  G-ENP(liq) elect-nuc-pol free energy of system     -528.833279259 a.u.
(4)  G-CDS(liq) cavity-dispersion-solvent structure 
     free energy                                                4.3364 kcal/mol
(6)  G-S(liq) free energy of system                     -528.826368791 a.u.
 SCF   energy in the final basis set =     -528.8263687908
 Total energy in the final basis set =     -528.8263687908
 
 --------------------------------------------------------------
 
                    Orbital Energies (a.u.)
 --------------------------------------------------------------
 
 Alpha MOs
 -- Occupied --
-19.4723 -19.4682 -19.3550 -19.3344 -19.3054 -19.2788 -10.5090 -10.4490
 -1.3896  -1.2341  -1.1825  -1.1535  -1.0675  -1.0006  -0.8045  -0.7341
 -0.7137  -0.6435  -0.6402  -0.6130  -0.5899  -0.5543  -0.5365  -0.5148
 -0.4685  -0.4588  -0.4470  -0.4254  -0.4207  -0.3723  -0.3635  -0.3505
 -- Virtual --
  0.0393   0.0482   0.0622   0.0716   0.0826   0.1038   0.1094   0.1129
  0.1239   0.1552   0.1664   0.1749   0.1856   0.1989   0.2260   0.2364
  0.2490   0.2566   0.2618   0.2642   0.2828   0.3017   0.3102   0.3210
  0.3255   0.3287   0.3410   0.3422   0.3476   0.3501   0.3544   0.3669
  0.3775   0.3804   0.3909   0.4142   0.4170   0.4321   0.4433   0.4718
  0.4871   0.5257   0.5434   0.5868   0.6300   0.6338   0.6852   0.7082
  0.7211   0.7367   0.7630   0.7988   0.8155   0.8477   0.8519   0.8788
  0.9208   0.9441   0.9962   1.0179   1.0304   1.0570   1.0799   1.0952
  1.1081   1.1190   1.1271   1.1451   1.1578   1.1594   1.1773   1.1908
  1.2068   1.2291   1.2455   1.2578   1.2709   1.2961   1.3062   1.3244
  1.3474   1.3760   1.3886   1.4650   1.4805   1.5092   1.5621   1.5677
  1.5800   1.6409   1.6444   1.6636   1.6713   1.6933   1.7249   1.7332
  1.7487   1.8068   1.8087   1.8541   1.9230   1.9562   1.9661   1.9998
  2.0515   2.0767   2.1080   2.1504   2.2008   2.2223   2.2498   2.3133
  2.3565   2.4031   2.4287   2.4576   2.4744   2.5220   2.5752   2.6221
  2.6346   2.6622   2.6763   2.7718   2.8706   2.8943   2.9474   2.9712
  2.9972   3.1197   3.1732   3.2066   3.2812   3.2837   3.3748   3.4030
  3.4259   3.4682   3.4806   3.5165   3.5484   3.5631   3.5952   3.6235
  3.6653   3.7349   3.7731   3.8023   3.8116   3.8537   3.8814   3.9362
  3.9784   4.0214   4.0909   4.1757   4.1830   4.2578   4.2702   4.2811
  4.4303   4.5361   4.6803   4.6938   4.7872   4.8002   4.9101   5.0258
  5.0705   5.1185   5.1386   5.1569   5.1693   5.1705   5.1797   5.2001
  5.2020   5.2129   5.2233   5.2352   5.2511   5.2524   5.2697   5.2861
  5.2984   5.3182   5.3244   5.3408   5.3578   5.3777   5.4169   5.4274
  5.4549   5.4835   5.5344   5.5495   5.5680   5.6020   5.6083   5.6319
  5.6516   5.7080   5.7583   5.7702   5.8654   5.9006   6.0271   6.1762
  6.2232   6.2552   6.4266   6.4932   6.5403   6.5931   6.6748   6.7352
  6.8138   6.8159   6.9302   6.9362   6.9934   7.0100   7.0352   7.0569
  7.0643   7.0779   7.0800   7.1060   7.1394   7.2271   7.2577   7.3081
  7.3226   7.3500   7.3576   7.3907   7.4109   7.4235   7.4676   7.5135
  7.5485   7.5760   7.6275   7.7376   7.7742   7.8221   7.8269   7.8505
  7.9496   8.0076   8.0460   8.1517  24.9500  25.1939  50.4645  50.5071
 50.6246  50.6593  50.7060  50.7865
 
 Beta MOs
 -- Occupied --
-19.4561 -19.4537 -19.3549 -19.3346 -19.3054 -19.2787 -10.5093 -10.4489
 -1.3616  -1.2333  -1.1825  -1.1532  -1.0673  -0.9615  -0.8014  -0.7249
 -0.7093  -0.6248  -0.6071  -0.5910  -0.5598  -0.5492  -0.5350  -0.5124
 -0.4634  -0.4572  -0.4358  -0.4204  -0.3721  -0.3631  -0.3505
 -- Virtual --
 -0.0503   0.0396   0.0498   0.0653   0.0720   0.0832   0.1042   0.1102
  0.1133   0.1246   0.1572   0.1672   0.1766   0.1874   0.2054   0.2270
  0.2404   0.2512   0.2574   0.2628   0.2655   0.2889   0.3033   0.3112
  0.3228   0.3268   0.3299   0.3418   0.3426   0.3499   0.3513   0.3557
  0.3679   0.3806   0.3836   0.3913   0.4145   0.4179   0.4330   0.4442
  0.4722   0.4878   0.5264   0.5437   0.5884   0.6302   0.6354   0.6853
  0.7082   0.7211   0.7380   0.7644   0.7991   0.8155   0.8515   0.8535
  0.8800   0.9213   0.9454   0.9983   1.0209   1.0319   1.0583   1.0851
  1.1083   1.1188   1.1217   1.1296   1.1481   1.1584   1.1623   1.1812
  1.1958   1.2153   1.2444   1.2482   1.2601   1.2726   1.2978   1.3104
  1.3284   1.3529   1.3809   1.3917   1.4688   1.4937   1.5131   1.5641
  1.5726   1.5917   1.6429   1.6501   1.6704   1.6797   1.6962   1.7271
  1.7397   1.7518   1.8079   1.8154   1.8639   1.9240   1.9597   1.9720
  2.0085   2.0539   2.0827   2.1104   2.1598   2.2060   2.2235   2.2596
  2.3302   2.3626   2.4055   2.4309   2.4616   2.4755   2.5252   2.5755
  2.6246   2.6363   2.6649   2.6857   2.7721   2.8717   2.8939   2.9468
  2.9713   2.9970   3.1196   3.1724   3.2067   3.2813   3.2830   3.3754
  3.4040   3.4260   3.4679   3.4805   3.5165   3.5482   3.5639   3.5941
  3.6233   3.6650   3.7346   3.7729   3.8021   3.8120   3.8544   3.8814
  3.9375   3.9784   4.0212   4.0903   4.1756   4.1827   4.2583   4.2701
  4.2809   4.4317   4.5760   4.7004   4.7192   4.8008   4.8055   4.9217
  5.0768   5.1117   5.1503   5.1656   5.1696   5.1717   5.1804   5.1911
  5.2121   5.2159   5.2197   5.2384   5.2480   5.2613   5.2716   5.2779
  5.2971   5.3131   5.3237   5.3310   5.3515   5.3729   5.3790   5.4225
  5.4347   5.4588   5.4921   5.5356   5.5524   5.5734   5.6043   5.6134
  5.6514   5.6612   5.7085   5.7627   5.7857   5.8665   5.9014   6.0273
  6.1764   6.2232   6.2578   6.4362   6.4941   6.5906   6.5940   6.6786
  6.7449   6.8160   6.8662   6.9342   6.9842   7.0040   7.0144   7.0375
  7.0697   7.0822   7.1210   7.1253   7.1366   7.1558   7.2370   7.2609
  7.3217   7.3359   7.3587   7.3773   7.3945   7.4244   7.4351   7.4857
  7.5252   7.5578   7.5783   7.6299   7.7383   7.7771   7.8247   7.8287
  7.8541   7.9513   8.0098   8.0590   8.1705  24.9499  25.1938  50.4760
 50.5189  50.6251  50.6595  50.7060  50.7865
 --------------------------------------------------------------
 
          Ground-State Mulliken Net Atomic Charges

     Atom                 Charge (a.u.)    Spin (a.u.)
  --------------------------------------------------------
      1 C                     0.465172      -0.002629
      2 O                    -0.577912       0.000099
      3 O                    -0.748987       0.004592
      4 C                     0.165626      -0.013667
      5 O                    -0.401741       0.001646
      6 O                    -0.545493      -0.004062
      7 H                     0.369747      -0.007980
      8 O                    -0.054396       0.536726
      9 O                    -0.020074       0.484869
     10 H                     0.348057       0.000407
  --------------------------------------------------------
  Sum of atomic charges =    -1.000000
  Sum of spin   charges =     1.000000

 -----------------------------------------------------------------
                    Cartesian Multipole Moments
 -----------------------------------------------------------------
    Charge (ESU x 10^10)
                -4.8032
    Dipole Moment (Debye)
         X     -10.9694      Y      -4.3231      Z       0.2454
       Tot      11.7931
    Quadrupole Moments (Debye-Ang)
        XX     -74.1918     XY      -9.4263     YY     -58.3577
        XZ       8.5395     YZ      -3.9786     ZZ     -49.8000
    Octopole Moments (Debye-Ang^2)
       XXX    -216.6017    XXY     -11.3596    XYY     -72.3046
       YYY      19.1939    XXZ       7.8428    XYZ       1.4089
       YYZ     -14.3402    XZZ     -71.1260    YZZ       4.2550
       ZZZ     -30.9590
    Hexadecapole Moments (Debye-Ang^3)
      XXXX    -754.9273   XXXY     -73.7356   XXYY    -209.9162
      XYYY     -41.9971   YYYY    -449.4332   XXXZ      43.8231
      XXYZ      26.7452   XYYZ     -15.4964   YYYZ      45.0309
      XXZZ    -190.3171   XYZZ     -12.1839   YYZZ    -140.8751
      XZZZ       4.3222   YZZZ      51.6799   ZZZZ    -320.2824
 -----------------------------------------------------------------
 Calculating analytic gradient of the SCF energy
 Gradient of CDS energy
            1           2           3           4           5           6
    1   0.0036169  -0.0000233  -0.0029325  -0.0028018   0.0010244   0.0013571
    2   0.0012768  -0.0009625   0.0003883  -0.0016155   0.0013927  -0.0001282
    3  -0.0026677  -0.0009190   0.0036243  -0.0020828   0.0036912  -0.0014312
            7           8           9          10
    1  -0.0001686  -0.0000880   0.0002576  -0.0002419
    2  -0.0000709  -0.0001198  -0.0001167  -0.0000442
    3   0.0002841   0.0000306  -0.0001031  -0.0004266
 Gradient of SCF Energy
            1           2           3           4           5           6
    1  -0.0327218   0.0008509   0.0165321   0.0054747  -0.0221692   0.0066822
    2   0.0520750  -0.0519017  -0.0097889  -0.0162965   0.0440186   0.0106353
    3   0.0656281  -0.0501037  -0.0226906   0.0192776  -0.0253587  -0.0134236
            7           8           9          10
    1   0.0030913  -0.0052868   0.0023166   0.0252300
    2  -0.0075376   0.0005072   0.0070067  -0.0287182
    3   0.0020390   0.0142577  -0.0169384   0.0273128
 Max gradient component =       6.563E-02
 RMS gradient           =       2.652E-02
 Computing fast CPCM-SWIG gradient
 Updating gradient with PCM contributions...
 -- total gradient after adding PCM contribution --
---------------------------------------------------
  Atom         X              Y              Z     
---------------------------------------------------
   1      -0.055421       0.030260       0.080649
   2       0.008329      -0.025157      -0.033869
   3       0.027035      -0.009424      -0.039898
   4       0.022419      -0.035417       0.004463
   5      -0.026134       0.050089      -0.015375
   6       0.000424       0.010501      -0.008578
   7       0.001663      -0.001672       0.002504
   8       0.005000       0.002726       0.007856
   9      -0.001453       0.003160      -0.005547
  10       0.018138      -0.025066       0.007794
---------------------------------------------------
 Number of fixed atoms: 0
 Gradient time:  CPU 109.36 s  wall 9.67 s
 ----------------------------------------------------------------
             Standard Nuclear Orientation (Angstroms)
    I     Atom           X                Y                Z
 ----------------------------------------------------------------
    1      C       1.5844599000     0.7584531000    -0.0366919000
    2      O       1.6319663000     1.6456081000     0.7783033000
    3      O       2.4088445000     0.6104429000    -1.0653695000
    4      C       0.5464731000    -0.3561399000     0.0029388000
    5      O       0.2543258000    -0.8575610000    -1.2204214000
    6      O      -0.3789196000    -0.2825919000     0.8689141000
    7      H       0.0988543000    -1.1618877000     1.6971768000
    8      O       1.6270215000    -1.6027184000     0.7737238000
    9      O       0.9821077000    -1.8702309000     1.8414499000
   10      H      -0.2984738000    -0.3763224000    -1.8041945000
 ----------------------------------------------------------------
 Nuclear Repulsion Energy =         398.44734247 hartrees
 There are       32 alpha and       31 beta electrons
 Discretize the solute cavity surface with Lebedev spheres
	Using 110 Lebedev grid points for each H atom
	Using 194 Lebedev grid points for other atoms
	Atomic van der Waals radii will be scaled by 1.20
 Remove points where switching function is < 1.0e-08
 Keep 961 surface tesserae and discard 811 interior tesserae
 Molecular Surface Area = 114.221 Angst**2

                       Distance Matrix (Angstroms)
             C (  1)   O (  2)   O (  3)   C (  4)   O (  5)   O (  6)
   O (  2)  1.205619
   O (  3)  1.326535  2.252607
   C (  4)  1.523583  2.405510  2.354568
   O (  5)  2.404574  3.486925  2.611710  1.354025
   O (  6)  2.399741  2.787441  3.508645  1.269517  2.257634
   H (  7)  2.983460  3.328182  4.013586  1.928739  2.937544  1.299018
   O (  8)  2.496741  3.248333  2.981878  1.820893  2.533016  2.403247
   O (  9)  3.286369  3.730110  4.079083  2.421234  3.306089  2.306256
   H ( 10)  2.820855  3.805798  2.974750  1.995012  0.937000  2.675961
             H (  7)   O (  8)   O (  9)
   O (  8)  1.839128
   O (  9)  1.141359  1.275741
   H ( 10)  3.610344  3.443435  4.142750
 
 Requested basis set is 6-311++G(2df,2p)
 There are 76 shells and 292 basis functions
 A cutoff of  1.0D-11 yielded   2645 shell pairs
 There are     39761 function pairs (     51263 Cartesian)
 Smallest overlap matrix eigenvalue = 5.78E-05
 Guess MOs from SCF MO coefficient file

 -----------------------------------------------------------------------
  General SCF calculation program by
  Eric Jon Sundstrom, Paul Horn, Yuezhi Mao, Dmitri Zuev, Alec White,
  David Stuck, Shaama M.S., Shane Yost, Joonho Lee, David Small,
  Daniel Levine, Susi Lehtola, Hugh Burton, Evgeny Epifanovsky,
  Bang C. Huynh
 -----------------------------------------------------------------------
 Exchange:     0.1500 Hartree-Fock + 1.0000 wB97M-V + LR-HF
 Correlation:  1.0000 wB97M-V
 Using SG-2 standard quadrature grid
 Nonlocal Correlation:  VV10 with C = 0.0100 and b = 6.00 and scale = 1.00000
 Grid used for NLC:  SG-1 standard quadrature
 
 Citation of the SMD model:
 Marenich, A.V.; Cramer, C.J.; Truhlar, D.G.
 J. Phys. Chem. B 2009, 113, 6378-6396.
 iSolventCode=           1
 Solvent: water                                                           
 
 vradii
            1           2           3           4           5           6
    1   1.8500000   1.5200000   1.5200000   1.8500000   1.5200000   1.5200000
            7           8           9          10
    1   1.2000000   1.5200000   1.5200000   1.2000000
 -------------------------------------------------------
 OpenMP BLAS3 based DFT computing Module                
 Release: version 1.0, May 2013, Q-Chem Inc. Pittsburgh 
 -------------------------------------------------------
 A unrestricted SCF calculation will be
 performed using Roothaan-Hall, DIIS, GDM
 SCF converges when RMS gradient is below 1.0e-06
 ---------------------------------------
  Cycle       Energy         DIIS error
 ---------------------------------------
    1    -528.6982140937      3.34e-04  Roothaan Step
 ---------------------------------------
  Cycle       Energy         DIIS error
 ---------------------------------------
    1    -528.8228104111      4.12e-04  
    2    -528.8272417125      4.71e-04  Done DIIS. Switching to GDM
 ---------------------------------------
  Cycle       Energy        RMS Gradient
 ---------------------------------------
    1    -528.8272417125      3.68e-02   Normal BFGS step
    2    -528.8232991764      5.93e-02  Line search: overstep
    3    -528.8330771387      4.74e-03   Normal BFGS step
    4    -528.8332866582      2.13e-03   Normal BFGS step
    5    -528.8333699661      1.84e-03   Normal BFGS step
    6    -528.8333800636      3.62e-04   Normal BFGS step
    7    -528.8333826195      4.45e-04   Normal BFGS step
    8    -528.8333835643      1.91e-04   Normal BFGS step
    9    -528.8333838662      1.19e-04   Normal BFGS step
   10    -528.8333839654      7.63e-05   Normal BFGS step
   11    -528.8333839895      5.03e-05   Normal BFGS step
   12    -528.8333839988      2.51e-05   Normal BFGS step
   13    -528.8333840018      8.77e-06   Normal BFGS step
   14    -528.8333840032      4.70e-06   Normal BFGS step
   15    -528.8333840036      2.39e-06   Normal BFGS step
   16    -528.8333840037      6.97e-07  Convergence criterion met
 ---------------------------------------
 SCF time:   CPU 791.95s  wall 53.00s 
<S^2> =          0.754964174
(3)  G-ENP(liq) elect-nuc-pol free energy of system     -528.833384004 a.u.
(4)  G-CDS(liq) cavity-dispersion-solvent structure 
     free energy                                                4.3333 kcal/mol
(6)  G-S(liq) free energy of system                     -528.826478401 a.u.
 SCF   energy in the final basis set =     -528.8264784006
 Total energy in the final basis set =     -528.8264784006
 
 --------------------------------------------------------------
 
                    Orbital Energies (a.u.)
 --------------------------------------------------------------
 
 Alpha MOs
 -- Occupied --
-19.4723 -19.4682 -19.3550 -19.3345 -19.3053 -19.2790 -10.5092 -10.4491
 -1.3896  -1.2341  -1.1819  -1.1536  -1.0675  -1.0007  -0.8049  -0.7342
 -0.7139  -0.6435  -0.6402  -0.6131  -0.5898  -0.5543  -0.5363  -0.5146
 -0.4686  -0.4587  -0.4470  -0.4255  -0.4207  -0.3723  -0.3637  -0.3506
 -- Virtual --
  0.0393   0.0481   0.0620   0.0716   0.0826   0.1038   0.1094   0.1128
  0.1239   0.1552   0.1664   0.1749   0.1855   0.1989   0.2260   0.2364
  0.2490   0.2565   0.2618   0.2642   0.2828   0.3018   0.3103   0.3210
  0.3255   0.3286   0.3411   0.3422   0.3476   0.3501   0.3544   0.3670
  0.3775   0.3804   0.3909   0.4141   0.4170   0.4324   0.4433   0.4717
  0.4871   0.5257   0.5436   0.5868   0.6299   0.6339   0.6851   0.7080
  0.7210   0.7369   0.7630   0.7989   0.8153   0.8477   0.8515   0.8789
  0.9206   0.9437   0.9962   1.0179   1.0305   1.0571   1.0800   1.0952
  1.1081   1.1190   1.1271   1.1453   1.1580   1.1594   1.1773   1.1908
  1.2069   1.2291   1.2455   1.2578   1.2707   1.2961   1.3061   1.3244
  1.3473   1.3764   1.3886   1.4650   1.4808   1.5093   1.5620   1.5676
  1.5799   1.6412   1.6445   1.6635   1.6715   1.6933   1.7249   1.7331
  1.7485   1.8069   1.8090   1.8539   1.9227   1.9562   1.9664   1.9997
  2.0514   2.0767   2.1078   2.1503   2.2008   2.2227   2.2499   2.3133
  2.3564   2.4029   2.4286   2.4578   2.4746   2.5220   2.5747   2.6222
  2.6345   2.6623   2.6763   2.7721   2.8706   2.8939   2.9471   2.9712
  2.9970   3.1198   3.1737   3.2070   3.2815   3.2839   3.3748   3.4032
  3.4257   3.4681   3.4804   3.5167   3.5476   3.5629   3.5954   3.6232
  3.6657   3.7352   3.7729   3.8023   3.8118   3.8538   3.8814   3.9363
  3.9787   4.0221   4.0914   4.1770   4.1834   4.2570   4.2697   4.2819
  4.4303   4.5361   4.6802   4.6939   4.7872   4.8020   4.9101   5.0257
  5.0706   5.1185   5.1388   5.1569   5.1693   5.1705   5.1798   5.2000
  5.2020   5.2129   5.2233   5.2351   5.2510   5.2523   5.2696   5.2861
  5.2984   5.3178   5.3244   5.3408   5.3574   5.3777   5.4166   5.4271
  5.4547   5.4835   5.5341   5.5495   5.5678   5.6015   5.6083   5.6317
  5.6515   5.7077   5.7581   5.7703   5.8656   5.9006   6.0268   6.1750
  6.2232   6.2542   6.4261   6.4903   6.5403   6.5926   6.6738   6.7348
  6.8130   6.8156   6.9302   6.9362   6.9934   7.0100   7.0351   7.0570
  7.0642   7.0777   7.0799   7.1059   7.1394   7.2268   7.2573   7.3081
  7.3222   7.3493   7.3579   7.3905   7.4096   7.4232   7.4674   7.5132
  7.5482   7.5746   7.6275   7.7377   7.7746   7.8221   7.8264   7.8504
  7.9498   8.0077   8.0459   8.1516  24.9499  25.1937  50.4645  50.5071
 50.6245  50.6594  50.7054  50.7850
 
 Beta MOs
 -- Occupied --
-19.4562 -19.4537 -19.3550 -19.3347 -19.3053 -19.2789 -10.5094 -10.4490
 -1.3616  -1.2333  -1.1818  -1.1533  -1.0673  -0.9616  -0.8018  -0.7250
[...]
  5.2813   5.2998   5.3265   5.3367   5.3536   5.3858   5.4035   5.4192
  5.4348   5.4763   5.5137   5.5591   5.5841   5.5906   5.6231   5.6406
  5.6438   5.6818   5.6912   5.7851   5.8367   5.9935   6.0614   6.1429
  6.2087   6.3178   6.5049   6.5378   6.5392   6.6184   6.6577   6.7193
  6.8094   6.9162   6.9307   6.9412   6.9984   7.0085   7.0226   7.0516
  7.0873   7.0958   7.1039   7.1100   7.1382   7.2340   7.2464   7.2834
  7.3345   7.3467   7.3650   7.3748   7.4218   7.4726   7.4879   7.5072
  7.5331   7.5572   7.6986   7.7075   7.7679   7.7969   7.8414   7.8663
  7.9204   7.9621   8.0525   8.1416  24.9979  25.2326  50.4895  50.5049
 50.6079  50.6895  50.7179  50.7499
 
 Beta MOs
 -- Occupied --
-19.4132 -19.4107 -19.3866 -19.3552 -19.3038 -19.3009 -10.5111 -10.4598
 -1.3124  -1.2555  -1.1846  -1.1792  -1.1007  -0.9109  -0.7894  -0.7326
 -0.6936  -0.6212  -0.6049  -0.5820  -0.5503  -0.5420  -0.5353  -0.5198
 -0.5017  -0.4761  -0.4588  -0.3879  -0.3840  -0.3760  -0.3522
 -- Virtual --
 -0.0199   0.0421   0.0479   0.0551   0.0732   0.0837   0.1021   0.1077
  0.1134   0.1296   0.1491   0.1666   0.1839   0.1912   0.2106   0.2374
  0.2389   0.2469   0.2508   0.2702   0.2754   0.2930   0.3033   0.3058
  0.3201   0.3236   0.3296   0.3346   0.3446   0.3471   0.3536   0.3578
  0.3628   0.3679   0.3871   0.3952   0.4028   0.4268   0.4328   0.4432
  0.4496   0.4631   0.5208   0.5555   0.6011   0.6156   0.6634   0.6866
  0.7003   0.7218   0.7366   0.7431   0.7898   0.8010   0.8400   0.8501
  0.8698   0.8992   0.9343   0.9445   1.0488   1.0645   1.0769   1.0852
  1.1029   1.1120   1.1279   1.1378   1.1488   1.1588   1.1653   1.1911
  1.1978   1.2068   1.2227   1.2360   1.2388   1.2658   1.2754   1.2856
  1.3010   1.3643   1.3835   1.4144   1.4739   1.4878   1.5278   1.5500
  1.5522   1.5897   1.6067   1.6356   1.6520   1.6852   1.7052   1.7417
  1.7514   1.7744   1.7999   1.8403   1.8895   1.9054   1.9514   2.0039
  2.0301   2.0625   2.1023   2.1664   2.1940   2.2266   2.2386   2.3047
  2.3308   2.3926   2.4337   2.4474   2.4664   2.4904   2.5658   2.5953
  2.6208   2.6668   2.7075   2.7080   2.7671   2.8399   2.8645   2.8945
  2.9135   2.9735   3.1210   3.1712   3.1898   3.2391   3.2696   3.3348
  3.3992   3.4140   3.4353   3.4571   3.4753   3.5114   3.5680   3.5906
  3.6102   3.6502   3.7242   3.7669   3.7696   3.8209   3.8449   3.8539
  3.9533   3.9870   4.0398   4.0774   4.1415   4.1947   4.2125   4.2651
  4.3046   4.3514   4.5992   4.7057   4.7241   4.7845   4.7997   4.9012
  5.0609   5.1286   5.1486   5.1609   5.1690   5.1759   5.1831   5.1913
  5.2019   5.2147   5.2293   5.2375   5.2474   5.2555   5.2735   5.2824
  5.2827   5.2939   5.3052   5.3350   5.3463   5.3626   5.3894   5.4048
  5.4253   5.4470   5.4810   5.5168   5.5602   5.5862   5.5944   5.6245
  5.6448   5.6665   5.6886   5.7105   5.7866   5.8376   5.9939   6.0613
  6.1429   6.2096   6.3180   6.5054   6.5465   6.5887   6.6186   6.6583
  6.7269   6.8618   6.9171   6.9431   6.9856   7.0056   7.0235   7.0402
  7.0689   7.0915   7.1128   7.1394   7.1515   7.1598   7.2417   7.2711
  7.2870   7.3410   7.3507   7.3913   7.3980   7.4400   7.4791   7.4898
  7.5075   7.5500   7.5620   7.7003   7.7082   7.7688   7.7993   7.8425
  7.8682   7.9229   7.9628   8.0652   8.1609  24.9978  25.2326  50.5011
 50.5162  50.6081  50.6899  50.7179  50.7499
 --------------------------------------------------------------
 
          Ground-State Mulliken Net Atomic Charges

     Atom                 Charge (a.u.)    Spin (a.u.)
  --------------------------------------------------------
      1 C                     0.494664      -0.000792
      2 O                    -0.628931       0.000282
      3 O                    -0.617395       0.000255
      4 C                     0.123767      -0.019366
      5 O                    -0.293192      -0.003583
      6 O                    -0.442681      -0.001054
      7 H                     0.370462      -0.008662
      8 O                    -0.161607       0.530663
      9 O                    -0.174264       0.502273
     10 H                     0.329179      -0.000016
  --------------------------------------------------------
  Sum of atomic charges =    -1.000000
  Sum of spin   charges =     1.000000

 -----------------------------------------------------------------
                    Cartesian Multipole Moments
 -----------------------------------------------------------------
    Charge (ESU x 10^10)
                -4.8032
    Dipole Moment (Debye)
         X      -8.3587      Y      -2.8961      Z      -2.3332
       Tot       9.1487
    Quadrupole Moments (Debye-Ang)
        XX     -68.8605     XY      -8.0626     YY     -60.0421
        XZ      -1.4028     YZ       1.3016     ZZ     -52.9046
    Octopole Moments (Debye-Ang^2)
       XXX    -181.5632    XXY      -5.9414    XYY     -70.9095
       YYY      32.6193    XXZ      -9.0278    XYZ       6.7213
       YYZ     -20.8489    XZZ     -61.9612    YZZ       4.4534
       ZZZ     -39.3257
    Hexadecapole Moments (Debye-Ang^3)
      XXXX    -615.4254   XXXY     -59.0531   XXYY    -203.8904
      XYYY     -24.7445   YYYY    -453.1617   XXXZ     -10.6350
      XXYZ      32.6996   XYYZ     -26.5525   YYYZ      79.5699
      XXZZ    -185.2380   XYZZ     -15.4322   YYZZ    -154.4810
      XZZZ     -29.5968   YZZZ      84.9087   ZZZZ    -360.9466
 -----------------------------------------------------------------
 Calculating analytic gradient of the SCF energy
 Gradient of CDS energy
            1           2           3           4           5           6
    1   0.0019969  -0.0004785  -0.0007212  -0.0031250   0.0010621   0.0012972
    2   0.0019391  -0.0010584  -0.0001043  -0.0015521   0.0011334   0.0000343
    3  -0.0003431  -0.0015083   0.0018087  -0.0010963   0.0029419  -0.0018112
            7           8           9          10
    1  -0.0001237  -0.0000905   0.0002033  -0.0000205
    2  -0.0000688  -0.0001082  -0.0001220  -0.0000930
    3   0.0002830   0.0001362  -0.0001068  -0.0003043
 Gradient of SCF Energy
            1           2           3           4           5           6
    1   0.0136350  -0.0099845  -0.0072824   0.0088360   0.0092277   0.0048185
    2   0.0230137  -0.0177069  -0.0015324  -0.0129248   0.0091664  -0.0003448
    3  -0.0046620  -0.0198581   0.0209119  -0.0035522  -0.0043376   0.0018237
            7           8           9          10
    1  -0.0046937  -0.0039274   0.0032634  -0.0138927
    2   0.0037018  -0.0002239   0.0034897  -0.0066388
    3  -0.0082051   0.0061513  -0.0068092   0.0185372
 Max gradient component =       2.301E-02
 RMS gradient           =       1.051E-02
 Computing fast CPCM-SWIG gradient
 Updating gradient with PCM contributions...
 -- total gradient after adding PCM contribution --
---------------------------------------------------
  Atom         X              Y              Z     
---------------------------------------------------
   1       0.000099      -0.000003      -0.000126
   2      -0.000030      -0.000040      -0.000039
   3      -0.000120      -0.000027       0.000141
   4      -0.000162       0.000032       0.000078
   5       0.000061       0.000021       0.000136
   6       0.000049       0.000041      -0.000087
   7      -0.000045       0.000003       0.000028
   8       0.000013      -0.000000       0.000072
   9       0.000088      -0.000046      -0.000023
  10       0.000047       0.000019      -0.000181
---------------------------------------------------
 Number of fixed atoms: 0
 Gradient time:  CPU 121.31 s  wall 10.40 s
 Geometry Optimization Parameters
   NAtoms,    NIC,     NZ,  NCons,   NDum,   NFix, NCnnct, MaxDiis
       10      62       0       0       0       0       0       0

 Cartesian Hessian Update
 Hessian updated using Powell/Murtagh-Sargent update
  Mixing factors:     0.999045 Powell                      0.000955 Murtagh-Sargent


** GEOMETRY OPTIMIZATION IN DELOCALIZED INTERNAL COORDINATES **
   Searching for a Transition State

   Optimization Cycle:  59

                       Coordinates (Angstroms)
     ATOM                X               Y               Z
      1  C         1.4980164545    0.7660547243   -0.1383624944
      2  O         1.8026323618    1.4121745551    0.8766832452
      3  O         1.9798924524    0.8168866210   -1.2928620119
      4  C         0.3676719600   -0.2762671958    0.0083766160
      5  O        -0.0592124773   -0.7989272362   -1.1237456197
      6  O        -0.4187979559   -0.3089060280    1.0215964248
      7  H         0.0738809553   -1.0384616266    1.7114023966
      8  O         1.5892850633   -1.6572546214    0.7212176276
      9  O         1.0518619496   -1.9085083887    1.8610669549
     10  H         0.5714289363   -0.4987389036   -1.8095437390
   Point Group: c1    Number of degrees of freedom:    24


   Energy is   -528.859595556

 Hessian updated using Powell/Murtagh-Sargent update
  Mixing factors:     0.955706 Powell                      0.044294 Murtagh-Sargent

 24 Hessian modes will be used to form the next step
  Hessian Eigenvalues:
    -0.037399    0.001288    0.004055    0.010739    0.017705    0.029627
     0.056210    0.078014    0.096063    0.107863    0.137188    0.150833
     0.168721    0.193454    0.208395    0.257950    0.262809    0.357433
     0.378252    0.437128    0.508505    0.617060    0.641334    0.874065

 Transition state search - taking P-RFO step
 Searching for Lamda that Maximizes Along the Lowest mode
 Value Taken    Lamda =   0.00000004
 Searching for Lamda that Minimizes Along All other modes
 Value Taken    Lamda =  -0.00000066
 Step Taken.  Stepsize is  0.010197

                             Maximum     Tolerance    Cnvgd?
         Gradient           0.000189      0.000300     YES
         Displacement       0.005225      0.001200      NO
         Energy change     -0.000000      0.000001     YES


                       Distance Matrix (Angstroms)
             C (  1)   O (  2)   O (  3)   C (  4)   O (  5)   O (  6)
   O (  2)  1.241201
   O (  3)  1.252061  2.256705
   C (  4)  1.544554  2.379896  2.342533
   O (  5)  2.417666  3.515274  2.607183  1.317993
   O (  6)  2.485000  2.813871  3.518216  1.283049  2.229779
   H (  7)  2.950605  3.113030  4.012580  1.888796  2.848360  1.118399
   O (  8)  2.572865  3.080760  3.214104  1.976767  2.618809  2.437349
   O (  9)  3.368985  3.543953  4.270397  2.562184  3.372649  2.329437
   H ( 10)  2.291531  3.518987  1.995395  1.842782  0.978847  3.005319
             H (  7)   O (  8)   O (  9)
   O (  8)  1.913066
   O (  9)  1.317508  1.284994
   H ( 10)  3.596653  2.963603  3.961269
 
 Final energy is   -528.859595555991     


 ******************************
 **  OPTIMIZATION CONVERGED  **
 ******************************

                       Coordinates (Angstroms)
     ATOM                X               Y               Z
      1  C         1.4980164545    0.7660547243   -0.1383624944
      2  O         1.8026323618    1.4121745551    0.8766832452
      3  O         1.9798924524    0.8168866210   -1.2928620119
      4  C         0.3676719600   -0.2762671958    0.0083766160
      5  O        -0.0592124773   -0.7989272362   -1.1237456197
      6  O        -0.4187979559   -0.3089060280    1.0215964248
      7  H         0.0738809553   -1.0384616266    1.7114023966
      8  O         1.5892850633   -1.6572546214    0.7212176276
      9  O         1.0518619496   -1.9085083887    1.8610669549
     10  H         0.5714289363   -0.4987389036   -1.8095437390

Z-matrix Print:
$molecule
-1 2
O 
O  1 1.284994
H  2 1.317508 1 94.620918
O  3 1.118399 2 145.877186 1 4.885392 0
C  4 1.283049 3 103.511288 2 -6.522958 0
O  5 1.317993 4 118.015291 3 110.745373 0
H  6 0.978847 5 105.755126 4 167.174628 0
C  5 1.544554 4 122.736644 3 -93.510223 0
O  8 1.241201 5 116.949465 4 14.104690 0
O  8 1.252061 5 113.369161 4 -166.429369 0
$end

 
 --------------------------------------------------------------
 
                    Orbital Energies (a.u.)
 --------------------------------------------------------------
 
 Alpha MOs
 -- Occupied --
-19.4290 -19.4254 -19.3865 -19.3551 -19.3038 -19.3009 -10.5108 -10.4599
 -1.3392  -1.2574  -1.1847  -1.1795  -1.1007  -0.9511  -0.7916  -0.7339
 -0.6990  -0.6230  -0.6109  -0.6056  -0.6013  -0.5501  -0.5446  -0.5277
 -0.5110  -0.4819  -0.4605  -0.3967  -0.3865  -0.3848  -0.3757  -0.3623
 -- Virtual --
  0.0416   0.0453   0.0547   0.0729   0.0833   0.1016   0.1072   0.1129
  0.1286   0.1488   0.1652   0.1829   0.1880   0.2081   0.2328   0.2366
  0.2458   0.2497   0.2683   0.2747   0.2887   0.3016   0.3034   0.3188
  0.3230   0.3282   0.3333   0.3431   0.3459   0.3510   0.3548   0.3607
  0.3676   0.3861   0.3915   0.4018   0.4259   0.4312   0.4426   0.4495
  0.4630   0.5201   0.5555   0.6009   0.6147   0.6618   0.6858   0.7004
  0.7213   0.7363   0.7431   0.7893   0.8009   0.8397   0.8485   0.8671
  0.8983   0.9338   0.9433   1.0469   1.0604   1.0763   1.0805   1.0957
  1.1111   1.1152   1.1367   1.1484   1.1509   1.1604   1.1866   1.1951
  1.2015   1.2170   1.2218   1.2336   1.2621   1.2716   1.2840   1.3002
  1.3539   1.3791   1.4130   1.4699   1.4752   1.5260   1.5379   1.5466
  1.5813   1.6042   1.6339   1.6495   1.6781   1.6854   1.7349   1.7464
  1.7734   1.7989   1.8363   1.8870   1.9022   1.9446   2.0005   2.0264
  2.0526   2.0996   2.1636   2.1849   2.2213   2.2348   2.2930   2.3128
  2.3875   2.4316   2.4465   2.4661   2.4901   2.5623   2.5952   2.6197
  2.6645   2.6983   2.7071   2.7659   2.8401   2.8641   2.8951   2.9137
  2.9748   3.1221   3.1713   3.1906   3.2394   3.2697   3.3348   3.3996
  3.4143   3.4362   3.4577   3.4755   3.5121   3.5686   3.5910   3.6107
  3.6507   3.7244   3.7674   3.7699   3.8212   3.8471   3.8549   3.9528
  3.9871   4.0403   4.0782   4.1421   4.1964   4.2126   4.2644   4.3046
  4.3517   4.5594   4.6910   4.6989   4.7689   4.7896   4.8893   5.0252
  5.0647   5.1191   5.1499   5.1641   5.1697   5.1806   5.1830   5.1925
  5.2006   5.2037   5.2140   5.2290   5.2379   5.2592   5.2632   5.2732
  5.2813   5.2998   5.3265   5.3367   5.3536   5.3858   5.4035   5.4192
  5.4348   5.4763   5.5137   5.5591   5.5841   5.5906   5.6231   5.6406
  5.6438   5.6818   5.6912   5.7851   5.8367   5.9935   6.0614   6.1429
  6.2087   6.3178   6.5049   6.5378   6.5392   6.6184   6.6577   6.7193
  6.8094   6.9162   6.9307   6.9412   6.9984   7.0085   7.0226   7.0516
  7.0873   7.0958   7.1039   7.1100   7.1382   7.2340   7.2464   7.2834
  7.3345   7.3467   7.3650   7.3748   7.4218   7.4726   7.4879   7.5072
  7.5331   7.5572   7.6986   7.7075   7.7679   7.7969   7.8414   7.8663
  7.9204   7.9621   8.0525   8.1416  24.9979  25.2326  50.4895  50.5049
 50.6079  50.6895  50.7179  50.7499
 
 Beta MOs
 -- Occupied --
-19.4132 -19.4107 -19.3866 -19.3552 -19.3038 -19.3009 -10.5111 -10.4598
 -1.3124  -1.2555  -1.1846  -1.1792  -1.1007  -0.9109  -0.7894  -0.7326
 -0.6936  -0.6212  -0.6049  -0.5820  -0.5503  -0.5420  -0.5353  -0.5198
 -0.5017  -0.4761  -0.4588  -0.3879  -0.3840  -0.3760  -0.3522
 -- Virtual --
 -0.0199   0.0421   0.0479   0.0551   0.0732   0.0837   0.1021   0.1077
  0.1134   0.1296   0.1491   0.1666   0.1839   0.1912   0.2106   0.2374
  0.2389   0.2469   0.2508   0.2702   0.2754   0.2930   0.3033   0.3058
  0.3201   0.3236   0.3296   0.3346   0.3446   0.3471   0.3536   0.3578
  0.3628   0.3679   0.3871   0.3952   0.4028   0.4268   0.4328   0.4432
  0.4496   0.4631   0.5208   0.5555   0.6011   0.6156   0.6634   0.6866
  0.7003   0.7218   0.7366   0.7431   0.7898   0.8010   0.8400   0.8501
  0.8698   0.8992   0.9343   0.9445   1.0488   1.0645   1.0769   1.0852
  1.1029   1.1120   1.1279   1.1378   1.1488   1.1588   1.1653   1.1911
  1.1978   1.2068   1.2227   1.2360   1.2388   1.2658   1.2754   1.2856
  1.3010   1.3643   1.3835   1.4144   1.4739   1.4878   1.5278   1.5500
  1.5522   1.5897   1.6067   1.6356   1.6520   1.6852   1.7052   1.7417
  1.7514   1.7744   1.7999   1.8403   1.8895   1.9054   1.9514   2.0039
  2.0301   2.0625   2.1023   2.1664   2.1940   2.2266   2.2386   2.3047
  2.3308   2.3926   2.4337   2.4474   2.4664   2.4904   2.5658   2.5953
  2.6208   2.6668   2.7075   2.7080   2.7671   2.8399   2.8645   2.8945
  2.9135   2.9735   3.1210   3.1712   3.1898   3.2391   3.2696   3.3348
  3.3992   3.4140   3.4353   3.4571   3.4753   3.5114   3.5680   3.5906
  3.6102   3.6502   3.7242   3.7669   3.7696   3.8209   3.8449   3.8539
  3.9533   3.9870   4.0398   4.0774   4.1415   4.1947   4.2125   4.2651
  4.3046   4.3514   4.5992   4.7057   4.7241   4.7845   4.7997   4.9012
  5.0609   5.1286   5.1486   5.1609   5.1690   5.1759   5.1831   5.1913
  5.2019   5.2147   5.2293   5.2375   5.2474   5.2555   5.2735   5.2824
  5.2827   5.2939   5.3052   5.3350   5.3463   5.3626   5.3894   5.4048
  5.4253   5.4470   5.4810   5.5168   5.5602   5.5862   5.5944   5.6245
  5.6448   5.6665   5.6886   5.7105   5.7866   5.8376   5.9939   6.0613
  6.1429   6.2096   6.3180   6.5054   6.5465   6.5887   6.6186   6.6583
  6.7269   6.8618   6.9171   6.9431   6.9856   7.0056   7.0235   7.0402
  7.0689   7.0915   7.1128   7.1394   7.1515   7.1598   7.2417   7.2711
  7.2870   7.3410   7.3507   7.3913   7.3980   7.4400   7.4791   7.4898
  7.5075   7.5500   7.5620   7.7003   7.7082   7.7688   7.7993   7.8425
  7.8682   7.9229   7.9628   8.0652   8.1609  24.9978  25.2326  50.5011
 50.5162  50.6081  50.6899  50.7179  50.7499
 --------------------------------------------------------------
 
          Ground-State Mulliken Net Atomic Charges

     Atom                 Charge (a.u.)    Spin (a.u.)
  --------------------------------------------------------
      1 C                     0.494664      -0.000792
      2 O                    -0.628931       0.000282
      3 O                    -0.617395       0.000255
      4 C                     0.123767      -0.019366
      5 O                    -0.293192      -0.003583
      6 O                    -0.442681      -0.001054
      7 H                     0.370462      -0.008662
      8 O                    -0.161607       0.530663
      9 O                    -0.174264       0.502273
     10 H                     0.329179      -0.000016
  --------------------------------------------------------
  Sum of atomic charges =    -1.000000
  Sum of spin   charges =     1.000000

 -----------------------------------------------------------------
                    Cartesian Multipole Moments
 -----------------------------------------------------------------
    Charge (ESU x 10^10)
                -4.8032
    Dipole Moment (Debye)
         X      -8.3587      Y      -2.8961      Z      -2.3332
       Tot       9.1487
    Quadrupole Moments (Debye-Ang)
        XX     -68.8605     XY      -8.0626     YY     -60.0421
        XZ      -1.4028     YZ       1.3016     ZZ     -52.9046
    Octopole Moments (Debye-Ang^2)
       XXX    -181.5632    XXY      -5.9414    XYY     -70.9095
       YYY      32.6193    XXZ      -9.0278    XYZ       6.7213
       YYZ     -20.8489    XZZ     -61.9612    YZZ       4.4534
       ZZZ     -39.3257
    Hexadecapole Moments (Debye-Ang^3)
      XXXX    -615.4254   XXXY     -59.0531   XXYY    -203.8904
      XYYY     -24.7445   YYYY    -453.1617   XXXZ     -10.6350
      XXYZ      32.6996   XYYZ     -26.5525   YYYZ      79.5699
      XXZZ    -185.2380   XYZZ     -15.4322   YYZZ    -154.4810
      XZZZ     -29.5968   YZZZ      84.9087   ZZZZ    -360.9466
 -----------------------------------------------------------------
 Total job time:  4379.64s(wall), 63330.24s(cpu) 
 Tue Jun 20 08:09:54 2023

        *************************************************************
        *                                                           *
        *  Thank you very much for using Q-Chem.  Have a nice day.  *
        *                                                           *
        *************************************************************


