
Running Job 1 of 1 Q_in.in
qchem Q_in.in_97666.0 /scratch/ari.fischer/qChem1912883.hpc-mn1/qchem97666/ 0
/usr/local/qchem-5.4.1/exe/qcprog.exe_s Q_in.in_97666.0 /scratch/ari.fischer/qChem1912883.hpc-mn1/qchem97666/
                  Welcome to Q-Chem
     A Quantum Leap Into The Future Of Chemistry


 Q-Chem 5.4, Q-Chem, Inc., Pleasanton, CA (2021)

 License issued to: Nanyang Technological University (site)

 E. Epifanovsky,  A. T. B. Gilbert,  Xintian Feng,  Joonho Lee,  Yuezhi Mao,  
 N. Mardirossian,  P. Pokhilko,  A. White,  M. Wormit,  M. P. Coons,  
 A. L. Dempwolff,  Zhengting Gan,  D. Hait,  P. R. Horn,  L. D. Jacobson,  
 I. Kaliman,  J. Kussmann,  A. W. Lange,  Ka Un Lao,  D. S. Levine,  Jie Liu,  
 S. C. McKenzie,  A. F. Morrison,  K. Nanda,  F. Plasser,  D. R. Rehn,  
 M. L. Vidal,  Zhi-Qiang You,  Ying Zhu,  B. Alam,  B. Albrecht,  
 A. Aldossary,  E. Alguire,  J. H. Andersen,  D. Barton,  K. Begam,  A. Behn,  
 Y. A. Bernard,  E. J. Berquist,  H. Burton,  A. Carreras,  K. Carter-Fenk,  
 R. Chakraborty,  A. D. Chien,  K. D. Closser,  V. Cofer-Shabica,  
 S. Dasgupta,  Jia Deng,  M. de Wergifosse,  M. Diedenhofen,  Hainam Do,  
 S. Ehlert,  Po-Tung Fang,  S. Fatehi,  Qingguo Feng,  T. Friedhoff,  
 J. Gayvert,  Qinghui Ge,  G. Gidofalvi,  M. Goldey,  J. Gomes,  
 C. Gonzalez-Espinoza,  S. Gulania,  A. Gunina,  M. W. D. Hanson-Heine,  
 P. H. P. Harbach,  A. W. Hauser,  M. F. Herbst,  M. Hernandez Vera,  
 M. Hodecker,  Z. C. Holden,  S. Houck,  Xunkun Huang,  Kerwin Hui,  
 B. C. Huynh,  M. Ivanov,  Hyunjun Ji,  Hanjie Jiang,  B. Kaduk,  S. Kaehler,  
 K. Khistyaev,  Jaehoon Kim,  P. Klunzinger,  Z. Koczor-Benda,  
 Joong Hoon Koh,  D. Kosenkov,  L. Koulias,  T. Kowalczyk,  C. M. Krauter,  
 K. Kue,  A. Kunitsa,  T. Kus,  A. Landau,  K. V. Lawler,  D. Lefrancois,  
 S. Lehtola,  Rain Li,  Yi-Pei Li,  Jiashu Liang,  M. Liebenthal,  
 Hung-Hsuan Lin,  You-Sheng Lin,  Fenglai Liu,  Kuan-Yu Liu,  
 M. Loipersberger,  A. Luenser,  A. Manjanath,  P. Manohar,  E. Mansoor,  
 S. F. Manzer,  Shan-Ping Mao,  A. V. Marenich,  T. Markovich,  S. Mason,  
 S. A. Maurer,  P. F. McLaughlin,  M. F. S. J. Menger,  J.-M. Mewes,  
 S. A. Mewes,  P. Morgante,  J. W. Mullinax,  K. J. Oosterbaan,  G. Paran,  
 Alexander C. Paul,  Suranjan K. Paul,  F. Pavosevic,  Zheng Pei,  S. Prager,  
 E. I. Proynov,  E. Ramos,  B. Rana,  A. E. Rask,  A. Rettig,  R. M. Richard,  
 F. Rob,  E. Rossomme,  T. Scheele,  M. Scheurer,  M. Schneider,  
 N. Sergueev,  S. M. Sharada,  W. Skomorowski,  D. W. Small,  C. J. Stein,  
 Yu-Chuan Su,  E. J. Sundstrom,  Zhen Tao,  J. Thirman,  T. Tsuchimochi,  
 N. M. Tubman,  S. P. Veccham,  O. Vydrov,  J. Wenzel,  J. Witte,  A. Yamada,  
 Kun Yao,  S. Yeganeh,  S. R. Yost,  A. Zech,  Igor Ying Zhang,  Xing Zhang,  
 Yu Zhang,  D. Zuev,  A. Aspuru-Guzik,  A. T. Bell,  N. A. Besley,  
 K. B. Bravaya,  B. R. Brooks,  D. Casanova,  Jeng-Da Chai,  S. Coriani,  
 C. J. Cramer,  A. E. DePrince, III,  R. A. DiStasio Jr.,  A. Dreuw,  
 B. D. Dunietz,  T. R. Furlani,  W. A. Goddard III,  S. Grimme,  
 S. Hammes-Schiffer,  T. Head-Gordon,  W. J. Hehre,  Chao-Ping Hsu,  
 T.-C. Jagau,  Yousung Jung,  A. Klamt,  Jing Kong,  D. S. Lambrecht,  
 WanZhen Liang,  N. J. Mayhall,  C. W. McCurdy,  J. B. Neaton,  
 C. Ochsenfeld,  J. A. Parkhill,  R. Peverati,  V. A. Rassolov,  Yihan Shao,  
 L. V. Slipchenko,  T. Stauch,  R. P. Steele,  J. E. Subotnik,  
 A. J. W. Thom,  A. Tkatchenko,  D. G. Truhlar,  T. Van Voorhis,  
 T. A. Wesolowski,  K. B. Whaley,  H. L. Woodcock III,  P. M. Zimmerman,  
 S. Faraji,  P. M. W. Gill,  M. Head-Gordon,  J. M. Herbert,  A. I. Krylov

 Additional authors for Version 5.4.1: 
 S. Kotaru,  Shaozhi Li,  Xiangyuan Li,  F. Matz,  A. Molle,  Haisheng Ren,  
 Yingli Su,  Hung-Yi Tsai,  C. Utku,  Fang Wang

 Contributors to earlier versions of Q-Chem not listed above: 
 R. D. Adamson,  B. Austin,  R. Baer,  J. Baker,  G. J. O. Beran,  
 K. Brandhorst,  S. T. Brown,  E. F. C. Byrd,  A. K. Chakraborty,  
 G. K. L. Chan,  Chun-Min Chang,  Yunqing Chen,  C.-L. Cheng,  
 Siu Hung Chien,  D. M. Chipman,  D. L. Crittenden,  H. Dachsel,  
 R. J. Doerksen,  A. D. Dutoi,  R. G. Edgar,  J. Fosso-Tande,  
 L. Fusti-Molnar,  D. Ghosh,  A. Ghysels,  A. Golubeva-Zadorozhnaya,  
 J. Gonthier,  M. S. Gordon,  S. R. Gwaltney,  G. Hawkins,  J. E. Herr,  
 A. Heyden,  S. Hirata,  E. G. Hohenstein,  G. Kedziora,  F. J. Keil,  
 C. Kelley,  Jihan Kim,  R. A. King,  R. Z. Khaliullin,  P. P. Korambath,  
 W. Kurlancheek,  A. Laurent,  A. M. Lee,  M. S. Lee,  S. V. Levchenko,  
 Ching Yeh Lin,  D. Liotard,  E. Livshits,  R. C. Lochan,  I. Lotan,  
 L. A. Martinez-Martinez,  P. E. Maslen,  N. Nair,  D. P. O'Neill,  
 D. Neuhauser,  E. Neuscamman,  C. M. Oana,  R. Olivares-Amaya,  R. Olson,  
 T. M. Perrine,  B. Peters,  P. A. Pieniazek,  A. Prociuk,  Y. M. Rhee,  
 J. Ritchie,  M. A. Rohrdanz,  E. Rosta,  N. J. Russ,  H. F. Schaefer III,  
 M. W. Schmidt,  N. E. Schultz,  S. Sharma,  N. Shenvi,  C. D. Sherrill,  
 A. C. Simmonett,  A. Sodt,  T. Stein,  D. Stuck,  K. S. Thanthiriwatte,  
 V. Vanovschi,  L. Vogt,  Tao Wang,  A. Warshel,  M. A. Watson,  
 C. F. Williams,  Q. Wu,  X. Xu,  Jun Yang,  W. Zhang,  Yan Zhao

 Please cite Q-Chem as follows:
 Y. Shao et al., Mol. Phys. 113, 184-215 (2015)
 DOI: 10.1080/00268976.2014.952696

 Q-Chem 5.4.1 for Intel X86 EM64T Linux

 Parts of Q-Chem use Armadillo 9.800.1 (Horizon Scraper).
 http://arma.sourceforge.net/

 Q-Chem begins on Mon Feb  5 12:38:32 2024  

 Host: 
0

     Scratch files written to /scratch/ari.fischer/qChem1912883.hpc-mn1/qchem97666//
 Aug1521 |scratch|qcdevops|jenkins|workspace|build_RNUM 8249   
 Processing $rem in /usr/local/qchem-5.4.1/config/preferences:
 Processing $rem in /home/ari.fischer/.qchemrc:
 Symmetry turned off for PCM/SM12/SMD calculation

 Checking the input file for inconsistencies... 	...done.

--------------------------------------------------------------
User input:
--------------------------------------------------------------
$molecule
0 1
C         1.8235784383   -0.0637334893    0.0002473030
O         2.3417852248    1.1510612460    0.0007760691
O         2.4376891661   -1.0978774708    0.0006843887
C         0.2881145663   -0.0022133723   -0.0008982110
O        -0.3258508336    1.0319556106   -0.0015152341
O        -0.2300177268   -1.2169567043   -0.0008235433
H         3.3109425424    1.0843720479    0.0015034206
H        -1.1991530757   -1.1507164572   -0.0014270296
$end

$rem
BASIS = def2-TZVPD
JOB_TYPE = SP
METHOD = wB97M-V
SCF_ALGORITHM = DIIS_GDM
MAX_SCF_CYCLES = 400
SCF_CONVERGENCE = 7
THRESH = 12
Solvent_method = SMD
$end
--------------------------------------------------------------
 ----------------------------------------------------------------
             Standard Nuclear Orientation (Angstroms)
    I     Atom           X                Y                Z
 ----------------------------------------------------------------
    1      C       1.8235784383    -0.0637334893     0.0002473030
    2      O       2.3417852248     1.1510612460     0.0007760691
    3      O       2.4376891661    -1.0978774708     0.0006843887
    4      C       0.2881145663    -0.0022133723    -0.0008982110
    5      O      -0.3258508336     1.0319556106    -0.0015152341
    6      O      -0.2300177268    -1.2169567043    -0.0008235433
    7      H       3.3109425424     1.0843720479     0.0015034206
    8      H      -1.1991530757    -1.1507164572    -0.0014270296
 ----------------------------------------------------------------
 Nuclear Repulsion Energy =         232.69010695 hartrees
 There are       23 alpha and       23 beta electrons
 Requested basis set is def2-TZVPD
 There are 92 shells and 252 basis functions

 Total QAlloc Memory Limit 288000 MB
 Mega-Array Size       188 MB
 MEM_STATIC part       192 MB
 
 Citation of the SMD model:
 Marenich, A.V.; Cramer, C.J.; Truhlar, D.G.
 J. Phys. Chem. B 2009, 113, 6378-6396.
 iSolventCode=           1
 Solvent: water                                                           
 
 vradii
            1           2           3           4           5           6
    1   1.8500000   1.5200000   1.5200000   1.8500000   1.5200000   1.5200000
            7           8
    1   1.2000000   1.2000000
 Changing PCM_VDW_RADII to SMD_RADIUS
 Discretize the solute cavity surface with Lebedev spheres
	Using 110 Lebedev grid points for each H atom
	Using 194 Lebedev grid points for other atoms
	Atomic van der Waals radii will be scaled by 1.20
 Remove points where switching function is < 1.0e-08
 Keep 774 surface tesserae and discard 610 interior tesserae
 Molecular Surface Area = 95.717 Angst**2

                       Distance Matrix (Angstroms)
             C (  1)   O (  2)   O (  3)   C (  4)   O (  5)   O (  6)
   O (  2)  1.320706
   O (  3)  1.202741  2.250983
   C (  4)  1.536696  2.355336  2.412707
   O (  5)  2.412589  2.670295  3.489032  1.202688
   O (  6)  2.355246  3.495952  2.670364  1.320630  2.250953
   H (  7)  1.878936  0.971449  2.350486  3.212190  3.637172  4.223094
   H (  8)  3.212233  4.223320  3.637227  1.879102  2.350896  0.971397
             H (  7)
   H (  8)  5.033547
 
 A cutoff of  1.0D-12 yielded   4099 shell pairs
 There are     31263 function pairs (     40859 Cartesian)
 Smallest overlap matrix eigenvalue = 5.45E-06

 Scale SEOQF with 1.000000e-01/1.000000e-01/1.000000e-01

 Standard Electronic Orientation quadrupole field applied
 Nucleus-field energy     =     0.0000000076 hartrees
 Guess from superposition of atomic densities
 Warning:  Energy on first SCF cycle will be non-variational
 SAD guess density has 46.000000 electrons

 -----------------------------------------------------------------------
  General SCF calculation program by
  Eric Jon Sundstrom, Paul Horn, Yuezhi Mao, Dmitri Zuev, Alec White,
  David Stuck, Shaama M.S., Shane Yost, Joonho Lee, David Small,
  Daniel Levine, Susi Lehtola, Hugh Burton, Evgeny Epifanovsky,
  Bang C. Huynh
 -----------------------------------------------------------------------
 Exchange:     0.1500 Hartree-Fock + 1.0000 wB97M-V + LR-HF
 Correlation:  1.0000 wB97M-V
 Using SG-2 standard quadrature grid
 Nonlocal Correlation:  VV10 with C = 0.0100 and b = 6.00 and scale = 1.00000
 Grid used for NLC:  SG-1 standard quadrature
 
 Citation of the SMD model:
 Marenich, A.V.; Cramer, C.J.; Truhlar, D.G.
 J. Phys. Chem. B 2009, 113, 6378-6396.
 iSolventCode=           1
 Solvent: water                                                           
 
 vradii
            1           2           3           4           5           6
    1   1.8500000   1.5200000   1.5200000   1.8500000   1.5200000   1.5200000
            7           8
    1   1.2000000   1.2000000
 using 4 threads for integral computing
 -------------------------------------------------------
 OpenMP Integral computing Module                
 Release: version 1.0, May 2013, Q-Chem Inc. Pittsburgh 
 -------------------------------------------------------
 -------------------------------------------------------
 OpenMP BLAS3 based DFT computing Module                
 Release: version 1.0, May 2013, Q-Chem Inc. Pittsburgh 
 -------------------------------------------------------
 A restricted SCF calculation will be
 performed using DIIS, GDM
 SCF converges when RMS gradient is below 1.0e-07
 ---------------------------------------
  Cycle       Energy         DIIS error
 ---------------------------------------
    1    -379.6074700324      3.27e-02  
    2    -378.2134181101      5.77e-03  Done DIIS. Switching to GDM
 ---------------------------------------
  Cycle       Energy        RMS Gradient
 ---------------------------------------
    1    -378.2134181101      2.01e-01   Descent step
    2    -378.4010962159      3.37e-02   Normal BFGS step
    3    -378.4138550106      2.13e-02   Normal BFGS step
    4    -378.4150402520      8.67e-03   Normal BFGS step
    5    -378.4158494317      6.36e-04   Normal BFGS step
    6    -378.4158588617      4.11e-04   Normal BFGS step
    7    -378.4158598676      1.74e-04   Normal BFGS step
    8    -378.4158599633      2.22e-05   Normal BFGS step
    9    -378.4158599723      9.44e-06   Normal BFGS step
   10    -378.4158599731      2.31e-06   Normal BFGS step
   11    -378.4158599731      3.08e-06   Normal BFGS step
   12    -378.4158599732      9.76e-08  Convergence criterion met
 ---------------------------------------
 SCF time:   CPU 357.13s  wall 91.00s 
(3)  G-ENP(liq) elect-nuc-pol free energy of system     -378.415859973 a.u.
(4)  G-CDS(liq) cavity-dispersion-solvent structure 
     free energy                                                5.8506 kcal/mol
(6)  G-S(liq) free energy of system                     -378.406536379 a.u.
 SCF   energy in the final basis set =     -378.4065363790
 Total energy in the final basis set =     -378.4065363790
 
 --------------------------------------------------------------
 
                    Orbital Energies (a.u.)
 --------------------------------------------------------------
 
 Alpha MOs
 -- Occupied --
-19.3993 -19.3993 -19.3524 -19.3524 -10.5108 -10.5107  -1.2787  -1.2533
 -1.1874  -1.1705  -0.8515  -0.7525  -0.6554  -0.6325  -0.6258  -0.6160
 -0.5606  -0.5571  -0.5187  -0.4618  -0.4578  -0.4490  -0.3948
 -- Virtual --
  0.0113   0.0347   0.0495   0.0674   0.0805   0.0879   0.1018   0.1078
  0.1089   0.1167   0.1371   0.1460   0.1556   0.1563   0.1708   0.1843
  0.1982   0.1996   0.2267   0.2542   0.2570   0.2817   0.2949   0.3014
  0.3136   0.3139   0.3267   0.3380   0.3496   0.3579   0.3580   0.3741
  0.3759   0.3801   0.3995   0.4024   0.4207   0.4240   0.4295   0.4381
  0.4453   0.4706   0.4773   0.4930   0.5077   0.5111   0.5269   0.5342
  0.5356   0.5558   0.5746   0.5895   0.6073   0.6278   0.6441   0.6483
  0.6492   0.6502   0.6639   0.6689   0.6724   0.6910   0.6969   0.7003
  0.7132   0.7708   0.7797   0.7853   0.8087   0.8220   0.8403   0.8508
  0.8736   0.8793   0.9223   0.9526   0.9531   0.9544   0.9640   0.9950
  1.0287   1.0311   1.0794   1.1176   1.1208   1.1386   1.1770   1.1881
  1.2546   1.2557   1.2663   1.2811   1.2998   1.3062   1.3692   1.4125
  1.5058   1.6460   1.6628   1.6663   1.6917   1.6970   1.7472   1.7717
  1.7956   1.8133   1.8195   1.8817   1.9153   1.9425   2.0308   2.0371
  2.0544   2.0728   2.1300   2.1798   2.1826   2.2543   2.2653   2.2697
  2.2929   2.3130   2.3340   2.3864   2.4235   2.4588   2.4759   2.5437
  2.6702   2.6731   2.6769   2.7156   2.7744   2.8492   2.8882   2.8947
  2.9638   3.0507   3.0538   3.0960   3.1164   3.1198   3.1556   3.1558
  3.2500   3.2568   3.3032   3.3150   3.3248   3.3391   3.3694   3.4137
  3.4420   3.5002   3.5017   3.5186   3.5419   3.5622   3.5940   3.6230
  3.7531   3.7618   3.7622   3.9170   3.9296   3.9916   4.1308   4.2111
  4.3694   4.5552   4.5880   4.6774   4.7935   4.9382   4.9974   5.2287
  5.2382   5.2753   5.3085   5.3099   5.3394   5.4151   5.4926   5.5222
  5.5793   5.5813   5.6216   5.6597   5.6986   5.8303   5.9843   5.9885
  6.0665   6.0872   6.2284   6.2802   6.3436   6.3475   6.4344   6.5349
  6.5353   6.5662   6.6188   6.6192   6.6478   6.6677   6.6817   6.7046
  6.8060   6.8410   6.8869   6.9107   6.9366   7.0074   7.0606   7.1092
  7.2313   7.3031   7.3398   7.3438   7.3883   7.5176   7.7172  23.7068
 23.8386  44.4969  44.5386  44.6212  44.9006
 --------------------------------------------------------------
 
          Ground-State Mulliken Net Atomic Charges

     Atom                 Charge (a.u.)
  ----------------------------------------
      1 C                     0.591209
      2 O                    -0.405975
      3 O                    -0.605341
      4 C                     0.591150
      5 O                    -0.605273
      6 O                    -0.405944
      7 H                     0.420099
      8 H                     0.420076
  ----------------------------------------
  Sum of atomic charges =     0.000000

 -----------------------------------------------------------------
                    Cartesian Multipole Moments
 -----------------------------------------------------------------
    Charge (ESU x 10^10)
                -0.0000
    Dipole Moment (Debye)
         X      -0.0010      Y      -0.0011      Z       0.0007
       Tot       0.0017
    Quadrupole Moments (Debye-Ang)
        XX     -23.7135     XY      11.6924     YY     -40.7428
        XZ       0.0053     YZ       0.0091     ZZ     -32.2243
    Octopole Moments (Debye-Ang^2)
       XXX     -75.1172    XXY      25.4687    XYY     -43.7970
       YYY       4.0251    XXZ       0.0229    XYZ       0.0070
       YYZ       0.0110    XZZ     -34.0259    YZZ       1.0621
       ZZZ       0.0234
    Hexadecapole Moments (Debye-Ang^3)
      XXXX    -397.8581   XXXY     104.8074   XXYY    -128.1779
      XYYY      12.8750   YYYY    -224.6596   XXXZ       0.0032
      XXYZ       0.0538   XYYZ      -0.0191   YYYZ       0.0153
      XXZZ     -95.5298   XYZZ      -1.0335   YYZZ     -40.8867
      XZZZ      -0.0831   YZZZ       0.0045   ZZZZ     -27.8784
 -----------------------------------------------------------------
 Total job time:  91.96s(wall), 359.26s(cpu) 
 Mon Feb  5 12:40:04 2024

        *************************************************************
        *                                                           *
        *  Thank you very much for using Q-Chem.  Have a nice day.  *
        *                                                           *
        *************************************************************


