
Running Job 1 of 1 Q_in.in
qchem Q_in.in_204088.0 /scratch/ari.fischer/qChem1787768.hpc-mn1/qchem204088/ 0
/usr/local/qchem-5.4.1/exe/qcprog.exe_s Q_in.in_204088.0 /scratch/ari.fischer/qChem1787768.hpc-mn1/qchem204088/
                  Welcome to Q-Chem
     A Quantum Leap Into The Future Of Chemistry


 Q-Chem 5.4, Q-Chem, Inc., Pleasanton, CA (2021)

 License issued to: Nanyang Technological University (site)

 E. Epifanovsky,  A. T. B. Gilbert,  Xintian Feng,  Joonho Lee,  Yuezhi Mao,  
 N. Mardirossian,  P. Pokhilko,  A. White,  M. Wormit,  M. P. Coons,  
 A. L. Dempwolff,  Zhengting Gan,  D. Hait,  P. R. Horn,  L. D. Jacobson,  
 I. Kaliman,  J. Kussmann,  A. W. Lange,  Ka Un Lao,  D. S. Levine,  Jie Liu,  
 S. C. McKenzie,  A. F. Morrison,  K. Nanda,  F. Plasser,  D. R. Rehn,  
 M. L. Vidal,  Zhi-Qiang You,  Ying Zhu,  B. Alam,  B. Albrecht,  
 A. Aldossary,  E. Alguire,  J. H. Andersen,  D. Barton,  K. Begam,  A. Behn,  
 Y. A. Bernard,  E. J. Berquist,  H. Burton,  A. Carreras,  K. Carter-Fenk,  
 R. Chakraborty,  A. D. Chien,  K. D. Closser,  V. Cofer-Shabica,  
 S. Dasgupta,  Jia Deng,  M. de Wergifosse,  M. Diedenhofen,  Hainam Do,  
 S. Ehlert,  Po-Tung Fang,  S. Fatehi,  Qingguo Feng,  T. Friedhoff,  
 J. Gayvert,  Qinghui Ge,  G. Gidofalvi,  M. Goldey,  J. Gomes,  
 C. Gonzalez-Espinoza,  S. Gulania,  A. Gunina,  M. W. D. Hanson-Heine,  
 P. H. P. Harbach,  A. W. Hauser,  M. F. Herbst,  M. Hernandez Vera,  
 M. Hodecker,  Z. C. Holden,  S. Houck,  Xunkun Huang,  Kerwin Hui,  
 B. C. Huynh,  M. Ivanov,  Hyunjun Ji,  Hanjie Jiang,  B. Kaduk,  S. Kaehler,  
 K. Khistyaev,  Jaehoon Kim,  P. Klunzinger,  Z. Koczor-Benda,  
 Joong Hoon Koh,  D. Kosenkov,  L. Koulias,  T. Kowalczyk,  C. M. Krauter,  
 K. Kue,  A. Kunitsa,  T. Kus,  A. Landau,  K. V. Lawler,  D. Lefrancois,  
 S. Lehtola,  Rain Li,  Yi-Pei Li,  Jiashu Liang,  M. Liebenthal,  
 Hung-Hsuan Lin,  You-Sheng Lin,  Fenglai Liu,  Kuan-Yu Liu,  
 M. Loipersberger,  A. Luenser,  A. Manjanath,  P. Manohar,  E. Mansoor,  
 S. F. Manzer,  Shan-Ping Mao,  A. V. Marenich,  T. Markovich,  S. Mason,  
 S. A. Maurer,  P. F. McLaughlin,  M. F. S. J. Menger,  J.-M. Mewes,  
 S. A. Mewes,  P. Morgante,  J. W. Mullinax,  K. J. Oosterbaan,  G. Paran,  
 Alexander C. Paul,  Suranjan K. Paul,  F. Pavosevic,  Zheng Pei,  S. Prager,  
 E. I. Proynov,  E. Ramos,  B. Rana,  A. E. Rask,  A. Rettig,  R. M. Richard,  
 F. Rob,  E. Rossomme,  T. Scheele,  M. Scheurer,  M. Schneider,  
 N. Sergueev,  S. M. Sharada,  W. Skomorowski,  D. W. Small,  C. J. Stein,  
 Yu-Chuan Su,  E. J. Sundstrom,  Zhen Tao,  J. Thirman,  T. Tsuchimochi,  
 N. M. Tubman,  S. P. Veccham,  O. Vydrov,  J. Wenzel,  J. Witte,  A. Yamada,  
 Kun Yao,  S. Yeganeh,  S. R. Yost,  A. Zech,  Igor Ying Zhang,  Xing Zhang,  
 Yu Zhang,  D. Zuev,  A. Aspuru-Guzik,  A. T. Bell,  N. A. Besley,  
 K. B. Bravaya,  B. R. Brooks,  D. Casanova,  Jeng-Da Chai,  S. Coriani,  
 C. J. Cramer,  A. E. DePrince, III,  R. A. DiStasio Jr.,  A. Dreuw,  
 B. D. Dunietz,  T. R. Furlani,  W. A. Goddard III,  S. Grimme,  
 S. Hammes-Schiffer,  T. Head-Gordon,  W. J. Hehre,  Chao-Ping Hsu,  
 T.-C. Jagau,  Yousung Jung,  A. Klamt,  Jing Kong,  D. S. Lambrecht,  
 WanZhen Liang,  N. J. Mayhall,  C. W. McCurdy,  J. B. Neaton,  
 C. Ochsenfeld,  J. A. Parkhill,  R. Peverati,  V. A. Rassolov,  Yihan Shao,  
 L. V. Slipchenko,  T. Stauch,  R. P. Steele,  J. E. Subotnik,  
 A. J. W. Thom,  A. Tkatchenko,  D. G. Truhlar,  T. Van Voorhis,  
 T. A. Wesolowski,  K. B. Whaley,  H. L. Woodcock III,  P. M. Zimmerman,  
 S. Faraji,  P. M. W. Gill,  M. Head-Gordon,  J. M. Herbert,  A. I. Krylov

 Additional authors for Version 5.4.1: 
 S. Kotaru,  Shaozhi Li,  Xiangyuan Li,  F. Matz,  A. Molle,  Haisheng Ren,  
 Yingli Su,  Hung-Yi Tsai,  C. Utku,  Fang Wang

 Contributors to earlier versions of Q-Chem not listed above: 
 R. D. Adamson,  B. Austin,  R. Baer,  J. Baker,  G. J. O. Beran,  
 K. Brandhorst,  S. T. Brown,  E. F. C. Byrd,  A. K. Chakraborty,  
 G. K. L. Chan,  Chun-Min Chang,  Yunqing Chen,  C.-L. Cheng,  
 Siu Hung Chien,  D. M. Chipman,  D. L. Crittenden,  H. Dachsel,  
 R. J. Doerksen,  A. D. Dutoi,  R. G. Edgar,  J. Fosso-Tande,  
 L. Fusti-Molnar,  D. Ghosh,  A. Ghysels,  A. Golubeva-Zadorozhnaya,  
 J. Gonthier,  M. S. Gordon,  S. R. Gwaltney,  G. Hawkins,  J. E. Herr,  
 A. Heyden,  S. Hirata,  E. G. Hohenstein,  G. Kedziora,  F. J. Keil,  
 C. Kelley,  Jihan Kim,  R. A. King,  R. Z. Khaliullin,  P. P. Korambath,  
 W. Kurlancheek,  A. Laurent,  A. M. Lee,  M. S. Lee,  S. V. Levchenko,  
 Ching Yeh Lin,  D. Liotard,  E. Livshits,  R. C. Lochan,  I. Lotan,  
 L. A. Martinez-Martinez,  P. E. Maslen,  N. Nair,  D. P. O'Neill,  
 D. Neuhauser,  E. Neuscamman,  C. M. Oana,  R. Olivares-Amaya,  R. Olson,  
 T. M. Perrine,  B. Peters,  P. A. Pieniazek,  A. Prociuk,  Y. M. Rhee,  
 J. Ritchie,  M. A. Rohrdanz,  E. Rosta,  N. J. Russ,  H. F. Schaefer III,  
 M. W. Schmidt,  N. E. Schultz,  S. Sharma,  N. Shenvi,  C. D. Sherrill,  
 A. C. Simmonett,  A. Sodt,  T. Stein,  D. Stuck,  K. S. Thanthiriwatte,  
 V. Vanovschi,  L. Vogt,  Tao Wang,  A. Warshel,  M. A. Watson,  
 C. F. Williams,  Q. Wu,  X. Xu,  Jun Yang,  W. Zhang,  Yan Zhao

 Please cite Q-Chem as follows:
 Y. Shao et al., Mol. Phys. 113, 184-215 (2015)
 DOI: 10.1080/00268976.2014.952696

 Q-Chem 5.4.1 for Intel X86 EM64T Linux

 Parts of Q-Chem use Armadillo 9.800.1 (Horizon Scraper).
 http://arma.sourceforge.net/

 Q-Chem begins on Fri Sep 29 11:17:15 2023  

 Host: 
0

     Scratch files written to /scratch/ari.fischer/qChem1787768.hpc-mn1/qchem204088//
 Aug1521 |scratch|qcdevops|jenkins|workspace|build_RNUM 8249   
 Processing $rem in /usr/local/qchem-5.4.1/config/preferences:
 Processing $rem in /home/ari.fischer/.qchemrc:
 Symmetry turned off for PCM/SM12/SMD calculation


!!********************************************.
!!******************Warning*******************.
!!Desired Analytical derivatives not available.
!!Finite difference job might take a long time.
!!********************************************.
!!********************************************.


 2-order derivative to be evaluated numerically with 1-order analytical derivatives

 Checking the input file for inconsistencies... 	...done.

--------------------------------------------------------------
User input:
--------------------------------------------------------------
$molecule
-2 1
C        -0.9046136640    1.8239517228   -0.1753730952
O        -0.7739698196    1.5716898312    1.0872241184
O        -0.9036886682    3.0480339418   -0.5938711580
O        -1.0341437483    0.8511518040   -1.0185559653
$end

$rem
BASIS = 6-311++G(2df,2p)
GUI = 2
JOB_TYPE = Frequency
METHOD = wB97M-V
SOLVENT_METHOD = SMD
SCF_ALGORITHM = DIIS_GDM
MAX_SCF_CYCLES = 400
SCF_CONVERGENCE = 7
THRESH = 12
$end
--------------------------------------------------------------
 ----------------------------------------------------------------
             Standard Nuclear Orientation (Angstroms)
    I     Atom           X                Y                Z
 ----------------------------------------------------------------
    1      C      -0.9046136640     1.8239517228    -0.1753730952
    2      O      -0.7739698196     1.5716898312     1.0872241184
    3      O      -0.9036886682     3.0480339418    -0.5938711580
    4      O      -1.0341437483     0.8511518040    -1.0185559653
 ----------------------------------------------------------------
 Nuclear Repulsion Energy =         104.22953363 hartrees
 There are       16 alpha and       16 beta electrons
 Requested basis set is 6-311++G(2df,2p)
 There are 32 shells and 136 basis functions

 Total QAlloc Memory Limit 288000 MB
 Mega-Array Size       188 MB
 MEM_STATIC part       192 MB
 
 Citation of the SMD model:
 Marenich, A.V.; Cramer, C.J.; Truhlar, D.G.
 J. Phys. Chem. B 2009, 113, 6378-6396.
 iSolventCode=           1
 Solvent: water                                                           
 
 vradii
            1           2           3           4
    1   1.8500000   1.5200000   1.5200000   1.5200000
 Changing PCM_VDW_RADII to SMD_RADIUS
 Discretize the solute cavity surface with Lebedev spheres
	Using 110 Lebedev grid points for each H atom
	Using 194 Lebedev grid points for other atoms
	Atomic van der Waals radii will be scaled by 1.20
 Remove points where switching function is < 1.0e-08
 Keep 505 surface tesserae and discard 271 interior tesserae
 Molecular Surface Area = 65.822 Angst**2

                       Distance Matrix (Angstroms)
             C (  1)   O (  2)   O (  3)
   O (  2)  1.294162
   O (  3)  1.293646  2.241094
   O (  4)  1.293861  2.240798  2.241354
 
 A cutoff of  1.0D-12 yielded    519 shell pairs
 There are      9549 function pairs (     12615 Cartesian)
 Smallest overlap matrix eigenvalue = 1.11E-03
 Guess from superposition of atomic densities
 Warning:  Energy on first SCF cycle will be non-variational
 SAD guess density has 30.000000 electrons

 -----------------------------------------------------------------------
  General SCF calculation program by
  Eric Jon Sundstrom, Paul Horn, Yuezhi Mao, Dmitri Zuev, Alec White,
  David Stuck, Shaama M.S., Shane Yost, Joonho Lee, David Small,
  Daniel Levine, Susi Lehtola, Hugh Burton, Evgeny Epifanovsky,
  Bang C. Huynh
 -----------------------------------------------------------------------
 Exchange:     0.1500 Hartree-Fock + 1.0000 wB97M-V + LR-HF
 Correlation:  1.0000 wB97M-V
 Using SG-2 standard quadrature grid
 Nonlocal Correlation:  VV10 with C = 0.0100 and b = 6.00 and scale = 1.00000
 Grid used for NLC:  SG-1 standard quadrature
 using 8 threads for integral computing
 -------------------------------------------------------
 OpenMP Integral computing Module                
 Release: version 1.0, May 2013, Q-Chem Inc. Pittsburgh 
 -------------------------------------------------------
 
 Citation of the SMD model:
 Marenich, A.V.; Cramer, C.J.; Truhlar, D.G.
 J. Phys. Chem. B 2009, 113, 6378-6396.
 iSolventCode=           1
 Solvent: water                                                           
 
 vradii
            1           2           3           4
    1   1.8500000   1.5200000   1.5200000   1.5200000
 -------------------------------------------------------
 OpenMP BLAS3 based DFT computing Module                
 Release: version 1.0, May 2013, Q-Chem Inc. Pittsburgh 
 -------------------------------------------------------
 A restricted SCF calculation will be
 performed using DIIS, GDM
 SCF converges when RMS gradient is below 1.0e-07
 ---------------------------------------
  Cycle       Energy         DIIS error
 ---------------------------------------
    1    -264.0607069564      4.04e-02  
    2    -263.8653331803      1.20e-02  
    3    -263.9172145514      1.20e-02  
    4    -264.1265370057      5.56e-04  Done DIIS. Switching to GDM
 ---------------------------------------
  Cycle       Energy        RMS Gradient
 ---------------------------------------
    1    -264.1265370057      6.35e-03   Normal BFGS step
    2    -264.1268092101      4.93e-03   Normal BFGS step
    3    -264.1270543981      8.69e-04   Normal BFGS step
    4    -264.1270577000      8.02e-04   Normal BFGS step
    5    -264.1270598309      4.90e-05   Normal BFGS step
    6    -264.1270598455      8.77e-06   Normal BFGS step
    7    -264.1270598461      6.89e-06   Normal BFGS step
    8    -264.1270598464      1.41e-06   Normal BFGS step
    9    -264.1270598464      3.75e-07   Normal BFGS step
   10    -264.1270598464      5.09e-08  Convergence criterion met
 ---------------------------------------
 SCF time:   CPU 83.06s  wall 18.00s 
(3)  G-ENP(liq) elect-nuc-pol free energy of system     -264.127059846 a.u.
(4)  G-CDS(liq) cavity-dispersion-solvent structure 
     free energy                                                3.9911 kcal/mol
(6)  G-S(liq) free energy of system                     -264.120699658 a.u.
 SCF   energy in the final basis set =     -264.1206996581
 Total energy in the final basis set =     -264.1206996581
 
 --------------------------------------------------------------
 
                    Orbital Energies (a.u.)
 --------------------------------------------------------------
 
 Alpha MOs
 -- Occupied --
-19.2484 -19.2484 -19.2483 -10.4372  -1.1530  -1.0296  -1.0293  -0.5882
 -0.5166  -0.5165  -0.5120  -0.3658  -0.3657  -0.3444  -0.3443  -0.2984
 -- Virtual --
  0.0648   0.0963   0.0967   0.0971   0.1965   0.2258   0.2259   0.2369
  0.2596   0.2598   0.3107   0.3139   0.3313   0.3314   0.3439   0.3772
  0.3773   0.4444   0.6191   0.6197   0.6873   0.7768   0.7769   0.8212
  0.9145   0.9148   1.0763   1.1288   1.1289   1.1410   1.1715   1.1716
  1.2077   1.2079   1.2592   1.2592   1.4206   1.4209   1.6626   1.6630
  1.6682   1.6684   1.6712   1.6845   1.8399   1.8404   1.9793   1.9849
  2.0105   2.2847   2.2851   2.4738   2.4742   2.5375   2.8154   2.8154
  2.8976   3.1106   3.1109   3.2888   3.2889   3.4904   3.4906   3.5065
  3.5680   3.5685   3.5885   3.8095   3.8406   4.0206   4.0214   5.1759
  5.1966   5.2038   5.2039   5.2086   5.2193   5.2193   5.2420   5.2421
  5.2611   5.2612   5.2930   5.3006   5.3311   5.3767   5.3772   5.5381
  5.5385   5.6367   5.6369   5.7051   6.0916   6.0918   6.1849   6.3046
  6.3046   6.4798   6.9471   7.0026   7.0027   7.0283   7.0286   7.0652
  7.1698   7.1710   7.1907   7.3642   7.4146   7.4150   7.5755   7.7708
  7.7710   7.8030   7.8411   7.8416  25.2606  50.6463  50.6465  50.6902
 --------------------------------------------------------------
 
          Ground-State Mulliken Net Atomic Charges

     Atom                 Charge (a.u.)
  ----------------------------------------
      1 C                     0.549133
      2 O                    -0.850242
      3 O                    -0.849113
      4 O                    -0.849778
  ----------------------------------------
  Sum of atomic charges =    -2.000000

 -----------------------------------------------------------------
                    Cartesian Multipole Moments
 -----------------------------------------------------------------
    Charge (ESU x 10^10)
                -9.6064
    Dipole Moment (Debye)
         X       8.6825      Y     -17.5139      Z       1.6775
       Tot      19.6198
    Quadrupole Moments (Debye-Ang)
        XX     -34.0919     XY      15.3342     YY     -71.1858
        XZ      -2.9593     YZ       3.1139     ZZ     -39.4125
    Octopole Moments (Debye-Ang^2)
       XXX      78.2731    XXY     -61.1853    XYY      63.0054
       YYY    -276.5989    XXZ       8.5453    XYZ      -4.7604
       YYZ      18.0764    XZZ      35.6771    YZZ     -68.3484
       ZZZ      15.1945
    Hexadecapole Moments (Debye-Ang^3)
      XXXX    -164.9993   XXXY     139.0453   XXYY    -172.3066
      XYYY     244.9612   YYYY   -1075.0703   XXXZ     -23.6876
      XXYZ      14.4235   XYYZ     -21.3215   YYYZ      78.9375
      XXZZ     -62.5636   XYZZ      60.7592   YYZZ    -174.1328
      XZZZ     -21.4159   YZZZ      26.1483   ZZZZ    -161.1095
 -----------------------------------------------------------------
 Calculating analytic gradient of the SCF energy
 Gradient of CDS energy
            1           2           3           4
    1   0.0000053  -0.0003556  -0.0000020   0.0003523
    2  -0.0000112   0.0006868  -0.0033170   0.0026414
    3   0.0000148  -0.0034403   0.0011346   0.0022909
 Gradient of SCF Energy
            1           2           3           4
    1   0.0000054  -0.0035402   0.0000923   0.0034426
    2   0.0002123   0.0067346  -0.0327030   0.0257561
    3  -0.0001112  -0.0332818   0.0110004   0.0223926
 Max gradient component =       3.328E-02
 RMS gradient           =       1.716E-02
 Computing fast CPCM-SWIG gradient
 Updating gradient with PCM contributions...
 -- total gradient after adding PCM contribution --
---------------------------------------------------
  Atom         X              Y              Z     
---------------------------------------------------
   1      -0.000012      -0.000007      -0.000000
   2       0.000053       0.000092      -0.000031
   3       0.000127      -0.000080      -0.000050
   4      -0.000169      -0.000005       0.000081
---------------------------------------------------
 Number of fixed atoms: 0
 Gradient time:  CPU 14.79 s  wall 3.24 s
 ######################################################
 ######################################################
 # Starting finite difference calculation for IDERIV  #
 Finite diff step size:  1.88973e-03 a.u.
 ----------------------------------------------------------------
             Standard Nuclear Orientation (Angstroms)
    I     Atom           X                Y                Z
 ----------------------------------------------------------------
    1      C      -0.9036136640     1.8239517228    -0.1753730952
    2      O      -0.7739698196     1.5716898312     1.0872241184
    3      O      -0.9036886682     3.0480339418    -0.5938711580
    4      O      -1.0341437483     0.8511518040    -1.0185559653
 ----------------------------------------------------------------
 Nuclear Repulsion Energy =         104.22953924 hartrees
 There are       16 alpha and       16 beta electrons
 Discretize the solute cavity surface with Lebedev spheres
	Using 110 Lebedev grid points for each H atom
	Using 194 Lebedev grid points for other atoms
	Atomic van der Waals radii will be scaled by 1.20
 Remove points where switching function is < 1.0e-08
 Keep 505 surface tesserae and discard 271 interior tesserae
 Molecular Surface Area = 65.822 Angst**2

                       Distance Matrix (Angstroms)
             C (  1)   O (  2)   O (  3)
   O (  2)  1.294062
   O (  3)  1.293645  2.241094
   O (  4)  1.293961  2.240798  2.241354
 
 Requested basis set is 6-311++G(2df,2p)
 There are 32 shells and 136 basis functions
 A cutoff of  1.0D-12 yielded    519 shell pairs
 There are      9549 function pairs (     12615 Cartesian)
 Smallest overlap matrix eigenvalue = 1.11E-03
 Guess MOs from SCF MO coefficient file

 -----------------------------------------------------------------------
  General SCF calculation program by
  Eric Jon Sundstrom, Paul Horn, Yuezhi Mao, Dmitri Zuev, Alec White,
  David Stuck, Shaama M.S., Shane Yost, Joonho Lee, David Small,
  Daniel Levine, Susi Lehtola, Hugh Burton, Evgeny Epifanovsky,
  Bang C. Huynh
 -----------------------------------------------------------------------
 Exchange:     0.1500 Hartree-Fock + 1.0000 wB97M-V + LR-HF
 Correlation:  1.0000 wB97M-V
 Using SG-2 standard quadrature grid
 Nonlocal Correlation:  VV10 with C = 0.0100 and b = 6.00 and scale = 1.00000
 Grid used for NLC:  SG-1 standard quadrature
 
 Citation of the SMD model:
 Marenich, A.V.; Cramer, C.J.; Truhlar, D.G.
 J. Phys. Chem. B 2009, 113, 6378-6396.
 iSolventCode=           1
 Solvent: water                                                           
 
 vradii
            1           2           3           4
    1   1.8500000   1.5200000   1.5200000   1.5200000
 -------------------------------------------------------
 OpenMP BLAS3 based DFT computing Module                
 Release: version 1.0, May 2013, Q-Chem Inc. Pittsburgh 
 -------------------------------------------------------
 A restricted SCF calculation will be
 performed using Roothaan-Hall, DIIS, GDM
 SCF converges when RMS gradient is below 1.0e-07
 ---------------------------------------
  Cycle       Energy         DIIS error
 ---------------------------------------
    1    -263.6993151864      8.91e-04  Roothaan Step
 ---------------------------------------
  Cycle       Energy         DIIS error
 ---------------------------------------
    1    -264.1175943451      1.36e-03  
    2    -264.1239753931      1.43e-03  Done DIIS. Switching to GDM
 ---------------------------------------
  Cycle       Energy        RMS Gradient
 ---------------------------------------
    1    -264.1239753931      2.05e-02   Normal BFGS step
    2    -264.1243407996      1.68e-02   Normal BFGS step
    3    -264.1270393267      2.01e-03   Normal BFGS step
    4    -264.1270506352      1.49e-03   Normal BFGS step
    5    -264.1270593329      1.09e-04   Normal BFGS step
    6    -264.1270593814      2.37e-05   Normal BFGS step
    7    -264.1270593827      2.07e-05   Normal BFGS step
    8    -264.1270593845      2.26e-06   Normal BFGS step
    9    -264.1270593845      2.43e-07   Normal BFGS step
   10    -264.1270593845      6.43e-08  Convergence criterion met
 ---------------------------------------
 SCF time:   CPU 80.72s  wall 16.00s 
(3)  G-ENP(liq) elect-nuc-pol free energy of system     -264.127059385 a.u.
(4)  G-CDS(liq) cavity-dispersion-solvent structure 
     free energy                                                3.9911 kcal/mol
(6)  G-S(liq) free energy of system                     -264.120699193 a.u.
 SCF   energy in the final basis set =     -264.1206991927
 Total energy in the final basis set =     -264.1206991927
 
 --------------------------------------------------------------
 
                    Orbital Energies (a.u.)
 --------------------------------------------------------------
 
 Alpha MOs
 -- Occupied --
-19.2484 -19.2484 -19.2483 -10.4372  -1.1530  -1.0296  -1.0293  -0.5882
 -0.5166  -0.5165  -0.5120  -0.3658  -0.3657  -0.3444  -0.3443  -0.2984
 -- Virtual --
  0.0648   0.0963   0.0967   0.0971   0.1965   0.2258   0.2259   0.2369
  0.2596   0.2598   0.3107   0.3139   0.3313   0.3314   0.3439   0.3772
  0.3773   0.4444   0.6191   0.6197   0.6873   0.7768   0.7769   0.8212
  0.9146   0.9148   1.0762   1.1289   1.1289   1.1410   1.1715   1.1716
  1.2077   1.2079   1.2592   1.2592   1.4206   1.4209   1.6626   1.6630
  1.6682   1.6684   1.6712   1.6845   1.8400   1.8404   1.9793   1.9849
  2.0105   2.2847   2.2851   2.4739   2.4742   2.5375   2.8154   2.8154
  2.8976   3.1106   3.1109   3.2888   3.2889   3.4904   3.4906   3.5065
  3.5680   3.5685   3.5885   3.8095   3.8406   4.0207   4.0213   5.1759
  5.1966   5.2038   5.2039   5.2086   5.2193   5.2193   5.2420   5.2421
  5.2610   5.2612   5.2930   5.3006   5.3311   5.3767   5.3772   5.5381
  5.5385   5.6367   5.6369   5.7052   6.0916   6.0919   6.1849   6.3045
  6.3046   6.4798   6.9471   7.0026   7.0027   7.0283   7.0286   7.0652
  7.1699   7.1708   7.1907   7.3642   7.4147   7.4150   7.5755   7.7708
  7.7710   7.8030   7.8411   7.8416  25.2606  50.6463  50.6465  50.6902
 --------------------------------------------------------------
 
          Ground-State Mulliken Net Atomic Charges

     Atom                 Charge (a.u.)
  ----------------------------------------
      1 C                     0.549138
      2 O                    -0.850094
      3 O                    -0.849116
      4 O                    -0.849928
  ----------------------------------------
  Sum of atomic charges =    -2.000000

 -----------------------------------------------------------------
                    Cartesian Multipole Moments
 -----------------------------------------------------------------
    Charge (ESU x 10^10)
                -9.6064
    Dipole Moment (Debye)
         X       8.6843      Y     -17.5133      Z       1.6791
       Tot      19.6203
    Quadrupole Moments (Debye-Ang)
        XX     -34.0952     XY      15.3369     YY     -71.1846
        XZ      -2.9610     YZ       3.1157     ZZ     -39.4124
    Octopole Moments (Debye-Ang^2)
       XXX      78.2612    XXY     -61.1904    XYY      63.0002
       YYY    -276.5956    XXZ       8.5479    XYZ      -4.7625
       YYZ      18.0801    XZZ      35.6673    YZZ     -68.3469
       ZZZ      15.2009
    Hexadecapole Moments (Debye-Ang^3)
      XXXX    -164.9456   XXXY     139.0221   XXYY    -172.2973
      XYYY     244.9115   YYYY   -1075.0619   XXXZ     -23.6884
      XXYZ      14.4268   XYYZ     -21.3202   YYYZ      78.9454
      XXZZ     -62.5463   XYZZ      60.7425   YYZZ    -174.1294
      XZZZ     -21.4199   YZZZ      26.1557   ZZZZ    -161.1084
 -----------------------------------------------------------------
 Calculating analytic gradient of the SCF energy
 Gradient of CDS energy
            1           2           3           4
    1  -0.0000017  -0.0003531   0.0000000   0.0003547
    2  -0.0000133   0.0006860  -0.0033170   0.0026443
    3   0.0000088  -0.0034366   0.0011345   0.0022933
 Gradient of SCF Energy
            1           2           3           4
    1   0.0001205  -0.0035808   0.0000584   0.0034019
    2   0.0002540   0.0067479  -0.0327038   0.0257019
    3   0.0000159  -0.0333548   0.0109976   0.0223413
 Max gradient component =       3.335E-02
 RMS gradient           =       1.716E-02
 Computing fast CPCM-SWIG gradient
 Updating gradient with PCM contributions...
 -- total gradient after adding PCM contribution --
---------------------------------------------------
  Atom         X              Y              Z     
---------------------------------------------------
   1       0.000504       0.000011       0.000064
   2      -0.000120       0.000100      -0.000068
   3      -0.000042      -0.000080      -0.000050
   4      -0.000341      -0.000030       0.000053
---------------------------------------------------
 Number of fixed atoms: 0
 Gradient time:  CPU 16.77 s  wall 3.78 s
 ----------------------------------------------------------------
             Standard Nuclear Orientation (Angstroms)
    I     Atom           X                Y                Z
 ----------------------------------------------------------------
    1      C      -0.9056136640     1.8239517228    -0.1753730952
    2      O      -0.7739698196     1.5716898312     1.0872241184
    3      O      -0.9036886682     3.0480339418    -0.5938711580
    4      O      -1.0341437483     0.8511518040    -1.0185559653
 ----------------------------------------------------------------
 Nuclear Repulsion Energy =         104.22949355 hartrees
 There are       16 alpha and       16 beta electrons
 Discretize the solute cavity surface with Lebedev spheres
	Using 110 Lebedev grid points for each H atom
	Using 194 Lebedev grid points for other atoms
	Atomic van der Waals radii will be scaled by 1.20
 Remove points where switching function is < 1.0e-08
 Keep 505 surface tesserae and discard 271 interior tesserae
 Molecular Surface Area = 65.823 Angst**2

                       Distance Matrix (Angstroms)
             C (  1)   O (  2)   O (  3)
   O (  2)  1.294263
   O (  3)  1.293647  2.241094
   O (  4)  1.293761  2.240798  2.241354
 
 Requested basis set is 6-311++G(2df,2p)
 There are 32 shells and 136 basis functions
 A cutoff of  1.0D-12 yielded    519 shell pairs
 There are      9549 function pairs (     12615 Cartesian)
 Smallest overlap matrix eigenvalue = 1.11E-03
 Guess MOs from SCF MO coefficient file

 -----------------------------------------------------------------------
  General SCF calculation program by
  Eric Jon Sundstrom, Paul Horn, Yuezhi Mao, Dmitri Zuev, Alec White,
  David Stuck, Shaama M.S., Shane Yost, Joonho Lee, David Small,
  Daniel Levine, Susi Lehtola, Hugh Burton, Evgeny Epifanovsky,
  Bang C. Huynh
 -----------------------------------------------------------------------
 Exchange:     0.1500 Hartree-Fock + 1.0000 wB97M-V + LR-HF
 Correlation:  1.0000 wB97M-V
 Using SG-2 standard quadrature grid
 Nonlocal Correlation:  VV10 with C = 0.0100 and b = 6.00 and scale = 1.00000
 Grid used for NLC:  SG-1 standard quadrature
 
 Citation of the SMD model:
 Marenich, A.V.; Cramer, C.J.; Truhlar, D.G.
 J. Phys. Chem. B 2009, 113, 6378-6396.
 iSolventCode=           1
 Solvent: water                                                           
 
 vradii
            1           2           3           4
    1   1.8500000   1.5200000   1.5200000   1.5200000
 -------------------------------------------------------
 OpenMP BLAS3 based DFT computing Module                
 Release: version 1.0, May 2013, Q-Chem Inc. Pittsburgh 
 -------------------------------------------------------
 A restricted SCF calculation will be
 performed using Roothaan-Hall, DIIS, GDM
 SCF converges when RMS gradient is below 1.0e-07
 ---------------------------------------
  Cycle       Energy         DIIS error
 ---------------------------------------
    1    -263.6993112906      8.92e-04  Roothaan Step
 ---------------------------------------
  Cycle       Energy         DIIS error
 ---------------------------------------
    1    -264.1175937852      1.36e-03  
    2    -264.1239751175      1.43e-03  Done DIIS. Switching to GDM
 ---------------------------------------
  Cycle       Energy        RMS Gradient
 ---------------------------------------
    1    -264.1239751175      2.05e-02   Normal BFGS step
    2    -264.1243404943      1.63e-02   Normal BFGS step
    3    -264.1270392601      2.01e-03   Normal BFGS step
    4    -264.1270505688      1.49e-03   Normal BFGS step
    5    -264.1270592687      1.08e-04   Normal BFGS step
    6    -264.1270593170      2.36e-05   Normal BFGS step
    7    -264.1270593179      2.20e-05   Normal BFGS step
    8    -264.1270593206      1.33e-06   Normal BFGS step
    9    -264.1270593206      2.44e-07   Normal BFGS step
   10    -264.1270593206      3.24e-08  Convergence criterion met
 ---------------------------------------
 SCF time:   CPU 79.01s  wall 16.00s 
(3)  G-ENP(liq) elect-nuc-pol free energy of system     -264.127059321 a.u.
(4)  G-CDS(liq) cavity-dispersion-solvent structure 
     free energy                                                3.9911 kcal/mol
(6)  G-S(liq) free energy of system                     -264.120699149 a.u.
 SCF   energy in the final basis set =     -264.1206991490
 Total energy in the final basis set =     -264.1206991490
 
 --------------------------------------------------------------
 
                    Orbital Energies (a.u.)
 --------------------------------------------------------------
 
 Alpha MOs
 -- Occupied --
-19.2484 -19.2484 -19.2483 -10.4372  -1.1530  -1.0296  -1.0293  -0.5882
 -0.5166  -0.5165  -0.5120  -0.3658  -0.3657  -0.3444  -0.3443  -0.2984
 -- Virtual --
  0.0648   0.0963   0.0967   0.0971   0.1965   0.2258   0.2259   0.2369
  0.2596   0.2598   0.3107   0.3139   0.3313   0.3314   0.3439   0.3772
  0.3773   0.4444   0.6191   0.6197   0.6873   0.7768   0.7769   0.8212
  0.9145   0.9149   1.0763   1.1288   1.1289   1.1410   1.1715   1.1716
  1.2077   1.2079   1.2592   1.2592   1.4206   1.4209   1.6626   1.6630
  1.6682   1.6684   1.6712   1.6845   1.8399   1.8404   1.9793   1.9848
  2.0106   2.2846   2.2852   2.4738   2.4743   2.5375   2.8154   2.8154
  2.8976   3.1106   3.1110   3.2888   3.2889   3.4904   3.4906   3.5065
  3.5680   3.5685   3.5885   3.8095   3.8406   4.0205   4.0214   5.1759
  5.1966   5.2038   5.2039   5.2086   5.2192   5.2193   5.2420   5.2421
  5.2611   5.2612   5.2930   5.3006   5.3311   5.3766   5.3772   5.5381
  5.5385   5.6367   5.6369   5.7051   6.0916   6.0918   6.1848   6.3045
  6.3046   6.4798   6.9471   7.0026   7.0027   7.0283   7.0286   7.0652
  7.1697   7.1711   7.1907   7.3642   7.4146   7.4150   7.5754   7.7708
  7.7710   7.8029   7.8411   7.8416  25.2606  50.6463  50.6465  50.6902
 --------------------------------------------------------------
 
          Ground-State Mulliken Net Atomic Charges

     Atom                 Charge (a.u.)
  ----------------------------------------
      1 C                     0.549128
      2 O                    -0.850391
      3 O                    -0.849109
      4 O                    -0.849628
  ----------------------------------------
  Sum of atomic charges =    -2.000000

 -----------------------------------------------------------------
                    Cartesian Multipole Moments
 -----------------------------------------------------------------
    Charge (ESU x 10^10)
                -9.6064
    Dipole Moment (Debye)
         X       8.6807      Y     -17.5144      Z       1.6759
       Tot      19.6193
    Quadrupole Moments (Debye-Ang)
        XX     -34.0886     XY      15.3315     YY     -71.1870
        XZ      -2.9576     YZ       3.1120     ZZ     -39.4127
    Octopole Moments (Debye-Ang^2)
       XXX      78.2849    XXY     -61.1802    XYY      63.0107
       YYY    -276.6023    XXZ       8.5428    XYZ      -4.7584
       YYZ      18.0727    XZZ      35.6868    YZZ     -68.3498
       ZZZ      15.1882
    Hexadecapole Moments (Debye-Ang^3)
      XXXX    -165.0530   XXXY     139.0686   XXYY    -172.3159
      XYYY     245.0109   YYYY   -1075.0790   XXXZ     -23.6867
      XXYZ      14.4202   XYYZ     -21.3228   YYYZ      78.9297
      XXZZ     -62.5810   XYZZ      60.7759   YYZZ    -174.1363
      XZZZ     -21.4120   YZZZ      26.1409   ZZZZ    -161.1108
 -----------------------------------------------------------------
 Calculating analytic gradient of the SCF energy
 Gradient of CDS energy
            1           2           3           4
    1   0.0000124  -0.0003581  -0.0000041   0.0003498
    2  -0.0000091   0.0006876  -0.0033170   0.0026385
    3   0.0000208  -0.0034440   0.0011348   0.0022885
 Gradient of SCF Energy
            1           2           3           4
    1  -0.0001098  -0.0034994   0.0001261   0.0034831
    2   0.0001705   0.0067212  -0.0327018   0.0258101
    3  -0.0002383  -0.0332084   0.0110030   0.0224437
 Max gradient component =       3.321E-02
 RMS gradient           =       1.716E-02
 Computing fast CPCM-SWIG gradient
 Updating gradient with PCM contributions...
 -- total gradient after adding PCM contribution --
---------------------------------------------------
  Atom         X              Y              Z     
---------------------------------------------------
   1      -0.000527      -0.000026      -0.000065
   2       0.000227       0.000084       0.000006
   3       0.000296      -0.000079      -0.000050
   4       0.000004       0.000020       0.000109
---------------------------------------------------
 Number of fixed atoms: 0
 Gradient time:  CPU 14.62 s  wall 3.62 s
 ----------------------------------------------------------------
             Standard Nuclear Orientation (Angstroms)
    I     Atom           X                Y                Z
 ----------------------------------------------------------------
    1      C      -0.9046136640     1.8249517228    -0.1753730952
    2      O      -0.7739698196     1.5716898312     1.0872241184
    3      O      -0.9036886682     3.0480339418    -0.5938711580
    4      O      -1.0341437483     0.8511518040    -1.0185559653
 ----------------------------------------------------------------
 Nuclear Repulsion Energy =         104.22954016 hartrees
 There are       16 alpha and       16 beta electrons
 Discretize the solute cavity surface with Lebedev spheres
	Using 110 Lebedev grid points for each H atom
	Using 194 Lebedev grid points for other atoms
	Atomic van der Waals radii will be scaled by 1.20
 Remove points where switching function is < 1.0e-08
 Keep 505 surface tesserae and discard 271 interior tesserae
 Molecular Surface Area = 65.823 Angst**2

                       Distance Matrix (Angstroms)
             C (  1)   O (  2)   O (  3)
   O (  2)  1.294357
   O (  3)  1.292699  2.241094
   O (  4)  1.294613  2.240798  2.241354
 
 Requested basis set is 6-311++G(2df,2p)
 There are 32 shells and 136 basis functions
 A cutoff of  1.0D-12 yielded    519 shell pairs
 There are      9549 function pairs (     12615 Cartesian)
 Smallest overlap matrix eigenvalue = 1.11E-03
 Guess MOs from SCF MO coefficient file

 -----------------------------------------------------------------------
  General SCF calculation program by
  Eric Jon Sundstrom, Paul Horn, Yuezhi Mao, Dmitri Zuev, Alec White,
  David Stuck, Shaama M.S., Shane Yost, Joonho Lee, David Small,
  Daniel Levine, Susi Lehtola, Hugh Burton, Evgeny Epifanovsky,
  Bang C. Huynh
 -----------------------------------------------------------------------
 Exchange:     0.1500 Hartree-Fock + 1.0000 wB97M-V + LR-HF
 Correlation:  1.0000 wB97M-V
 Using SG-2 standard quadrature grid
 Nonlocal Correlation:  VV10 with C = 0.0100 and b = 6.00 and scale = 1.00000
 Grid used for NLC:  SG-1 standard quadrature
 
 Citation of the SMD model:
 Marenich, A.V.; Cramer, C.J.; Truhlar, D.G.
 J. Phys. Chem. B 2009, 113, 6378-6396.
 iSolventCode=           1
 Solvent: water                                                           
 
 vradii
            1           2           3           4
    1   1.8500000   1.5200000   1.5200000   1.5200000
 -------------------------------------------------------
 OpenMP BLAS3 based DFT computing Module                
 Release: version 1.0, May 2013, Q-Chem Inc. Pittsburgh 
 -------------------------------------------------------
 A restricted SCF calculation will be
 performed using Roothaan-Hall, DIIS, GDM
 SCF converges when RMS gradient is below 1.0e-07
 ---------------------------------------
  Cycle       Energy         DIIS error
 ---------------------------------------
    1    -263.6993116594      8.92e-04  Roothaan Step
 ---------------------------------------
  Cycle       Energy         DIIS error
 ---------------------------------------
    1    -264.1175929513      1.36e-03  
    2    -264.1239740542      1.43e-03  Done DIIS. Switching to GDM
 ---------------------------------------
  Cycle       Energy        RMS Gradient
 ---------------------------------------
    1    -264.1239740542      2.05e-02   Normal BFGS step
    2    -264.1243389260      1.70e-02   Normal BFGS step
    3    -264.1270386646      2.01e-03   Normal BFGS step
    4    -264.1270499611      1.49e-03   Normal BFGS step
    5    -264.1270587007      1.07e-04   Normal BFGS step
    6    -264.1270587448      5.45e-05   Normal BFGS step
    7    -264.1270587549      2.01e-05   Normal BFGS step
    8    -264.1270587581      1.34e-06   Normal BFGS step
    9    -264.1270587582      3.99e-07   Normal BFGS step
   10    -264.1270587582      8.48e-08  Convergence criterion met
 ---------------------------------------
 SCF time:   CPU 80.03s  wall 15.00s 
(3)  G-ENP(liq) elect-nuc-pol free energy of system     -264.127058758 a.u.
(4)  G-CDS(liq) cavity-dispersion-solvent structure 
     free energy                                                3.9910 kcal/mol
(6)  G-S(liq) free energy of system                     -264.120698649 a.u.
 SCF   energy in the final basis set =     -264.1206986487
 Total energy in the final basis set =     -264.1206986487
 
 --------------------------------------------------------------
 
                    Orbital Energies (a.u.)
 --------------------------------------------------------------
 
 Alpha MOs
 -- Occupied --
-19.2486 -19.2483 -19.2483 -10.4372  -1.1530  -1.0299  -1.0291  -0.5882
 -0.5166  -0.5165  -0.5120  -0.3658  -0.3656  -0.3445  -0.3442  -0.2984
 -- Virtual --
  0.0648   0.0963   0.0967   0.0971   0.1965   0.2258   0.2259   0.2369
  0.2596   0.2598   0.3107   0.3139   0.3313   0.3314   0.3439   0.3772
  0.3773   0.4444   0.6186   0.6202   0.6873   0.7768   0.7769   0.8212
  0.9143   0.9151   1.0762   1.1288   1.1289   1.1410   1.1714   1.1717
  1.2076   1.2080   1.2592   1.2592   1.4204   1.4211   1.6624   1.6631
  1.6681   1.6685   1.6712   1.6845   1.8397   1.8407   1.9793   1.9849
  2.0105   2.2844   2.2854   2.4734   2.4747   2.5375   2.8153   2.8155
  2.8976   3.1103   3.1112   3.2886   3.2891   3.4904   3.4905   3.5065
  3.5679   3.5686   3.5885   3.8095   3.8406   4.0201   4.0219   5.1759
  5.1966   5.2038   5.2040   5.2086   5.2191   5.2195   5.2420   5.2422
  5.2609   5.2613   5.2930   5.3006   5.3311   5.3766   5.3773   5.5380
  5.5386   5.6365   5.6371   5.7051   6.0914   6.0921   6.1848   6.3042
  6.3051   6.4798   6.9471   7.0026   7.0028   7.0283   7.0287   7.0652
  7.1684   7.1724   7.1907   7.3642   7.4144   7.4153   7.5755   7.7707
  7.7711   7.8030   7.8405   7.8422  25.2606  50.6460  50.6468  50.6902
 --------------------------------------------------------------
 
          Ground-State Mulliken Net Atomic Charges

     Atom                 Charge (a.u.)
  ----------------------------------------
      1 C                     0.549129
      2 O                    -0.850533
      3 O                    -0.847697
      4 O                    -0.850899
  ----------------------------------------
  Sum of atomic charges =    -2.000000

 -----------------------------------------------------------------
                    Cartesian Multipole Moments
 -----------------------------------------------------------------
    Charge (ESU x 10^10)
                -9.6064
    Dipole Moment (Debye)
         X       8.6831      Y     -17.4975      Z       1.6774
       Tot      19.6054
    Quadrupole Moments (Debye-Ang)
        XX     -34.0930     XY      15.3197     YY     -71.1200
        XZ      -2.9603     YZ       3.1019     ZZ     -39.4184
    Octopole Moments (Debye-Ang^2)
       XXX      78.2765    XXY     -61.1627    XYY      62.9458
       YYY    -276.3721    XXZ       8.5473    XYZ      -4.7514
       YYZ      18.0317    XZZ      35.6835    YZZ     -68.3452
       ZZZ      15.1974
    Hexadecapole Moments (Debye-Ang^3)
      XXXX    -165.0088   XXXY     139.0085   XXYY    -172.2109
      XYYY     244.7540   YYYY   -1074.2950   XXXZ     -23.6935
      XXYZ      14.4062   XYYZ     -21.2850   YYYZ      78.7825
      XXZZ     -62.5765   XYZZ      60.7570   YYZZ    -174.0987
      XZZZ     -21.4227   YZZZ      26.1140   ZZZZ    -161.1511
 -----------------------------------------------------------------
 Calculating analytic gradient of the SCF energy
 Gradient of CDS energy
            1           2           3           4
    1   0.0000033  -0.0003564  -0.0000021   0.0003552
    2  -0.0000722   0.0006892  -0.0032814   0.0026645
    3   0.0000149  -0.0034478   0.0011227   0.0023101
 Gradient of SCF Energy
            1           2           3           4
    1   0.0000468  -0.0035274   0.0000918   0.0033888
    2   0.0014743   0.0066456  -0.0334109   0.0252910
    3  -0.0001180  -0.0331455   0.0112222   0.0220414
 Max gradient component =       3.341E-02
 RMS gradient           =       1.717E-02
 Computing fast CPCM-SWIG gradient
 Updating gradient with PCM contributions...
 -- total gradient after adding PCM contribution --
---------------------------------------------------
  Atom         X              Y              Z     
---------------------------------------------------
   1       0.000006       0.001076      -0.000008
   2       0.000061      -0.000096       0.000040
   3       0.000127      -0.000591       0.000070
   4      -0.000194      -0.000389      -0.000101
---------------------------------------------------
 Number of fixed atoms: 0
 Gradient time:  CPU 15.57 s  wall 3.28 s
 ----------------------------------------------------------------
             Standard Nuclear Orientation (Angstroms)
    I     Atom           X                Y                Z
 ----------------------------------------------------------------
    1      C      -0.9046136640     1.8229517228    -0.1753730952
    2      O      -0.7739698196     1.5716898312     1.0872241184
    3      O      -0.9036886682     3.0480339418    -0.5938711580
    4      O      -1.0341437483     0.8511518040    -1.0185559653
 ----------------------------------------------------------------
 Nuclear Repulsion Energy =         104.22954466 hartrees
 There are       16 alpha and       16 beta electrons
 Discretize the solute cavity surface with Lebedev spheres
	Using 110 Lebedev grid points for each H atom
	Using 194 Lebedev grid points for other atoms
	Atomic van der Waals radii will be scaled by 1.20
 Remove points where switching function is < 1.0e-08
 Keep 505 surface tesserae and discard 271 interior tesserae
 Molecular Surface Area = 65.821 Angst**2

                       Distance Matrix (Angstroms)
             C (  1)   O (  2)   O (  3)
   O (  2)  1.293968
   O (  3)  1.294592  2.241094
   O (  4)  1.293109  2.240798  2.241354
 
 Requested basis set is 6-311++G(2df,2p)
 There are 32 shells and 136 basis functions
 A cutoff of  1.0D-12 yielded    519 shell pairs
 There are      9549 function pairs (     12615 Cartesian)
 Smallest overlap matrix eigenvalue = 1.11E-03
 Guess MOs from SCF MO coefficient file

 -----------------------------------------------------------------------
  General SCF calculation program by
  Eric Jon Sundstrom, Paul Horn, Yuezhi Mao, Dmitri Zuev, Alec White,
  David Stuck, Shaama M.S., Shane Yost, Joonho Lee, David Small,
  Daniel Levine, Susi Lehtola, Hugh Burton, Evgeny Epifanovsky,
  Bang C. Huynh
 -----------------------------------------------------------------------
 Exchange:     0.1500 Hartree-Fock + 1.0000 wB97M-V + LR-HF
 Correlation:  1.0000 wB97M-V
 Using SG-2 standard quadrature grid
 Nonlocal Correlation:  VV10 with C = 0.0100 and b = 6.00 and scale = 1.00000
 Grid used for NLC:  SG-1 standard quadrature
 
 Citation of the SMD model:
 Marenich, A.V.; Cramer, C.J.; Truhlar, D.G.
 J. Phys. Chem. B 2009, 113, 6378-6396.
 iSolventCode=           1
 Solvent: water                                                           
 
 vradii
            1           2           3           4
    1   1.8500000   1.5200000   1.5200000   1.5200000
 -------------------------------------------------------
 OpenMP BLAS3 based DFT computing Module                
 Release: version 1.0, May 2013, Q-Chem Inc. Pittsburgh 
 -------------------------------------------------------
 A restricted SCF calculation will be
 performed using Roothaan-Hall, DIIS, GDM
 SCF converges when RMS gradient is below 1.0e-07
 ---------------------------------------
  Cycle       Energy         DIIS error
 ---------------------------------------
    1    -263.6993089189      8.92e-04  Roothaan Step
 ---------------------------------------
  Cycle       Energy         DIIS error
 ---------------------------------------
    1    -264.1175931172      1.36e-03  
    2    -264.1239742722      1.43e-03  Done DIIS. Switching to GDM
 ---------------------------------------
  Cycle       Energy        RMS Gradient
 ---------------------------------------
    1    -264.1239742722      2.05e-02   Normal BFGS step
    2    -264.1243393333      1.70e-02   Normal BFGS step
    3    -264.1270386904      2.01e-03   Normal BFGS step
    4    -264.1270499935      1.49e-03   Normal BFGS step
    5    -264.1270587188      8.18e-05   Normal BFGS step
    6    -264.1270587646      3.79e-05   Normal BFGS step
    7    -264.1270587703      1.90e-05   Normal BFGS step
    8    -264.1270587745      1.35e-06   Normal BFGS step
    9    -264.1270587745      4.27e-07   Normal BFGS step
   10    -264.1270587745      1.07e-07   Normal BFGS step
   11    -264.1270587745      4.62e-08  Convergence criterion met
 ---------------------------------------
 SCF time:   CPU 84.84s  wall 16.00s 
(3)  G-ENP(liq) elect-nuc-pol free energy of system     -264.127058775 a.u.
(4)  G-CDS(liq) cavity-dispersion-solvent structure 
     free energy                                                3.9911 kcal/mol
(6)  G-S(liq) free energy of system                     -264.120698623 a.u.
 SCF   energy in the final basis set =     -264.1206986228
 Total energy in the final basis set =     -264.1206986228
 
 --------------------------------------------------------------
 
                    Orbital Energies (a.u.)
 --------------------------------------------------------------
 
 Alpha MOs
 -- Occupied --
-19.2485 -19.2483 -19.2483 -10.4372  -1.1530  -1.0297  -1.0292  -0.5882
 -0.5166  -0.5165  -0.5120  -0.3658  -0.3657  -0.3444  -0.3442  -0.2984
 -- Virtual --
  0.0648   0.0963   0.0967   0.0971   0.1965   0.2258   0.2259   0.2369
  0.2596   0.2598   0.3107   0.3139   0.3313   0.3314   0.3439   0.3772
  0.3773   0.4444   0.6189   0.6199   0.6873   0.7768   0.7769   0.8212
  0.9144   0.9149   1.0763   1.1288   1.1289   1.1410   1.1714   1.1716
  1.2077   1.2079   1.2592   1.2592   1.4206   1.4209   1.6627   1.6629
  1.6682   1.6684   1.6712   1.6845   1.8399   1.8404   1.9793   1.9849
  2.0105   2.2847   2.2851   2.4736   2.4745   2.5375   2.8153   2.8155
  2.8976   3.1105   3.1111   3.2886   3.2890   3.4903   3.4907   3.5065
  3.5681   3.5684   3.5885   3.8095   3.8406   4.0202   4.0217   5.1759
  5.1966   5.2038   5.2040   5.2086   5.2192   5.2194   5.2420   5.2421
  5.2611   5.2612   5.2930   5.3006   5.3311   5.3766   5.3773   5.5382
  5.5384   5.6366   5.6371   5.7052   6.0912   6.0922   6.1848   6.3041
  6.3050   6.4798   6.9471   7.0026   7.0027   7.0284   7.0286   7.0652
  7.1688   7.1720   7.1907   7.3642   7.4146   7.4151   7.5755   7.7707
  7.7711   7.8030   7.8410   7.8417  25.2606  50.6461  50.6467  50.6902
 --------------------------------------------------------------
 
          Ground-State Mulliken Net Atomic Charges

     Atom                 Charge (a.u.)
  ----------------------------------------
      1 C                     0.549136
      2 O                    -0.849952
      3 O                    -0.850528
      4 O                    -0.848657
  ----------------------------------------
  Sum of atomic charges =    -2.000000

 -----------------------------------------------------------------
                    Cartesian Multipole Moments
 -----------------------------------------------------------------
    Charge (ESU x 10^10)
                -9.6064
    Dipole Moment (Debye)
         X       8.6820      Y     -17.5302      Z       1.6775
       Tot      19.6342
    Quadrupole Moments (Debye-Ang)
        XX     -34.0908     XY      15.3488     YY     -71.2515
        XZ      -2.9583     YZ       3.1259     ZZ     -39.4067
    Octopole Moments (Debye-Ang^2)
       XXX      78.2696    XXY     -61.2079    XYY      63.0651
       YYY    -276.8256    XXZ       8.5434    XYZ      -4.7694
       YYZ      18.1210    XZZ      35.6707    YZZ     -68.3515
       ZZZ      15.1917
    Hexadecapole Moments (Debye-Ang^3)
      XXXX    -164.9899   XXXY     139.0822   XXYY    -172.4024
      XYYY     245.1682   YYYY   -1075.8454   XXXZ     -23.6817
      XXYZ      14.4409   XYYZ     -21.3580   YYYZ      79.0925
      XXZZ     -62.5507   XYZZ      60.7615   YYZZ    -174.1670
      XZZZ     -21.4092   YZZZ      26.1826   ZZZZ    -161.0681
 -----------------------------------------------------------------
 Calculating analytic gradient of the SCF energy
 Gradient of CDS energy
            1           2           3           4
    1   0.0000074  -0.0003548  -0.0000020   0.0003494
    2   0.0000500   0.0006844  -0.0033530   0.0026186
    3   0.0000144  -0.0034329   0.0011466   0.0022718
 Gradient of SCF Energy
            1           2           3           4
    1  -0.0000364  -0.0035530   0.0000927   0.0034967
    2  -0.0010469   0.0068234  -0.0319997   0.0262232
    3  -0.0001087  -0.0334176   0.0107804   0.0227459
 Max gradient component =       3.342E-02
 RMS gradient           =       1.716E-02
 Computing fast CPCM-SWIG gradient
 Updating gradient with PCM contributions...
 -- total gradient after adding PCM contribution --
---------------------------------------------------
  Atom         X              Y              Z     
---------------------------------------------------
   1      -0.000030      -0.001088       0.000003
   2       0.000045       0.000280      -0.000102
   3       0.000127       0.000426      -0.000167
   4      -0.000142       0.000381       0.000266
---------------------------------------------------
 Number of fixed atoms: 0
 Gradient time:  CPU 15.69 s  wall 3.00 s
 ----------------------------------------------------------------
             Standard Nuclear Orientation (Angstroms)
    I     Atom           X                Y                Z
 ----------------------------------------------------------------
    1      C      -0.9046136640     1.8239517228    -0.1743730952
    2      O      -0.7739698196     1.5716898312     1.0872241184
    3      O      -0.9036886682     3.0480339418    -0.5938711580
    4      O      -1.0341437483     0.8511518040    -1.0185559653
 ----------------------------------------------------------------
 Nuclear Repulsion Energy =         104.22954005 hartrees
 There are       16 alpha and       16 beta electrons
 Discretize the solute cavity surface with Lebedev spheres
	Using 110 Lebedev grid points for each H atom
	Using 194 Lebedev grid points for other atoms
	Atomic van der Waals radii will be scaled by 1.20
 Remove points where switching function is < 1.0e-08
 Keep 505 surface tesserae and discard 271 interior tesserae
 Molecular Surface Area = 65.822 Angst**2

                       Distance Matrix (Angstroms)
             C (  1)   O (  2)   O (  3)
   O (  2)  1.293187
   O (  3)  1.293969  2.241094
   O (  4)  1.294512  2.240798  2.241354
 
 Requested basis set is 6-311++G(2df,2p)
 There are 32 shells and 136 basis functions
 A cutoff of  1.0D-12 yielded    519 shell pairs
 There are      9549 function pairs (     12615 Cartesian)
 Smallest overlap matrix eigenvalue = 1.11E-03
 Guess MOs from SCF MO coefficient file

 -----------------------------------------------------------------------
  General SCF calculation program by
  Eric Jon Sundstrom, Paul Horn, Yuezhi Mao, Dmitri Zuev, Alec White,
  David Stuck, Shaama M.S., Shane Yost, Joonho Lee, David Small,
  Daniel Levine, Susi Lehtola, Hugh Burton, Evgeny Epifanovsky,
  Bang C. Huynh
 -----------------------------------------------------------------------
 Exchange:     0.1500 Hartree-Fock + 1.0000 wB97M-V + LR-HF
 Correlation:  1.0000 wB97M-V
 Using SG-2 standard quadrature grid
 Nonlocal Correlation:  VV10 with C = 0.0100 and b = 6.00 and scale = 1.00000
 Grid used for NLC:  SG-1 standard quadrature
 
 Citation of the SMD model:
 Marenich, A.V.; Cramer, C.J.; Truhlar, D.G.
 J. Phys. Chem. B 2009, 113, 6378-6396.
 iSolventCode=           1
 Solvent: water                                                           
 
 vradii
            1           2           3           4
    1   1.8500000   1.5200000   1.5200000   1.5200000
 -------------------------------------------------------
 OpenMP BLAS3 based DFT computing Module                
 Release: version 1.0, May 2013, Q-Chem Inc. Pittsburgh 
 -------------------------------------------------------
 A restricted SCF calculation will be
 performed using Roothaan-Hall, DIIS, GDM
 SCF converges when RMS gradient is below 1.0e-07
 ---------------------------------------
  Cycle       Energy         DIIS error
 ---------------------------------------
    1    -263.6993122780      8.92e-04  Roothaan Step
 ---------------------------------------
  Cycle       Energy         DIIS error
 ---------------------------------------
    1    -264.1175934020      1.36e-03  
    2    -264.1239743938      1.43e-03  Done DIIS. Switching to GDM
 ---------------------------------------
  Cycle       Energy        RMS Gradient
 ---------------------------------------
    1    -264.1239743938      2.05e-02   Normal BFGS step
    2    -264.1243394842      1.69e-02   Normal BFGS step
    3    -264.1270387328      2.01e-03   Normal BFGS step
    4    -264.1270500355      1.49e-03   Normal BFGS step
    5    -264.1270587552      9.55e-05   Normal BFGS step
    6    -264.1270588014      3.77e-05   Normal BFGS step
    7    -264.1270588055      2.37e-05   Normal BFGS step
    8    -264.1270588100      1.37e-06   Normal BFGS step
    9    -264.1270588100      4.27e-07   Normal BFGS step
   10    -264.1270588100      1.08e-07   Normal BFGS step
   11    -264.1270588100      3.50e-08  Convergence criterion met
 ---------------------------------------
 SCF time:   CPU 90.97s  wall 19.00s 
(3)  G-ENP(liq) elect-nuc-pol free energy of system     -264.127058810 a.u.
(4)  G-CDS(liq) cavity-dispersion-solvent structure 
     free energy                                                3.9911 kcal/mol
(6)  G-S(liq) free energy of system                     -264.120698651 a.u.
 SCF   energy in the final basis set =     -264.1206986510
 Total energy in the final basis set =     -264.1206986510
 
 --------------------------------------------------------------
 
                    Orbital Energies (a.u.)
 --------------------------------------------------------------
 
 Alpha MOs
 -- Occupied --
-19.2485 -19.2484 -19.2483 -10.4372  -1.1530  -1.0297  -1.0292  -0.5882
 -0.5166  -0.5166  -0.5120  -0.3658  -0.3657  -0.3444  -0.3443  -0.2984
 -- Virtual --
  0.0648   0.0963   0.0967   0.0971   0.1965   0.2258   0.2259   0.2369
  0.2596   0.2598   0.3107   0.3139   0.3313   0.3314   0.3439   0.3772
  0.3773   0.4444   0.6190   0.6198   0.6873   0.7768   0.7769   0.8212
  0.9145   0.9149   1.0763   1.1289   1.1289   1.1410   1.1714   1.1716
  1.2077   1.2079   1.2592   1.2592   1.4206   1.4209   1.6626   1.6630
  1.6682   1.6684   1.6712   1.6845   1.8400   1.8404   1.9793   1.9849
  2.0105   2.2847   2.2851   2.4737   2.4744   2.5375   2.8153   2.8155
  2.8976   3.1106   3.1110   3.2886   3.2890   3.4903   3.4907   3.5065
  3.5680   3.5686   3.5885   3.8095   3.8406   4.0206   4.0214   5.1759
  5.1966   5.2038   5.2039   5.2086   5.2192   5.2194   5.2420   5.2421
  5.2610   5.2613   5.2930   5.3006   5.3311   5.3768   5.3770   5.5382
  5.5384   5.6366   5.6370   5.7051   6.0912   6.0922   6.1848   6.3042
  6.3050   6.4798   6.9471   7.0026   7.0027   7.0283   7.0287   7.0652
  7.1692   7.1716   7.1907   7.3642   7.4146   7.4150   7.5755   7.7706
  7.7712   7.8030   7.8407   7.8420  25.2606  50.6461  50.6467  50.6902
 --------------------------------------------------------------
 
          Ground-State Mulliken Net Atomic Charges

     Atom                 Charge (a.u.)
  ----------------------------------------
      1 C                     0.549138
      2 O                    -0.848784
      3 O                    -0.849599
      4 O                    -0.850754
  ----------------------------------------
  Sum of atomic charges =    -2.000000

 -----------------------------------------------------------------
                    Cartesian Multipole Moments
 -----------------------------------------------------------------
    Charge (ESU x 10^10)
                -9.6064
    Dipole Moment (Debye)
         X       8.6841      Y     -17.5139      Z       1.6937
       Tot      19.6219
    Quadrupole Moments (Debye-Ang)
        XX     -34.0948     XY      15.3362     YY     -71.1950
        XZ      -2.9735     YZ       3.1377     ZZ     -39.4093
    Octopole Moments (Debye-Ang^2)
       XXX      78.2821    XXY     -61.1889    XYY      63.0177
       YYY    -276.6489    XXZ       8.5676    XYZ      -4.7809
       YYZ      18.1207    XZZ      35.6762    YZZ     -68.3405
       ZZZ      15.2212
    Hexadecapole Moments (Debye-Ang^3)
      XXXX    -165.0223   XXXY     139.0564   XXYY    -172.3303
      XYYY     245.0149   YYYY   -1075.3153   XXXZ     -23.7237
      XXYZ      14.4532   XYYZ     -21.3590   YYYZ      79.0194
      XXZZ     -62.5591   XYZZ      60.7549   YYZZ    -174.1143
      XZZZ     -21.4385   YZZZ      26.1805   ZZZZ    -161.0763
 -----------------------------------------------------------------
 Calculating analytic gradient of the SCF energy
 Gradient of CDS energy
            1           2           3           4
    1  -0.0000007  -0.0003519  -0.0000022   0.0003547
    2  -0.0000110   0.0006794  -0.0033290   0.0026606
    3  -0.0000458  -0.0034023   0.0011396   0.0023085
 Gradient of SCF Energy
            1           2           3           4
    1   0.0001300  -0.0036127   0.0000896   0.0033931
    2   0.0002062   0.0068709  -0.0324824   0.0254054
    3   0.0011386  -0.0340282   0.0108635   0.0220261
 Max gradient component =       3.403E-02
 RMS gradient           =       1.716E-02
 Computing fast CPCM-SWIG gradient
 Updating gradient with PCM contributions...
 -- total gradient after adding PCM contribution --
---------------------------------------------------
  Atom         X              Y              Z     
---------------------------------------------------
   1       0.000053      -0.000015       0.001067
   2       0.000016       0.000163      -0.000562
   3       0.000127       0.000038      -0.000256
   4      -0.000197      -0.000187      -0.000249
---------------------------------------------------
 Number of fixed atoms: 0
 Gradient time:  CPU 14.37 s  wall 3.39 s
 ----------------------------------------------------------------
             Standard Nuclear Orientation (Angstroms)
    I     Atom           X                Y                Z
 ----------------------------------------------------------------
    1      C      -0.9046136640     1.8239517228    -0.1763730952
    2      O      -0.7739698196     1.5716898312     1.0872241184
    3      O      -0.9036886682     3.0480339418    -0.5938711580
    4      O      -1.0341437483     0.8511518040    -1.0185559653
 ----------------------------------------------------------------
 Nuclear Repulsion Energy =         104.22954412 hartrees
 There are       16 alpha and       16 beta electrons
 Discretize the solute cavity surface with Lebedev spheres
	Using 110 Lebedev grid points for each H atom
	Using 194 Lebedev grid points for other atoms
	Atomic van der Waals radii will be scaled by 1.20
 Remove points where switching function is < 1.0e-08
 Keep 505 surface tesserae and discard 271 interior tesserae
 Molecular Surface Area = 65.822 Angst**2

                       Distance Matrix (Angstroms)
             C (  1)   O (  2)   O (  3)
   O (  2)  1.295138
   O (  3)  1.293322  2.241094
   O (  4)  1.293209  2.240798  2.241354
 
 Requested basis set is 6-311++G(2df,2p)
 There are 32 shells and 136 basis functions
 A cutoff of  1.0D-12 yielded    519 shell pairs
 There are      9549 function pairs (     12615 Cartesian)
 Smallest overlap matrix eigenvalue = 1.11E-03
 Guess MOs from SCF MO coefficient file

 -----------------------------------------------------------------------
  General SCF calculation program by
  Eric Jon Sundstrom, Paul Horn, Yuezhi Mao, Dmitri Zuev, Alec White,
  David Stuck, Shaama M.S., Shane Yost, Joonho Lee, David Small,
  Daniel Levine, Susi Lehtola, Hugh Burton, Evgeny Epifanovsky,
  Bang C. Huynh
 -----------------------------------------------------------------------
 Exchange:     0.1500 Hartree-Fock + 1.0000 wB97M-V + LR-HF
 Correlation:  1.0000 wB97M-V
 Using SG-2 standard quadrature grid
 Nonlocal Correlation:  VV10 with C = 0.0100 and b = 6.00 and scale = 1.00000
 Grid used for NLC:  SG-1 standard quadrature
 
 Citation of the SMD model:
 Marenich, A.V.; Cramer, C.J.; Truhlar, D.G.
 J. Phys. Chem. B 2009, 113, 6378-6396.
 iSolventCode=           1
 Solvent: water                                                           
 
 vradii
            1           2           3           4
    1   1.8500000   1.5200000   1.5200000   1.5200000
 -------------------------------------------------------
 OpenMP BLAS3 based DFT computing Module                
 Release: version 1.0, May 2013, Q-Chem Inc. Pittsburgh 
 -------------------------------------------------------
 A restricted SCF calculation will be
 performed using Roothaan-Hall, DIIS, GDM
 SCF converges when RMS gradient is below 1.0e-07
 ---------------------------------------
  Cycle       Energy         DIIS error
 ---------------------------------------
    1    -263.6993081105      8.92e-04  Roothaan Step
 ---------------------------------------
  Cycle       Energy         DIIS error
 ---------------------------------------
    1    -264.1175925480      1.36e-03  
    2    -264.1239736402      1.43e-03  Done DIIS. Switching to GDM
 ---------------------------------------
  Cycle       Energy        RMS Gradient
 ---------------------------------------
    1    -264.1239736402      2.05e-02   Normal BFGS step
    2    -264.1243382405      1.70e-02   Normal BFGS step
    3    -264.1270386439      2.00e-03   Normal BFGS step
    4    -264.1270499370      1.49e-03   Normal BFGS step
    5    -264.1270586947      1.01e-04   Normal BFGS step
    6    -264.1270587371      6.78e-05   Normal BFGS step
    7    -264.1270587526      1.66e-05   Normal BFGS step
    8    -264.1270587549      1.32e-06   Normal BFGS step
    9    -264.1270587549      6.93e-07   Normal BFGS step
   10    -264.1270587549      1.53e-07   Normal BFGS step
   11    -264.1270587549      5.04e-08  Convergence criterion met
 ---------------------------------------
 SCF time:   CPU 85.26s  wall 17.00s 
(3)  G-ENP(liq) elect-nuc-pol free energy of system     -264.127058755 a.u.
(4)  G-CDS(liq) cavity-dispersion-solvent structure 
     free energy                                                3.9910 kcal/mol
(6)  G-S(liq) free energy of system                     -264.120698652 a.u.
 SCF   energy in the final basis set =     -264.1206986519
 Total energy in the final basis set =     -264.1206986519
 
 --------------------------------------------------------------
 
                    Orbital Energies (a.u.)
 --------------------------------------------------------------
 
 Alpha MOs
 -- Occupied --
-19.2485 -19.2485 -19.2482 -10.4372  -1.1530  -1.0299  -1.0290  -0.5882
 -0.5166  -0.5165  -0.5120  -0.3658  -0.3656  -0.3445  -0.3442  -0.2984
 -- Virtual --
  0.0648   0.0963   0.0967   0.0971   0.1965   0.2257   0.2260   0.2369
  0.2596   0.2598   0.3107   0.3139   0.3313   0.3314   0.3439   0.3772
  0.3773   0.4444   0.6186   0.6202   0.6873   0.7767   0.7770   0.8212
  0.9143   0.9151   1.0762   1.1288   1.1289   1.1410   1.1714   1.1717
  1.2076   1.2080   1.2592   1.2592   1.4204   1.4211   1.6624   1.6631
  1.6681   1.6685   1.6712   1.6845   1.8396   1.8407   1.9793   1.9849
  2.0105   2.2844   2.2854   2.4733   2.4748   2.5375   2.8153   2.8154
  2.8976   3.1103   3.1113   3.2886   3.2891   3.4904   3.4905   3.5065
  3.5680   3.5685   3.5885   3.8095   3.8406   4.0199   4.0221   5.1759
  5.1966   5.2037   5.2040   5.2086   5.2191   5.2195   5.2420   5.2422
  5.2610   5.2613   5.2930   5.3006   5.3311   5.3765   5.3774   5.5380
  5.5386   5.6365   5.6372   5.7051   6.0914   6.0920   6.1848   6.3043
  6.3050   6.4798   6.9471   7.0026   7.0028   7.0283   7.0286   7.0652
  7.1682   7.1726   7.1907   7.3642   7.4144   7.4153   7.5755   7.7708
  7.7710   7.8030   7.8408   7.8420  25.2606  50.6459  50.6468  50.6902
 --------------------------------------------------------------
 
          Ground-State Mulliken Net Atomic Charges

     Atom                 Charge (a.u.)
  ----------------------------------------
      1 C                     0.549127
      2 O                    -0.851699
      3 O                    -0.848626
      4 O                    -0.848802
  ----------------------------------------
  Sum of atomic charges =    -2.000000

 -----------------------------------------------------------------
                    Cartesian Multipole Moments
 -----------------------------------------------------------------
    Charge (ESU x 10^10)
                -9.6064
    Dipole Moment (Debye)
         X       8.6809      Y     -17.5138      Z       1.6612
       Tot      19.6176
    Quadrupole Moments (Debye-Ang)
        XX     -34.0890     XY      15.3322     YY     -71.1766
        XZ      -2.9451     YZ       3.0901     ZZ     -39.4157
    Octopole Moments (Debye-Ang^2)
       XXX      78.2641    XXY     -61.1818    XYY      62.9932
       YYY    -276.5490    XXZ       8.5231    XYZ      -4.7399
       YYZ      18.0321    XZZ      35.6779    YZZ     -68.3562
       ZZZ      15.1679
    Hexadecapole Moments (Debye-Ang^3)
      XXXX    -164.9764   XXXY     139.0343   XXYY    -172.2830
      XYYY     244.9076   YYYY   -1074.8259   XXXZ     -23.6514
      XXYZ      14.3939   XYYZ     -21.2840   YYYZ      78.8558
      XXZZ     -62.5682   XYZZ      60.7635   YYZZ    -174.1513
      XZZZ     -21.3934   YZZZ      26.1162   ZZZZ    -161.1428
 -----------------------------------------------------------------
 Calculating analytic gradient of the SCF energy
 Gradient of CDS energy
            1           2           3           4
    1   0.0000114  -0.0003593  -0.0000019   0.0003499
    2  -0.0000115   0.0006943  -0.0033051   0.0026223
    3   0.0000756  -0.0034788   0.0011297   0.0022735
 Gradient of SCF Energy
            1           2           3           4
    1  -0.0001189  -0.0034683   0.0000949   0.0034923
    2   0.0002156   0.0065995  -0.0329237   0.0261087
    3  -0.0013568  -0.0325404   0.0111371   0.0227601
 Max gradient component =       3.292E-02
 RMS gradient           =       1.717E-02
 Computing fast CPCM-SWIG gradient
 Updating gradient with PCM contributions...
 -- total gradient after adding PCM contribution --
---------------------------------------------------
  Atom         X              Y              Z     
---------------------------------------------------
   1      -0.000076      -0.000003      -0.001064
   2       0.000089       0.000022       0.000494
   3       0.000127      -0.000198       0.000157
   4      -0.000140       0.000178       0.000413
---------------------------------------------------
 Number of fixed atoms: 0
 Gradient time:  CPU 15.91 s  wall 3.17 s
 ----------------------------------------------------------------
             Standard Nuclear Orientation (Angstroms)
    I     Atom           X                Y                Z
 ----------------------------------------------------------------
    1      C      -0.9046136640     1.8239517228    -0.1753730952
    2      O      -0.7729698196     1.5716898312     1.0872241184
    3      O      -0.9036886682     3.0480339418    -0.5938711580
    4      O      -1.0341437483     0.8511518040    -1.0185559653
 ----------------------------------------------------------------
 Nuclear Repulsion Energy =         104.22682061 hartrees
 There are       16 alpha and       16 beta electrons
 Discretize the solute cavity surface with Lebedev spheres
	Using 110 Lebedev grid points for each H atom
	Using 194 Lebedev grid points for other atoms
	Atomic van der Waals radii will be scaled by 1.20
 Remove points where switching function is < 1.0e-08
 Keep 505 surface tesserae and discard 271 interior tesserae
 Molecular Surface Area = 65.823 Angst**2

                       Distance Matrix (Angstroms)
             C (  1)   O (  2)   O (  3)
   O (  2)  1.294263
   O (  3)  1.293646  2.241152
   O (  4)  1.293861  2.240914  2.241354
 
 Requested basis set is 6-311++G(2df,2p)
 There are 32 shells and 136 basis functions
 A cutoff of  1.0D-12 yielded    519 shell pairs
 There are      9549 function pairs (     12615 Cartesian)
 Smallest overlap matrix eigenvalue = 1.11E-03
 Guess MOs from SCF MO coefficient file

 -----------------------------------------------------------------------
  General SCF calculation program by
  Eric Jon Sundstrom, Paul Horn, Yuezhi Mao, Dmitri Zuev, Alec White,
  David Stuck, Shaama M.S., Shane Yost, Joonho Lee, David Small,
  Daniel Levine, Susi Lehtola, Hugh Burton, Evgeny Epifanovsky,
  Bang C. Huynh
 -----------------------------------------------------------------------
 Exchange:     0.1500 Hartree-Fock + 1.0000 wB97M-V + LR-HF
 Correlation:  1.0000 wB97M-V
 Using SG-2 standard quadrature grid
 Nonlocal Correlation:  VV10 with C = 0.0100 and b = 6.00 and scale = 1.00000
 Grid used for NLC:  SG-1 standard quadrature
 
 Citation of the SMD model:
 Marenich, A.V.; Cramer, C.J.; Truhlar, D.G.
 J. Phys. Chem. B 2009, 113, 6378-6396.
 iSolventCode=           1
 Solvent: water                                                           
 
 vradii
            1           2           3           4
    1   1.8500000   1.5200000   1.5200000   1.5200000
 -------------------------------------------------------
 OpenMP BLAS3 based DFT computing Module                
 Release: version 1.0, May 2013, Q-Chem Inc. Pittsburgh 
 -------------------------------------------------------
 A restricted SCF calculation will be
 performed using Roothaan-Hall, DIIS, GDM
 SCF converges when RMS gradient is below 1.0e-07
 ---------------------------------------
  Cycle       Energy         DIIS error
 ---------------------------------------
    1    -263.6993159244      8.91e-04  Roothaan Step
 ---------------------------------------
  Cycle       Energy         DIIS error
 ---------------------------------------
    1    -264.1175933850      1.36e-03  
    2    -264.1239750201      1.43e-03  Done DIIS. Switching to GDM
 ---------------------------------------
  Cycle       Energy        RMS Gradient
 ---------------------------------------
    1    -264.1239750201      2.05e-02   Normal BFGS step
    2    -264.1243405984      1.66e-02   Normal BFGS step
    3    -264.1270389420      2.01e-03   Normal BFGS step
    4    -264.1270502551      1.49e-03   Normal BFGS step
    5    -264.1270589584      1.09e-04   Normal BFGS step
    6    -264.1270590071      2.31e-05   Normal BFGS step
    7    -264.1270590086      1.77e-05   Normal BFGS step
    8    -264.1270590099      2.96e-06   Normal BFGS step
    9    -264.1270590100      3.62e-07   Normal BFGS step
   10    -264.1270590100      7.64e-08  Convergence criterion met
 ---------------------------------------
 SCF time:   CPU 81.79s  wall 17.00s 
(3)  G-ENP(liq) elect-nuc-pol free energy of system     -264.127059010 a.u.
(4)  G-CDS(liq) cavity-dispersion-solvent structure 
     free energy                                                3.9907 kcal/mol
(6)  G-S(liq) free energy of system                     -264.120699496 a.u.
 SCF   energy in the final basis set =     -264.1206994963
 Total energy in the final basis set =     -264.1206994963
 
 --------------------------------------------------------------
 
                    Orbital Energies (a.u.)
 --------------------------------------------------------------
 
 Alpha MOs
 -- Occupied --
-19.2484 -19.2484 -19.2483 -10.4372  -1.1530  -1.0296  -1.0293  -0.5882
 -0.5166  -0.5165  -0.5120  -0.3658  -0.3657  -0.3444  -0.3443  -0.2984
 -- Virtual --
  0.0648   0.0963   0.0967   0.0971   0.1965   0.2258   0.2259   0.2369
  0.2596   0.2598   0.3107   0.3139   0.3313   0.3314   0.3439   0.3772
  0.3773   0.4444   0.6191   0.6196   0.6873   0.7768   0.7769   0.8212
  0.9145   0.9148   1.0762   1.1289   1.1289   1.1410   1.1715   1.1716
  1.2077   1.2079   1.2592   1.2592   1.4206   1.4209   1.6626   1.6629
  1.6682   1.6684   1.6712   1.6845   1.8399   1.8404   1.9793   1.9849
  2.0105   2.2847   2.2851   2.4738   2.4742   2.5374   2.8153   2.8154
  2.8976   3.1106   3.1109   3.2888   3.2889   3.4904   3.4905   3.5065
  3.5680   3.5685   3.5884   3.8094   3.8405   4.0205   4.0214   5.1759
  5.1966   5.2038   5.2039   5.2086   5.2192   5.2193   5.2420   5.2421
  5.2610   5.2612   5.2930   5.3006   5.3311   5.3766   5.3772   5.5381
  5.5384   5.6367   5.6369   5.7050   6.0915   6.0916   6.1848   6.3044
  6.3045   6.4797   6.9471   7.0026   7.0027   7.0283   7.0286   7.0652
  7.1696   7.1710   7.1907   7.3642   7.4146   7.4150   7.5752   7.7708
  7.7709   7.8029   7.8411   7.8416  25.2604  50.6462  50.6465  50.6902
 --------------------------------------------------------------
 
          Ground-State Mulliken Net Atomic Charges

     Atom                 Charge (a.u.)
  ----------------------------------------
      1 C                     0.549116
      2 O                    -0.850325
      3 O                    -0.849069
      4 O                    -0.849723
  ----------------------------------------
  Sum of atomic charges =    -2.000000

 -----------------------------------------------------------------
                    Cartesian Multipole Moments
 -----------------------------------------------------------------
    Charge (ESU x 10^10)
                -9.6064
    Dipole Moment (Debye)
         X       8.6787      Y     -17.5138      Z       1.6766
       Tot      19.6179
    Quadrupole Moments (Debye-Ang)
        XX     -34.0865     XY      15.3285     YY     -71.1851
        XZ      -2.9645     YZ       3.1127     ZZ     -39.4122
    Octopole Moments (Debye-Ang^2)
       XXX      78.2470    XXY     -61.1775    XYY      62.9903
       YYY    -276.5956    XXZ       8.5535    XYZ      -4.7692
       YYZ      18.0734    XZZ      35.6660    YZZ     -68.3478
       ZZZ      15.1912
    Hexadecapole Moments (Debye-Ang^3)
      XXXX    -164.9327   XXXY     139.0061   XXYY    -172.2856
      XYYY     244.9186   YYYY   -1075.0554   XXXZ     -23.7229
      XXYZ      14.4372   XYYZ     -21.3450   YYYZ      78.9291
      XXZZ     -62.5469   XYZZ      60.7417   YYZZ    -174.1311
      XZZZ     -21.4432   YZZZ      26.1438   ZZZZ    -161.1080
 -----------------------------------------------------------------
 Calculating analytic gradient of the SCF energy
 Gradient of CDS energy
            1           2           3           4
    1   0.0000078  -0.0003585  -0.0000018   0.0003525
    2  -0.0000120   0.0006876  -0.0033170   0.0026414
    3   0.0000185  -0.0034440   0.0011346   0.0022909
 Gradient of SCF Energy
            1           2           3           4
    1  -0.0000349  -0.0035391   0.0001121   0.0034619
    2   0.0002236   0.0067211  -0.0327022   0.0257574
    3  -0.0001815  -0.0332075   0.0109989   0.0223901
 Max gradient component =       3.321E-02
 RMS gradient           =       1.715E-02
 Computing fast CPCM-SWIG gradient
 Updating gradient with PCM contributions...
 -- total gradient after adding PCM contribution --
---------------------------------------------------
  Atom         X              Y              Z     
---------------------------------------------------
   1      -0.000185       0.000001      -0.000037
   2       0.000118       0.000084       0.000051
   3       0.000183      -0.000069      -0.000062
   4      -0.000116      -0.000015       0.000048
---------------------------------------------------
 Number of fixed atoms: 0
 Gradient time:  CPU 15.93 s  wall 3.25 s
 ----------------------------------------------------------------
             Standard Nuclear Orientation (Angstroms)
    I     Atom           X                Y                Z
 ----------------------------------------------------------------
    1      C      -0.9046136640     1.8239517228    -0.1753730952
    2      O      -0.7749698196     1.5716898312     1.0872241184
    3      O      -0.9036886682     3.0480339418    -0.5938711580
    4      O      -1.0341437483     0.8511518040    -1.0185559653
 ----------------------------------------------------------------
 Nuclear Repulsion Energy =         104.23222942 hartrees
 There are       16 alpha and       16 beta electrons
 Discretize the solute cavity surface with Lebedev spheres
	Using 110 Lebedev grid points for each H atom
	Using 194 Lebedev grid points for other atoms
	Atomic van der Waals radii will be scaled by 1.20
 Remove points where switching function is < 1.0e-08
 Keep 505 surface tesserae and discard 271 interior tesserae
 Molecular Surface Area = 65.821 Angst**2

                       Distance Matrix (Angstroms)
             C (  1)   O (  2)   O (  3)
   O (  2)  1.294062
   O (  3)  1.293646  2.241036
   O (  4)  1.293861  2.240682  2.241354
 
 Requested basis set is 6-311++G(2df,2p)
 There are 32 shells and 136 basis functions
 A cutoff of  1.0D-12 yielded    519 shell pairs
 There are      9549 function pairs (     12615 Cartesian)
 Smallest overlap matrix eigenvalue = 1.11E-03
 Guess MOs from SCF MO coefficient file

 -----------------------------------------------------------------------
  General SCF calculation program by
  Eric Jon Sundstrom, Paul Horn, Yuezhi Mao, Dmitri Zuev, Alec White,
  David Stuck, Shaama M.S., Shane Yost, Joonho Lee, David Small,
  Daniel Levine, Susi Lehtola, Hugh Burton, Evgeny Epifanovsky,
  Bang C. Huynh
 -----------------------------------------------------------------------
 Exchange:     0.1500 Hartree-Fock + 1.0000 wB97M-V + LR-HF
 Correlation:  1.0000 wB97M-V
 Using SG-2 standard quadrature grid
[...]
 Correlation:  1.0000 wB97M-V
 Using SG-2 standard quadrature grid
 Nonlocal Correlation:  VV10 with C = 0.0100 and b = 6.00 and scale = 1.00000
 Grid used for NLC:  SG-1 standard quadrature
 
 Citation of the SMD model:
 Marenich, A.V.; Cramer, C.J.; Truhlar, D.G.
 J. Phys. Chem. B 2009, 113, 6378-6396.
 iSolventCode=           1
 Solvent: water                                                           
 
 vradii
            1           2           3           4
    1   1.8500000   1.5200000   1.5200000   1.5200000
 -------------------------------------------------------
 OpenMP BLAS3 based DFT computing Module                
 Release: version 1.0, May 2013, Q-Chem Inc. Pittsburgh 
 -------------------------------------------------------
 A restricted SCF calculation will be
 performed using Roothaan-Hall, DIIS, GDM
 SCF converges when RMS gradient is below 1.0e-07
 ---------------------------------------
  Cycle       Energy         DIIS error
 ---------------------------------------
    1    -263.6993306994      8.91e-04  Roothaan Step
 ---------------------------------------
  Cycle       Energy         DIIS error
 ---------------------------------------
    1    -264.1175846963      1.36e-03  
    2    -264.1239711478      1.43e-03  Done DIIS. Switching to GDM
 ---------------------------------------
  Cycle       Energy        RMS Gradient
 ---------------------------------------
    1    -264.1239711478      2.06e-02   Normal BFGS step
    2    -264.1243386394      1.68e-02   Normal BFGS step
    3    -264.1270350398      2.01e-03   Normal BFGS step
    4    -264.1270463787      1.50e-03   Normal BFGS step
    5    -264.1270551365      1.10e-04   Normal BFGS step
    6    -264.1270551849      2.36e-05   Normal BFGS step
    7    -264.1270551857      2.23e-05   Normal BFGS step
    8    -264.1270551887      1.17e-06   Normal BFGS step
    9    -264.1270551887      2.34e-07   Normal BFGS step
   10    -264.1270551887      5.71e-08  Convergence criterion met
 ---------------------------------------
 SCF time:   CPU 78.99s  wall 15.00s 
(3)  G-ENP(liq) elect-nuc-pol free energy of system     -264.127055189 a.u.
(4)  G-CDS(liq) cavity-dispersion-solvent structure 
     free energy                                                3.9884 kcal/mol
(6)  G-S(liq) free energy of system                     -264.120699347 a.u.
 SCF   energy in the final basis set =     -264.1206993468
 Total energy in the final basis set =     -264.1206993468
 
 --------------------------------------------------------------
 
                    Orbital Energies (a.u.)
 --------------------------------------------------------------
 
 Alpha MOs
 -- Occupied --
-19.2485 -19.2484 -19.2484 -10.4373  -1.1529  -1.0295  -1.0293  -0.5883
 -0.5165  -0.5165  -0.5120  -0.3657  -0.3657  -0.3444  -0.3443  -0.2985
 -- Virtual --
  0.0648   0.0963   0.0967   0.0971   0.1964   0.2258   0.2259   0.2369
  0.2596   0.2598   0.3107   0.3139   0.3313   0.3314   0.3439   0.3772
  0.3773   0.4442   0.6190   0.6193   0.6873   0.7768   0.7769   0.8211
  0.9146   0.9147   1.0762   1.1289   1.1289   1.1410   1.1715   1.1715
  1.2078   1.2079   1.2592   1.2592   1.4206   1.4207   1.6627   1.6627
  1.6681   1.6682   1.6711   1.6845   1.8398   1.8400   1.9790   1.9847
  2.0103   2.2846   2.2848   2.4737   2.4741   2.5373   2.8150   2.8152
  2.8975   3.1106   3.1108   3.2889   3.2891   3.4900   3.4904   3.5065
  3.5681   3.5684   3.5882   3.8091   3.8402   4.0203   4.0210   5.1759
  5.1966   5.2038   5.2039   5.2086   5.2192   5.2193   5.2420   5.2420
  5.2609   5.2611   5.2930   5.3005   5.3310   5.3765   5.3769   5.5377
  5.5380   5.6364   5.6367   5.7044   6.0903   6.0913   6.1842   6.3033
  6.3041   6.4790   6.9470   7.0026   7.0026   7.0282   7.0284   7.0651
  7.1688   7.1704   7.1906   7.3641   7.4146   7.4147   7.5739   7.7703
  7.7709   7.8026   7.8411   7.8419  25.2594  50.6458  50.6463  50.6900
 --------------------------------------------------------------
 
          Ground-State Mulliken Net Atomic Charges

     Atom                 Charge (a.u.)
  ----------------------------------------
      1 C                     0.549020
      2 O                    -0.849838
      3 O                    -0.848879
      4 O                    -0.850304
  ----------------------------------------
  Sum of atomic charges =    -2.000000

 -----------------------------------------------------------------
                    Cartesian Multipole Moments
 -----------------------------------------------------------------
    Charge (ESU x 10^10)
                -9.6064
    Dipole Moment (Debye)
         X       8.6831      Y     -17.5106      Z       1.6856
       Tot      19.6178
    Quadrupole Moments (Debye-Ang)
        XX     -34.0944     XY      15.3322     YY     -71.1758
        XZ      -2.9668     YZ       3.1218     ZZ     -39.4192
    Octopole Moments (Debye-Ang^2)
       XXX      78.2802    XXY     -61.1827    XYY      62.9986
       YYY    -276.5638    XXZ       8.5640    XYZ      -4.7673
       YYZ      18.0935    XZZ      35.6852    YZZ     -68.3481
       ZZZ      15.2443
    Hexadecapole Moments (Debye-Ang^3)
      XXXX    -165.0177   XXXY     139.0436   XXYY    -172.2949
      XYYY     244.9346   YYYY   -1074.9479   XXXZ     -23.7283
      XXYZ      14.4401   XYYZ     -21.3369   YYYZ      78.9647
      XXZZ     -62.5877   XYZZ      60.7620   YYZZ    -174.1319
      XZZZ     -21.4640   YZZZ      26.1994   ZZZZ    -161.2055
 -----------------------------------------------------------------
 Calculating analytic gradient of the SCF energy
 Gradient of CDS energy
            1           2           3           4
    1   0.0000029  -0.0003556  -0.0000021   0.0003547
    2  -0.0000304   0.0006871  -0.0033171   0.0026604
    3  -0.0000028  -0.0034404   0.0011341   0.0023091
 Gradient of SCF Energy
            1           2           3           4
    1   0.0000532  -0.0035376   0.0000920   0.0033925
    2   0.0005244   0.0067602  -0.0326940   0.0254094
    3   0.0002601  -0.0332926   0.0109742   0.0220582
 Max gradient component =       3.329E-02
 RMS gradient           =       1.708E-02
 Computing fast CPCM-SWIG gradient
 Updating gradient with PCM contributions...
 -- total gradient after adding PCM contribution --
---------------------------------------------------
  Atom         X              Y              Z     
---------------------------------------------------
   1       0.000016       0.000175       0.000330
   2       0.000086       0.000186       0.000173
   3       0.000130      -0.000032      -0.000093
   4      -0.000232      -0.000329      -0.000410
---------------------------------------------------
 Number of fixed atoms: 0
 Gradient time:  CPU 16.87 s  wall 3.93 s
Dipole drv :
gprntSymmMtrx error report: 
 Final Hessian.
            1           2           3           4           5           6
    1   0.2728754   0.0096174   0.0343057  -0.0917585   0.0041662  -0.0195463
    2   0.0096174   0.5725648  -0.0031383   0.0043260  -0.0994378   0.0375811
    3   0.0343057  -0.0031383   0.5637704  -0.0193939   0.0373188  -0.2794284
    4  -0.0917585   0.0043260  -0.0193939   0.0343734  -0.0043787   0.0433717
    5   0.0041662  -0.0994378   0.0373188  -0.0043787   0.1256690  -0.0671798
    6  -0.0195463   0.0375811  -0.2794284   0.0433717  -0.0671798   0.4460553
    7  -0.0896299  -0.0002325   0.0001078   0.0294790   0.0062914  -0.0070269
    8  -0.0003890  -0.2692120   0.0623669   0.0054909  -0.0387216   0.0730033
    9   0.0000641   0.0625969  -0.1092598  -0.0067341   0.0797324  -0.0586163
   10  -0.0914869  -0.0137104  -0.0150186   0.0279061  -0.0060788  -0.0167989
   11  -0.0133940  -0.2039179  -0.0965418  -0.0054385   0.0124907  -0.0434064
   12  -0.0148246  -0.0970479  -0.1750880  -0.0172434  -0.0498701  -0.1080077
            7           8           9          10          11          12
    1  -0.0896299  -0.0003890   0.0000641  -0.0914869  -0.0133940  -0.0148246
    2  -0.0002325  -0.2692120   0.0625969  -0.0137104  -0.2039179  -0.0970479
    3   0.0001078   0.0623669  -0.1092598  -0.0150186  -0.0965418  -0.1750880
    4   0.0294790   0.0054909  -0.0067341   0.0279061  -0.0054385  -0.0172434
    5   0.0062914  -0.0387216   0.0797324  -0.0060788   0.0124907  -0.0498701
    6  -0.0070269   0.0730033  -0.0586163  -0.0167989  -0.0434064  -0.1080077
    7   0.0306851   0.0032313   0.0086487   0.0294657  -0.0092903  -0.0017295
    8   0.0032313   0.4280418  -0.1102361  -0.0083332  -0.1201064  -0.0251321
    9   0.0086487  -0.1102361   0.1451653  -0.0019789  -0.0320957   0.0227109
   10   0.0294657  -0.0083332  -0.0019789   0.0341151   0.0281223   0.0337969
   11  -0.0092903  -0.1201064  -0.0320957   0.0281223   0.3115344   0.1720489
   12  -0.0017295  -0.0251321   0.0227109   0.0337969   0.1720489   0.2603877
 ----------------------------------------------------------------
             Standard Nuclear Orientation (Angstroms)
    I     Atom           X                Y                Z
 ----------------------------------------------------------------
    1      C      -0.9046136640     1.8239517228    -0.1753730952
    2      O      -0.7739698196     1.5716898312     1.0872241184
    3      O      -0.9036886682     3.0480339418    -0.5938711580
    4      O      -1.0341437483     0.8511518040    -1.0185559653
 ----------------------------------------------------------------
 Nuclear Repulsion Energy =         104.22953363 hartrees
 There are       16 alpha and       16 beta electrons
 old dipole drv.
            1           2           3           4           5           6
    1   0.3815975   0.1128429   0.3389367  -0.8011443   0.0165491  -0.1737223
    2   0.1107834   3.4089573  -0.0110300   0.0167137  -1.1508571   0.2692687
    3   0.3355100  -0.0134114   3.3836234  -0.1742682   0.2722467  -2.4392515
            7           8           9          10          11          12
    1  -0.7819504  -0.0123563  -0.0350939  -0.7985059  -0.1170365  -0.1301062
    2  -0.0135519  -2.3627864   0.4300587  -0.1139562  -1.8952790  -0.6882209
    3  -0.0348492   0.4327389  -1.2487820  -0.1264040  -0.6915963  -1.6954875
 New transposed dipole drv.
            1           2           3
    1   0.3815975   0.1107834   0.3355100
    2   0.1128429   3.4089573  -0.0134114
    3   0.3389367  -0.0110300   3.3836234
    4  -0.8011443   0.0167137  -0.1742682
    5   0.0165491  -1.1508571   0.2722467
    6  -0.1737223   0.2692687  -2.4392515
    7  -0.7819504  -0.0135519  -0.0348492
    8  -0.0123563  -2.3627864   0.4327389
    9  -0.0350939   0.4300587  -1.2487820
   10  -0.7985059  -0.1139562  -0.1264040
   11  -0.1170365  -1.8952790  -0.6915963
   12  -0.1301062  -0.6882209  -1.6954875
FINAL TENSOR RESULT:
Order 2, Length 12
    Atom      X          Y          Z
     1 Order 1, Length 12
    Atom      X          Y          Z
     1    2.728753693025994e-01   9.617380947998282e-03   3.430572107859956e-02
     2   -9.175849025125014e-02   4.166203361455657e-03  -1.954625262806231e-02
     3   -8.962986040725547e-02  -3.890338730687632e-04   6.414725724602943e-05
     4   -9.148693101049146e-02  -1.339403545374817e-02  -1.482456767095288e-02

Order 1, Length 12
    Atom      X          Y          Z
     1    9.617380947998282e-03   5.725648299641376e-01  -3.138340843115888e-03
     2    4.326023606771499e-03  -9.943782017216682e-02   3.758105407606824e-02
     3   -2.325230402387839e-04  -2.692119694062205e-01   6.259692457910060e-02
     4   -1.371041318493258e-02  -2.039179319697736e-01  -9.704792976242835e-02

Order 1, Length 12
    Atom      X          Y          Z
     1    3.430572107859956e-02  -3.138340843115888e-03   5.637703638566726e-01
     2   -1.939385503970581e-02   3.731878926871940e-02  -2.794284044597162e-01
     3    1.077964014708180e-04   6.236694213128883e-02  -1.092597609810221e-01
     4   -1.501857014200027e-02  -9.654181969290995e-02  -1.750880145994038e-01


     2 Order 1, Length 12
    Atom      X          Y          Z
     1   -9.175849025125014e-02   4.326023606771499e-03  -1.939385503970581e-02
     2    3.437340891264556e-02  -4.378688508963190e-03   4.337168072555268e-02
     3    2.947904060522086e-02   5.490912739932305e-03  -6.734066648517782e-03
     4    2.790606377220466e-02  -5.438479034518587e-03  -1.724337927112901e-02

Order 1, Length 12
    Atom      X          Y          Z
     1    4.166203361455657e-03  -9.943782017216682e-02   3.731878926871940e-02
     2   -4.378688508963190e-03   1.256690299995943e-01  -6.717980259647427e-02
     3    6.291372082723997e-03  -3.872158155520751e-02   7.973239300817969e-02
     4   -6.078813783576036e-03   1.249066891966615e-02  -4.987014050592069e-02

Order 1, Length 12
    Atom      X          Y          Z
     1   -1.954625262806231e-02   3.758105407606824e-02  -2.794284044597162e-01
     2    4.337168072555268e-02  -6.717980259647427e-02   4.460552859562847e-01
     3   -7.026928514600685e-03   7.300329669353861e-02  -5.861634375892937e-02
     4   -1.679892181133201e-02  -4.340644610287109e-02  -1.080076882482693e-01


     3 Order 1, Length 12
    Atom      X          Y          Z
     1   -8.962986040725547e-02  -2.325230402387839e-04   1.077964014708180e-04
     2    2.947904060522086e-02   6.291372082723997e-03  -7.026928514600685e-03
     3    3.068509831137031e-02   3.231252296187305e-03   8.648684247605492e-03
     4    2.946567330365307e-02  -9.290304960613290e-03  -1.729474485816479e-03

Order 1, Length 12
    Atom      X          Y          Z
     1   -3.890338730687632e-04  -2.692119694062205e-01   6.236694213128883e-02
     2    5.490912739932305e-03  -3.872158155520751e-02   7.300329669353861e-02
     3    3.231252296187305e-03   4.280418278182248e-01  -1.102360583277276e-01
     4   -8.333168858313931e-03  -1.201064202895361e-01  -2.513208842841278e-02

Order 1, Length 12
    Atom      X          Y          Z
     1    6.414725724602943e-05   6.259692457910060e-02  -1.092597609810221e-01
     2   -6.734066648517782e-03   7.973239300817969e-02  -5.861634375892937e-02
     3    8.648684247605492e-03  -1.102360583277276e-01   1.451652806690065e-01
     4   -1.978863531529239e-03  -3.209569762242966e-02   2.271091651347054e-02


     4 Order 1, Length 12
    Atom      X          Y          Z
     1   -9.148693101049146e-02  -1.371041318493258e-02  -1.501857014200027e-02
     2    2.790606377220466e-02  -6.078813783576036e-03  -1.679892181133201e-02
     3    2.946567330365307e-02  -8.333168858313931e-03  -1.978863531529239e-03
     4    3.411513144834505e-02   2.812231566311713e-02   3.379685003388130e-02

Order 1, Length 12
    Atom      X          Y          Z
     1   -1.339403545374817e-02  -2.039179319697736e-01  -9.654181969290995e-02
     2   -5.438479034518587e-03   1.249066891966615e-02  -4.340644610287109e-02
     3   -9.290304960613290e-03  -1.201064202895361e-01  -3.209569762242966e-02
     4    2.812231566311713e-02   3.115344211236776e-01   1.720489241786431e-01

Order 1, Length 12
    Atom      X          Y          Z
     1   -1.482456767095288e-02  -9.704792976242835e-02  -1.750880145994038e-01
     2   -1.724337927112901e-02  -4.987014050592069e-02  -1.080076882482693e-01
     3   -1.729474485816479e-03  -2.513208842841278e-02   2.271091651347054e-02
     4    3.379685003388130e-02   1.720489241786431e-01   2.603876606205458e-01




 # Finishing finite difference calculation for IDERIV #
 ######################################################
 ######################################################
 Requested basis set is 6-311++G(2df,2p)
 There are 32 shells and 136 basis functions
 **********************************************************************
 **                                                                  **
 **                       VIBRATIONAL ANALYSIS                       **
 **                       --------------------                       **
 **                                                                  **
 **        VIBRATIONAL FREQUENCIES (CM**-1) AND NORMAL MODES         **
 **     FORCE CONSTANTS (mDYN/ANGSTROM) AND REDUCED MASSES (AMU)     **
 **                  INFRARED INTENSITIES (KM/MOL)                   **
 **                                                                  **
 **********************************************************************
 

 Mode:                 1                      2                      3
 Frequency:       665.49                 669.78                 859.89
 Force Cnst:      4.0672                 4.1228                 5.5031
 Red. Mass:      15.5870                15.5982                12.6321
 IR Active:          YES                    YES                    YES
 IR Intens:        9.108                  7.809                 55.639
 Raman Active:       YES                    YES                    YES
               X      Y      Z        X      Y      Z        X      Y      Z
 C         -0.029 -0.106 -0.300    0.017  0.296 -0.106    0.911 -0.035 -0.100
 O         -0.024  0.385 -0.329   -0.059 -0.480 -0.330   -0.226  0.012  0.035
 O          0.070  0.198  0.585   -0.004  0.439 -0.146   -0.229  0.000  0.023
 O         -0.025 -0.504 -0.030    0.050 -0.182  0.555   -0.229  0.014  0.017
 TransDip  -0.009 -0.033 -0.090    0.003  0.084 -0.031    0.237 -0.007 -0.030

 Mode:                 4                      5                      6
 Frequency:      1045.96                1297.21                1303.02
 Force Cnst:     10.3100                12.7870                12.8937
 Red. Mass:      15.9949                12.8974                12.8892
 IR Active:          YES                    YES                    YES
 IR Intens:        0.009               1564.003               1560.224
 Raman Active:       YES                    YES                    YES
               X      Y      Z        X      Y      Z        X      Y      Z
 C         -0.002  0.003 -0.001    0.105  0.269  0.832   -0.002  0.839 -0.272
 O          0.059 -0.114  0.564   -0.036  0.038 -0.331    0.017 -0.087  0.169
 O          0.001  0.546 -0.187   -0.007 -0.012 -0.056    0.001 -0.361  0.123
 O         -0.057 -0.434 -0.376   -0.035 -0.228 -0.236   -0.015 -0.181 -0.088
 TransDip  -0.001  0.002 -0.002    0.148  0.387  1.197    0.001  1.203 -0.391

 STANDARD THERMODYNAMIC QUANTITIES AT   298.15 K  AND     1.00 ATM

   This Molecule has  0 Imaginary Frequencies
   Zero point vibrational energy:        8.351 kcal/mol

   Atom    1 Element C  Has Mass   12.00000
   Atom    2 Element O  Has Mass   15.99491
   Atom    3 Element O  Has Mass   15.99491
   Atom    4 Element O  Has Mass   15.99491
   Molecular Mass:    59.984730 amu
   Principal axes and moments of inertia in amu*Bohr^2:
                             1           2           3
    Eigenvalues --      143.39715   143.47937   286.87648
          X               0.02816     0.11264     0.99324
          Y               0.99575     0.08398    -0.03775
          Z              -0.08766     0.99008    -0.10980
   Rotational Symmetry Number is   1
   The Molecule is an Asymmetric Top
   Translational Enthalpy:        0.889 kcal/mol
   Rotational Enthalpy:           0.889 kcal/mol
   Vibrational Enthalpy:          8.582 kcal/mol
   gas constant (RT):             0.592 kcal/mol
   Translational Entropy:        38.194  cal/mol.K
   Rotational Entropy:           23.294  cal/mol.K
   Vibrational Entropy:           0.990  cal/mol.K

   Total Enthalpy:               10.952 kcal/mol
   Total Entropy:                62.478  cal/mol.K
 Total job time:  511.16s(wall), 2485.04s(cpu) 
 Fri Sep 29 11:25:46 2023

        *************************************************************
        *                                                           *
        *  Thank you very much for using Q-Chem.  Have a nice day.  *
        *                                                           *
        *************************************************************


