
Running Job 1 of 1 Q_in.in
qchem Q_in.in_146697.0 /scratch/ari.fischer/qChem1787759.hpc-mn1/qchem146697/ 0
/usr/local/qchem-5.4.1/exe/qcprog.exe_s Q_in.in_146697.0 /scratch/ari.fischer/qChem1787759.hpc-mn1/qchem146697/
                  Welcome to Q-Chem
     A Quantum Leap Into The Future Of Chemistry


 Q-Chem 5.4, Q-Chem, Inc., Pleasanton, CA (2021)

 License issued to: Nanyang Technological University (site)

 E. Epifanovsky,  A. T. B. Gilbert,  Xintian Feng,  Joonho Lee,  Yuezhi Mao,  
 N. Mardirossian,  P. Pokhilko,  A. White,  M. Wormit,  M. P. Coons,  
 A. L. Dempwolff,  Zhengting Gan,  D. Hait,  P. R. Horn,  L. D. Jacobson,  
 I. Kaliman,  J. Kussmann,  A. W. Lange,  Ka Un Lao,  D. S. Levine,  Jie Liu,  
 S. C. McKenzie,  A. F. Morrison,  K. Nanda,  F. Plasser,  D. R. Rehn,  
 M. L. Vidal,  Zhi-Qiang You,  Ying Zhu,  B. Alam,  B. Albrecht,  
 A. Aldossary,  E. Alguire,  J. H. Andersen,  D. Barton,  K. Begam,  A. Behn,  
 Y. A. Bernard,  E. J. Berquist,  H. Burton,  A. Carreras,  K. Carter-Fenk,  
 R. Chakraborty,  A. D. Chien,  K. D. Closser,  V. Cofer-Shabica,  
 S. Dasgupta,  Jia Deng,  M. de Wergifosse,  M. Diedenhofen,  Hainam Do,  
 S. Ehlert,  Po-Tung Fang,  S. Fatehi,  Qingguo Feng,  T. Friedhoff,  
 J. Gayvert,  Qinghui Ge,  G. Gidofalvi,  M. Goldey,  J. Gomes,  
 C. Gonzalez-Espinoza,  S. Gulania,  A. Gunina,  M. W. D. Hanson-Heine,  
 P. H. P. Harbach,  A. W. Hauser,  M. F. Herbst,  M. Hernandez Vera,  
 M. Hodecker,  Z. C. Holden,  S. Houck,  Xunkun Huang,  Kerwin Hui,  
 B. C. Huynh,  M. Ivanov,  Hyunjun Ji,  Hanjie Jiang,  B. Kaduk,  S. Kaehler,  
 K. Khistyaev,  Jaehoon Kim,  P. Klunzinger,  Z. Koczor-Benda,  
 Joong Hoon Koh,  D. Kosenkov,  L. Koulias,  T. Kowalczyk,  C. M. Krauter,  
 K. Kue,  A. Kunitsa,  T. Kus,  A. Landau,  K. V. Lawler,  D. Lefrancois,  
 S. Lehtola,  Rain Li,  Yi-Pei Li,  Jiashu Liang,  M. Liebenthal,  
 Hung-Hsuan Lin,  You-Sheng Lin,  Fenglai Liu,  Kuan-Yu Liu,  
 M. Loipersberger,  A. Luenser,  A. Manjanath,  P. Manohar,  E. Mansoor,  
 S. F. Manzer,  Shan-Ping Mao,  A. V. Marenich,  T. Markovich,  S. Mason,  
 S. A. Maurer,  P. F. McLaughlin,  M. F. S. J. Menger,  J.-M. Mewes,  
 S. A. Mewes,  P. Morgante,  J. W. Mullinax,  K. J. Oosterbaan,  G. Paran,  
 Alexander C. Paul,  Suranjan K. Paul,  F. Pavosevic,  Zheng Pei,  S. Prager,  
 E. I. Proynov,  E. Ramos,  B. Rana,  A. E. Rask,  A. Rettig,  R. M. Richard,  
 F. Rob,  E. Rossomme,  T. Scheele,  M. Scheurer,  M. Schneider,  
 N. Sergueev,  S. M. Sharada,  W. Skomorowski,  D. W. Small,  C. J. Stein,  
 Yu-Chuan Su,  E. J. Sundstrom,  Zhen Tao,  J. Thirman,  T. Tsuchimochi,  
 N. M. Tubman,  S. P. Veccham,  O. Vydrov,  J. Wenzel,  J. Witte,  A. Yamada,  
 Kun Yao,  S. Yeganeh,  S. R. Yost,  A. Zech,  Igor Ying Zhang,  Xing Zhang,  
 Yu Zhang,  D. Zuev,  A. Aspuru-Guzik,  A. T. Bell,  N. A. Besley,  
 K. B. Bravaya,  B. R. Brooks,  D. Casanova,  Jeng-Da Chai,  S. Coriani,  
 C. J. Cramer,  A. E. DePrince, III,  R. A. DiStasio Jr.,  A. Dreuw,  
 B. D. Dunietz,  T. R. Furlani,  W. A. Goddard III,  S. Grimme,  
 S. Hammes-Schiffer,  T. Head-Gordon,  W. J. Hehre,  Chao-Ping Hsu,  
 T.-C. Jagau,  Yousung Jung,  A. Klamt,  Jing Kong,  D. S. Lambrecht,  
 WanZhen Liang,  N. J. Mayhall,  C. W. McCurdy,  J. B. Neaton,  
 C. Ochsenfeld,  J. A. Parkhill,  R. Peverati,  V. A. Rassolov,  Yihan Shao,  
 L. V. Slipchenko,  T. Stauch,  R. P. Steele,  J. E. Subotnik,  
 A. J. W. Thom,  A. Tkatchenko,  D. G. Truhlar,  T. Van Voorhis,  
 T. A. Wesolowski,  K. B. Whaley,  H. L. Woodcock III,  P. M. Zimmerman,  
 S. Faraji,  P. M. W. Gill,  M. Head-Gordon,  J. M. Herbert,  A. I. Krylov

 Additional authors for Version 5.4.1: 
 S. Kotaru,  Shaozhi Li,  Xiangyuan Li,  F. Matz,  A. Molle,  Haisheng Ren,  
 Yingli Su,  Hung-Yi Tsai,  C. Utku,  Fang Wang

 Contributors to earlier versions of Q-Chem not listed above: 
 R. D. Adamson,  B. Austin,  R. Baer,  J. Baker,  G. J. O. Beran,  
 K. Brandhorst,  S. T. Brown,  E. F. C. Byrd,  A. K. Chakraborty,  
 G. K. L. Chan,  Chun-Min Chang,  Yunqing Chen,  C.-L. Cheng,  
 Siu Hung Chien,  D. M. Chipman,  D. L. Crittenden,  H. Dachsel,  
 R. J. Doerksen,  A. D. Dutoi,  R. G. Edgar,  J. Fosso-Tande,  
 L. Fusti-Molnar,  D. Ghosh,  A. Ghysels,  A. Golubeva-Zadorozhnaya,  
 J. Gonthier,  M. S. Gordon,  S. R. Gwaltney,  G. Hawkins,  J. E. Herr,  
 A. Heyden,  S. Hirata,  E. G. Hohenstein,  G. Kedziora,  F. J. Keil,  
 C. Kelley,  Jihan Kim,  R. A. King,  R. Z. Khaliullin,  P. P. Korambath,  
 W. Kurlancheek,  A. Laurent,  A. M. Lee,  M. S. Lee,  S. V. Levchenko,  
 Ching Yeh Lin,  D. Liotard,  E. Livshits,  R. C. Lochan,  I. Lotan,  
 L. A. Martinez-Martinez,  P. E. Maslen,  N. Nair,  D. P. O'Neill,  
 D. Neuhauser,  E. Neuscamman,  C. M. Oana,  R. Olivares-Amaya,  R. Olson,  
 T. M. Perrine,  B. Peters,  P. A. Pieniazek,  A. Prociuk,  Y. M. Rhee,  
 J. Ritchie,  M. A. Rohrdanz,  E. Rosta,  N. J. Russ,  H. F. Schaefer III,  
 M. W. Schmidt,  N. E. Schultz,  S. Sharma,  N. Shenvi,  C. D. Sherrill,  
 A. C. Simmonett,  A. Sodt,  T. Stein,  D. Stuck,  K. S. Thanthiriwatte,  
 V. Vanovschi,  L. Vogt,  Tao Wang,  A. Warshel,  M. A. Watson,  
 C. F. Williams,  Q. Wu,  X. Xu,  Jun Yang,  W. Zhang,  Yan Zhao

 Please cite Q-Chem as follows:
 Y. Shao et al., Mol. Phys. 113, 184-215 (2015)
 DOI: 10.1080/00268976.2014.952696

 Q-Chem 5.4.1 for Intel X86 EM64T Linux

 Parts of Q-Chem use Armadillo 9.800.1 (Horizon Scraper).
 http://arma.sourceforge.net/

 Q-Chem begins on Fri Sep 29 11:10:03 2023  

 Host: 
0

     Scratch files written to /scratch/ari.fischer/qChem1787759.hpc-mn1/qchem146697//
 Aug1521 |scratch|qcdevops|jenkins|workspace|build_RNUM 8249   
 Processing $rem in /usr/local/qchem-5.4.1/config/preferences:
 Processing $rem in /home/ari.fischer/.qchemrc:
 Symmetry turned off for PCM/SM12/SMD calculation

 Checking the input file for inconsistencies... 	...done.

--------------------------------------------------------------
User input:
--------------------------------------------------------------
$molecule
-2 1
C        -0.9046692448    1.8239220716   -0.1753806859
O        -0.7734144711    1.5706981761    1.0924272302
O        -0.9036675809    3.0530490802   -0.5955667480
O        -1.0346646033    0.8471579720   -1.0220558964
$end

$rem
BASIS = 6-311++G(2df,2p)
GUI = 2
JOB_TYPE = Optimization
METHOD = wB97M-V
SCF_ALGORITHM = DIIS_GDM
MAX_SCF_CYCLES = 400
GEOM_OPT_MAX_CYCLES = 150
SCF_CONVERGENCE = 7
THRESH = 12
UNRESTRICTED = 1
Solvent_method = SMD
$end
--------------------------------------------------------------
 ----------------------------------------------------------------
             Standard Nuclear Orientation (Angstroms)
    I     Atom           X                Y                Z
 ----------------------------------------------------------------
    1      C      -0.9046692448     1.8239220716    -0.1753806859
    2      O      -0.7734144711     1.5706981761     1.0924272302
    3      O      -0.9036675809     3.0530490802    -0.5955667480
    4      O      -1.0346646033     0.8471579720    -1.0220558964
 ----------------------------------------------------------------
 Nuclear Repulsion Energy =         103.80285764 hartrees
 There are       16 alpha and       16 beta electrons
 Requested basis set is 6-311++G(2df,2p)
 There are 32 shells and 136 basis functions

 Total QAlloc Memory Limit 288000 MB
 Mega-Array Size       188 MB
 MEM_STATIC part       192 MB
 
 Citation of the SMD model:
 Marenich, A.V.; Cramer, C.J.; Truhlar, D.G.
 J. Phys. Chem. B 2009, 113, 6378-6396.
 iSolventCode=           1
 Solvent: water                                                           
 
 vradii
            1           2           3           4
    1   1.8500000   1.5200000   1.5200000   1.5200000
 Changing PCM_VDW_RADII to SMD_RADIUS
 Discretize the solute cavity surface with Lebedev spheres
	Using 110 Lebedev grid points for each H atom
	Using 194 Lebedev grid points for other atoms
	Atomic van der Waals radii will be scaled by 1.20
 Remove points where switching function is < 1.0e-08
 Keep 505 surface tesserae and discard 271 interior tesserae
 Molecular Surface Area = 65.982 Angst**2
 A cutoff of  1.0D-12 yielded    519 shell pairs
 There are      9549 function pairs (     12615 Cartesian)
 Smallest overlap matrix eigenvalue = 1.13E-03

 Scale SEOQF with 1.000000e-01/1.000000e-01/1.000000e-01

 Standard Electronic Orientation quadrupole field applied
 Nucleus-field energy     =     0.0000000072 hartrees
 Guess from superposition of atomic densities
 Warning:  Energy on first SCF cycle will be non-variational
 SAD guess density has 30.000000 electrons

 -----------------------------------------------------------------------
  General SCF calculation program by
  Eric Jon Sundstrom, Paul Horn, Yuezhi Mao, Dmitri Zuev, Alec White,
  David Stuck, Shaama M.S., Shane Yost, Joonho Lee, David Small,
  Daniel Levine, Susi Lehtola, Hugh Burton, Evgeny Epifanovsky,
  Bang C. Huynh
 -----------------------------------------------------------------------
 Exchange:     0.1500 Hartree-Fock + 1.0000 wB97M-V + LR-HF
 Correlation:  1.0000 wB97M-V
 Using SG-2 standard quadrature grid
 Nonlocal Correlation:  VV10 with C = 0.0100 and b = 6.00 and scale = 1.00000
 Grid used for NLC:  SG-1 standard quadrature
 
 Citation of the SMD model:
 Marenich, A.V.; Cramer, C.J.; Truhlar, D.G.
 J. Phys. Chem. B 2009, 113, 6378-6396.
 iSolventCode=           1
 Solvent: water                                                           
 
 vradii
            1           2           3           4
    1   1.8500000   1.5200000   1.5200000   1.5200000
 using 8 threads for integral computing
 -------------------------------------------------------
 OpenMP Integral computing Module                
 Release: version 1.0, May 2013, Q-Chem Inc. Pittsburgh 
 -------------------------------------------------------
 -------------------------------------------------------
 OpenMP BLAS3 based DFT computing Module                
 Release: version 1.0, May 2013, Q-Chem Inc. Pittsburgh 
 -------------------------------------------------------
 A unrestricted SCF calculation will be
 performed using DIIS, GDM
 SCF converges when RMS gradient is below 1.0e-07
 ---------------------------------------
  Cycle       Energy         DIIS error
 ---------------------------------------
    1    -264.0307636436      1.99e-02  
    2    -263.8649345023      5.99e-03  Done DIIS. Switching to GDM
 ---------------------------------------
  Cycle       Energy        RMS Gradient
 ---------------------------------------
    1    -263.8649345023      1.71e-01   Descent step
    2    -264.0931166457      5.68e-02   Normal BFGS step
    3    -264.1255091055      1.34e-02   Normal BFGS step
    4    -264.1266924276      4.95e-03   Normal BFGS step
    5    -264.1268441071      1.65e-03   Normal BFGS step
    6    -264.1268526500      1.49e-04   Normal BFGS step
    7    -264.1268527934      3.29e-05   Normal BFGS step
    8    -264.1268527972      4.06e-05   Normal BFGS step
    9    -264.1268528085      2.63e-06   Normal BFGS step
   10    -264.1268528085      7.98e-07   Normal BFGS step
   11    -264.1268528085      5.69e-08  Convergence criterion met
 ---------------------------------------
 SCF time:   CPU 86.36s  wall 18.00s 
<S^2> =          0.000000000
(3)  G-ENP(liq) elect-nuc-pol free energy of system     -264.126852809 a.u.
(4)  G-CDS(liq) cavity-dispersion-solvent structure 
     free energy                                                3.9225 kcal/mol
(6)  G-S(liq) free energy of system                     -264.120601929 a.u.
 SCF   energy in the final basis set =     -264.1206019288
 Total energy in the final basis set =     -264.1206019288
 
 --------------------------------------------------------------
 
                    Orbital Energies (a.u.)
 --------------------------------------------------------------
 
 Alpha MOs
 -- Occupied --
-19.2497 -19.2497 -19.2496 -10.4396  -1.1504  -1.0284  -1.0282  -0.5891
 -0.5160  -0.5160  -0.5105  -0.3658  -0.3657  -0.3446  -0.3445  -0.2995
 -- Virtual --
  0.0647   0.0964   0.0968   0.0972   0.1934   0.2257   0.2258   0.2367
  0.2596   0.2597   0.3103   0.3136   0.3312   0.3314   0.3435   0.3772
  0.3773   0.4394   0.6123   0.6129   0.6865   0.7764   0.7765   0.8194
  0.9133   0.9136   1.0759   1.1292   1.1293   1.1405   1.1713   1.1714
  1.2077   1.2079   1.2590   1.2594   1.4184   1.4187   1.6605   1.6609
  1.6657   1.6659   1.6706   1.6828   1.8338   1.8343   1.9708   1.9808
  2.0051   2.2795   2.2799   2.4698   2.4702   2.5336   2.8086   2.8086
  2.8954   3.1092   3.1095   3.2920   3.2921   3.4841   3.4843   3.5067
  3.5675   3.5679   3.5809   3.7997   3.8324   4.0133   4.0140   5.1758
  5.1969   5.2038   5.2038   5.2086   5.2186   5.2187   5.2402   5.2403
  5.2576   5.2578   5.2949   5.2988   5.3304   5.3707   5.3712   5.5272
  5.5275   5.6302   5.6304   5.6879   6.0691   6.0693   6.1696   6.2837
  6.2837   6.4604   6.9453   7.0015   7.0016   7.0243   7.0246   7.0627
  7.1498   7.1510   7.1886   7.3607   7.4106   7.4109   7.5387   7.7623
  7.7626   7.7931   7.8440   7.8445  25.2299  50.6390  50.6392  50.6848
 
 Beta MOs
 -- Occupied --
-19.2497 -19.2497 -19.2496 -10.4396  -1.1504  -1.0284  -1.0282  -0.5891
 -0.5160  -0.5160  -0.5105  -0.3658  -0.3657  -0.3446  -0.3445  -0.2995
 -- Virtual --
  0.0647   0.0964   0.0968   0.0972   0.1934   0.2257   0.2258   0.2367
  0.2596   0.2597   0.3103   0.3136   0.3312   0.3314   0.3435   0.3772
  0.3773   0.4394   0.6123   0.6129   0.6865   0.7764   0.7765   0.8194
  0.9133   0.9136   1.0759   1.1292   1.1293   1.1405   1.1713   1.1714
  1.2077   1.2079   1.2590   1.2594   1.4184   1.4187   1.6605   1.6609
  1.6657   1.6659   1.6706   1.6828   1.8338   1.8343   1.9708   1.9808
  2.0051   2.2795   2.2799   2.4698   2.4702   2.5336   2.8086   2.8086
  2.8954   3.1092   3.1095   3.2920   3.2921   3.4841   3.4843   3.5067
  3.5675   3.5679   3.5809   3.7997   3.8324   4.0133   4.0140   5.1758
  5.1969   5.2038   5.2038   5.2086   5.2186   5.2187   5.2402   5.2403
  5.2576   5.2578   5.2949   5.2988   5.3304   5.3707   5.3712   5.5272
  5.5275   5.6302   5.6304   5.6879   6.0691   6.0693   6.1696   6.2837
  6.2837   6.4604   6.9453   7.0015   7.0016   7.0243   7.0246   7.0627
  7.1498   7.1510   7.1886   7.3607   7.4106   7.4109   7.5387   7.7623
  7.7626   7.7931   7.8440   7.8445  25.2299  50.6390  50.6392  50.6848
 --------------------------------------------------------------
 
          Ground-State Mulliken Net Atomic Charges

     Atom                 Charge (a.u.)    Spin (a.u.)
  --------------------------------------------------------
      1 C                     0.546310       0.000000
      2 O                    -0.849320       0.000000
      3 O                    -0.848189       0.000000
      4 O                    -0.848801       0.000000
  --------------------------------------------------------
  Sum of atomic charges =    -2.000000
  Sum of spin   charges =     0.000000

 -----------------------------------------------------------------
                    Cartesian Multipole Moments
 -----------------------------------------------------------------
    Charge (ESU x 10^10)
                -9.6064
    Dipole Moment (Debye)
         X       8.6822      Y     -17.5143      Z       1.6772
       Tot      19.6200
    Quadrupole Moments (Debye-Ang)
        XX     -34.1256     XY      15.3326     YY     -71.2586
        XZ      -2.9631     YZ       3.1136     ZZ     -39.4837
    Octopole Moments (Debye-Ang^2)
       XXX      78.3651    XXY     -61.2444    XYY      63.0683
       YYY    -277.0185    XXZ       8.5580    XYZ      -4.7632
       YYZ      18.1260    XZZ      35.7396    YZZ     -68.4539
       ZZZ      15.1936
    Hexadecapole Moments (Debye-Ang^3)
      XXXX    -165.2496   XXXY     139.1933   XXYY    -172.6406
      XYYY     245.3226   YYYY   -1077.6991   XXXZ     -23.7588
      XXYZ      14.4385   XYYZ     -21.3835   YYYZ      79.2152
      XXZZ     -62.7863   XYZZ      60.8432   YYZZ    -174.6322
      XZZZ     -21.4703   YZZZ      26.1344   ZZZZ    -162.1014
 -----------------------------------------------------------------
 Calculating analytic gradient of the SCF energy
 Gradient of CDS energy
            1           2           3           4
    1   0.0000064  -0.0003783  -0.0000023   0.0003743
    2  -0.0000115   0.0007303  -0.0035269   0.0028080
    3   0.0000168  -0.0036586   0.0012063   0.0024354
 Gradient of SCF Energy
            1           2           3           4
    1  -0.0000116  -0.0031464   0.0000935   0.0030645
    2   0.0001791   0.0059861  -0.0290167   0.0228514
    3  -0.0001188  -0.0294835   0.0097408   0.0198615
 Max gradient component =       2.948E-02
 RMS gradient           =       1.522E-02
 Computing fast CPCM-SWIG gradient
 Updating gradient with PCM contributions...
 -- total gradient after adding PCM contribution --
---------------------------------------------------
  Atom         X              Y              Z     
---------------------------------------------------
   1      -0.000056      -0.000038      -0.000006
   2       0.000723      -0.001160       0.006345
   3       0.000143       0.006102      -0.002159
   4      -0.000810      -0.004905      -0.004179
---------------------------------------------------
 Number of fixed atoms: 0
 Gradient time:  CPU 14.80 s  wall 3.91 s
 Geometry Optimization Parameters
   NAtoms,    NIC,     NZ,  NCons,   NDum,   NFix, NCnnct, MaxDiis
        4      17       0       0       0       0       0       0


** GEOMETRY OPTIMIZATION IN DELOCALIZED INTERNAL COORDINATES **
   Searching for a Minimum

   Optimization Cycle:   1

                       Coordinates (Angstroms)
     ATOM                X               Y               Z
      1  C        -0.9046692448    1.8239220716   -0.1753806859
      2  O        -0.7734144711    1.5706981761    1.0924272302
      3  O        -0.9036675809    3.0530490802   -0.5955667480
      4  O        -1.0346646033    0.8471579720   -1.0220558964
   Point Group: c1    Number of degrees of freedom:     6


   Energy is   -264.120601929


 Attempting to generate delocalized internal coordinates
 Initial Hessian constructed with Jon Baker's OPTIMIZE code

  6 Hessian modes will be used to form the next step
  Hessian Eigenvalues:
     0.250000    0.250000    0.250000    0.673336    0.674260    0.674813

 Minimum search - taking simple RFO step
 Searching for Lamda that Minimizes Along All modes
 Value Taken    Lamda =  -0.00411934
 Step Taken.  Stepsize is  0.125509

                             Maximum     Tolerance    Cnvgd?
         Gradient           0.031615      0.000300      NO
         Displacement       0.124412      0.001200      NO
         Energy change     *********      0.000001      NO


 New Cartesian Coordinates Obtained by Inverse Iteration

  ***ERROR*** Exceeded allowed number of iterative cycles in GetCART
**WARNING** Problems with Internal Coordinates
  Switching to Cartesian Coordinates

 Translations and Rotations Projected Out of Hessian

  6 Hessian modes will be used to form the next step
  Hessian Eigenvalues:
     1.000000    1.000000    1.000000    1.000000    1.000000    1.000000

 Minimum search - taking simple RFO step
 Searching for Lamda that Minimizes Along All modes
 Value Taken    Lamda =  -0.00012615
 Step Taken.  Stepsize is  0.011231

                             Maximum     Tolerance    Cnvgd?
         Gradient           0.006345      0.000300      NO
         Displacement       0.006336      0.001200      NO
         Energy change     *********      0.000001      NO

 ----------------------------------------------------------------
             Standard Nuclear Orientation (Angstroms)
    I     Atom           X                Y                Z
 ----------------------------------------------------------------
    1      C      -0.9046393723     1.8239419884    -0.1753773154
    2      O      -0.7737700579     1.5713467126     1.0890741923
    3      O      -0.9036787833     3.0498060020    -0.5944661449
    4      O      -1.0343276866     0.8497325968    -1.0198068321
 ----------------------------------------------------------------
 Nuclear Repulsion Energy =         104.07772332 hartrees
 There are       16 alpha and       16 beta electrons
 Discretize the solute cavity surface with Lebedev spheres
	Using 110 Lebedev grid points for each H atom
	Using 194 Lebedev grid points for other atoms
	Atomic van der Waals radii will be scaled by 1.20
 Remove points where switching function is < 1.0e-08
 Keep 505 surface tesserae and discard 271 interior tesserae
 Molecular Surface Area = 65.879 Angst**2
 Applying Cartesian multipole field
    Component          Value
    ---------          -----
     (2,0,0)        1.00000E-11
     (0,2,0)        2.00000E-11
     (0,0,2)       -3.00000E-11
 Nucleus-field energy     =     0.0000000072 hartrees
 Requested basis set is 6-311++G(2df,2p)
 There are 32 shells and 136 basis functions
 A cutoff of  1.0D-12 yielded    519 shell pairs
 There are      9549 function pairs (     12615 Cartesian)
 Smallest overlap matrix eigenvalue = 1.12E-03
 Guess MOs from SCF MO coefficient file

 -----------------------------------------------------------------------
  General SCF calculation program by
  Eric Jon Sundstrom, Paul Horn, Yuezhi Mao, Dmitri Zuev, Alec White,
  David Stuck, Shaama M.S., Shane Yost, Joonho Lee, David Small,
  Daniel Levine, Susi Lehtola, Hugh Burton, Evgeny Epifanovsky,
  Bang C. Huynh
 -----------------------------------------------------------------------
 Exchange:     0.1500 Hartree-Fock + 1.0000 wB97M-V + LR-HF
 Correlation:  1.0000 wB97M-V
 Using SG-2 standard quadrature grid
 Nonlocal Correlation:  VV10 with C = 0.0100 and b = 6.00 and scale = 1.00000
 Grid used for NLC:  SG-1 standard quadrature
 
 Citation of the SMD model:
 Marenich, A.V.; Cramer, C.J.; Truhlar, D.G.
 J. Phys. Chem. B 2009, 113, 6378-6396.
 iSolventCode=           1
 Solvent: water                                                           
 
 vradii
            1           2           3           4
    1   1.8500000   1.5200000   1.5200000   1.5200000
 -------------------------------------------------------
 OpenMP BLAS3 based DFT computing Module                
 Release: version 1.0, May 2013, Q-Chem Inc. Pittsburgh 
 -------------------------------------------------------
 A unrestricted SCF calculation will be
 performed using Roothaan-Hall, DIIS, GDM
 SCF converges when RMS gradient is below 1.0e-07
 ---------------------------------------
  Cycle       Energy         DIIS error
 ---------------------------------------
    1    -263.6993833890      4.48e-04  Roothaan Step
 ---------------------------------------
  Cycle       Energy         DIIS error
 ---------------------------------------
    1    -264.1176110769      6.75e-04  
    2    -264.1239381849      7.15e-04  Done DIIS. Switching to GDM
 ---------------------------------------
  Cycle       Energy        RMS Gradient
 ---------------------------------------
    1    -264.1239381849      2.05e-02   Normal BFGS step
    2    -264.1242780040      1.68e-02   Normal BFGS step
    3    -264.1269899133      1.99e-03   Normal BFGS step
    4    -264.1270011416      1.46e-03   Normal BFGS step
    5    -264.1270096680      1.08e-04   Normal BFGS step
    6    -264.1270097154      2.33e-05   Normal BFGS step
    7    -264.1270097164      1.78e-05   Normal BFGS step
    8    -264.1270097185      1.79e-06   Normal BFGS step
    9    -264.1270097185      2.33e-07   Normal BFGS step
   10    -264.1270097185      4.85e-08  Convergence criterion met
 ---------------------------------------
 SCF time:   CPU 87.96s  wall 19.00s 
<S^2> =         -0.000000000
(3)  G-ENP(liq) elect-nuc-pol free energy of system     -264.127009719 a.u.
(4)  G-CDS(liq) cavity-dispersion-solvent structure 
     free energy                                                3.9672 kcal/mol
(6)  G-S(liq) free energy of system                     -264.120687554 a.u.
 SCF   energy in the final basis set =     -264.1206875545
 Total energy in the final basis set =     -264.1206875545
 
 --------------------------------------------------------------
 
                    Orbital Energies (a.u.)
 --------------------------------------------------------------
 
 Alpha MOs
 -- Occupied --
-19.2489 -19.2489 -19.2488 -10.4381  -1.1521  -1.0292  -1.0289  -0.5885
 -0.5164  -0.5163  -0.5115  -0.3658  -0.3657  -0.3445  -0.3444  -0.2988
 -- Virtual --
  0.0648   0.0963   0.0967   0.0972   0.1954   0.2258   0.2259   0.2369
  0.2596   0.2598   0.3106   0.3138   0.3313   0.3314   0.3438   0.3772
  0.3773   0.4426   0.6167   0.6173   0.6870   0.7767   0.7768   0.8205
  0.9141   0.9144   1.0761   1.1290   1.1291   1.1408   1.1714   1.1715
  1.2077   1.2079   1.2591   1.2593   1.4198   1.4201   1.6619   1.6622
  1.6673   1.6675   1.6710   1.6839   1.8378   1.8382   1.9763   1.9834
  2.0086   2.2828   2.2833   2.4724   2.4728   2.5361   2.8130   2.8130
  2.8968   3.1101   3.1104   3.2899   3.2900   3.4881   3.4883   3.5066
  3.5678   3.5683   3.5858   3.8060   3.8377   4.0180   4.0188   5.1759
  5.1967   5.2038   5.2039   5.2086   5.2190   5.2191   5.2414   5.2415
  5.2598   5.2600   5.2936   5.3000   5.3308   5.3745   5.3750   5.5342
  5.5345   5.6344   5.6346   5.6990   6.0836   6.0838   6.1794   6.2971
  6.2972   6.4729   6.9464   7.0022   7.0023   7.0269   7.0272   7.0643
  7.1627   7.1639   7.1900   7.3630   7.4132   7.4136   7.5623   7.7678
  7.7681   7.7995   7.8422   7.8426  25.2497  50.6437  50.6439  50.6883
 
 Beta MOs
 -- Occupied --
-19.2489 -19.2489 -19.2488 -10.4381  -1.1521  -1.0292  -1.0289  -0.5885
 -0.5164  -0.5163  -0.5115  -0.3658  -0.3657  -0.3445  -0.3444  -0.2988
 -- Virtual --
  0.0648   0.0963   0.0967   0.0972   0.1954   0.2258   0.2259   0.2369
  0.2596   0.2598   0.3106   0.3138   0.3313   0.3314   0.3438   0.3772
  0.3773   0.4426   0.6167   0.6173   0.6870   0.7767   0.7768   0.8205
  0.9141   0.9144   1.0761   1.1290   1.1291   1.1408   1.1714   1.1715
  1.2077   1.2079   1.2591   1.2593   1.4198   1.4201   1.6619   1.6622
  1.6673   1.6675   1.6710   1.6839   1.8378   1.8382   1.9763   1.9834
  2.0086   2.2828   2.2833   2.4724   2.4728   2.5361   2.8130   2.8130
  2.8968   3.1101   3.1104   3.2899   3.2900   3.4881   3.4883   3.5066
  3.5678   3.5683   3.5858   3.8060   3.8377   4.0180   4.0188   5.1759
  5.1967   5.2038   5.2039   5.2086   5.2190   5.2191   5.2414   5.2415
  5.2598   5.2600   5.2936   5.3000   5.3308   5.3745   5.3750   5.5342
  5.5345   5.6344   5.6346   5.6990   6.0836   6.0838   6.1794   6.2971
  6.2972   6.4729   6.9464   7.0022   7.0023   7.0269   7.0272   7.0643
  7.1627   7.1639   7.1900   7.3630   7.4132   7.4136   7.5623   7.7678
  7.7681   7.7995   7.8422   7.8426  25.2497  50.6437  50.6439  50.6883
 --------------------------------------------------------------
 
          Ground-State Mulliken Net Atomic Charges

     Atom                 Charge (a.u.)    Spin (a.u.)
  --------------------------------------------------------
      1 C                     0.548137       0.000000
      2 O                    -0.849923       0.000000
      3 O                    -0.848774       0.000000
      4 O                    -0.849440       0.000000
  --------------------------------------------------------
  Sum of atomic charges =    -2.000000
  Sum of spin   charges =     0.000000

 -----------------------------------------------------------------
                    Cartesian Multipole Moments
 -----------------------------------------------------------------
    Charge (ESU x 10^10)
                -9.6064
    Dipole Moment (Debye)
         X       8.6824      Y     -17.5139      Z       1.6773
       Tot      19.6197
    Quadrupole Moments (Debye-Ang)
        XX     -34.1038     XY      15.3335     YY     -71.2111
        XZ      -2.9606     YZ       3.1135     ZZ     -39.4379
    Octopole Moments (Debye-Ang^2)
       XXX      78.3057    XXY     -61.2060    XYY      63.0271
       YYY    -276.7455    XXZ       8.5498    XYZ      -4.7612
       YYZ      18.0932    XZZ      35.6994    YZZ     -68.3858
       ZZZ      15.1941
    Hexadecapole Moments (Debye-Ang^3)
      XXXX    -165.0881   XXXY     139.0973   XXYY    -172.4238
      XYYY     245.0871   YYYY   -1075.9924   XXXZ     -23.7128
      XXYZ      14.4283   XYYZ     -21.3428   YYYZ      79.0329
      XXZZ     -62.6428   XYZZ      60.7890   YYZZ    -174.3094
      XZZZ     -21.4352   YZZZ      26.1423   ZZZZ    -161.4622
 -----------------------------------------------------------------
 Calculating analytic gradient of the SCF energy
 Gradient of CDS energy
            1           2           3           4
    1   0.0000057  -0.0003635  -0.0000022   0.0003599
    2  -0.0000119   0.0007019  -0.0033895   0.0026995
    3   0.0000156  -0.0035163   0.0011594   0.0023413
 Gradient of SCF Energy
            1           2           3           4
    1  -0.0000013  -0.0033980   0.0000930   0.0033063
    2   0.0002105   0.0064652  -0.0313839   0.0247082
    3  -0.0001172  -0.0319121   0.0105500   0.0214793
 Max gradient component =       3.191E-02
 RMS gradient           =       1.646E-02
 Computing fast CPCM-SWIG gradient
 Updating gradient with PCM contributions...
 -- total gradient after adding PCM contribution --
---------------------------------------------------
  Atom         X              Y              Z     
---------------------------------------------------
   1      -0.000031      -0.000012      -0.000005
   2       0.000296      -0.000354       0.002263
   3       0.000134       0.002134      -0.000803
   4      -0.000399      -0.001768      -0.001455
---------------------------------------------------
 Number of fixed atoms: 0
 Gradient time:  CPU 14.42 s  wall 3.90 s
 Geometry Optimization Parameters
   NAtoms,    NIC,     NZ,  NCons,   NDum,   NFix, NCnnct, MaxDiis
        4      17       0       0       0       0       0       0

 Cartesian Hessian Update
 Hessian updated using BFGS update


** GEOMETRY OPTIMIZATION IN CARTESIAN COORDINATES **
   Searching for a Minimum

   Optimization Cycle:   2

                       Coordinates (Angstroms)
     ATOM                X               Y               Z
      1  C        -0.9046393723    1.8239419884   -0.1753773154
      2  O        -0.7737700579    1.5713467126    1.0890741923
      3  O        -0.9036787833    3.0498060020   -0.5944661449
      4  O        -1.0343276866    0.8497325968   -1.0198068321
   Point Group: c1    Number of degrees of freedom:     6


   Energy is   -264.120687554


 Translations and Rotations Projected Out of Hessian

  1 Hessian modes will be used to form the next step
  Hessian Eigenvalues:
     0.645187

 Minimum search - taking simple RFO step
 Searching for Lamda that Minimizes Along All modes
 Value Taken    Lamda =  -0.00002463
 Step Taken.  Stepsize is  0.006178

                             Maximum     Tolerance    Cnvgd?
         Gradient           0.002263      0.000300      NO
         Displacement       0.003496      0.001200      NO
         Energy change     -0.000086      0.000001      NO

 ----------------------------------------------------------------
             Standard Nuclear Orientation (Angstroms)
    I     Atom           X                Y                Z
 ----------------------------------------------------------------
    1      C      -0.9046136640     1.8239517228    -0.1753730952
    2      O      -0.7739698196     1.5716898312     1.0872241184
    3      O      -0.9036886682     3.0480339418    -0.5938711580
    4      O      -1.0341437483     0.8511518040    -1.0185559653
 ----------------------------------------------------------------
 Nuclear Repulsion Energy =         104.22953363 hartrees
 There are       16 alpha and       16 beta electrons
 Discretize the solute cavity surface with Lebedev spheres
	Using 110 Lebedev grid points for each H atom
	Using 194 Lebedev grid points for other atoms
	Atomic van der Waals radii will be scaled by 1.20
 Remove points where switching function is < 1.0e-08
 Keep 505 surface tesserae and discard 271 interior tesserae
 Molecular Surface Area = 65.822 Angst**2
 Applying Cartesian multipole field
    Component          Value
    ---------          -----
     (2,0,0)        1.00000E-11
     (0,2,0)        2.00000E-11
     (0,0,2)       -3.00000E-11
 Nucleus-field energy     =     0.0000000072 hartrees
 Requested basis set is 6-311++G(2df,2p)
 There are 32 shells and 136 basis functions
 A cutoff of  1.0D-12 yielded    519 shell pairs
 There are      9549 function pairs (     12615 Cartesian)
 Smallest overlap matrix eigenvalue = 1.11E-03
 Guess MOs from SCF MO coefficient file

 -----------------------------------------------------------------------
  General SCF calculation program by
  Eric Jon Sundstrom, Paul Horn, Yuezhi Mao, Dmitri Zuev, Alec White,
  David Stuck, Shaama M.S., Shane Yost, Joonho Lee, David Small,
  Daniel Levine, Susi Lehtola, Hugh Burton, Evgeny Epifanovsky,
  Bang C. Huynh
 -----------------------------------------------------------------------
 Exchange:     0.1500 Hartree-Fock + 1.0000 wB97M-V + LR-HF
 Correlation:  1.0000 wB97M-V
 Using SG-2 standard quadrature grid
 Nonlocal Correlation:  VV10 with C = 0.0100 and b = 6.00 and scale = 1.00000
 Grid used for NLC:  SG-1 standard quadrature
 
 Citation of the SMD model:
 Marenich, A.V.; Cramer, C.J.; Truhlar, D.G.
 J. Phys. Chem. B 2009, 113, 6378-6396.
 iSolventCode=           1
 Solvent: water                                                           
 
 vradii
            1           2           3           4
    1   1.8500000   1.5200000   1.5200000   1.5200000
 -------------------------------------------------------
 OpenMP BLAS3 based DFT computing Module                
 Release: version 1.0, May 2013, Q-Chem Inc. Pittsburgh 
 -------------------------------------------------------
 A unrestricted SCF calculation will be
 performed using Roothaan-Hall, DIIS, GDM
 SCF converges when RMS gradient is below 1.0e-07
 ---------------------------------------
  Cycle       Energy         DIIS error
 ---------------------------------------
    1    -263.6992981868      4.46e-04  Roothaan Step
 ---------------------------------------
  Cycle       Energy         DIIS error
 ---------------------------------------
    1    -264.1176242810      6.76e-04  
    2    -264.1239791707      7.15e-04  Done DIIS. Switching to GDM
 ---------------------------------------
  Cycle       Energy        RMS Gradient
 ---------------------------------------
    1    -264.1239791707      2.05e-02   Normal BFGS step
    2    -264.1243331355      1.68e-02   Normal BFGS step
    3    -264.1270400536      1.99e-03   Normal BFGS step
    4    -264.1270512712      1.47e-03   Normal BFGS step
    5    -264.1270597960      1.08e-04   Normal BFGS step
    6    -264.1270598437      2.33e-05   Normal BFGS step
    7    -264.1270598448      1.78e-05   Normal BFGS step
    8    -264.1270598468      1.91e-06   Normal BFGS step
    9    -264.1270598469      2.33e-07   Normal BFGS step
   10    -264.1270598469      5.38e-08  Convergence criterion met
 ---------------------------------------
 SCF time:   CPU 94.14s  wall 20.00s 
<S^2> =         -0.000000000
(3)  G-ENP(liq) elect-nuc-pol free energy of system     -264.127059847 a.u.
(4)  G-CDS(liq) cavity-dispersion-solvent structure 
     free energy                                                3.9911 kcal/mol
(6)  G-S(liq) free energy of system                     -264.120699659 a.u.
 SCF   energy in the final basis set =     -264.1206996585
 Total energy in the final basis set =     -264.1206996585
 
 --------------------------------------------------------------
 
                    Orbital Energies (a.u.)
 --------------------------------------------------------------
 
 Alpha MOs
 -- Occupied --
-19.2484 -19.2484 -19.2483 -10.4372  -1.1530  -1.0296  -1.0293  -0.5882
 -0.5166  -0.5165  -0.5120  -0.3658  -0.3657  -0.3444  -0.3443  -0.2984
 -- Virtual --
  0.0648   0.0963   0.0967   0.0971   0.1965   0.2258   0.2259   0.2369
  0.2596   0.2598   0.3107   0.3139   0.3313   0.3314   0.3439   0.3772
  0.3773   0.4444   0.6191   0.6197   0.6873   0.7768   0.7769   0.8212
  0.9145   0.9148   1.0763   1.1288   1.1289   1.1410   1.1715   1.1716
  1.2077   1.2079   1.2592   1.2592   1.4206   1.4209   1.6626   1.6630
  1.6682   1.6684   1.6712   1.6845   1.8399   1.8404   1.9793   1.9849
  2.0105   2.2847   2.2851   2.4738   2.4742   2.5375   2.8154   2.8154
  2.8976   3.1106   3.1109   3.2888   3.2889   3.4904   3.4906   3.5065
  3.5680   3.5685   3.5885   3.8095   3.8406   4.0206   4.0214   5.1759
  5.1966   5.2038   5.2039   5.2086   5.2193   5.2193   5.2420   5.2421
  5.2611   5.2612   5.2930   5.3006   5.3311   5.3767   5.3772   5.5381
  5.5385   5.6367   5.6369   5.7051   6.0916   6.0918   6.1849   6.3046
  6.3046   6.4798   6.9471   7.0026   7.0027   7.0283   7.0286   7.0652
  7.1698   7.1710   7.1907   7.3642   7.4146   7.4150   7.5755   7.7708
  7.7710   7.8030   7.8411   7.8416  25.2606  50.6463  50.6465  50.6902
 
 Beta MOs
 -- Occupied --
-19.2484 -19.2484 -19.2483 -10.4372  -1.1530  -1.0296  -1.0293  -0.5882
 -0.5166  -0.5165  -0.5120  -0.3658  -0.3657  -0.3444  -0.3443  -0.2984
 -- Virtual --
  0.0648   0.0963   0.0967   0.0971   0.1965   0.2258   0.2259   0.2369
  0.2596   0.2598   0.3107   0.3139   0.3313   0.3314   0.3439   0.3772
  0.3773   0.4444   0.6191   0.6197   0.6873   0.7768   0.7769   0.8212
  0.9145   0.9148   1.0763   1.1288   1.1289   1.1410   1.1715   1.1716
  1.2077   1.2079   1.2592   1.2592   1.4206   1.4209   1.6626   1.6630
  1.6682   1.6684   1.6712   1.6845   1.8399   1.8404   1.9793   1.9849
  2.0105   2.2847   2.2851   2.4738   2.4742   2.5375   2.8154   2.8154
  2.8976   3.1106   3.1109   3.2888   3.2889   3.4904   3.4906   3.5065
  3.5680   3.5685   3.5885   3.8095   3.8406   4.0206   4.0214   5.1759
  5.1966   5.2038   5.2039   5.2086   5.2193   5.2193   5.2420   5.2421
  5.2611   5.2612   5.2930   5.3006   5.3311   5.3767   5.3772   5.5381
  5.5385   5.6367   5.6369   5.7051   6.0916   6.0918   6.1849   6.3046
  6.3046   6.4798   6.9471   7.0026   7.0027   7.0283   7.0286   7.0652
  7.1698   7.1710   7.1907   7.3642   7.4146   7.4150   7.5755   7.7708
  7.7710   7.8030   7.8411   7.8416  25.2606  50.6463  50.6465  50.6902
 --------------------------------------------------------------
 
          Ground-State Mulliken Net Atomic Charges

     Atom                 Charge (a.u.)    Spin (a.u.)
  --------------------------------------------------------
      1 C                     0.549133       0.000000
      2 O                    -0.850242       0.000000
      3 O                    -0.849113       0.000000
      4 O                    -0.849778       0.000000
  --------------------------------------------------------
  Sum of atomic charges =    -2.000000
  Sum of spin   charges =     0.000000

 -----------------------------------------------------------------
                    Cartesian Multipole Moments
 -----------------------------------------------------------------
    Charge (ESU x 10^10)
                -9.6064
    Dipole Moment (Debye)
         X       8.6825      Y     -17.5139      Z       1.6775
       Tot      19.6198
    Quadrupole Moments (Debye-Ang)
        XX     -34.0919     XY      15.3342     YY     -71.1858
        XZ      -2.9593     YZ       3.1139     ZZ     -39.4125
    Octopole Moments (Debye-Ang^2)
       XXX      78.2731    XXY     -61.1853    XYY      63.0054
       YYY    -276.5989    XXZ       8.5453    XYZ      -4.7604
       YYZ      18.0764    XZZ      35.6771    YZZ     -68.3484
       ZZZ      15.1945
    Hexadecapole Moments (Debye-Ang^3)
      XXXX    -164.9993   XXXY     139.0453   XXYY    -172.3066
      XYYY     244.9612   YYYY   -1075.0703   XXXZ     -23.6876
      XXYZ      14.4235   XYYZ     -21.3215   YYYZ      78.9375
      XXZZ     -62.5636   XYZZ      60.7592   YYZZ    -174.1328
      XZZZ     -21.4159   YZZZ      26.1483   ZZZZ    -161.1095
 -----------------------------------------------------------------
 Calculating analytic gradient of the SCF energy
 Gradient of CDS energy
            1           2           3           4
    1   0.0000053  -0.0003556  -0.0000020   0.0003523
    2  -0.0000112   0.0006868  -0.0033170   0.0026414
    3   0.0000148  -0.0034403   0.0011346   0.0022909
 Gradient of SCF Energy
            1           2           3           4
    1   0.0000054  -0.0035402   0.0000923   0.0034426
    2   0.0002123   0.0067346  -0.0327030   0.0257561
    3  -0.0001112  -0.0332818   0.0110004   0.0223926
 Max gradient component =       3.328E-02
 RMS gradient           =       1.716E-02
 Computing fast CPCM-SWIG gradient
 Updating gradient with PCM contributions...
 -- total gradient after adding PCM contribution --
---------------------------------------------------
  Atom         X              Y              Z     
---------------------------------------------------
   1      -0.000012      -0.000007      -0.000000
   2       0.000053       0.000092      -0.000031
   3       0.000127      -0.000080      -0.000050
   4      -0.000169      -0.000005       0.000081
---------------------------------------------------
 Number of fixed atoms: 0
 Gradient time:  CPU 13.67 s  wall 3.55 s
 Geometry Optimization Parameters
   NAtoms,    NIC,     NZ,  NCons,   NDum,   NFix, NCnnct, MaxDiis
        4      17       0       0       0       0       0       0

 Cartesian Hessian Update
 Hessian updated using BFGS update


** GEOMETRY OPTIMIZATION IN CARTESIAN COORDINATES **
   Searching for a Minimum

   Optimization Cycle:   3

                       Coordinates (Angstroms)
     ATOM                X               Y               Z
      1  C        -0.9046136640    1.8239517228   -0.1753730952
      2  O        -0.7739698196    1.5716898312    1.0872241184
      3  O        -0.9036886682    3.0480339418   -0.5938711580
      4  O        -1.0341437483    0.8511518040   -1.0185559653
   Point Group: c1    Number of degrees of freedom:     6


   Energy is   -264.120699659


 Translations and Rotations Projected Out of Hessian

  3 Hessian modes will be used to form the next step
  Hessian Eigenvalues:
     0.657544    1.000003    1.000196

 Minimum search - taking simple RFO step
 Searching for Lamda that Minimizes Along All modes
 Value Taken    Lamda =  -0.00000001
 Step Taken.  Stepsize is  0.000122

                             Maximum     Tolerance    Cnvgd?
         Gradient           0.000169      0.000300     YES
         Displacement       0.000075      0.001200     YES
         Energy change     -0.000012      0.000001      NO


                       Distance Matrix (Angstroms)
             C (  1)   O (  2)   O (  3)
   O (  2)  1.294162
   O (  3)  1.293646  2.241094
   O (  4)  1.293861  2.240798  2.241354
 
 Final energy is   -264.120699658512     


 ******************************
 **  OPTIMIZATION CONVERGED  **
 ******************************

                       Coordinates (Angstroms)
     ATOM                X               Y               Z
      1  C        -0.9046136640    1.8239517228   -0.1753730952
      2  O        -0.7739698196    1.5716898312    1.0872241184
      3  O        -0.9036886682    3.0480339418   -0.5938711580
      4  O        -1.0341437483    0.8511518040   -1.0185559653

Z-matrix Print:
$molecule
-2 1
C 
O  1 1.293646
O  1 1.293861 2 120.044993
O  1 1.294162 2 119.998791 3 179.899668 0
$end

 
 --------------------------------------------------------------
 
                    Orbital Energies (a.u.)
 --------------------------------------------------------------
 
 Alpha MOs
 -- Occupied --
-19.2484 -19.2484 -19.2483 -10.4372  -1.1530  -1.0296  -1.0293  -0.5882
 -0.5166  -0.5165  -0.5120  -0.3658  -0.3657  -0.3444  -0.3443  -0.2984
 -- Virtual --
  0.0648   0.0963   0.0967   0.0971   0.1965   0.2258   0.2259   0.2369
  0.2596   0.2598   0.3107   0.3139   0.3313   0.3314   0.3439   0.3772
  0.3773   0.4444   0.6191   0.6197   0.6873   0.7768   0.7769   0.8212
  0.9145   0.9148   1.0763   1.1288   1.1289   1.1410   1.1715   1.1716
  1.2077   1.2079   1.2592   1.2592   1.4206   1.4209   1.6626   1.6630
  1.6682   1.6684   1.6712   1.6845   1.8399   1.8404   1.9793   1.9849
  2.0105   2.2847   2.2851   2.4738   2.4742   2.5375   2.8154   2.8154
  2.8976   3.1106   3.1109   3.2888   3.2889   3.4904   3.4906   3.5065
  3.5680   3.5685   3.5885   3.8095   3.8406   4.0206   4.0214   5.1759
  5.1966   5.2038   5.2039   5.2086   5.2193   5.2193   5.2420   5.2421
  5.2611   5.2612   5.2930   5.3006   5.3311   5.3767   5.3772   5.5381
  5.5385   5.6367   5.6369   5.7051   6.0916   6.0918   6.1849   6.3046
  6.3046   6.4798   6.9471   7.0026   7.0027   7.0283   7.0286   7.0652
  7.1698   7.1710   7.1907   7.3642   7.4146   7.4150   7.5755   7.7708
  7.7710   7.8030   7.8411   7.8416  25.2606  50.6463  50.6465  50.6902
 
 Beta MOs
 -- Occupied --
-19.2484 -19.2484 -19.2483 -10.4372  -1.1530  -1.0296  -1.0293  -0.5882
 -0.5166  -0.5165  -0.5120  -0.3658  -0.3657  -0.3444  -0.3443  -0.2984
 -- Virtual --
  0.0648   0.0963   0.0967   0.0971   0.1965   0.2258   0.2259   0.2369
  0.2596   0.2598   0.3107   0.3139   0.3313   0.3314   0.3439   0.3772
  0.3773   0.4444   0.6191   0.6197   0.6873   0.7768   0.7769   0.8212
  0.9145   0.9148   1.0763   1.1288   1.1289   1.1410   1.1715   1.1716
  1.2077   1.2079   1.2592   1.2592   1.4206   1.4209   1.6626   1.6630
  1.6682   1.6684   1.6712   1.6845   1.8399   1.8404   1.9793   1.9849
  2.0105   2.2847   2.2851   2.4738   2.4742   2.5375   2.8154   2.8154
  2.8976   3.1106   3.1109   3.2888   3.2889   3.4904   3.4906   3.5065
  3.5680   3.5685   3.5885   3.8095   3.8406   4.0206   4.0214   5.1759
  5.1966   5.2038   5.2039   5.2086   5.2193   5.2193   5.2420   5.2421
  5.2611   5.2612   5.2930   5.3006   5.3311   5.3767   5.3772   5.5381
  5.5385   5.6367   5.6369   5.7051   6.0916   6.0918   6.1849   6.3046
  6.3046   6.4798   6.9471   7.0026   7.0027   7.0283   7.0286   7.0652
  7.1698   7.1710   7.1907   7.3642   7.4146   7.4150   7.5755   7.7708
  7.7710   7.8030   7.8411   7.8416  25.2606  50.6463  50.6465  50.6902
 --------------------------------------------------------------
 
          Ground-State Mulliken Net Atomic Charges

     Atom                 Charge (a.u.)    Spin (a.u.)
  --------------------------------------------------------
      1 C                     0.549133       0.000000
      2 O                    -0.850242       0.000000
      3 O                    -0.849113       0.000000
      4 O                    -0.849778       0.000000
  --------------------------------------------------------
  Sum of atomic charges =    -2.000000
  Sum of spin   charges =     0.000000

 -----------------------------------------------------------------
                    Cartesian Multipole Moments
 -----------------------------------------------------------------
    Charge (ESU x 10^10)
                -9.6064
    Dipole Moment (Debye)
         X       8.6825      Y     -17.5139      Z       1.6775
       Tot      19.6198
    Quadrupole Moments (Debye-Ang)
        XX     -34.0919     XY      15.3342     YY     -71.1858
        XZ      -2.9593     YZ       3.1139     ZZ     -39.4125
    Octopole Moments (Debye-Ang^2)
       XXX      78.2731    XXY     -61.1853    XYY      63.0054
       YYY    -276.5989    XXZ       8.5453    XYZ      -4.7604
       YYZ      18.0764    XZZ      35.6771    YZZ     -68.3484
       ZZZ      15.1945
    Hexadecapole Moments (Debye-Ang^3)
      XXXX    -164.9993   XXXY     139.0453   XXYY    -172.3066
      XYYY     244.9612   YYYY   -1075.0703   XXXZ     -23.6876
      XXYZ      14.4235   XYYZ     -21.3215   YYYZ      78.9375
      XXZZ     -62.5636   XYZZ      60.7592   YYZZ    -174.1328
      XZZZ     -21.4159   YZZZ      26.1483   ZZZZ    -161.1095
 -----------------------------------------------------------------
 Total job time:  70.02s(wall), 319.15s(cpu) 
 Fri Sep 29 11:11:13 2023

        *************************************************************
        *                                                           *
        *  Thank you very much for using Q-Chem.  Have a nice day.  *
        *                                                           *
        *************************************************************


