
Running Job 1 of 1 Q_in.in
qchem Q_in.in_395414.0 /scratch/ari.fischer/qChem1853786.hpc-mn1/qchem395414/ 0
/usr/local/qchem-5.4.1/exe/qcprog.exe_s Q_in.in_395414.0 /scratch/ari.fischer/qChem1853786.hpc-mn1/qchem395414/
                  Welcome to Q-Chem
     A Quantum Leap Into The Future Of Chemistry


 Q-Chem 5.4, Q-Chem, Inc., Pleasanton, CA (2021)

 License issued to: Nanyang Technological University (site)

 E. Epifanovsky,  A. T. B. Gilbert,  Xintian Feng,  Joonho Lee,  Yuezhi Mao,  
 N. Mardirossian,  P. Pokhilko,  A. White,  M. Wormit,  M. P. Coons,  
 A. L. Dempwolff,  Zhengting Gan,  D. Hait,  P. R. Horn,  L. D. Jacobson,  
 I. Kaliman,  J. Kussmann,  A. W. Lange,  Ka Un Lao,  D. S. Levine,  Jie Liu,  
 S. C. McKenzie,  A. F. Morrison,  K. Nanda,  F. Plasser,  D. R. Rehn,  
 M. L. Vidal,  Zhi-Qiang You,  Ying Zhu,  B. Alam,  B. Albrecht,  
 A. Aldossary,  E. Alguire,  J. H. Andersen,  D. Barton,  K. Begam,  A. Behn,  
 Y. A. Bernard,  E. J. Berquist,  H. Burton,  A. Carreras,  K. Carter-Fenk,  
 R. Chakraborty,  A. D. Chien,  K. D. Closser,  V. Cofer-Shabica,  
 S. Dasgupta,  Jia Deng,  M. de Wergifosse,  M. Diedenhofen,  Hainam Do,  
 S. Ehlert,  Po-Tung Fang,  S. Fatehi,  Qingguo Feng,  T. Friedhoff,  
 J. Gayvert,  Qinghui Ge,  G. Gidofalvi,  M. Goldey,  J. Gomes,  
 C. Gonzalez-Espinoza,  S. Gulania,  A. Gunina,  M. W. D. Hanson-Heine,  
 P. H. P. Harbach,  A. W. Hauser,  M. F. Herbst,  M. Hernandez Vera,  
 M. Hodecker,  Z. C. Holden,  S. Houck,  Xunkun Huang,  Kerwin Hui,  
 B. C. Huynh,  M. Ivanov,  Hyunjun Ji,  Hanjie Jiang,  B. Kaduk,  S. Kaehler,  
 K. Khistyaev,  Jaehoon Kim,  P. Klunzinger,  Z. Koczor-Benda,  
 Joong Hoon Koh,  D. Kosenkov,  L. Koulias,  T. Kowalczyk,  C. M. Krauter,  
 K. Kue,  A. Kunitsa,  T. Kus,  A. Landau,  K. V. Lawler,  D. Lefrancois,  
 S. Lehtola,  Rain Li,  Yi-Pei Li,  Jiashu Liang,  M. Liebenthal,  
 Hung-Hsuan Lin,  You-Sheng Lin,  Fenglai Liu,  Kuan-Yu Liu,  
 M. Loipersberger,  A. Luenser,  A. Manjanath,  P. Manohar,  E. Mansoor,  
 S. F. Manzer,  Shan-Ping Mao,  A. V. Marenich,  T. Markovich,  S. Mason,  
 S. A. Maurer,  P. F. McLaughlin,  M. F. S. J. Menger,  J.-M. Mewes,  
 S. A. Mewes,  P. Morgante,  J. W. Mullinax,  K. J. Oosterbaan,  G. Paran,  
 Alexander C. Paul,  Suranjan K. Paul,  F. Pavosevic,  Zheng Pei,  S. Prager,  
 E. I. Proynov,  E. Ramos,  B. Rana,  A. E. Rask,  A. Rettig,  R. M. Richard,  
 F. Rob,  E. Rossomme,  T. Scheele,  M. Scheurer,  M. Schneider,  
 N. Sergueev,  S. M. Sharada,  W. Skomorowski,  D. W. Small,  C. J. Stein,  
 Yu-Chuan Su,  E. J. Sundstrom,  Zhen Tao,  J. Thirman,  T. Tsuchimochi,  
 N. M. Tubman,  S. P. Veccham,  O. Vydrov,  J. Wenzel,  J. Witte,  A. Yamada,  
 Kun Yao,  S. Yeganeh,  S. R. Yost,  A. Zech,  Igor Ying Zhang,  Xing Zhang,  
 Yu Zhang,  D. Zuev,  A. Aspuru-Guzik,  A. T. Bell,  N. A. Besley,  
 K. B. Bravaya,  B. R. Brooks,  D. Casanova,  Jeng-Da Chai,  S. Coriani,  
 C. J. Cramer,  A. E. DePrince, III,  R. A. DiStasio Jr.,  A. Dreuw,  
 B. D. Dunietz,  T. R. Furlani,  W. A. Goddard III,  S. Grimme,  
 S. Hammes-Schiffer,  T. Head-Gordon,  W. J. Hehre,  Chao-Ping Hsu,  
 T.-C. Jagau,  Yousung Jung,  A. Klamt,  Jing Kong,  D. S. Lambrecht,  
 WanZhen Liang,  N. J. Mayhall,  C. W. McCurdy,  J. B. Neaton,  
 C. Ochsenfeld,  J. A. Parkhill,  R. Peverati,  V. A. Rassolov,  Yihan Shao,  
 L. V. Slipchenko,  T. Stauch,  R. P. Steele,  J. E. Subotnik,  
 A. J. W. Thom,  A. Tkatchenko,  D. G. Truhlar,  T. Van Voorhis,  
 T. A. Wesolowski,  K. B. Whaley,  H. L. Woodcock III,  P. M. Zimmerman,  
 S. Faraji,  P. M. W. Gill,  M. Head-Gordon,  J. M. Herbert,  A. I. Krylov

 Additional authors for Version 5.4.1: 
 S. Kotaru,  Shaozhi Li,  Xiangyuan Li,  F. Matz,  A. Molle,  Haisheng Ren,  
 Yingli Su,  Hung-Yi Tsai,  C. Utku,  Fang Wang

 Contributors to earlier versions of Q-Chem not listed above: 
 R. D. Adamson,  B. Austin,  R. Baer,  J. Baker,  G. J. O. Beran,  
 K. Brandhorst,  S. T. Brown,  E. F. C. Byrd,  A. K. Chakraborty,  
 G. K. L. Chan,  Chun-Min Chang,  Yunqing Chen,  C.-L. Cheng,  
 Siu Hung Chien,  D. M. Chipman,  D. L. Crittenden,  H. Dachsel,  
 R. J. Doerksen,  A. D. Dutoi,  R. G. Edgar,  J. Fosso-Tande,  
 L. Fusti-Molnar,  D. Ghosh,  A. Ghysels,  A. Golubeva-Zadorozhnaya,  
 J. Gonthier,  M. S. Gordon,  S. R. Gwaltney,  G. Hawkins,  J. E. Herr,  
 A. Heyden,  S. Hirata,  E. G. Hohenstein,  G. Kedziora,  F. J. Keil,  
 C. Kelley,  Jihan Kim,  R. A. King,  R. Z. Khaliullin,  P. P. Korambath,  
 W. Kurlancheek,  A. Laurent,  A. M. Lee,  M. S. Lee,  S. V. Levchenko,  
 Ching Yeh Lin,  D. Liotard,  E. Livshits,  R. C. Lochan,  I. Lotan,  
 L. A. Martinez-Martinez,  P. E. Maslen,  N. Nair,  D. P. O'Neill,  
 D. Neuhauser,  E. Neuscamman,  C. M. Oana,  R. Olivares-Amaya,  R. Olson,  
 T. M. Perrine,  B. Peters,  P. A. Pieniazek,  A. Prociuk,  Y. M. Rhee,  
 J. Ritchie,  M. A. Rohrdanz,  E. Rosta,  N. J. Russ,  H. F. Schaefer III,  
 M. W. Schmidt,  N. E. Schultz,  S. Sharma,  N. Shenvi,  C. D. Sherrill,  
 A. C. Simmonett,  A. Sodt,  T. Stein,  D. Stuck,  K. S. Thanthiriwatte,  
 V. Vanovschi,  L. Vogt,  Tao Wang,  A. Warshel,  M. A. Watson,  
 C. F. Williams,  Q. Wu,  X. Xu,  Jun Yang,  W. Zhang,  Yan Zhao

 Please cite Q-Chem as follows:
 Y. Shao et al., Mol. Phys. 113, 184-215 (2015)
 DOI: 10.1080/00268976.2014.952696

 Q-Chem 5.4.1 for Intel X86 EM64T Linux

 Parts of Q-Chem use Armadillo 9.800.1 (Horizon Scraper).
 http://arma.sourceforge.net/

 Q-Chem begins on Wed Dec  6 10:57:05 2023  

 Host: 
0

     Scratch files written to /scratch/ari.fischer/qChem1853786.hpc-mn1/qchem395414//
 Aug1521 |scratch|qcdevops|jenkins|workspace|build_RNUM 8249   
 Processing $rem in /usr/local/qchem-5.4.1/config/preferences:
 Processing $rem in /home/ari.fischer/.qchemrc:
 Symmetry turned off for PCM/SM12/SMD calculation

 Checking the input file for inconsistencies... 	...done.

--------------------------------------------------------------
User input:
--------------------------------------------------------------
$molecule
-1 2
C         0.0335825890    0.2156391192    0.2364698461
O         1.2001413651    0.0826017418    0.8943481755
H        -1.1277621868    1.3766541534   -0.6298194523
C        -0.8393693190   -0.8929137460   -0.0274891381
O        -0.5062190370   -2.0526716429    0.3744233366
O        -1.9104150558   -0.6008046154   -0.6669935653
O        -0.2722929998    1.4647120681   -0.1745756269
H         1.6345905442    0.9437645218    0.9577898244
$end

$rem
BASIS = 6-31G(d)
JOB_TYPE = SP
METHOD = wB97M-V
SCF_ALGORITHM = DIIS_GDM
MAX_SCF_CYCLES = 400
SCF_CONVERGENCE = 7
THRESH = 12
Solvent_method = SMD
$end
--------------------------------------------------------------
 ----------------------------------------------------------------
             Standard Nuclear Orientation (Angstroms)
    I     Atom           X                Y                Z
 ----------------------------------------------------------------
    1      C       0.0335825890     0.2156391192     0.2364698461
    2      O       1.2001413651     0.0826017418     0.8943481755
    3      H      -1.1277621868     1.3766541534    -0.6298194523
    4      C      -0.8393693190    -0.8929137460    -0.0274891381
    5      O      -0.5062190370    -2.0526716429     0.3744233366
    6      O      -1.9104150558    -0.6008046154    -0.6669935653
    7      O      -0.2722929998     1.4647120681    -0.1745756269
    8      H       1.6345905442     0.9437645218     0.9577898244
 ----------------------------------------------------------------
 Nuclear Repulsion Energy =         230.26877983 hartrees
 There are       24 alpha and       23 beta electrons
 Requested basis set is 6-31G(d)
 There are 28 shells and 94 basis functions

 Total QAlloc Memory Limit 288000 MB
 Mega-Array Size       188 MB
 MEM_STATIC part       192 MB
 
 Citation of the SMD model:
 Marenich, A.V.; Cramer, C.J.; Truhlar, D.G.
 J. Phys. Chem. B 2009, 113, 6378-6396.
 iSolventCode=           1
 Solvent: water                                                           
 
 vradii
            1           2           3           4           5           6
    1   1.8500000   1.5200000   1.2000000   1.8500000   1.5200000   1.5200000
            7           8
    1   1.5200000   1.2000000
 Changing PCM_VDW_RADII to SMD_RADIUS
 Discretize the solute cavity surface with Lebedev spheres
	Using 110 Lebedev grid points for each H atom
	Using 194 Lebedev grid points for other atoms
	Atomic van der Waals radii will be scaled by 1.20
 Remove points where switching function is < 1.0e-08
 Keep 774 surface tesserae and discard 610 interior tesserae
 Molecular Surface Area = 94.678 Angst**2

                       Distance Matrix (Angstroms)
             C (  1)   O (  2)   H (  3)   C (  4)   O (  5)   O (  6)
   O (  2)  1.345869
   H (  3)  1.856646  3.068679
   C (  4)  1.435482  2.441520  2.365779
   O (  5)  2.335733  2.782334  3.626995  1.271834
   O (  6)  2.293895  3.546885  2.127033  1.281184  2.272495
   O (  7)  1.350075  2.284927  0.973051  2.429323  3.567648  2.681842
   H (  8)  1.900972  0.966629  3.215352  3.234909  3.728540  4.194363
             O (  7)
   H (  8)  2.278123
 
 A cutoff of  1.0D-12 yielded    385 shell pairs
 There are      4574 function pairs
 Smallest overlap matrix eigenvalue = 1.75E-03

 Scale SEOQF with 1.000000e-01/1.000000e-01/1.000000e+00

 Standard Electronic Orientation quadrupole field applied
 Nucleus-field energy     =    -0.0000000077 hartrees
 Guess from superposition of atomic densities
 Warning:  Energy on first SCF cycle will be non-variational
 SAD guess density has 46.000000 electrons

 -----------------------------------------------------------------------
  General SCF calculation program by
  Eric Jon Sundstrom, Paul Horn, Yuezhi Mao, Dmitri Zuev, Alec White,
  David Stuck, Shaama M.S., Shane Yost, Joonho Lee, David Small,
  Daniel Levine, Susi Lehtola, Hugh Burton, Evgeny Epifanovsky,
  Bang C. Huynh
 -----------------------------------------------------------------------
 Exchange:     0.1500 Hartree-Fock + 1.0000 wB97M-V + LR-HF
 Correlation:  1.0000 wB97M-V
 Using SG-2 standard quadrature grid
 Nonlocal Correlation:  VV10 with C = 0.0100 and b = 6.00 and scale = 1.00000
 Grid used for NLC:  SG-1 standard quadrature
 
 Citation of the SMD model:
 Marenich, A.V.; Cramer, C.J.; Truhlar, D.G.
 J. Phys. Chem. B 2009, 113, 6378-6396.
 iSolventCode=           1
 Solvent: water                                                           
 
 vradii
            1           2           3           4           5           6
    1   1.8500000   1.5200000   1.2000000   1.8500000   1.5200000   1.5200000
            7           8
    1   1.5200000   1.2000000
 using 4 threads for integral computing
 -------------------------------------------------------
 OpenMP Integral computing Module                
 Release: version 1.0, May 2013, Q-Chem Inc. Pittsburgh 
 -------------------------------------------------------
 -------------------------------------------------------
 OpenMP BLAS3 based DFT computing Module                
 Release: version 1.0, May 2013, Q-Chem Inc. Pittsburgh 
 -------------------------------------------------------
 A unrestricted SCF calculation will be
 performed using DIIS, GDM
 SCF converges when RMS gradient is below 1.0e-07
 ---------------------------------------
  Cycle       Energy         DIIS error
 ---------------------------------------
    1    -379.2418999498      4.01e-02  
    2    -378.0923447408      7.92e-03  Done DIIS. Switching to GDM
 ---------------------------------------
  Cycle       Energy        RMS Gradient
 ---------------------------------------
    1    -378.0923447408      2.30e-01   Descent step
    2    -378.2850317323      7.66e-02   Normal BFGS step
    3    -378.3094293032      1.69e-02   Normal BFGS step
    4    -378.3105471366      9.56e-03   Normal BFGS step
    5    -378.3108216352      4.00e-03   Normal BFGS step
    6    -378.3108682885      1.21e-03   Normal BFGS step
    7    -378.3108776618      4.30e-04   Normal BFGS step
    8    -378.3108783944      1.46e-04   Normal BFGS step
    9    -378.3108784912      5.84e-05   Normal BFGS step
   10    -378.3108785160      2.79e-05   Normal BFGS step
   11    -378.3108785194      9.88e-06   Normal BFGS step
   12    -378.3108785206      5.61e-06   Normal BFGS step
   13    -378.3108785206      2.21e-06   Normal BFGS step
   14    -378.3108785207      5.22e-07   Normal BFGS step
   15    -378.3108785207      2.54e-07   Normal BFGS step
   16    -378.3108785207      1.09e-07   Normal BFGS step
   17    -378.3108785207      4.19e-08  Convergence criterion met
 ---------------------------------------
 SCF time:   CPU 110.20s  wall 55.00s 
<S^2> =          0.752842543
(3)  G-ENP(liq) elect-nuc-pol free energy of system     -378.310878521 a.u.
(4)  G-CDS(liq) cavity-dispersion-solvent structure 
     free energy                                                4.9896 kcal/mol
(6)  G-S(liq) free energy of system                     -378.302927138 a.u.
 SCF   energy in the final basis set =     -378.3029271376
 Total energy in the final basis set =     -378.3029271376
 
 --------------------------------------------------------------
 
                    Orbital Energies (a.u.)
 --------------------------------------------------------------
 
 Alpha MOs
 -- Occupied --
-19.3806 -19.3762 -19.2728 -19.2691 -10.4369 -10.4248  -1.2230  -1.1548
 -1.1237  -1.0363  -0.8005  -0.6872  -0.6497  -0.5597  -0.5572  -0.5033
 -0.5002  -0.4842  -0.4730  -0.4455  -0.3453  -0.3440  -0.3234  -0.2171
 -- Virtual --
  0.1866   0.2179   0.2214   0.3488   0.3624   0.4037   0.5112   0.6029
  0.6408   0.6776   0.7181   0.7236   0.7511   0.7884   0.7967   0.8900
  0.9020   0.9797   1.0085   1.0207   1.0847   1.0853   1.1062   1.1068
  1.1367   1.1629   1.2130   1.2537   1.3140   1.3681   1.4216   1.4716
  1.5281   1.5903   1.7034   1.7177   1.7970   1.8012   1.8477   1.8835
  1.9296   1.9406   1.9737   1.9792   2.0244   2.0691   2.0935   2.1692
  2.2037   2.2739   2.3748   2.4386   2.5398   2.6025   2.6370   2.6841
  2.7838   2.8372   2.8467   2.9186   3.0040   3.0503   3.3124   3.3252
  3.8378   4.1140   4.1256   4.2231   4.7222   4.7632
 
 Beta MOs
 -- Occupied --
-19.3773 -19.3728 -19.2703 -19.2665 -10.4271 -10.4246  -1.2139  -1.1471
 -1.1191  -1.0310  -0.7818  -0.6806  -0.6422  -0.5524  -0.5300  -0.4989
 -0.4954  -0.4802  -0.4558  -0.4172  -0.3394  -0.3221  -0.3200
 -- Virtual --
  0.0662   0.1894   0.2242   0.2589   0.3647   0.3762   0.4088   0.5216
  0.6091   0.6579   0.6868   0.7227   0.7280   0.7646   0.7928   0.8050
  0.8936   0.9048   0.9825   1.0226   1.0248   1.0884   1.0980   1.1132
  1.1163   1.1407   1.1668   1.2224   1.2564   1.3168   1.3718   1.4465
  1.4961   1.5347   1.5982   1.7062   1.7212   1.8045   1.8075   1.8544
  1.8859   1.9407   1.9535   1.9791   1.9872   2.0313   2.0828   2.1039
  2.1790   2.2100   2.2836   2.3911   2.4460   2.5656   2.6082   2.6567
  2.7052   2.7931   2.8478   2.8537   2.9284   3.0080   3.0571   3.3230
  3.3384   3.8437   4.1192   4.1306   4.2520   4.7402   4.7682
 --------------------------------------------------------------
 
          Ground-State Mulliken Net Atomic Charges

     Atom                 Charge (a.u.)    Spin (a.u.)
  --------------------------------------------------------
      1 C                     0.391781       0.610671
      2 O                    -0.645993       0.090193
      3 H                     0.449557      -0.004219
      4 C                     0.484086       0.022929
      5 O                    -0.747421       0.098431
      6 O                    -0.751134       0.092941
      7 O                    -0.649732       0.093104
      8 H                     0.468857      -0.004050
  --------------------------------------------------------
  Sum of atomic charges =    -1.000000
  Sum of spin   charges =     1.000000

 -----------------------------------------------------------------
                    Cartesian Multipole Moments
 -----------------------------------------------------------------
    Charge (ESU x 10^10)
                -4.8032
    Dipole Moment (Debye)
         X       5.9126      Y       8.9183      Z       0.2457
       Tot      10.7030
    Quadrupole Moments (Debye-Ang)
        XX     -42.7934     XY      -4.9562     YY     -49.2831
        XZ      -2.0920     YZ       2.4017     ZZ     -35.9644
    Octopole Moments (Debye-Ang^2)
       XXX      67.3499    XXY      28.0128    XYY      22.9301
       YYY      59.5129    XXZ       6.0177    XYZ       6.9749
       YYZ      -8.0240    XZZ      16.3212    YZZ      14.6491
       ZZZ     -10.2979
    Hexadecapole Moments (Debye-Ang^3)
      XXXX    -287.7786   XXXY     -56.2549   XXYY     -90.0297
      XYYY     -64.6907   YYYY    -371.1439   XXXZ     -52.1691
      XXYZ       1.0691   XYYZ      -6.5699   YYYZ      19.7083
      XXZZ     -58.3719   XYZZ     -15.7448   YYZZ     -63.0694
      XZZZ     -43.0065   YZZZ       9.8566   ZZZZ     -83.3106
 -----------------------------------------------------------------
 Total job time:  58.98s(wall), 113.45s(cpu) 
 Wed Dec  6 10:58:04 2023

        *************************************************************
        *                                                           *
        *  Thank you very much for using Q-Chem.  Have a nice day.  *
        *                                                           *
        *************************************************************


