
Running Job 1 of 2 Q_in.in
qchem Q_in.in_23424.0 /scratch/ari.fischer/qChem1629179.hpc-mn1/qchem23424/ 0
/usr/local/qchem-5.4.1/exe/qcprog.exe_s Q_in.in_23424.0 /scratch/ari.fischer/qChem1629179.hpc-mn1/qchem23424/
                  Welcome to Q-Chem
     A Quantum Leap Into The Future Of Chemistry


 Q-Chem 5.4, Q-Chem, Inc., Pleasanton, CA (2021)

 License issued to: Nanyang Technological University (site)

 E. Epifanovsky,  A. T. B. Gilbert,  Xintian Feng,  Joonho Lee,  Yuezhi Mao,  
 N. Mardirossian,  P. Pokhilko,  A. White,  M. Wormit,  M. P. Coons,  
 A. L. Dempwolff,  Zhengting Gan,  D. Hait,  P. R. Horn,  L. D. Jacobson,  
 I. Kaliman,  J. Kussmann,  A. W. Lange,  Ka Un Lao,  D. S. Levine,  Jie Liu,  
 S. C. McKenzie,  A. F. Morrison,  K. Nanda,  F. Plasser,  D. R. Rehn,  
 M. L. Vidal,  Zhi-Qiang You,  Ying Zhu,  B. Alam,  B. Albrecht,  
 A. Aldossary,  E. Alguire,  J. H. Andersen,  D. Barton,  K. Begam,  A. Behn,  
 Y. A. Bernard,  E. J. Berquist,  H. Burton,  A. Carreras,  K. Carter-Fenk,  
 R. Chakraborty,  A. D. Chien,  K. D. Closser,  V. Cofer-Shabica,  
 S. Dasgupta,  Jia Deng,  M. de Wergifosse,  M. Diedenhofen,  Hainam Do,  
 S. Ehlert,  Po-Tung Fang,  S. Fatehi,  Qingguo Feng,  T. Friedhoff,  
 J. Gayvert,  Qinghui Ge,  G. Gidofalvi,  M. Goldey,  J. Gomes,  
 C. Gonzalez-Espinoza,  S. Gulania,  A. Gunina,  M. W. D. Hanson-Heine,  
 P. H. P. Harbach,  A. W. Hauser,  M. F. Herbst,  M. Hernandez Vera,  
 M. Hodecker,  Z. C. Holden,  S. Houck,  Xunkun Huang,  Kerwin Hui,  
 B. C. Huynh,  M. Ivanov,  Hyunjun Ji,  Hanjie Jiang,  B. Kaduk,  S. Kaehler,  
 K. Khistyaev,  Jaehoon Kim,  P. Klunzinger,  Z. Koczor-Benda,  
 Joong Hoon Koh,  D. Kosenkov,  L. Koulias,  T. Kowalczyk,  C. M. Krauter,  
 K. Kue,  A. Kunitsa,  T. Kus,  A. Landau,  K. V. Lawler,  D. Lefrancois,  
 S. Lehtola,  Rain Li,  Yi-Pei Li,  Jiashu Liang,  M. Liebenthal,  
 Hung-Hsuan Lin,  You-Sheng Lin,  Fenglai Liu,  Kuan-Yu Liu,  
 M. Loipersberger,  A. Luenser,  A. Manjanath,  P. Manohar,  E. Mansoor,  
 S. F. Manzer,  Shan-Ping Mao,  A. V. Marenich,  T. Markovich,  S. Mason,  
 S. A. Maurer,  P. F. McLaughlin,  M. F. S. J. Menger,  J.-M. Mewes,  
 S. A. Mewes,  P. Morgante,  J. W. Mullinax,  K. J. Oosterbaan,  G. Paran,  
 Alexander C. Paul,  Suranjan K. Paul,  F. Pavosevic,  Zheng Pei,  S. Prager,  
 E. I. Proynov,  E. Ramos,  B. Rana,  A. E. Rask,  A. Rettig,  R. M. Richard,  
 F. Rob,  E. Rossomme,  T. Scheele,  M. Scheurer,  M. Schneider,  
 N. Sergueev,  S. M. Sharada,  W. Skomorowski,  D. W. Small,  C. J. Stein,  
 Yu-Chuan Su,  E. J. Sundstrom,  Zhen Tao,  J. Thirman,  T. Tsuchimochi,  
 N. M. Tubman,  S. P. Veccham,  O. Vydrov,  J. Wenzel,  J. Witte,  A. Yamada,  
 Kun Yao,  S. Yeganeh,  S. R. Yost,  A. Zech,  Igor Ying Zhang,  Xing Zhang,  
 Yu Zhang,  D. Zuev,  A. Aspuru-Guzik,  A. T. Bell,  N. A. Besley,  
 K. B. Bravaya,  B. R. Brooks,  D. Casanova,  Jeng-Da Chai,  S. Coriani,  
 C. J. Cramer,  A. E. DePrince, III,  R. A. DiStasio Jr.,  A. Dreuw,  
 B. D. Dunietz,  T. R. Furlani,  W. A. Goddard III,  S. Grimme,  
 S. Hammes-Schiffer,  T. Head-Gordon,  W. J. Hehre,  Chao-Ping Hsu,  
 T.-C. Jagau,  Yousung Jung,  A. Klamt,  Jing Kong,  D. S. Lambrecht,  
 WanZhen Liang,  N. J. Mayhall,  C. W. McCurdy,  J. B. Neaton,  
 C. Ochsenfeld,  J. A. Parkhill,  R. Peverati,  V. A. Rassolov,  Yihan Shao,  
 L. V. Slipchenko,  T. Stauch,  R. P. Steele,  J. E. Subotnik,  
 A. J. W. Thom,  A. Tkatchenko,  D. G. Truhlar,  T. Van Voorhis,  
 T. A. Wesolowski,  K. B. Whaley,  H. L. Woodcock III,  P. M. Zimmerman,  
 S. Faraji,  P. M. W. Gill,  M. Head-Gordon,  J. M. Herbert,  A. I. Krylov

 Additional authors for Version 5.4.1: 
 S. Kotaru,  Shaozhi Li,  Xiangyuan Li,  F. Matz,  A. Molle,  Haisheng Ren,  
 Yingli Su,  Hung-Yi Tsai,  C. Utku,  Fang Wang

 Contributors to earlier versions of Q-Chem not listed above: 
 R. D. Adamson,  B. Austin,  R. Baer,  J. Baker,  G. J. O. Beran,  
 K. Brandhorst,  S. T. Brown,  E. F. C. Byrd,  A. K. Chakraborty,  
 G. K. L. Chan,  Chun-Min Chang,  Yunqing Chen,  C.-L. Cheng,  
 Siu Hung Chien,  D. M. Chipman,  D. L. Crittenden,  H. Dachsel,  
 R. J. Doerksen,  A. D. Dutoi,  R. G. Edgar,  J. Fosso-Tande,  
 L. Fusti-Molnar,  D. Ghosh,  A. Ghysels,  A. Golubeva-Zadorozhnaya,  
 J. Gonthier,  M. S. Gordon,  S. R. Gwaltney,  G. Hawkins,  J. E. Herr,  
 A. Heyden,  S. Hirata,  E. G. Hohenstein,  G. Kedziora,  F. J. Keil,  
 C. Kelley,  Jihan Kim,  R. A. King,  R. Z. Khaliullin,  P. P. Korambath,  
 W. Kurlancheek,  A. Laurent,  A. M. Lee,  M. S. Lee,  S. V. Levchenko,  
 Ching Yeh Lin,  D. Liotard,  E. Livshits,  R. C. Lochan,  I. Lotan,  
 L. A. Martinez-Martinez,  P. E. Maslen,  N. Nair,  D. P. O'Neill,  
 D. Neuhauser,  E. Neuscamman,  C. M. Oana,  R. Olivares-Amaya,  R. Olson,  
 T. M. Perrine,  B. Peters,  P. A. Pieniazek,  A. Prociuk,  Y. M. Rhee,  
 J. Ritchie,  M. A. Rohrdanz,  E. Rosta,  N. J. Russ,  H. F. Schaefer III,  
 M. W. Schmidt,  N. E. Schultz,  S. Sharma,  N. Shenvi,  C. D. Sherrill,  
 A. C. Simmonett,  A. Sodt,  T. Stein,  D. Stuck,  K. S. Thanthiriwatte,  
 V. Vanovschi,  L. Vogt,  Tao Wang,  A. Warshel,  M. A. Watson,  
 C. F. Williams,  Q. Wu,  X. Xu,  Jun Yang,  W. Zhang,  Yan Zhao

 Please cite Q-Chem as follows:
 Y. Shao et al., Mol. Phys. 113, 184-215 (2015)
 DOI: 10.1080/00268976.2014.952696

 Q-Chem 5.4.1 for Intel X86 EM64T Linux

 Parts of Q-Chem use Armadillo 9.800.1 (Horizon Scraper).
 http://arma.sourceforge.net/

 Q-Chem begins on Mon Jul 17 19:17:43 2023  

 Host: 
0

     Scratch files written to /scratch/ari.fischer/qChem1629179.hpc-mn1/qchem23424//
 Aug1521 |scratch|qcdevops|jenkins|workspace|build_RNUM 8249   
 Processing $rem in /usr/local/qchem-5.4.1/config/preferences:
 Processing $rem in /home/ari.fischer/.qchemrc:
 Symmetry turned off for PCM/SM12/SMD calculation


!!********************************************.
!!******************Warning*******************.
!!Desired Analytical derivatives not available.
!!Finite difference job might take a long time.
!!********************************************.
!!********************************************.


 2-order derivative to be evaluated numerically with 1-order analytical derivatives

 Checking the input file for inconsistencies... 	...done.

--------------------------------------------------------------
User input:
--------------------------------------------------------------
$molecule
0 2
C    1.4168043   -0.2479923   -0.4442604
O    1.9481362   -1.0974557   -1.4313055
C   -0.0183570    0.1774530   -0.7953105
O   -0.8452622   -0.9522198   -0.8911453
O   -0.0237294    0.8561400   -2.0217286
O    2.2413443    0.8779873   -0.2923378
H    1.4089777   -0.7766841    0.5369303
H    1.6096566   -2.0109501   -1.2397002
H   -0.3772638    1.0717870    0.2705781
H   -1.0908979   -1.1990483    0.0380256
H   -0.9118415    1.2929809   -2.0915581
H    2.4087786    1.2479298   -1.1984163
O    0.1767383    1.6375486    1.2440507
H    1.1330678    1.4721049    1.0437463
$end

$rem
BASIS = 6-311++G(2df,2p)
GUI = 2
JOB_TYPE = Frequency
METHOD = wB97M-V
SCF_ALGORITHM = DIIS_GDM
MAX_SCF_CYCLES = 400
SCF_CONVERGENCE = 6
THRESH = 11
SYMMETRY_IGNORE = 1
solvent_method = SMD
$end

--------------------------------------------------------------
 ----------------------------------------------------------------
             Standard Nuclear Orientation (Angstroms)
    I     Atom           X                Y                Z
 ----------------------------------------------------------------
    1      C       1.4168043000    -0.2479923000    -0.4442604000
    2      O       1.9481362000    -1.0974557000    -1.4313055000
    3      C      -0.0183570000     0.1774530000    -0.7953105000
    4      O      -0.8452622000    -0.9522198000    -0.8911453000
    5      O      -0.0237294000     0.8561400000    -2.0217286000
    6      O       2.2413443000     0.8779873000    -0.2923378000
    7      H       1.4089777000    -0.7766841000     0.5369303000
    8      H       1.6096566000    -2.0109501000    -1.2397002000
    9      H      -0.3772638000     1.0717870000     0.2705781000
   10      H      -1.0908979000    -1.1990483000     0.0380256000
   11      H      -0.9118415000     1.2929809000    -2.0915581000
   12      H       2.4087786000     1.2479298000    -1.1984163000
   13      O       0.1767383000     1.6375486000     1.2440507000
   14      H       1.1330678000     1.4721049000     1.0437463000
 ----------------------------------------------------------------
 Nuclear Repulsion Energy =         352.53158438 hartrees
 There are       30 alpha and       29 beta electrons
 Requested basis set is 6-311++G(2df,2p)
 There are 98 shells and 308 basis functions

 Total QAlloc Memory Limit 288000 MB
 Mega-Array Size       188 MB
 MEM_STATIC part       192 MB
 
 Citation of the SMD model:
 Marenich, A.V.; Cramer, C.J.; Truhlar, D.G.
 J. Phys. Chem. B 2009, 113, 6378-6396.
 iSolventCode=           1
 Solvent: water                                                           
 
 vradii
            1           2           3           4           5           6
    1   1.8500000   1.5200000   1.8500000   1.5200000   1.5200000   1.5200000
            7           8           9          10          11          12
    1   1.2000000   1.2000000   1.2000000   1.2000000   1.2000000   1.2000000
           13          14
    1   1.5200000   1.2000000
 Changing PCM_VDW_RADII to SMD_RADIUS
 Discretize the solute cavity surface with Lebedev spheres
	Using 110 Lebedev grid points for each H atom
	Using 194 Lebedev grid points for other atoms
	Atomic van der Waals radii will be scaled by 1.20
 Remove points where switching function is < 1.0e-08
 Keep 1109 surface tesserae and discard 1019 interior tesserae
 Molecular Surface Area = 126.293 Angst**2

                       Distance Matrix (Angstroms)
             C (  1)   O (  2)   C (  3)   O (  4)   O (  5)   O (  6)
   O (  2)  1.406471
   C (  3)  1.537507  2.428369
   O (  4)  2.410931  2.848849  1.403252
   O (  5)  2.404714  2.837849  1.401694  2.285454
   O (  6)  1.403844  2.299042  2.418673  3.638045  2.849882
   H (  7)  1.114590  2.065802  2.173138  2.674287  3.356412  2.029398
   H (  8)  1.943692  0.992851  2.763516  2.696113  3.391124  3.105235
   H (  9)  2.339122  3.606869  1.436929  2.380174  2.329412  2.685431
   H ( 10)  2.725010  3.377126  1.933791  0.992280  3.099231  3.940438
   H ( 11)  3.242033  3.785445  1.929501  2.546831  0.992194  3.654038
   H ( 12)  1.946933  2.401512  2.683170  3.940032  2.597776  0.992910
   O ( 13)  2.818408  4.216115  2.515738  3.508625  3.363941  2.683285
   H ( 14)  2.292031  3.659626  2.526664  3.678987  3.333876  1.834768
             H (  7)   H (  8)   H (  9)   H ( 10)   H ( 11)   H ( 12)
   H (  8)  2.172579
   H (  9)  2.584269  3.966366
   H ( 10)  2.583926  3.095927  2.391662
   H ( 11)  4.071691  4.242591  2.431951  3.282895
   H ( 12)  2.847822  3.355682  3.154521  4.445697  3.438931
   O ( 13)  2.801241  4.640454  1.254852  3.332819  3.525623  3.331584
   H ( 14)  2.321646  4.192009  1.743314  3.618364  3.747516  2.589399
             O ( 13)
   H ( 14)  0.990989
 
 A cutoff of  1.0D-11 yielded   4504 shell pairs
 There are     44513 function pairs (     55073 Cartesian)
 Smallest overlap matrix eigenvalue = 3.30E-05
 Guess from superposition of atomic densities
 Warning:  Energy on first SCF cycle will be non-variational
 SAD guess density has 59.000000 electrons

 -----------------------------------------------------------------------
  General SCF calculation program by
  Eric Jon Sundstrom, Paul Horn, Yuezhi Mao, Dmitri Zuev, Alec White,
  David Stuck, Shaama M.S., Shane Yost, Joonho Lee, David Small,
  Daniel Levine, Susi Lehtola, Hugh Burton, Evgeny Epifanovsky,
  Bang C. Huynh
 -----------------------------------------------------------------------
 Exchange:     0.1500 Hartree-Fock + 1.0000 wB97M-V + LR-HF
 Correlation:  1.0000 wB97M-V
 Using SG-2 standard quadrature grid
 Nonlocal Correlation:  VV10 with C = 0.0100 and b = 6.00 and scale = 1.00000
 Grid used for NLC:  SG-1 standard quadrature
 using 16 threads for integral computing
 -------------------------------------------------------
 OpenMP Integral computing Module                
 Release: version 1.0, May 2013, Q-Chem Inc. Pittsburgh 
 -------------------------------------------------------
 
 Citation of the SMD model:
 Marenich, A.V.; Cramer, C.J.; Truhlar, D.G.
 J. Phys. Chem. B 2009, 113, 6378-6396.
 iSolventCode=           1
 Solvent: water                                                           
 
 vradii
            1           2           3           4           5           6
    1   1.8500000   1.5200000   1.8500000   1.5200000   1.5200000   1.5200000
            7           8           9          10          11          12
    1   1.2000000   1.2000000   1.2000000   1.2000000   1.2000000   1.2000000
           13          14
    1   1.5200000   1.2000000
 -------------------------------------------------------
 OpenMP BLAS3 based DFT computing Module                
 Release: version 1.0, May 2013, Q-Chem Inc. Pittsburgh 
 -------------------------------------------------------
 A unrestricted SCF calculation will be
 performed using DIIS, GDM
 SCF converges when RMS gradient is below 1.0e-06
 ---------------------------------------
  Cycle       Energy         DIIS error
 ---------------------------------------
    1    -457.3625437882      1.34e-02  
    2    -456.2856681943      2.34e-03  Done DIIS. Switching to GDM
 ---------------------------------------
  Cycle       Energy        RMS Gradient
 ---------------------------------------
    1    -456.2856681943      1.40e-01   Descent step
    2    -456.4691233069      2.83e-02   Normal BFGS step
    3    -456.4940294845      2.34e-02   Normal BFGS step
    4    -456.4956016226      1.02e-02   Normal BFGS step
    5    -456.4967397751      7.52e-03   Normal BFGS step
    6    -456.4968683108      4.62e-03   Normal BFGS step
    7    -456.4969148575      1.60e-03   Normal BFGS step
    8    -456.4969215461      4.52e-04   Normal BFGS step
    9    -456.4969238686      3.03e-04   Normal BFGS step
   10    -456.4969242950      1.29e-04   Normal BFGS step
   11    -456.4969243951      6.32e-05   Normal BFGS step
   12    -456.4969244090      2.04e-05   Normal BFGS step
   13    -456.4969244116      6.00e-06   Normal BFGS step
   14    -456.4969244127      4.39e-06   Normal BFGS step
   15    -456.4969244129      2.69e-06   Normal BFGS step
   16    -456.4969244129      1.23e-06   Normal BFGS step
   17    -456.4969244128      7.42e-07  Convergence criterion met
 ---------------------------------------
 SCF time:   CPU 1045.82s  wall 88.00s 
<S^2> =          0.756828474
(3)  G-ENP(liq) elect-nuc-pol free energy of system     -456.496924413 a.u.
(4)  G-CDS(liq) cavity-dispersion-solvent structure 
     free energy                                                3.2039 kcal/mol
(6)  G-S(liq) free energy of system                     -456.491818676 a.u.
 SCF   energy in the final basis set =     -456.4918186761
 Total energy in the final basis set =     -456.4918186761
 
 --------------------------------------------------------------
 
                    Orbital Energies (a.u.)
 --------------------------------------------------------------
 
 Alpha MOs
 -- Occupied --
-19.3764 -19.3756 -19.3607 -19.3568 -19.3298 -10.4797 -10.4624  -1.2329
 -1.2014  -1.1570  -1.1427  -1.0942  -0.8535  -0.7502  -0.6825  -0.6657
 -0.6444  -0.6347  -0.5802  -0.5653  -0.5414  -0.5197  -0.5030  -0.4844
 -0.4677  -0.4585  -0.4312  -0.4141  -0.4028  -0.3312
 -- Virtual --
  0.0229   0.0413   0.0444   0.0517   0.0675   0.0786   0.0893   0.1059
  0.1168   0.1307   0.1368   0.1399   0.1466   0.1609   0.1657   0.2154
  0.2236   0.2251   0.2325   0.2419   0.2552   0.2571   0.2600   0.2783
  0.2846   0.2952   0.2978   0.3040   0.3072   0.3123   0.3257   0.3334
  0.3354   0.3447   0.3500   0.3614   0.3642   0.3748   0.3867   0.3886
  0.3955   0.4106   0.4199   0.4264   0.4498   0.4641   0.4746   0.5465
  0.5752   0.5878   0.5947   0.6052   0.6175   0.6501   0.6622   0.6707
  0.6877   0.7038   0.7180   0.7467   0.7498   0.7780   0.8022   0.8266
  0.8520   0.8878   0.9023   0.9268   0.9661   0.9749   1.0153   1.0203
  1.0394   1.0695   1.0746   1.0821   1.0995   1.1206   1.1409   1.1456
  1.1605   1.1721   1.1834   1.1912   1.2175   1.2223   1.2391   1.2469
  1.2768   1.2871   1.2967   1.3217   1.3382   1.3693   1.3821   1.4185
  1.4317   1.4373   1.4806   1.4906   1.5059   1.5112   1.5130   1.5434
  1.5829   1.5959   1.6188   1.6328   1.6700   1.6934   1.7601   1.8018
  1.8352   1.8624   1.8940   1.9148   1.9195   1.9418   1.9738   2.0200
  2.0565   2.0853   2.1302   2.1501   2.2250   2.2936   2.3026   2.3301
  2.3569   2.3689   2.3788   2.3924   2.4421   2.4494   2.4735   2.4896
  2.5726   2.5768   2.6802   2.7413   2.7691   2.8141   2.8825   2.9004
  2.9550   3.0047   3.0480   3.1224   3.1636   3.1807   3.2915   3.3088
  3.3762   3.4019   3.4126   3.4579   3.4715   3.4959   3.5505   3.5884
  3.6421   3.6589   3.6782   3.6972   3.7203   3.7501   3.7936   3.7980
  3.8118   3.8370   3.8406   3.8702   3.9086   3.9307   3.9498   4.0072
  4.0283   4.0576   4.0917   4.1272   4.1396   4.1536   4.1824   4.2164
  4.2480   4.2656   4.2762   4.3076   4.3238   4.3529   4.3592   4.4540
  4.5072   4.5781   4.7666   5.1390   5.1477   5.1553   5.1980   5.2189
  5.2266   5.2319   5.2571   5.2639   5.2714   5.2764   5.2845   5.2899
  5.3058   5.3232   5.3407   5.3489   5.3654   5.4168   5.4259   5.4343
  5.4646   5.4854   5.5306   5.5470   5.5727   5.5877   5.6063   5.6152
  5.6212   5.6260   5.6714   5.6950   5.8427   5.8606   5.9082   5.9356
  5.9715   6.0112   6.0583   6.0972   6.1451   6.4004   6.5499   6.7258
  6.7748   6.9857   7.0267   7.0512   7.0628   7.0817   7.0968   7.1189
  7.1338   7.1520   7.1663   7.1712   7.2381   7.2816   7.2853   7.3169
  7.3497   7.3753   7.4168   7.4267   7.4457   7.4526   7.5862   7.6453
  7.6968   7.7036   7.7375   7.7750   7.7914   7.8683   7.8803  24.6040
 24.7910  50.5041  50.5455  50.5572  50.6186  50.6524
 
 Beta MOs
 -- Occupied --
-19.3733 -19.3733 -19.3608 -19.3562 -19.3198 -10.4704 -10.4620  -1.2277
 -1.1983  -1.1512  -1.1409  -1.0719  -0.8446  -0.7447  -0.6756  -0.6590
 -0.6346  -0.6169  -0.5775  -0.5527  -0.5321  -0.5042  -0.4936  -0.4746
 -0.4575  -0.4327  -0.4273  -0.4032  -0.3928
 -- Virtual --
 -0.0483   0.0241   0.0415   0.0448   0.0520   0.0677   0.0792   0.0894
  0.1062   0.1166   0.1317   0.1370   0.1403   0.1473   0.1626   0.1678
  0.2170   0.2252   0.2266   0.2350   0.2426   0.2569   0.2615   0.2621
  0.2814   0.2886   0.2969   0.3032   0.3051   0.3087   0.3143   0.3294
  0.3350   0.3386   0.3493   0.3506   0.3644   0.3672   0.3767   0.3905
  0.3968   0.4000   0.4123   0.4235   0.4308   0.4520   0.4668   0.4767
  0.5558   0.5778   0.5900   0.5968   0.6070   0.6196   0.6528   0.6643
  0.6737   0.6905   0.7088   0.7208   0.7507   0.7540   0.7808   0.8095
  0.8285   0.8538   0.8892   0.9035   0.9282   0.9682   0.9770   1.0160
  1.0217   1.0425   1.0733   1.0770   1.0882   1.1029   1.1239   1.1454
  1.1509   1.1648   1.1798   1.1866   1.1965   1.2222   1.2265   1.2434
  1.2489   1.2797   1.2915   1.3013   1.3248   1.3417   1.3739   1.3875
  1.4244   1.4342   1.4406   1.4825   1.4933   1.5090   1.5127   1.5159
  1.5502   1.5883   1.5987   1.6264   1.6374   1.6769   1.7009   1.7653
  1.8061   1.8437   1.8674   1.9016   1.9180   1.9260   1.9453   1.9780
  2.0234   2.0613   2.0894   2.1348   2.1549   2.2309   2.2994   2.3076
  2.3349   2.3631   2.3717   2.3833   2.3974   2.4482   2.4549   2.4792
  2.4944   2.5760   2.5866   2.6860   2.7481   2.7762   2.8178   2.8875
  2.9038   2.9642   3.0153   3.0592   3.1437   3.1707   3.1880   3.3090
  3.3170   3.3919   3.4125   3.4203   3.4795   3.4828   3.5067   3.5663
  3.5987   3.6535   3.6734   3.6941   3.7277   3.7366   3.7687   3.7971
  3.8048   3.8147   3.8413   3.8450   3.8794   3.9164   3.9425   3.9571
  4.0187   4.0351   4.0674   4.1003   4.1324   4.1417   4.1572   4.1869
  4.2187   4.2528   4.2738   4.2834   4.3133   4.3321   4.3609   4.3723
  4.4570   4.5245   4.5902   4.7834   5.1497   5.1641   5.1682   5.2076
  5.2290   5.2358   5.2388   5.2634   5.2733   5.2777   5.2834   5.2943
  5.2990   5.3107   5.3292   5.3463   5.3548   5.3846   5.4264   5.4331
  5.4379   5.4694   5.4925   5.5338   5.5494   5.5839   5.5928   5.6130
  5.6205   5.6267   5.6308   5.6776   5.7016   5.8494   5.8647   5.9174
  5.9399   5.9751   6.0172   6.0706   6.1158   6.1541   6.4108   6.5518
  6.7334   6.7780   7.0213   7.0367   7.0666   7.0743   7.0885   7.1023
  7.1258   7.1359   7.1666   7.1748   7.1790   7.2439   7.2909   7.2924
  7.3231   7.3540   7.3846   7.4239   7.4366   7.4666   7.4730   7.5884
  7.6507   7.7034   7.7347   7.7420   7.7829   7.7954   7.8703   7.8866
 24.6099  24.7936  50.5102  50.5481  50.5586  50.6196  50.6534
 --------------------------------------------------------------
 
          Ground-State Mulliken Net Atomic Charges

     Atom                 Charge (a.u.)    Spin (a.u.)
  --------------------------------------------------------
      1 C                    -0.162381      -0.001493
      2 O                    -0.467609       0.019835
      3 C                    -0.015349       0.505274
      4 O                    -0.377665       0.090827
      5 O                    -0.363932       0.066526
      6 O                    -0.405499       0.001106
      7 H                     0.314622      -0.000902
      8 H                     0.354227       0.000129
      9 H                     0.349489       0.005205
     10 H                     0.362248      -0.004680
     11 H                     0.370531      -0.000961
     12 H                     0.376609      -0.000093
     13 O                    -0.647024       0.320128
     14 H                     0.311733      -0.000902
  --------------------------------------------------------
  Sum of atomic charges =    -0.000000
  Sum of spin   charges =     1.000000

 -----------------------------------------------------------------
                    Cartesian Multipole Moments
 -----------------------------------------------------------------
    Charge (ESU x 10^10)
                -0.0000
    Dipole Moment (Debye)
         X      -1.8205      Y      -3.4094      Z      -0.9877
       Tot       3.9892
    Quadrupole Moments (Debye-Ang)
        XX     -43.5985     XY      -1.3917     YY     -41.0790
        XZ       2.3862     YZ     -10.7021     ZZ     -50.6012
    Octopole Moments (Debye-Ang^2)
       XXX    -105.6158    XXY      -0.1226    XYY     -22.8639
       YYY     -51.7639    XXZ      25.9603    XYZ       2.6144
       YYZ       8.5982    XZZ     -34.7040    YZZ      -6.5031
       ZZZ      80.0931
    Hexadecapole Moments (Debye-Ang^3)
      XXXX    -522.9503   XXXY       9.3134   XXYY    -104.1772
      XYYY     -25.9743   YYYY    -298.0875   XXXZ      53.2394
      XXYZ     -42.4793   XYYZ      10.8054   YYYZ     -60.7605
      XXZZ    -136.0357   XYZZ      -2.7973   YYZZ    -114.3399
      XZZZ      76.5488   YZZZ     -75.5389   ZZZZ    -429.6678
 -----------------------------------------------------------------
 Calculating analytic gradient of the SCF energy
 Gradient of CDS energy
            1           2           3           4           5           6
    1   0.0028961  -0.0011340  -0.0021181   0.0020943   0.0000738  -0.0016928
    2   0.0002916   0.0017617  -0.0009119   0.0026583  -0.0018886  -0.0021747
    3  -0.0013897   0.0017005  -0.0031915   0.0000458   0.0029768  -0.0003258
            7           8           9          10          11          12
    1  -0.0001160   0.0001314   0.0000364  -0.0003334  -0.0002322   0.0003094
    2   0.0000459  -0.0004692   0.0002012  -0.0003350   0.0003052   0.0003397
    3   0.0001758  -0.0001333   0.0002313   0.0002034  -0.0003422  -0.0001883
           13          14
    1  -0.0002074   0.0002925
    2  -0.0000534   0.0002292
    3  -0.0000214   0.0002587
 Gradient of SCF Energy
            1           2           3           4           5           6
    1  -0.0003816   0.0169134   0.0012428   0.0091699   0.0369990  -0.0115247
    2   0.0127257   0.0351620   0.0210181  -0.0129710  -0.0154829  -0.0019343
    3  -0.0340557  -0.0113404   0.0465418  -0.0560738  -0.0282304   0.0366323
            7           8           9          10          11          12
    1  -0.0000774  -0.0151122  -0.0359040  -0.0090565  -0.0342466   0.0065804
    2  -0.0175481  -0.0378169  -0.0155183  -0.0067999   0.0181332   0.0092810
    3   0.0214162   0.0132397  -0.0332878   0.0412206   0.0035938  -0.0281319
           13          14
    1   0.0134453   0.0219523
    2   0.0225413  -0.0107899
    3   0.0318318  -0.0033561
 Max gradient component =       5.607E-02
 RMS gradient           =       2.424E-02
 Computing fast CPCM-SWIG gradient
 Updating gradient with PCM contributions...
 -- total gradient after adding PCM contribution --
---------------------------------------------------
  Atom         X              Y              Z     
---------------------------------------------------
   1      -0.001545       0.003523      -0.021548
   2       0.010249       0.020154      -0.004103
   3      -0.002853       0.020577       0.042916
   4       0.006070      -0.016905      -0.032223
   5       0.022865      -0.006708      -0.026786
   6      -0.010439       0.001116       0.028152
   7       0.002358      -0.008617       0.012432
   8      -0.009152      -0.022869       0.006647
   9      -0.031907      -0.013543      -0.031444
  10      -0.005178      -0.000416       0.020846
  11      -0.019614       0.010478       0.003381
  12       0.005014       0.005312      -0.021620
  13       0.012438       0.014958       0.024960
  14       0.021695      -0.007059      -0.001610
---------------------------------------------------
 Number of fixed atoms: 0
 Gradient time:  CPU 129.07 s  wall 13.04 s
 ######################################################
 ######################################################
 # Starting finite difference calculation for IDERIV  #
 Finite diff step size:  1.88973e-03 a.u.
 ----------------------------------------------------------------
             Standard Nuclear Orientation (Angstroms)
    I     Atom           X                Y                Z
 ----------------------------------------------------------------
    1      C       1.4178043000    -0.2479923000    -0.4442604000
    2      O       1.9481362000    -1.0974557000    -1.4313055000
    3      C      -0.0183570000     0.1774530000    -0.7953105000
    4      O      -0.8452622000    -0.9522198000    -0.8911453000
    5      O      -0.0237294000     0.8561400000    -2.0217286000
    6      O       2.2413443000     0.8779873000    -0.2923378000
    7      H       1.4089777000    -0.7766841000     0.5369303000
    8      H       1.6096566000    -2.0109501000    -1.2397002000
    9      H      -0.3772638000     1.0717870000     0.2705781000
   10      H      -1.0908979000    -1.1990483000     0.0380256000
   11      H      -0.9118415000     1.2929809000    -2.0915581000
   12      H       2.4087786000     1.2479298000    -1.1984163000
   13      O       0.1767383000     1.6375486000     1.2440507000
   14      H       1.1330678000     1.4721049000     1.0437463000
 ----------------------------------------------------------------
 Nuclear Repulsion Energy =         352.52770822 hartrees
 There are       30 alpha and       29 beta electrons
 Discretize the solute cavity surface with Lebedev spheres
	Using 110 Lebedev grid points for each H atom
	Using 194 Lebedev grid points for other atoms
	Atomic van der Waals radii will be scaled by 1.20
 Remove points where switching function is < 1.0e-08
 Keep 1108 surface tesserae and discard 1020 interior tesserae
 Molecular Surface Area = 126.295 Angst**2

                       Distance Matrix (Angstroms)
             C (  1)   O (  2)   C (  3)   O (  4)   O (  5)   O (  6)
   O (  2)  1.406093
   C (  3)  1.538440  2.428369
   O (  4)  2.411869  2.848849  1.403252
   O (  5)  2.405314  2.837849  1.401694  2.285454
   O (  6)  1.403256  2.299042  2.418673  3.638045  2.849882
   H (  7)  1.114598  2.065802  2.173138  2.674287  3.356412  2.029398
   H (  8)  1.943593  0.992851  2.763516  2.696113  3.391124  3.105235
   H (  9)  2.339889  3.606869  1.436929  2.380174  2.329412  2.685431
   H ( 10)  2.725930  3.377126  1.933791  0.992280  3.099231  3.940438
   H ( 11)  3.242752  3.785445  1.929501  2.546831  0.992194  3.654038
   H ( 12)  1.946423  2.401512  2.683170  3.940032  2.597776  0.992910
   O ( 13)  2.818848  4.216115  2.515738  3.508625  3.363941  2.683285
   H ( 14)  2.292155  3.659626  2.526664  3.678987  3.333876  1.834768
             H (  7)   H (  8)   H (  9)   H ( 10)   H ( 11)   H ( 12)
   H (  8)  2.172579
   H (  9)  2.584269  3.966366
   H ( 10)  2.583926  3.095927  2.391662
   H ( 11)  4.071691  4.242591  2.431951  3.282895
   H ( 12)  2.847822  3.355682  3.154521  4.445697  3.438931
   O ( 13)  2.801241  4.640454  1.254852  3.332819  3.525623  3.331584
   H ( 14)  2.321646  4.192009  1.743314  3.618364  3.747516  2.589399
             O ( 13)
   H ( 14)  0.990989
 
 Requested basis set is 6-311++G(2df,2p)
 There are 98 shells and 308 basis functions
 A cutoff of  1.0D-11 yielded   4504 shell pairs
 There are     44513 function pairs (     55073 Cartesian)
 Smallest overlap matrix eigenvalue = 3.31E-05
 Guess MOs from SCF MO coefficient file

 -----------------------------------------------------------------------
  General SCF calculation program by
  Eric Jon Sundstrom, Paul Horn, Yuezhi Mao, Dmitri Zuev, Alec White,
  David Stuck, Shaama M.S., Shane Yost, Joonho Lee, David Small,
  Daniel Levine, Susi Lehtola, Hugh Burton, Evgeny Epifanovsky,
  Bang C. Huynh
 -----------------------------------------------------------------------
 Exchange:     0.1500 Hartree-Fock + 1.0000 wB97M-V + LR-HF
 Correlation:  1.0000 wB97M-V
 Using SG-2 standard quadrature grid
 Nonlocal Correlation:  VV10 with C = 0.0100 and b = 6.00 and scale = 1.00000
 Grid used for NLC:  SG-1 standard quadrature
 
 Citation of the SMD model:
 Marenich, A.V.; Cramer, C.J.; Truhlar, D.G.
 J. Phys. Chem. B 2009, 113, 6378-6396.
 iSolventCode=           1
 Solvent: water                                                           
 
 vradii
            1           2           3           4           5           6
    1   1.8500000   1.5200000   1.8500000   1.5200000   1.5200000   1.5200000
            7           8           9          10          11          12
    1   1.2000000   1.2000000   1.2000000   1.2000000   1.2000000   1.2000000
           13          14
    1   1.5200000   1.2000000
 -------------------------------------------------------
 OpenMP BLAS3 based DFT computing Module                
 Release: version 1.0, May 2013, Q-Chem Inc. Pittsburgh 
 -------------------------------------------------------
 A unrestricted SCF calculation will be
 performed using Roothaan-Hall, DIIS, GDM
 SCF converges when RMS gradient is below 1.0e-06
 ---------------------------------------
  Cycle       Energy         DIIS error
 ---------------------------------------
    1    -456.4421385526      3.19e-04  Roothaan Step
 ---------------------------------------
  Cycle       Energy         DIIS error
 ---------------------------------------
    1    -456.4871877812      3.80e-04  
    2    -456.4923617600      3.72e-04  Done DIIS. Switching to GDM
 ---------------------------------------
  Cycle       Energy        RMS Gradient
 ---------------------------------------
    1    -456.4923617600      2.10e-02   Normal BFGS step
    2    -456.4908872054      2.85e-02  Line search: overstep
    3    -456.4966606960      6.07e-03   Normal BFGS step
    4    -456.4968695735      2.45e-03   Normal BFGS step
    5    -456.4969119947      2.19e-03   Normal BFGS step
    6    -456.4969262360      6.69e-04   Normal BFGS step
    7    -456.4969304120      4.26e-04   Normal BFGS step
    8    -456.4969318375      1.01e-04   Normal BFGS step
    9    -456.4969319589      3.32e-05   Normal BFGS step
   10    -456.4969319797      1.87e-05   Normal BFGS step
   11    -456.4969319842      1.40e-05   Normal BFGS step
   12    -456.4969319850      6.65e-06   Normal BFGS step
   13    -456.4969319852      3.52e-06   Normal BFGS step
   14    -456.4969319853      1.66e-06   Normal BFGS step
   15    -456.4969319854      1.03e-06   Normal BFGS step
   16    -456.4969319854      4.39e-07  Convergence criterion met
 ---------------------------------------
 SCF time:   CPU 1047.95s  wall 90.00s 
<S^2> =          0.756824076
(3)  G-ENP(liq) elect-nuc-pol free energy of system     -456.496931985 a.u.
(4)  G-CDS(liq) cavity-dispersion-solvent structure 
     free energy                                                3.2074 kcal/mol
(6)  G-S(liq) free energy of system                     -456.491820689 a.u.
 SCF   energy in the final basis set =     -456.4918206894
 Total energy in the final basis set =     -456.4918206894
 
 --------------------------------------------------------------
 
                    Orbital Energies (a.u.)
 --------------------------------------------------------------
 
 Alpha MOs
 -- Occupied --
-19.3764 -19.3755 -19.3608 -19.3568 -19.3298 -10.4797 -10.4624  -1.2329
 -1.2015  -1.1570  -1.1428  -1.0942  -0.8532  -0.7502  -0.6825  -0.6656
 -0.6445  -0.6347  -0.5802  -0.5653  -0.5414  -0.5197  -0.5029  -0.4844
 -0.4677  -0.4585  -0.4312  -0.4141  -0.4027  -0.3311
 -- Virtual --
  0.0229   0.0413   0.0444   0.0517   0.0675   0.0786   0.0893   0.1059
  0.1168   0.1307   0.1368   0.1399   0.1466   0.1609   0.1657   0.2155
  0.2237   0.2251   0.2325   0.2419   0.2552   0.2571   0.2600   0.2783
  0.2847   0.2953   0.2978   0.3040   0.3073   0.3123   0.3256   0.3333
  0.3354   0.3446   0.3499   0.3614   0.3642   0.3749   0.3867   0.3886
  0.3954   0.4106   0.4199   0.4264   0.4498   0.4641   0.4746   0.5465
  0.5752   0.5878   0.5947   0.6051   0.6176   0.6501   0.6623   0.6708
  0.6878   0.7039   0.7180   0.7466   0.7497   0.7780   0.8022   0.8266
  0.8519   0.8878   0.9023   0.9269   0.9661   0.9748   1.0153   1.0203
  1.0394   1.0695   1.0746   1.0821   1.0995   1.1207   1.1408   1.1456
  1.1606   1.1721   1.1834   1.1912   1.2175   1.2223   1.2391   1.2470
  1.2767   1.2871   1.2966   1.3217   1.3383   1.3693   1.3821   1.4184
  1.4314   1.4373   1.4806   1.4906   1.5059   1.5112   1.5130   1.5435
  1.5828   1.5959   1.6189   1.6327   1.6699   1.6934   1.7599   1.8018
  1.8352   1.8626   1.8940   1.9148   1.9195   1.9418   1.9738   2.0200
  2.0564   2.0852   2.1302   2.1503   2.2250   2.2937   2.3028   2.3303
  2.3569   2.3689   2.3789   2.3924   2.4422   2.4495   2.4735   2.4897
  2.5726   2.5768   2.6801   2.7412   2.7691   2.8141   2.8824   2.9004
  2.9550   3.0048   3.0479   3.1226   3.1638   3.1802   3.2917   3.3090
  3.3759   3.4020   3.4128   3.4580   3.4717   3.4958   3.5506   3.5881
  3.6420   3.6591   3.6779   3.6973   3.7204   3.7500   3.7936   3.7982
  3.8117   3.8370   3.8404   3.8702   3.9086   3.9306   3.9499   4.0067
  4.0283   4.0575   4.0911   4.1269   4.1396   4.1535   4.1822   4.2163
  4.2480   4.2654   4.2762   4.3076   4.3237   4.3524   4.3591   4.4541
  4.5066   4.5779   4.7660   5.1390   5.1477   5.1554   5.1980   5.2189
  5.2267   5.2319   5.2571   5.2640   5.2715   5.2764   5.2845   5.2899
  5.3058   5.3233   5.3406   5.3489   5.3654   5.4168   5.4259   5.4344
  5.4645   5.4853   5.5306   5.5470   5.5727   5.5876   5.6064   5.6152
  5.6212   5.6260   5.6716   5.6949   5.8428   5.8607   5.9084   5.9362
  5.9719   6.0116   6.0588   6.0972   6.1466   6.4001   6.5505   6.7261
  6.7759   6.9857   7.0267   7.0512   7.0628   7.0817   7.0969   7.1190
  7.1338   7.1520   7.1663   7.1713   7.2382   7.2816   7.2853   7.3171
  7.3497   7.3753   7.4169   7.4267   7.4457   7.4526   7.5865   7.6453
  7.6968   7.7036   7.7376   7.7749   7.7917   7.8684   7.8803  24.6044
 24.7908  50.5041  50.5456  50.5573  50.6187  50.6525
 
 Beta MOs
 -- Occupied --
-19.3733 -19.3733 -19.3608 -19.3562 -19.3198 -10.4704 -10.4620  -1.2277
 -1.1984  -1.1512  -1.1410  -1.0719  -0.8444  -0.7447  -0.6757  -0.6590
 -0.6346  -0.6169  -0.5775  -0.5528  -0.5321  -0.5043  -0.4936  -0.4746
 -0.4575  -0.4327  -0.4274  -0.4032  -0.3926
 -- Virtual --
 -0.0483   0.0241   0.0415   0.0448   0.0520   0.0677   0.0792   0.0894
  0.1062   0.1166   0.1317   0.1370   0.1404   0.1473   0.1626   0.1678
  0.2170   0.2252   0.2266   0.2350   0.2426   0.2569   0.2615   0.2621
  0.2814   0.2888   0.2969   0.3033   0.3051   0.3087   0.3143   0.3293
  0.3350   0.3385   0.3493   0.3506   0.3644   0.3672   0.3768   0.3905
  0.3968   0.3999   0.4123   0.4235   0.4307   0.4520   0.4668   0.4766
  0.5558   0.5778   0.5901   0.5968   0.6070   0.6196   0.6528   0.6643
  0.6738   0.6906   0.7089   0.7208   0.7506   0.7540   0.7808   0.8095
  0.8285   0.8538   0.8892   0.9035   0.9282   0.9682   0.9770   1.0159
  1.0216   1.0425   1.0733   1.0770   1.0882   1.1029   1.1240   1.1453
  1.1509   1.1649   1.1798   1.1866   1.1965   1.2222   1.2265   1.2435
  1.2490   1.2796   1.2916   1.3012   1.3248   1.3418   1.3739   1.3874
  1.4243   1.4339   1.4405   1.4825   1.4933   1.5090   1.5127   1.5159
  1.5502   1.5883   1.5987   1.6264   1.6373   1.6768   1.7008   1.7652
  1.8062   1.8437   1.8675   1.9015   1.9180   1.9260   1.9453   1.9780
  2.0234   2.0612   2.0894   2.1349   2.1551   2.2310   2.2995   2.3077
  2.3350   2.3631   2.3717   2.3833   2.3974   2.4482   2.4549   2.4792
  2.4945   2.5760   2.5866   2.6860   2.7479   2.7762   2.8178   2.8874
  2.9039   2.9642   3.0154   3.0591   3.1440   3.1708   3.1876   3.3093
  3.3170   3.3916   3.4126   3.4205   3.4796   3.4829   3.5065   3.5664
  3.5985   3.6534   3.6735   3.6937   3.7278   3.7366   3.7687   3.7972
  3.8049   3.8147   3.8413   3.8449   3.8794   3.9165   3.9425   3.9572
  4.0183   4.0351   4.0673   4.0998   4.1321   4.1417   4.1571   4.1867
  4.2186   4.2527   4.2737   4.2832   4.3133   4.3319   4.3609   4.3717
  4.4571   4.5239   4.5901   4.7828   5.1497   5.1641   5.1682   5.2076
  5.2290   5.2358   5.2389   5.2634   5.2734   5.2778   5.2834   5.2942
  5.2989   5.3107   5.3292   5.3463   5.3548   5.3847   5.4264   5.4331
  5.4380   5.4693   5.4925   5.5338   5.5494   5.5839   5.5928   5.6130
  5.6206   5.6267   5.6308   5.6778   5.7015   5.8494   5.8649   5.9176
  5.9405   5.9754   6.0175   6.0713   6.1159   6.1553   6.4105   6.5524
  6.7337   6.7790   7.0212   7.0367   7.0667   7.0743   7.0885   7.1023
  7.1259   7.1359   7.1666   7.1748   7.1791   7.2440   7.2909   7.2924
  7.3233   7.3540   7.3846   7.4240   7.4366   7.4666   7.4731   7.5886
  7.6506   7.7034   7.7348   7.7420   7.7828   7.7956   7.8704   7.8866
 24.6104  24.7934  50.5103  50.5481  50.5587  50.6197  50.6535
 --------------------------------------------------------------
 
          Ground-State Mulliken Net Atomic Charges

     Atom                 Charge (a.u.)    Spin (a.u.)
  --------------------------------------------------------
      1 C                    -0.162274      -0.001377
      2 O                    -0.467469       0.019820
      3 C                    -0.015630       0.505261
      4 O                    -0.377703       0.090810
      5 O                    -0.363958       0.066503
      6 O                    -0.405145       0.001132
      7 H                     0.314507      -0.000900
      8 H                     0.354262       0.000129
      9 H                     0.349470       0.005283
     10 H                     0.362232      -0.004685
     11 H                     0.370520      -0.000961
     12 H                     0.376642      -0.000093
     13 O                    -0.647189       0.319977
     14 H                     0.311734      -0.000899
  --------------------------------------------------------
  Sum of atomic charges =    -0.000000
  Sum of spin   charges =     1.000000

 -----------------------------------------------------------------
                    Cartesian Multipole Moments
 -----------------------------------------------------------------
    Charge (ESU x 10^10)
                 0.0000
    Dipole Moment (Debye)
         X      -1.8147      Y      -3.4103      Z      -0.9896
       Tot       3.9878
    Quadrupole Moments (Debye-Ang)
        XX     -43.5853     XY      -1.3905     YY     -41.0791
        XZ       2.3807     YZ     -10.7019     ZZ     -50.6036
    Octopole Moments (Debye-Ang^2)
       XXX    -105.5917    XXY      -0.1191    XYY     -22.8610
       YYY     -51.7703    XXZ      25.9508    XYZ       2.6154
       YYZ       8.5917    XZZ     -34.7032    YZZ      -6.5099
       ZZZ      80.0902
    Hexadecapole Moments (Debye-Ang^3)
      XXXX    -522.9408   XXXY       9.3263   XXYY    -104.1802
      XYYY     -25.9688   YYYY    -298.0875   XXXZ      53.2222
      XXYZ     -42.4795   XYYZ      10.7982   YYYZ     -60.7623
      XXZZ    -136.0440   XYZZ      -2.7962   YYZZ    -114.3454
      XZZZ      76.5407   YZZZ     -75.5348   ZZZZ    -429.6870
 -----------------------------------------------------------------
 Calculating analytic gradient of the SCF energy
 Gradient of CDS energy
            1           2           3           4           5           6
    1   0.0029871  -0.0011660  -0.0021186   0.0020944   0.0000737  -0.0017490
    2   0.0003171   0.0018153  -0.0009118   0.0026583  -0.0018886  -0.0022536
    3  -0.0014405   0.0017622  -0.0031915   0.0000459   0.0029768  -0.0003366
            7           8           9          10          11          12
    1  -0.0001172   0.0001311   0.0000365  -0.0003334  -0.0002322   0.0003089
    2   0.0000461  -0.0004691   0.0002012  -0.0003350   0.0003052   0.0003393
    3   0.0001754  -0.0001331   0.0002313   0.0002034  -0.0003423  -0.0001884
           13          14
    1  -0.0002074   0.0002922
    2  -0.0000534   0.0002291
    3  -0.0000213   0.0002587
 Gradient of SCF Energy
            1           2           3           4           5           6
    1   0.0006081   0.0166905   0.0009702   0.0091326   0.0369905  -0.0118431
    2   0.0128042   0.0352842   0.0210891  -0.0129789  -0.0154747  -0.0021703
    3  -0.0341413  -0.0111597   0.0464659  -0.0560616  -0.0282210   0.0366548
            7           8           9          10          11          12
    1  -0.0002041  -0.0151056  -0.0359103  -0.0090604  -0.0342378   0.0065734
    2  -0.0175375  -0.0378415  -0.0155082  -0.0068023   0.0181296   0.0092627
    3   0.0213994   0.0132210  -0.0332832   0.0412143   0.0035970  -0.0281437
           13          14
    1   0.0134274   0.0219685
    2   0.0225319  -0.0107881
    3   0.0318216  -0.0033635
 Max gradient component =       5.606E-02
 RMS gradient           =       2.424E-02
 Computing fast CPCM-SWIG gradient
 Updating gradient with PCM contributions...
 -- total gradient after adding PCM contribution --
---------------------------------------------------
  Atom         X              Y              Z     
---------------------------------------------------
   1      -0.000587       0.003600      -0.021638
   2       0.010036       0.020273      -0.003926
   3      -0.003123       0.020642       0.042839
   4       0.006036      -0.016915      -0.032217
   5       0.022867      -0.006702      -0.026777
   6      -0.010742       0.000889       0.028159
   7       0.002244      -0.008612       0.012422
   8      -0.009148      -0.022885       0.006631
   9      -0.031920      -0.013532      -0.031439
  10      -0.005184      -0.000419       0.020848
  11      -0.019614       0.010478       0.003384
  12       0.004999       0.005290      -0.021621
  13       0.012427       0.014950       0.024951
  14       0.021708      -0.007057      -0.001615
---------------------------------------------------
 Number of fixed atoms: 0
 Gradient time:  CPU 131.00 s  wall 13.78 s
 ----------------------------------------------------------------
             Standard Nuclear Orientation (Angstroms)
    I     Atom           X                Y                Z
 ----------------------------------------------------------------
    1      C       1.4158043000    -0.2479923000    -0.4442604000
    2      O       1.9481362000    -1.0974557000    -1.4313055000
    3      C      -0.0183570000     0.1774530000    -0.7953105000
    4      O      -0.8452622000    -0.9522198000    -0.8911453000
    5      O      -0.0237294000     0.8561400000    -2.0217286000
    6      O       2.2413443000     0.8779873000    -0.2923378000
    7      H       1.4089777000    -0.7766841000     0.5369303000
    8      H       1.6096566000    -2.0109501000    -1.2397002000
    9      H      -0.3772638000     1.0717870000     0.2705781000
   10      H      -1.0908979000    -1.1990483000     0.0380256000
   11      H      -0.9118415000     1.2929809000    -2.0915581000
   12      H       2.4087786000     1.2479298000    -1.1984163000
   13      O       0.1767383000     1.6375486000     1.2440507000
   14      H       1.1330678000     1.4721049000     1.0437463000
 ----------------------------------------------------------------
 Nuclear Repulsion Energy =         352.53546416 hartrees
 There are       30 alpha and       29 beta electrons
 Discretize the solute cavity surface with Lebedev spheres
	Using 110 Lebedev grid points for each H atom
	Using 194 Lebedev grid points for other atoms
	Atomic van der Waals radii will be scaled by 1.20
 Remove points where switching function is < 1.0e-08
 Keep 1109 surface tesserae and discard 1019 interior tesserae
 Molecular Surface Area = 126.291 Angst**2

                       Distance Matrix (Angstroms)
             C (  1)   O (  2)   C (  3)   O (  4)   O (  5)   O (  6)
   O (  2)  1.406849
   C (  3)  1.536574  2.428369
   O (  4)  2.409993  2.848849  1.403252
   O (  5)  2.404115  2.837849  1.401694  2.285454
   O (  6)  1.404431  2.299042  2.418673  3.638045  2.849882
   H (  7)  1.114584  2.065802  2.173138  2.674287  3.356412  2.029398
   H (  8)  1.943791  0.992851  2.763516  2.696113  3.391124  3.105235
   H (  9)  2.338355  3.606869  1.436929  2.380174  2.329412  2.685431
   H ( 10)  2.724089  3.377126  1.933791  0.992280  3.099231  3.940438
   H ( 11)  3.241315  3.785445  1.929501  2.546831  0.992194  3.654038
   H ( 12)  1.947442  2.401512  2.683170  3.940032  2.597776  0.992910
   O ( 13)  2.817968  4.216115  2.515738  3.508625  3.363941  2.683285
   H ( 14)  2.291907  3.659626  2.526664  3.678987  3.333876  1.834768
             H (  7)   H (  8)   H (  9)   H ( 10)   H ( 11)   H ( 12)
   H (  8)  2.172579
   H (  9)  2.584269  3.966366
   H ( 10)  2.583926  3.095927  2.391662
   H ( 11)  4.071691  4.242591  2.431951  3.282895
   H ( 12)  2.847822  3.355682  3.154521  4.445697  3.438931
   O ( 13)  2.801241  4.640454  1.254852  3.332819  3.525623  3.331584
   H ( 14)  2.321646  4.192009  1.743314  3.618364  3.747516  2.589399
             O ( 13)
   H ( 14)  0.990989
 
 Requested basis set is 6-311++G(2df,2p)
 There are 98 shells and 308 basis functions
 A cutoff of  1.0D-11 yielded   4504 shell pairs
 There are     44513 function pairs (     55073 Cartesian)
 Smallest overlap matrix eigenvalue = 3.29E-05
 Guess MOs from SCF MO coefficient file

 -----------------------------------------------------------------------
  General SCF calculation program by
  Eric Jon Sundstrom, Paul Horn, Yuezhi Mao, Dmitri Zuev, Alec White,
  David Stuck, Shaama M.S., Shane Yost, Joonho Lee, David Small,
  Daniel Levine, Susi Lehtola, Hugh Burton, Evgeny Epifanovsky,
  Bang C. Huynh
 -----------------------------------------------------------------------
 Exchange:     0.1500 Hartree-Fock + 1.0000 wB97M-V + LR-HF
 Correlation:  1.0000 wB97M-V
 Using SG-2 standard quadrature grid
 Nonlocal Correlation:  VV10 with C = 0.0100 and b = 6.00 and scale = 1.00000
 Grid used for NLC:  SG-1 standard quadrature
 
 Citation of the SMD model:
 Marenich, A.V.; Cramer, C.J.; Truhlar, D.G.
 J. Phys. Chem. B 2009, 113, 6378-6396.
 iSolventCode=           1
 Solvent: water                                                           
 
 vradii
            1           2           3           4           5           6
    1   1.8500000   1.5200000   1.8500000   1.5200000   1.5200000   1.5200000
            7           8           9          10          11          12
    1   1.2000000   1.2000000   1.2000000   1.2000000   1.2000000   1.2000000
           13          14
    1   1.5200000   1.2000000
 -------------------------------------------------------
 OpenMP BLAS3 based DFT computing Module                
 Release: version 1.0, May 2013, Q-Chem Inc. Pittsburgh 
 -------------------------------------------------------
 A unrestricted SCF calculation will be
 performed using Roothaan-Hall, DIIS, GDM
 SCF converges when RMS gradient is below 1.0e-06
 ---------------------------------------
  Cycle       Energy         DIIS error
 ---------------------------------------
    1    -456.4421041182      3.19e-04  Roothaan Step
 ---------------------------------------
  Cycle       Energy         DIIS error
 ---------------------------------------
    1    -456.4871394174      3.81e-04  
    2    -456.4923033398      3.74e-04  Done DIIS. Switching to GDM
 ---------------------------------------
  Cycle       Energy        RMS Gradient
 ---------------------------------------
    1    -456.4923033398      2.12e-02   Normal BFGS step
    2    -456.4908112240      2.86e-02  Line search: overstep
    3    -456.4966450342      6.11e-03   Normal BFGS step
    4    -456.4968533394      2.45e-03   Normal BFGS step
    5    -456.4968953634      2.20e-03   Normal BFGS step
    6    -456.4969095374      6.79e-04   Normal BFGS step
    7    -456.4969136326      4.34e-04   Normal BFGS step
    8    -456.4969150503      1.03e-04   Normal BFGS step
    9    -456.4969151712      3.36e-05   Normal BFGS step
   10    -456.4969151919      1.96e-05   Normal BFGS step
   11    -456.4969151965      1.44e-05   Normal BFGS step
   12    -456.4969151973      6.85e-06   Normal BFGS step
   13    -456.4969151975      3.44e-06   Normal BFGS step
   14    -456.4969151976      1.65e-06   Normal BFGS step
   15    -456.4969151977      1.04e-06   Normal BFGS step
   16    -456.4969151977      4.56e-07  Convergence criterion met
 ---------------------------------------
 SCF time:   CPU 1045.10s  wall 89.00s 
<S^2> =          0.756832828
(3)  G-ENP(liq) elect-nuc-pol free energy of system     -456.496915198 a.u.
(4)  G-CDS(liq) cavity-dispersion-solvent structure 
     free energy                                                3.2005 kcal/mol
(6)  G-S(liq) free energy of system                     -456.491814846 a.u.
 SCF   energy in the final basis set =     -456.4918148461
 Total energy in the final basis set =     -456.4918148461
 
 --------------------------------------------------------------
 
                    Orbital Energies (a.u.)
 --------------------------------------------------------------
 
 Alpha MOs
 -- Occupied --
-19.3764 -19.3756 -19.3607 -19.3567 -19.3299 -10.4798 -10.4624  -1.2329
 -1.2013  -1.1571  -1.1425  -1.0943  -0.8537  -0.7501  -0.6824  -0.6657
 -0.6444  -0.6347  -0.5802  -0.5653  -0.5414  -0.5196  -0.5030  -0.4845
 -0.4677  -0.4585  -0.4311  -0.4141  -0.4030  -0.3313
 -- Virtual --
  0.0229   0.0413   0.0444   0.0517   0.0675   0.0786   0.0893   0.1059
  0.1168   0.1306   0.1368   0.1399   0.1466   0.1609   0.1657   0.2154
  0.2236   0.2251   0.2325   0.2419   0.2552   0.2571   0.2600   0.2783
  0.2845   0.2952   0.2978   0.3040   0.3072   0.3123   0.3258   0.3334
  0.3354   0.3447   0.3500   0.3614   0.3642   0.3748   0.3866   0.3886
  0.3955   0.4106   0.4200   0.4265   0.4498   0.4641   0.4747   0.5465
  0.5752   0.5878   0.5947   0.6052   0.6175   0.6501   0.6622   0.6706
  0.6877   0.7037   0.7179   0.7468   0.7498   0.7779   0.8021   0.8267
  0.8521   0.8878   0.9023   0.9268   0.9661   0.9749   1.0153   1.0203
  1.0394   1.0695   1.0746   1.0822   1.0995   1.1206   1.1410   1.1457
  1.1605   1.1720   1.1834   1.1912   1.2175   1.2223   1.2390   1.2469
  1.2768   1.2871   1.2967   1.3217   1.3381   1.3694   1.3822   1.4186
  1.4319   1.4374   1.4805   1.4906   1.5059   1.5112   1.5130   1.5434
  1.5829   1.5958   1.6188   1.6329   1.6701   1.6935   1.7602   1.8017
  1.8352   1.8623   1.8941   1.9148   1.9195   1.9419   1.9738   2.0200
  2.0566   2.0853   2.1302   2.1499   2.2249   2.2935   2.3025   2.3300
  2.3568   2.3688   2.3788   2.3924   2.4421   2.4493   2.4736   2.4895
  2.5725   2.5768   2.6803   2.7415   2.7690   2.8141   2.8827   2.9004
  2.9550   3.0046   3.0481   3.1221   3.1635   3.1812   3.2914   3.3086
  3.3764   3.4019   3.4124   3.4579   3.4713   3.4961   3.5504   3.5887
  3.6422   3.6587   3.6784   3.6972   3.7202   3.7501   3.7936   3.7977
  3.8119   3.8370   3.8407   3.8701   3.9086   3.9308   3.9497   4.0077
  4.0283   4.0577   4.0923   4.1275   4.1396   4.1537   4.1826   4.2165
  4.2480   4.2659   4.2762   4.3077   4.3240   4.3533   4.3593   4.4540
  4.5078   4.5783   4.7672   5.1390   5.1477   5.1553   5.1979   5.2189
  5.2266   5.2318   5.2571   5.2638   5.2714   5.2764   5.2845   5.2900
  5.3058   5.3232   5.3408   5.3489   5.3654   5.4168   5.4258   5.4342
  5.4647   5.4855   5.5306   5.5470   5.5727   5.5877   5.6063   5.6151
  5.6212   5.6260   5.6712   5.6950   5.8427   5.8605   5.9080   5.9351
  5.9712   6.0108   6.0578   6.0971   6.1437   6.4006   6.5493   6.7256
  6.7738   6.9857   7.0266   7.0512   7.0628   7.0817   7.0967   7.1189
  7.1338   7.1520   7.1663   7.1710   7.2380   7.2816   7.2854   7.3166
  7.3497   7.3753   7.4166   7.4267   7.4456   7.4526   7.5859   7.6453
  7.6968   7.7036   7.7374   7.7750   7.7911   7.8682   7.8803  24.6036
 24.7912  50.5041  50.5455  50.5572  50.6185  50.6523
 
 Beta MOs
 -- Occupied --
-19.3733 -19.3733 -19.3607 -19.3561 -19.3198 -10.4704 -10.4620  -1.2277
 -1.1982  -1.1512  -1.1408  -1.0719  -0.8448  -0.7446  -0.6755  -0.6590
 -0.6346  -0.6169  -0.5775  -0.5527  -0.5321  -0.5042  -0.4936  -0.4747
 -0.4575  -0.4327  -0.4273  -0.4032  -0.3930
 -- Virtual --
 -0.0484   0.0241   0.0415   0.0448   0.0520   0.0677   0.0792   0.0894
  0.1062   0.1166   0.1317   0.1371   0.1403   0.1473   0.1626   0.1678
  0.2170   0.2251   0.2266   0.2349   0.2426   0.2569   0.2614   0.2621
  0.2815   0.2885   0.2968   0.3031   0.3051   0.3087   0.3143   0.3295
  0.3350   0.3386   0.3494   0.3507   0.3644   0.3672   0.3767   0.3905
  0.3968   0.4001   0.4122   0.4235   0.4308   0.4519   0.4669   0.4768
  0.5557   0.5778   0.5900   0.5968   0.6070   0.6195   0.6528   0.6643
  0.6736   0.6905   0.7087   0.7208   0.7508   0.7541   0.7808   0.8095
  0.8285   0.8539   0.8892   0.9035   0.9281   0.9682   0.9771   1.0160
  1.0217   1.0424   1.0733   1.0770   1.0882   1.1029   1.1239   1.1454
  1.1510   1.1648   1.1797   1.1866   1.1966   1.2222   1.2265   1.2434
  1.2489   1.2798   1.2915   1.3013   1.3248   1.3416   1.3739   1.3876
  1.4245   1.4344   1.4406   1.4824   1.4933   1.5090   1.5127   1.5159
  1.5501   1.5884   1.5986   1.6264   1.6375   1.6770   1.7009   1.7655
  1.8060   1.8437   1.8672   1.9016   1.9179   1.9260   1.9453   1.9780
  2.0234   2.0613   2.0894   2.1348   2.1546   2.2309   2.2993   2.3074
  2.3347   2.3631   2.3717   2.3832   2.3974   2.4481   2.4548   2.4793
  2.4943   2.5759   2.5866   2.6861   2.7483   2.7761   2.8178   2.8876
  2.9038   2.9642   3.0151   3.0593   3.1434   3.1705   3.1885   3.3087
  3.3169   3.3922   3.4124   3.4201   3.4793   3.4827   3.5069   3.5662
  3.5989   3.6535   3.6733   3.6944   3.7276   3.7365   3.7687   3.7971
  3.8046   3.8148   3.8413   3.8451   3.8794   3.9164   3.9426   3.9571
  4.0191   4.0351   4.0675   4.1008   4.1326   4.1417   4.1574   4.1871
  4.2189   4.2528   4.2739   4.2836   4.3134   4.3322   4.3609   4.3729
  4.4569   4.5251   4.5904   4.7840   5.1497   5.1641   5.1682   5.2075
  5.2290   5.2358   5.2387   5.2635   5.2733   5.2775   5.2833   5.2943
  5.2990   5.3107   5.3292   5.3464   5.3548   5.3846   5.4264   5.4331
  5.4378   5.4695   5.4926   5.5338   5.5493   5.5840   5.5929   5.6129
  5.6205   5.6267   5.6308   5.6774   5.7017   5.8494   5.8645   5.9172
  5.9393   5.9747   6.0168   6.0700   6.1156   6.1529   6.4110   6.5512
  6.7331   6.7770   7.0213   7.0367   7.0666   7.0742   7.0885   7.1022
  7.1258   7.1359   7.1666   7.1748   7.1789   7.2439   7.2908   7.2925
  7.3229   7.3540   7.3845   7.4237   7.4366   7.4666   7.4730   7.5881
  7.6507   7.7034   7.7346   7.7420   7.7829   7.7951   7.8702   7.8866
 24.6095  24.7938  50.5102  50.5481  50.5586  50.6195  50.6533
 --------------------------------------------------------------
 
          Ground-State Mulliken Net Atomic Charges

     Atom                 Charge (a.u.)    Spin (a.u.)
  --------------------------------------------------------
      1 C                    -0.162485      -0.001607
      2 O                    -0.467747       0.019851
      3 C                    -0.015068       0.505287
      4 O                    -0.377628       0.090844
      5 O                    -0.363907       0.066550
      6 O                    -0.405852       0.001081
      7 H                     0.314737      -0.000904
      8 H                     0.354191       0.000129
      9 H                     0.349507       0.005127
     10 H                     0.362265      -0.004676
     11 H                     0.370542      -0.000961
     12 H                     0.376575      -0.000093
     13 O                    -0.646861       0.320278
     14 H                     0.311733      -0.000906
  --------------------------------------------------------
  Sum of atomic charges =    -0.000000
  Sum of spin   charges =     1.000000

 -----------------------------------------------------------------
                    Cartesian Multipole Moments
 -----------------------------------------------------------------
    Charge (ESU x 10^10)
                -0.0000
    Dipole Moment (Debye)
         X      -1.8262      Y      -3.4085      Z      -0.9858
       Tot       3.9906
    Quadrupole Moments (Debye-Ang)
        XX     -43.6116     XY      -1.3928     YY     -41.0788
        XZ       2.3918     YZ     -10.7023     ZZ     -50.5988
    Octopole Moments (Debye-Ang^2)
       XXX    -105.6397    XXY      -0.1260    XYY     -22.8669
       YYY     -51.7576    XXZ      25.9698    XYZ       2.6134
       YYZ       8.6048    XZZ     -34.7048    YZZ      -6.4964
       ZZZ      80.0959
    Hexadecapole Moments (Debye-Ang^3)
      XXXX    -522.9596   XXXY       9.3006   XXYY    -104.1743
      XYYY     -25.9798   YYYY    -298.0877   XXXZ      53.2565
      XXYZ     -42.4792   XYYZ      10.8126   YYYZ     -60.7589
      XXZZ    -136.0275   XYZZ      -2.7984   YYZZ    -114.3345
      XZZZ      76.5570   YZZZ     -75.5430   ZZZZ    -429.6487
 -----------------------------------------------------------------
 Calculating analytic gradient of the SCF energy
 Gradient of CDS energy
            1           2           3           4           5           6
    1   0.0028028  -0.0011015  -0.0021176   0.0020942   0.0000739  -0.0016348
    2   0.0002644   0.0017074  -0.0009120   0.0026584  -0.0018887  -0.0020933
    3  -0.0013385   0.0016381  -0.0031915   0.0000457   0.0029768  -0.0003147
            7           8           9          10          11          12
    1  -0.0001148   0.0001317   0.0000363  -0.0003334  -0.0002323   0.0003098
    2   0.0000457  -0.0004694   0.0002012  -0.0003350   0.0003052   0.0003400
    3   0.0001762  -0.0001336   0.0002312   0.0002034  -0.0003422  -0.0001882
           13          14
    1  -0.0002074   0.0002929
    2  -0.0000534   0.0002294
    3  -0.0000214   0.0002586
 Gradient of SCF Energy
            1           2           3           4           5           6
    1  -0.0013754   0.0171367   0.0015173   0.0092074   0.0370075  -0.0112050
    2   0.0126473   0.0350392   0.0209466  -0.0129630  -0.0154910  -0.0016969
    3  -0.0339708  -0.0115216   0.0466181  -0.0560858  -0.0282398   0.0366102
            7           8           9          10          11          12
    1   0.0000493  -0.0151188  -0.0358977  -0.0090526  -0.0342554   0.0065873
    2  -0.0175589  -0.0377923  -0.0155284  -0.0067974   0.0181369   0.0092991
    3   0.0214334   0.0132584  -0.0332926   0.0412268   0.0035905  -0.0281201
           13          14
    1   0.0134633   0.0219360
    2   0.0225507  -0.0107918
    3   0.0318421  -0.0033487
 Max gradient component =       5.609E-02
 RMS gradient           =       2.424E-02
 Computing fast CPCM-SWIG gradient
 Updating gradient with PCM contributions...
 -- total gradient after adding PCM contribution --
---------------------------------------------------
  Atom         X              Y              Z     
---------------------------------------------------
   1      -0.002508       0.003445      -0.021458
   2       0.010463       0.020034      -0.004282
   3      -0.002582       0.020512       0.042994
   4       0.006103      -0.016896      -0.032228
   5       0.022863      -0.006713      -0.026795
   6      -0.010135       0.001344       0.028145
   7       0.002471      -0.008623       0.012443
   8      -0.009156      -0.022853       0.006664
   9      -0.031894      -0.013555      -0.031450
  10      -0.005171      -0.000413       0.020844
  11      -0.019615       0.010478       0.003378
  12       0.005030       0.005334      -0.021619
  13       0.012449       0.014967       0.024968
  14       0.021682      -0.007060      -0.001605
---------------------------------------------------
 Number of fixed atoms: 0
 Gradient time:  CPU 129.24 s  wall 13.30 s
 ----------------------------------------------------------------
             Standard Nuclear Orientation (Angstroms)
    I     Atom           X                Y                Z
 ----------------------------------------------------------------
    1      C       1.4168043000    -0.2469923000    -0.4442604000
    2      O       1.9481362000    -1.0974557000    -1.4313055000
    3      C      -0.0183570000     0.1774530000    -0.7953105000
    4      O      -0.8452622000    -0.9522198000    -0.8911453000
    5      O      -0.0237294000     0.8561400000    -2.0217286000
    6      O       2.2413443000     0.8779873000    -0.2923378000
    7      H       1.4089777000    -0.7766841000     0.5369303000
    8      H       1.6096566000    -2.0109501000    -1.2397002000
    9      H      -0.3772638000     1.0717870000     0.2705781000
   10      H      -1.0908979000    -1.1990483000     0.0380256000
   11      H      -0.9118415000     1.2929809000    -2.0915581000
   12      H       2.4087786000     1.2479298000    -1.1984163000
   13      O       0.1767383000     1.6375486000     1.2440507000
   14      H       1.1330678000     1.4721049000     1.0437463000
 ----------------------------------------------------------------
 Nuclear Repulsion Energy =         352.53872266 hartrees
 There are       30 alpha and       29 beta electrons
 Discretize the solute cavity surface with Lebedev spheres
	Using 110 Lebedev grid points for each H atom
	Using 194 Lebedev grid points for other atoms
	Atomic van der Waals radii will be scaled by 1.20
 Remove points where switching function is < 1.0e-08
 Keep 1109 surface tesserae and discard 1019 interior tesserae
 Molecular Surface Area = 126.293 Angst**2

                       Distance Matrix (Angstroms)
             C (  1)   O (  2)   C (  3)   O (  4)   O (  5)   O (  6)
   O (  2)  1.407075
   C (  3)  1.537231  2.428369
   O (  4)  2.411223  2.848849  1.403252
   O (  5)  2.404255  2.837849  1.401694  2.285454
   O (  6)  1.403042  2.299042  2.418673  3.638045  2.849882
   H (  7)  1.115065  2.065802  2.173138  2.674287  3.356412  2.029398
   H (  8)  1.944599  0.992851  2.763516  2.696113  3.391124  3.105235
   H (  9)  2.338558  3.606869  1.436929  2.380174  2.329412  2.685431
   H ( 10)  2.725359  3.377126  1.933791  0.992280  3.099231  3.940438
   H ( 11)  3.241558  3.785445  1.929501  2.546831  0.992194  3.654038
   H ( 12)  1.946164  2.401512  2.683170  3.940032  2.597776  0.992910
   O ( 13)  2.817739  4.216115  2.515738  3.508625  3.363941  2.683285
   H ( 14)  2.291280  3.659626  2.526664  3.678987  3.333876  1.834768
             H (  7)   H (  8)   H (  9)   H ( 10)   H ( 11)   H ( 12)
   H (  8)  2.172579
   H (  9)  2.584269  3.966366
   H ( 10)  2.583926  3.095927  2.391662
   H ( 11)  4.071691  4.242591  2.431951  3.282895
   H ( 12)  2.847822  3.355682  3.154521  4.445697  3.438931
   O ( 13)  2.801241  4.640454  1.254852  3.332819  3.525623  3.331584
   H ( 14)  2.321646  4.192009  1.743314  3.618364  3.747516  2.589399
             O ( 13)
   H ( 14)  0.990989
 
 Requested basis set is 6-311++G(2df,2p)
 There are 98 shells and 308 basis functions
 A cutoff of  1.0D-11 yielded   4504 shell pairs
 There are     44513 function pairs (     55073 Cartesian)
 Smallest overlap matrix eigenvalue = 3.29E-05
 Guess MOs from SCF MO coefficient file

 -----------------------------------------------------------------------
  General SCF calculation program by
  Eric Jon Sundstrom, Paul Horn, Yuezhi Mao, Dmitri Zuev, Alec White,
  David Stuck, Shaama M.S., Shane Yost, Joonho Lee, David Small,
  Daniel Levine, Susi Lehtola, Hugh Burton, Evgeny Epifanovsky,
  Bang C. Huynh
 -----------------------------------------------------------------------
 Exchange:     0.1500 Hartree-Fock + 1.0000 wB97M-V + LR-HF
 Correlation:  1.0000 wB97M-V
 Using SG-2 standard quadrature grid
 Nonlocal Correlation:  VV10 with C = 0.0100 and b = 6.00 and scale = 1.00000
 Grid used for NLC:  SG-1 standard quadrature
 
 Citation of the SMD model:
 Marenich, A.V.; Cramer, C.J.; Truhlar, D.G.
 J. Phys. Chem. B 2009, 113, 6378-6396.
 iSolventCode=           1
 Solvent: water                                                           
 
 vradii
            1           2           3           4           5           6
    1   1.8500000   1.5200000   1.8500000   1.5200000   1.5200000   1.5200000
            7           8           9          10          11          12
    1   1.2000000   1.2000000   1.2000000   1.2000000   1.2000000   1.2000000
           13          14
    1   1.5200000   1.2000000
 -------------------------------------------------------
 OpenMP BLAS3 based DFT computing Module                
 Release: version 1.0, May 2013, Q-Chem Inc. Pittsburgh 
 -------------------------------------------------------
 A unrestricted SCF calculation will be
 performed using Roothaan-Hall, DIIS, GDM
 SCF converges when RMS gradient is below 1.0e-06
 ---------------------------------------
  Cycle       Energy         DIIS error
 ---------------------------------------
    1    -456.4421192054      3.19e-04  Roothaan Step
 ---------------------------------------
  Cycle       Energy         DIIS error
 ---------------------------------------
    1    -456.4871696168      3.80e-04  
    2    -456.4923430920      3.72e-04  Done DIIS. Switching to GDM
 ---------------------------------------
  Cycle       Energy        RMS Gradient
 ---------------------------------------
    1    -456.4923430920      2.10e-02   Normal BFGS step
    2    -456.4908665151      2.85e-02  Line search: overstep
    3    -456.4966461265      6.07e-03   Normal BFGS step
    4    -456.4968550000      2.45e-03   Normal BFGS step
    5    -456.4968974305      2.19e-03   Normal BFGS step
    6    -456.4969116514      6.69e-04   Normal BFGS step
    7    -456.4969158266      4.26e-04   Normal BFGS step
    8    -456.4969172511      1.00e-04   Normal BFGS step
    9    -456.4969173724      3.31e-05   Normal BFGS step
   10    -456.4969173930      1.85e-05   Normal BFGS step
   11    -456.4969173975      1.39e-05   Normal BFGS step
   12    -456.4969173984      6.68e-06   Normal BFGS step
   13    -456.4969173985      3.53e-06   Normal BFGS step
   14    -456.4969173986      1.66e-06   Normal BFGS step
   15    -456.4969173987      1.02e-06   Normal BFGS step
   16    -456.4969173987      4.34e-07  Convergence criterion met
 ---------------------------------------
 SCF time:   CPU 1049.95s  wall 90.00s 
<S^2> =          0.756827939
(3)  G-ENP(liq) elect-nuc-pol free energy of system     -456.496917399 a.u.
(4)  G-CDS(liq) cavity-dispersion-solvent structure 
     free energy                                                3.2044 kcal/mol
(6)  G-S(liq) free energy of system                     -456.491810926 a.u.
 SCF   energy in the final basis set =     -456.4918109255
 Total energy in the final basis set =     -456.4918109255
 
 --------------------------------------------------------------
 
                    Orbital Energies (a.u.)
 --------------------------------------------------------------
 
 Alpha MOs
 -- Occupied --
-19.3764 -19.3756 -19.3608 -19.3567 -19.3298 -10.4797 -10.4624  -1.2330
 -1.2015  -1.1570  -1.1426  -1.0943  -0.8535  -0.7502  -0.6825  -0.6657
 -0.6445  -0.6347  -0.5802  -0.5653  -0.5414  -0.5197  -0.5029  -0.4843
 -0.4677  -0.4585  -0.4312  -0.4141  -0.4028  -0.3312
 -- Virtual --
  0.0229   0.0413   0.0444   0.0517   0.0675   0.0786   0.0893   0.1059
  0.1168   0.1306   0.1368   0.1399   0.1466   0.1609   0.1657   0.2154
  0.2236   0.2251   0.2324   0.2419   0.2552   0.2571   0.2600   0.2782
  0.2846   0.2953   0.2978   0.3040   0.3072   0.3123   0.3258   0.3333
  0.3354   0.3446   0.3500   0.3614   0.3643   0.3749   0.3867   0.3886
  0.3954   0.4106   0.4199   0.4264   0.4498   0.4641   0.4746   0.5465
  0.5753   0.5878   0.5947   0.6051   0.6175   0.6501   0.6622   0.6707
  0.6877   0.7038   0.7180   0.7467   0.7499   0.7779   0.8022   0.8266
  0.8519   0.8877   0.9023   0.9269   0.9661   0.9749   1.0154   1.0203
  1.0394   1.0695   1.0745   1.0821   1.0995   1.1206   1.1409   1.1457
  1.1605   1.1720   1.1835   1.1912   1.2175   1.2224   1.2391   1.2468
  1.2768   1.2871   1.2967   1.3218   1.3382   1.3694   1.3822   1.4185
  1.4317   1.4374   1.4805   1.4905   1.5059   1.5112   1.5130   1.5433
  1.5830   1.5959   1.6188   1.6327   1.6701   1.6934   1.7601   1.8017
  1.8352   1.8624   1.8940   1.9149   1.9195   1.9419   1.9737   2.0200
  2.0566   2.0853   2.1301   2.1501   2.2251   2.2936   2.3024   2.3302
  2.3569   2.3690   2.3789   2.3924   2.4422   2.4495   2.4735   2.4896
  2.5725   2.5770   2.6804   2.7413   2.7690   2.8140   2.8825   2.9008
  2.9551   3.0050   3.0482   3.1222   3.1635   3.1808   3.2914   3.3089
  3.3760   3.4018   3.4128   3.4580   3.4717   3.4959   3.5505   3.5885
  3.6421   3.6590   3.6782   3.6973   3.7202   3.7499   3.7936   3.7979
  3.8114   3.8370   3.8405   3.8702   3.9086   3.9308   3.9499   4.0073
  4.0284   4.0577   4.0920   4.1271   4.1397   4.1536   4.1824   4.2164
  4.2480   4.2656   4.2764   4.3076   4.3237   4.3530   4.3594   4.4538
  4.5069   4.5780   4.7668   5.1390   5.1477   5.1554   5.1979   5.2189
  5.2264   5.2318   5.2570   5.2639   5.2714   5.2765   5.2845   5.2898
  5.3057   5.3232   5.3406   5.3490   5.3654   5.4168   5.4259   5.4341
  5.4645   5.4852   5.5306   5.5470   5.5728   5.5876   5.6062   5.6152
  5.6212   5.6260   5.6713   5.6952   5.8428   5.8602   5.9084   5.9356
  5.9716   6.0118   6.0586   6.0972   6.1455   6.4004   6.5500   6.7258
  6.7751   6.9857   7.0267   7.0512   7.0628   7.0817   7.0968   7.1190
  7.1337   7.1521   7.1664   7.1713   7.2380   7.2816   7.2853   7.3169
  7.3495   7.3753   7.4169   7.4266   7.4458   7.4528   7.5864   7.6454
  7.6969   7.7036   7.7374   7.7750   7.7916   7.8683   7.8803  24.6040
 24.7912  50.5041  50.5455  50.5573  50.6187  50.6523
 
 Beta MOs
 -- Occupied --
-19.3733 -19.3733 -19.3609 -19.3561 -19.3198 -10.4704 -10.4620  -1.2277
 -1.1983  -1.1512  -1.1409  -1.0719  -0.8447  -0.7447  -0.6755  -0.6591
 -0.6347  -0.6169  -0.5774  -0.5528  -0.5321  -0.5043  -0.4936  -0.4745
 -0.4575  -0.4328  -0.4273  -0.4032  -0.3928
 -- Virtual --
 -0.0483   0.0241   0.0415   0.0448   0.0520   0.0677   0.0792   0.0894
  0.1062   0.1167   0.1317   0.1370   0.1404   0.1473   0.1626   0.1678
  0.2169   0.2252   0.2266   0.2349   0.2426   0.2569   0.2614   0.2621
  0.2814   0.2887   0.2969   0.3031   0.3051   0.3087   0.3143   0.3295
  0.3350   0.3386   0.3493   0.3506   0.3644   0.3673   0.3768   0.3905
  0.3968   0.4000   0.4123   0.4235   0.4307   0.4519   0.4669   0.4767
  0.5558   0.5779   0.5901   0.5968   0.6070   0.6195   0.6528   0.6643
  0.6737   0.6905   0.7088   0.7208   0.7507   0.7542   0.7808   0.8095
  0.8285   0.8537   0.8892   0.9035   0.9282   0.9682   0.9770   1.0160
  1.0217   1.0425   1.0733   1.0769   1.0882   1.1029   1.1239   1.1454
  1.1509   1.1648   1.1798   1.1867   1.1966   1.2222   1.2266   1.2434
  1.2488   1.2797   1.2916   1.3013   1.3248   1.3417   1.3740   1.3875
  1.4245   1.4342   1.4406   1.4824   1.4932   1.5090   1.5127   1.5158
  1.5501   1.5885   1.5987   1.6264   1.6374   1.6770   1.7009   1.7654
  1.8061   1.8437   1.8674   1.9015   1.9181   1.9260   1.9454   1.9780
  2.0234   2.0613   2.0894   2.1348   2.1549   2.2310   2.2994   2.3074
  2.3350   2.3632   2.3718   2.3834   2.3973   2.4482   2.4550   2.4793
  2.4944   2.5759   2.5868   2.6862   2.7481   2.7762   2.8177   2.8875
  2.9042   2.9643   3.0155   3.0594   3.1436   3.1705   3.1881   3.3088
  3.3171   3.3918   3.4124   3.4205   3.4795   3.4830   3.5067   3.5664
  3.5987   3.6535   3.6736   3.6939   3.7277   3.7365   3.7686   3.7972
  3.8047   3.8143   3.8414   3.8450   3.8794   3.9164   3.9427   3.9572
  4.0189   4.0352   4.0675   4.1006   4.1323   4.1418   4.1572   4.1869
  4.2188   4.2528   4.2738   4.2835   4.3133   4.3319   4.3610   4.3725
  4.4567   4.5242   4.5902   4.7835   5.1497   5.1641   5.1682   5.2076
  5.2287   5.2358   5.2387   5.2634   5.2734   5.2777   5.2834   5.2942
  5.2989   5.3106   5.3292   5.3463   5.3548   5.3846   5.4264   5.4331
  5.4378   5.4693   5.4923   5.5338   5.5494   5.5840   5.5927   5.6129
  5.6205   5.6267   5.6308   5.6776   5.7018   5.8495   5.8643   5.9176
  5.9400   5.9751   6.0177   6.0710   6.1158   6.1544   6.4108   6.5519
  6.7333   6.7783   7.0213   7.0367   7.0667   7.0743   7.0885   7.1023
  7.1258   7.1358   7.1666   7.1750   7.1790   7.2438   7.2908   7.2924
  7.3232   7.3538   7.3846   7.4240   7.4366   7.4667   7.4731   7.5885
  7.6507   7.7034   7.7346   7.7420   7.7829   7.7956   7.8703   7.8866
 24.6099  24.7939  50.5102  50.5481  50.5587  50.6198  50.6533
 --------------------------------------------------------------
 
          Ground-State Mulliken Net Atomic Charges

     Atom                 Charge (a.u.)    Spin (a.u.)
  --------------------------------------------------------
      1 C                    -0.162527      -0.001546
      2 O                    -0.468050       0.019872
      3 C                    -0.015249       0.505325
      4 O                    -0.377594       0.090815
      5 O                    -0.363916       0.066519
      6 O                    -0.404972       0.001110
      7 H                     0.314480      -0.000900
      8 H                     0.354202       0.000127
      9 H                     0.349457       0.005210
     10 H                     0.362235      -0.004680
     11 H                     0.370540      -0.000958
     12 H                     0.376677      -0.000093
     13 O                    -0.646972       0.320099
     14 H                     0.311688      -0.000899
  --------------------------------------------------------
  Sum of atomic charges =    -0.000000
  Sum of spin   charges =     1.000000

 -----------------------------------------------------------------
                    Cartesian Multipole Moments
 -----------------------------------------------------------------
    Charge (ESU x 10^10)
                -0.0000
    Dipole Moment (Debye)
         X      -1.8201      Y      -3.4026      Z      -0.9857
       Tot       3.9827
    Quadrupole Moments (Debye-Ang)
        XX     -43.5935     XY      -1.3771     YY     -41.0805
        XZ       2.3904     YZ     -10.7069     ZZ     -50.6066
    Octopole Moments (Debye-Ang^2)
       XXX    -105.6001    XXY      -0.0957    XYY     -22.8667
       YYY     -51.7626    XXZ      25.9693    XYZ       2.6025
       YYZ       8.6037    XZZ     -34.7144    YZZ      -6.4973
       ZZZ      80.1069
    Hexadecapole Moments (Debye-Ang^3)
      XXXX    -522.8825   XXXY       9.3799   XXYY    -104.1744
      XYYY     -25.9622   YYYY    -298.0790   XXXZ      53.2651
      XXYZ     -42.5012   XYYZ      10.8149   YYYZ     -60.7650
      XXZZ    -136.0557   XYZZ      -2.7808   YYZZ    -114.3467
      XZZZ      76.5745   YZZZ     -75.5491   ZZZZ    -429.7047
 -----------------------------------------------------------------
 Calculating analytic gradient of the SCF energy
 Gradient of CDS energy
            1           2           3           4           5           6
    1   0.0029205  -0.0010799  -0.0021180   0.0020945   0.0000739  -0.0017712
    2   0.0004873   0.0016759  -0.0009121   0.0026583  -0.0018888  -0.0022814
    3  -0.0012743   0.0015999  -0.0031915   0.0000459   0.0029767  -0.0003402
            7           8           9          10          11          12
    1  -0.0001156   0.0001316   0.0000364  -0.0003334  -0.0002323   0.0003088
    2   0.0000444  -0.0004695   0.0002012  -0.0003350   0.0003052   0.0003389
    3   0.0001758  -0.0001335   0.0002312   0.0002034  -0.0003422  -0.0001887
           13          14
    1  -0.0002074   0.0002920
    2  -0.0000534   0.0002291
    3  -0.0000213   0.0002587
 Gradient of SCF Energy
            1           2           3           4           5           6
    1  -0.0003112   0.0169793   0.0013191   0.0090996   0.0370331  -0.0117548
    2   0.0139093   0.0348341   0.0208957  -0.0129939  -0.0155092  -0.0023418
    3  -0.0340799  -0.0114888   0.0465986  -0.0560927  -0.0282149   0.0366749
            7           8           9          10          11          12
    1  -0.0000592  -0.0150736  -0.0358910  -0.0090594  -0.0342479   0.0065609
    2  -0.0177459  -0.0378494  -0.0155260  -0.0067970   0.0181356   0.0092481
    3   0.0215747   0.0131822  -0.0332960   0.0412172   0.0036024  -0.0281401
           13          14
    1   0.0134286   0.0219765
    2   0.0225398  -0.0107996
    3   0.0318443  -0.0033818
 Max gradient component =       5.609E-02
 RMS gradient           =       2.426E-02
 Computing fast CPCM-SWIG gradient
 Updating gradient with PCM contributions...
 -- total gradient after adding PCM contribution --
---------------------------------------------------
  Atom         X              Y              Z     
---------------------------------------------------
   1      -0.001469       0.004679      -0.021579
   2       0.010321       0.019854      -0.004255
   3      -0.002785       0.020459       0.042968
   4       0.005999      -0.016922      -0.032242
   5       0.022900      -0.006728      -0.026768
   6      -0.010659       0.000731       0.028180
   7       0.002372      -0.008813       0.012608
   8      -0.009118      -0.022921       0.006592
   9      -0.031894      -0.013553      -0.031452
  10      -0.005178      -0.000416       0.020844
  11      -0.019615       0.010477       0.003388
  12       0.004989       0.005265      -0.021620
  13       0.012431       0.014958       0.024967
  14       0.021706      -0.007072      -0.001632
---------------------------------------------------
 Number of fixed atoms: 0
 Gradient time:  CPU 129.97 s  wall 14.46 s
 ----------------------------------------------------------------
             Standard Nuclear Orientation (Angstroms)
    I     Atom           X                Y                Z
 ----------------------------------------------------------------
    1      C       1.4168043000    -0.2489923000    -0.4442604000
[...]
  5.4357   5.4726   5.4922   5.5200   5.5457   5.5901   5.6208   5.6338
  5.6411   5.6656   5.6895   5.6977   5.7177   5.7320   5.8965   5.9343
  5.9640   6.0240   6.0285   6.0908   6.1014   6.1659   6.5147   6.5674
  6.7603   6.8006   6.9771   7.0118   7.0494   7.0578   7.1043   7.1311
  7.1432   7.1894   7.2125   7.2497   7.2658   7.2952   7.3142   7.3210
  7.3284   7.3590   7.3772   7.3940   7.4137   7.4692   7.4756   7.6102
  7.6163   7.6924   7.7242   7.7406   7.8262   7.8549   7.8817   7.9169
 24.7297  24.8545  50.4806  50.5746  50.5863  50.6140  50.6619
 --------------------------------------------------------------
 
          Ground-State Mulliken Net Atomic Charges

     Atom                 Charge (a.u.)    Spin (a.u.)
  --------------------------------------------------------
      1 C                    -0.004299      -0.001143
      2 O                    -0.452294       0.008267
      3 C                    -0.224276       0.170744
      4 O                    -0.421961       0.039135
      5 O                    -0.396575       0.022513
      6 O                    -0.382121      -0.000232
      7 H                     0.273968      -0.001429
      8 H                     0.328465      -0.000342
      9 H                     0.373490      -0.019548
     10 H                     0.339568      -0.001837
     11 H                     0.362825       0.000340
     12 H                     0.324625      -0.000300
     13 O                    -0.450100       0.794993
     14 H                     0.328683      -0.011160
  --------------------------------------------------------
  Sum of atomic charges =     0.000000
  Sum of spin   charges =     1.000000

 -----------------------------------------------------------------
                    Cartesian Multipole Moments
 -----------------------------------------------------------------
    Charge (ESU x 10^10)
                 0.0000
    Dipole Moment (Debye)
         X      -1.9859      Y      -1.1388      Z       1.0592
       Tot       2.5224
    Quadrupole Moments (Debye-Ang)
        XX     -51.4339     XY       3.1713     YY     -36.8594
        XZ       4.9304     YZ      -6.9107     ZZ     -48.0889
    Octopole Moments (Debye-Ang^2)
       XXX    -122.4259    XXY       4.8076    XYY     -21.4588
       YYY     -34.0780    XXZ      33.4510    XYZ       3.8844
       YYZ      15.0422    XZZ     -36.1882    YZZ      -3.5616
       ZZZ      83.4319
    Hexadecapole Moments (Debye-Ang^3)
      XXXX    -596.2888   XXXY      30.1858   XXYY    -126.0657
      XYYY      22.3656   YYYY    -313.5669   XXXZ      86.9323
      XXYZ     -46.9167   XYYZ      26.6396   YYYZ     -57.3497
      XXZZ    -150.6235   XYZZ       5.5385   YYZZ    -101.6131
      XZZZ      94.4764   YZZZ     -71.5203   ZZZZ    -406.0209
 -----------------------------------------------------------------
 Calculating analytic gradient of the SCF energy
 Gradient of CDS energy
            1           2           3           4           5           6
    1   0.0032789  -0.0004393  -0.0026591   0.0025306   0.0000325  -0.0025913
    2   0.0019215   0.0009839  -0.0002327   0.0027473  -0.0025549  -0.0030637
    3  -0.0002130   0.0007926  -0.0039444   0.0000840   0.0039442  -0.0004047
            7           8           9          10          11          12
    1  -0.0000459   0.0000328   0.0001700  -0.0003310  -0.0002283   0.0003253
    2   0.0000162  -0.0004340   0.0000946  -0.0003347   0.0003203   0.0003148
    3   0.0001046  -0.0002787  -0.0000144   0.0002144  -0.0003009  -0.0002078
           13          14
    1  -0.0003331   0.0002580
    2  -0.0000851   0.0003066
    3  -0.0000223   0.0002465
 Gradient of SCF Energy
            1           2           3           4           5           6
    1   0.0008393   0.0102825   0.0021115  -0.0022192   0.0115464   0.0047508
    2   0.0083897   0.0103032  -0.0050514   0.0092698  -0.0095970  -0.0093123
    3  -0.0099343  -0.0025196  -0.0059016  -0.0201973  -0.0018879   0.0047420
            7           8           9          10          11          12
    1  -0.0031509  -0.0077333  -0.0008018   0.0005634  -0.0119292  -0.0021466
    2  -0.0065259  -0.0098688   0.0044466  -0.0099360   0.0078744   0.0070676
    3   0.0095119   0.0023516   0.0060803   0.0184019  -0.0000173  -0.0031984
           13          14
    1  -0.0111427   0.0090301
    2   0.0023559   0.0005842
    3   0.0039868  -0.0014181
 Max gradient component =       2.020E-02
 RMS gradient           =       7.886E-03
 Computing fast CPCM-SWIG gradient
 Updating gradient with PCM contributions...
 -- total gradient after adding PCM contribution --
---------------------------------------------------
  Atom         X              Y              Z     
---------------------------------------------------
   1      -0.000035      -0.000016       0.000046
   2       0.000036      -0.000093       0.000033
   3       0.000150      -0.000280      -0.000455
   4      -0.000091      -0.000092       0.000015
   5      -0.000030       0.000055       0.000101
   6       0.000016       0.000041      -0.000001
   7       0.000012       0.000050      -0.000016
   8      -0.000039       0.000096      -0.000078
   9      -0.000035       0.000375       0.000489
  10       0.000028       0.000006      -0.000033
  11      -0.000016      -0.000030      -0.000014
  12      -0.000011      -0.000031       0.000009
  13      -0.000067       0.000020      -0.000086
  14       0.000082      -0.000101      -0.000012
---------------------------------------------------
 Number of fixed atoms: 0
 Gradient time:  CPU 141.18 s  wall 13.21 s
 Geometry Optimization Parameters
   NAtoms,    NIC,     NZ,  NCons,   NDum,   NFix, NCnnct, MaxDiis
       14      84       0       0       0       0       0       0

 Cartesian Hessian Update
 Hessian updated using Powell/Murtagh-Sargent update
  Mixing factors:     0.998173 Powell                      0.001827 Murtagh-Sargent


** GEOMETRY OPTIMIZATION IN DELOCALIZED INTERNAL COORDINATES **
   Searching for a Transition State

   Optimization Cycle:  41

                       Coordinates (Angstroms)
     ATOM                X               Y               Z
      1  C         1.4852578028   -0.3677826012   -0.4442991730
      2  O         1.9404829139   -1.2079510295   -1.4843795256
      3  C         0.0690938744    0.1342318223   -0.7265367971
      4  O        -0.8644696628   -0.9077304434   -0.8049627698
      5  O         0.0725886945    0.8382235305   -1.9197368852
      6  O         2.3705587272    0.7060376022   -0.3251156443
      7  H         1.4891703950   -0.8952625560    0.5105522959
      8  H         1.3285012100   -1.9504279673   -1.5658141422
      9  H        -0.2073743679    0.8276091866    0.1389543591
     10  H        -0.9427581896   -1.3259836206    0.0625288767
     11  H        -0.7655400419    1.3080800657   -2.0105723678
     12  H         2.2547608872    1.2786060596   -1.0958986803
     13  O        -0.0594380358    1.9239956717    1.2555433624
     14  H         0.9053177929    1.9879354794    1.1373053912
   Point Group: c1    Number of degrees of freedom:    36


   Energy is   -456.500016603

 Hessian updated using Powell/Murtagh-Sargent update
  Mixing factors:     0.999661 Powell                      0.000339 Murtagh-Sargent

 36 Hessian modes will be used to form the next step
  Hessian Eigenvalues:
    -0.036758    0.000355    0.009084    0.011561    0.014257    0.015575
     0.018385    0.038572    0.047695    0.056630    0.064676    0.075464
     0.084769    0.105521    0.126927    0.140992    0.149767    0.177062
     0.196786    0.200549    0.201998    0.211776    0.220793    0.230534
     0.290471    0.295369    0.382514    0.421702    0.425836    0.431659
     0.435213    0.439266    0.444994    0.487811    0.517318    0.658247

 Transition state search - taking P-RFO step
 Searching for Lamda that Maximizes Along the Lowest mode
 Value Taken    Lamda =   0.00000389
 Searching for Lamda that Minimizes Along All other modes
 Value Taken    Lamda =  -0.00000304
 Step Taken.  Stepsize is  0.026501

                             Maximum     Tolerance    Cnvgd?
         Gradient           0.000295      0.000300     YES
         Displacement       0.018739      0.001200      NO
         Energy change     -0.000001      0.000001     YES


                       Distance Matrix (Angstroms)
             C (  1)   O (  2)   C (  3)   O (  4)   O (  5)   O (  6)
   O (  2)  1.412402
   C (  3)  1.528789  2.424433
   O (  4)  2.437794  2.901637  1.401206
   O (  5)  2.372130  2.804531  1.385404  2.273578
   O (  6)  1.396801  2.278642  2.405170  3.646904  2.800171
   H (  7)  1.090867  2.069109  2.146361  2.696360  3.304237  2.009813
   H (  8)  1.946056  0.965622  2.576102  2.544648  3.078824  3.111595
   H (  9)  2.152708  3.375205  1.142927  2.081864  2.077667  2.622190
   H ( 10)  2.659001  3.274131  1.943887  0.966233  3.105495  3.906078
   H ( 11)  3.213692  3.732272  1.929580  2.524500  0.965130  3.610863
   H ( 12)  1.930625  2.536268  2.494626  3.820250  2.373715  0.967135
   O ( 13)  3.244657  4.616920  2.673652  3.593388  3.358383  3.144326
   H ( 14)  2.896068  4.261278  2.758513  3.910171  3.370576  2.434927
             H (  7)   H (  8)   H (  9)   H ( 10)   H ( 11)   H ( 12)
   H (  8)  2.334628
   H (  9)  2.446352  3.603143
   H ( 10)  2.510084  2.863573  2.276970
   H ( 11)  4.036646  3.898807  2.272194  3.356702
   H ( 12)  2.809363  3.391967  2.791123  4.283687  3.155902
   O ( 13)  3.301729  4.989749  1.571852  3.572940  3.397859  3.361744
   H ( 14)  3.007746  4.795482  1.892392  3.943677  3.628099  2.703950
             O ( 13)
   H ( 14)  0.974075
 
 Final energy is   -456.500016603382     


 ******************************
 **  OPTIMIZATION CONVERGED  **
 ******************************

                       Coordinates (Angstroms)
     ATOM                X               Y               Z
      1  C         1.4852578028   -0.3677826012   -0.4442991730
      2  O         1.9404829139   -1.2079510295   -1.4843795256
      3  C         0.0690938744    0.1342318223   -0.7265367971
      4  O        -0.8644696628   -0.9077304434   -0.8049627698
      5  O         0.0725886945    0.8382235305   -1.9197368852
      6  O         2.3705587272    0.7060376022   -0.3251156443
      7  H         1.4891703950   -0.8952625560    0.5105522959
      8  H         1.3285012100   -1.9504279673   -1.5658141422
      9  H        -0.2073743679    0.8276091866    0.1389543591
     10  H        -0.9427581896   -1.3259836206    0.0625288767
     11  H        -0.7655400419    1.3080800657   -2.0105723678
     12  H         2.2547608872    1.2786060596   -1.0958986803
     13  O        -0.0594380358    1.9239956717    1.2555433624
     14  H         0.9053177929    1.9879354794    1.1373053912

Z-matrix Print:
$molecule
0 2
O 
H  1 0.965130
C  1 1.385404 2 109.041495
H  3 1.142927 1 110.153280 2 -51.983520 0
O  3 1.401206 1 109.350401 2 68.288519 0
H  5 0.966233 3 109.003294 1 -173.045154 0
C  3 1.528789 1 108.876464 2 -168.382838 0
H  7 1.090867 3 108.886900 1 178.244715 0
O  7 1.396801 3 110.513129 1 60.816195 0
H  9 0.967135 7 108.134084 3 -50.885849 0
O  7 1.412402 3 110.974101 1 -59.488585 0
H  11 0.965622 7 108.374237 3 -58.501076 0
O  4 1.571852 3 159.771725 1 -78.241455 0
H  13 0.974075 4 93.025117 3 -8.819995 0
$end

 
 --------------------------------------------------------------
 
                    Orbital Energies (a.u.)
 --------------------------------------------------------------
 
 Alpha MOs
 -- Occupied --
-19.3799 -19.3611 -19.3595 -19.3541 -19.3471 -10.4626 -10.4513  -1.2307
 -1.1974  -1.1534  -1.1399  -1.1279  -0.8555  -0.7595  -0.6845  -0.6732
 -0.6429  -0.6339  -0.5784  -0.5715  -0.5345  -0.5197  -0.5025  -0.4835
 -0.4662  -0.4584  -0.4486  -0.4311  -0.4066  -0.3700
 -- Virtual --
  0.0244   0.0412   0.0474   0.0496   0.0692   0.0758   0.0907   0.1044
  0.1175   0.1318   0.1392   0.1429   0.1484   0.1605   0.1755   0.2216
  0.2252   0.2272   0.2325   0.2370   0.2445   0.2520   0.2663   0.2825
  0.2864   0.2945   0.2986   0.3029   0.3101   0.3146   0.3349   0.3404
  0.3457   0.3553   0.3611   0.3673   0.3707   0.3744   0.3875   0.3907
  0.3988   0.4202   0.4281   0.4527   0.4642   0.4781   0.4920   0.5691
  0.5742   0.5972   0.6015   0.6056   0.6214   0.6333   0.6491   0.6704
  0.6885   0.7175   0.7249   0.7346   0.7786   0.8026   0.8184   0.8337
  0.8609   0.8701   0.8959   0.9212   0.9299   0.9711   1.0039   1.0138
  1.0321   1.0564   1.0794   1.0877   1.0922   1.1192   1.1292   1.1320
  1.1508   1.1740   1.1839   1.1987   1.2132   1.2272   1.2300   1.2509
  1.2774   1.2965   1.2975   1.3011   1.3502   1.3576   1.3984   1.4178
  1.4361   1.4393   1.4655   1.4769   1.5155   1.5264   1.5295   1.5554
  1.5940   1.6089   1.6273   1.6481   1.6607   1.7057   1.7221   1.7701
  1.8021   1.8145   1.8696   1.8887   1.9046   1.9087   1.9546   2.0140
  2.0282   2.0587   2.1235   2.1463   2.1782   2.2600   2.3047   2.3171
  2.3454   2.3560   2.3916   2.3974   2.4097   2.4555   2.4665   2.4686
  2.5346   2.5598   2.6555   2.7406   2.7688   2.7970   2.8390   2.8970
  2.9350   2.9802   3.0638   3.1344   3.2158   3.2503   3.2800   3.3332
  3.3659   3.4008   3.4184   3.4713   3.5086   3.5335   3.5765   3.6289
  3.6495   3.6557   3.6636   3.7510   3.7553   3.7571   3.8083   3.8303
  3.8407   3.8508   3.8629   3.8711   3.9236   3.9345   3.9958   4.0045
  4.0546   4.0899   4.1202   4.1940   4.2067   4.2489   4.2598   4.2795
  4.2949   4.3055   4.3527   4.3548   4.3964   4.4139   4.4567   4.5037
  4.6243   4.7186   5.0822   5.0967   5.1248   5.1523   5.1871   5.1902
  5.1945   5.2247   5.2546   5.2603   5.2647   5.2798   5.2848   5.2966
  5.3065   5.3123   5.3399   5.3511   5.3627   5.3812   5.4135   5.4338
  5.4624   5.4868   5.5171   5.5432   5.5888   5.6161   5.6238   5.6288
  5.6511   5.6710   5.6898   5.7148   5.7275   5.8952   5.9321   5.9635
  6.0227   6.0265   6.0898   6.1000   6.1644   6.5101   6.5666   6.7567
  6.7973   6.8833   6.9812   7.0391   7.0469   7.0583   7.1037   7.1249
  7.1502   7.2075   7.2458   7.2587   7.2888   7.3007   7.3151   7.3255
  7.3380   7.3605   7.3890   7.4083   7.4655   7.4710   7.5422   7.6149
  7.6907   7.7220   7.7384   7.8251   7.8507   7.8799   7.9140  24.7280
 24.8530  50.4660  50.5741  50.5859  50.6135  50.6615
 
 Beta MOs
 -- Occupied --
-19.3604 -19.3590 -19.3583 -19.3542 -19.3468 -10.4589 -10.4511  -1.2287
 -1.1963  -1.1513  -1.1389  -1.0737  -0.8513  -0.7568  -0.6761  -0.6710
 -0.6330  -0.6315  -0.5710  -0.5547  -0.5312  -0.5034  -0.4832  -0.4757
 -0.4531  -0.4322  -0.4225  -0.4141  -0.3827
 -- Virtual --
 -0.0749   0.0251   0.0416   0.0478   0.0503   0.0694   0.0768   0.0915
  0.1046   0.1179   0.1321   0.1394   0.1437   0.1491   0.1632   0.1771
  0.2225   0.2264   0.2292   0.2350   0.2392   0.2458   0.2544   0.2666
  0.2837   0.2879   0.2956   0.3005   0.3044   0.3112   0.3171   0.3381
  0.3412   0.3467   0.3559   0.3624   0.3701   0.3717   0.3758   0.3894
  0.3956   0.4014   0.4268   0.4298   0.4584   0.4657   0.4790   0.4947
  0.5711   0.5760   0.5999   0.6031   0.6076   0.6226   0.6361   0.6520
  0.6731   0.6897   0.7202   0.7254   0.7361   0.7802   0.8037   0.8192
  0.8350   0.8615   0.8717   0.8971   0.9224   0.9312   0.9730   1.0048
  1.0200   1.0355   1.0578   1.0826   1.0904   1.0935   1.1215   1.1332
  1.1347   1.1523   1.1754   1.2030   1.2068   1.2241   1.2323   1.2362
  1.2520   1.2786   1.2988   1.3009   1.3030   1.3545   1.3587   1.4007
  1.4192   1.4386   1.4446   1.4698   1.4800   1.5183   1.5280   1.5325
  1.5579   1.6021   1.6176   1.6326   1.6579   1.6767   1.7084   1.7273
  1.7726   1.8084   1.8270   1.8716   1.8989   1.9086   1.9114   1.9580
  2.0239   2.0403   2.0649   2.1245   2.1487   2.1802   2.2652   2.3082
  2.3212   2.3473   2.3598   2.3934   2.3994   2.4213   2.4567   2.4683
  2.4704   2.5370   2.5658   2.6570   2.7430   2.7733   2.8111   2.8411
  2.9000   2.9336   2.9832   3.0657   3.1378   3.2182   3.2504   3.2821
  3.3343   3.3690   3.4029   3.4208   3.4731   3.5118   3.5376   3.5802
  3.6321   3.6551   3.6591   3.6667   3.7557   3.7581   3.7657   3.8094
  3.8325   3.8423   3.8561   3.8646   3.8742   3.9261   3.9376   3.9982
  4.0144   4.0565   4.0926   4.1226   4.1951   4.2107   4.2524   4.2619
  4.2806   4.2952   4.3065   4.3535   4.3553   4.3922   4.4113   4.4549
  4.4999   4.6218   4.7231   5.1312   5.1372   5.1431   5.1910   5.1931
  5.2044   5.2155   5.2426   5.2660   5.2726   5.2817   5.2922   5.2969
  5.3049   5.3132   5.3360   5.3595   5.3739   5.3766   5.3986   5.4169
  5.4357   5.4726   5.4922   5.5200   5.5457   5.5901   5.6208   5.6338
  5.6411   5.6656   5.6895   5.6977   5.7177   5.7320   5.8965   5.9343
  5.9640   6.0240   6.0285   6.0908   6.1014   6.1659   6.5147   6.5674
  6.7603   6.8006   6.9771   7.0118   7.0494   7.0578   7.1043   7.1311
  7.1432   7.1894   7.2125   7.2497   7.2658   7.2952   7.3142   7.3210
  7.3284   7.3590   7.3772   7.3940   7.4137   7.4692   7.4756   7.6102
  7.6163   7.6924   7.7242   7.7406   7.8262   7.8549   7.8817   7.9169
 24.7297  24.8545  50.4806  50.5746  50.5863  50.6140  50.6619
 --------------------------------------------------------------
 
          Ground-State Mulliken Net Atomic Charges

     Atom                 Charge (a.u.)    Spin (a.u.)
  --------------------------------------------------------
      1 C                    -0.004299      -0.001143
      2 O                    -0.452294       0.008267
      3 C                    -0.224276       0.170744
      4 O                    -0.421961       0.039135
      5 O                    -0.396575       0.022513
      6 O                    -0.382121      -0.000232
      7 H                     0.273968      -0.001429
      8 H                     0.328465      -0.000342
      9 H                     0.373490      -0.019548
     10 H                     0.339568      -0.001837
     11 H                     0.362825       0.000340
     12 H                     0.324625      -0.000300
     13 O                    -0.450100       0.794993
     14 H                     0.328683      -0.011160
  --------------------------------------------------------
  Sum of atomic charges =     0.000000
  Sum of spin   charges =     1.000000

 -----------------------------------------------------------------
                    Cartesian Multipole Moments
 -----------------------------------------------------------------
    Charge (ESU x 10^10)
                 0.0000
    Dipole Moment (Debye)
         X      -1.9859      Y      -1.1388      Z       1.0592
       Tot       2.5224
    Quadrupole Moments (Debye-Ang)
        XX     -51.4339     XY       3.1713     YY     -36.8594
        XZ       4.9304     YZ      -6.9107     ZZ     -48.0889
    Octopole Moments (Debye-Ang^2)
       XXX    -122.4259    XXY       4.8076    XYY     -21.4588
       YYY     -34.0780    XXZ      33.4510    XYZ       3.8844
       YYZ      15.0422    XZZ     -36.1882    YZZ      -3.5616
       ZZZ      83.4319
    Hexadecapole Moments (Debye-Ang^3)
      XXXX    -596.2888   XXXY      30.1858   XXYY    -126.0657
      XYYY      22.3656   YYYY    -313.5669   XXXZ      86.9323
      XXYZ     -46.9167   XYYZ      26.6396   YYYZ     -57.3497
      XXZZ    -150.6235   XYZZ       5.5385   YYZZ    -101.6131
      XZZZ      94.4764   YZZZ     -71.5203   ZZZZ    -406.0209
 -----------------------------------------------------------------
 Total job time:  4567.49s(wall), 57726.48s(cpu) 
 Mon Jul 17 22:57:38 2023

        *************************************************************
        *                                                           *
        *  Thank you very much for using Q-Chem.  Have a nice day.  *
        *                                                           *
        *************************************************************


