
Running Job 1 of 1 Q_in.in
qchem Q_in.in_24484.0 /scratch/ari.fischer/qChem1854175.hpc-mn1/qchem24484/ 0
/usr/local/qchem-5.4.1/exe/qcprog.exe_s Q_in.in_24484.0 /scratch/ari.fischer/qChem1854175.hpc-mn1/qchem24484/
                  Welcome to Q-Chem
     A Quantum Leap Into The Future Of Chemistry


 Q-Chem 5.4, Q-Chem, Inc., Pleasanton, CA (2021)

 License issued to: Nanyang Technological University (site)

 E. Epifanovsky,  A. T. B. Gilbert,  Xintian Feng,  Joonho Lee,  Yuezhi Mao,  
 N. Mardirossian,  P. Pokhilko,  A. White,  M. Wormit,  M. P. Coons,  
 A. L. Dempwolff,  Zhengting Gan,  D. Hait,  P. R. Horn,  L. D. Jacobson,  
 I. Kaliman,  J. Kussmann,  A. W. Lange,  Ka Un Lao,  D. S. Levine,  Jie Liu,  
 S. C. McKenzie,  A. F. Morrison,  K. Nanda,  F. Plasser,  D. R. Rehn,  
 M. L. Vidal,  Zhi-Qiang You,  Ying Zhu,  B. Alam,  B. Albrecht,  
 A. Aldossary,  E. Alguire,  J. H. Andersen,  D. Barton,  K. Begam,  A. Behn,  
 Y. A. Bernard,  E. J. Berquist,  H. Burton,  A. Carreras,  K. Carter-Fenk,  
 R. Chakraborty,  A. D. Chien,  K. D. Closser,  V. Cofer-Shabica,  
 S. Dasgupta,  Jia Deng,  M. de Wergifosse,  M. Diedenhofen,  Hainam Do,  
 S. Ehlert,  Po-Tung Fang,  S. Fatehi,  Qingguo Feng,  T. Friedhoff,  
 J. Gayvert,  Qinghui Ge,  G. Gidofalvi,  M. Goldey,  J. Gomes,  
 C. Gonzalez-Espinoza,  S. Gulania,  A. Gunina,  M. W. D. Hanson-Heine,  
 P. H. P. Harbach,  A. W. Hauser,  M. F. Herbst,  M. Hernandez Vera,  
 M. Hodecker,  Z. C. Holden,  S. Houck,  Xunkun Huang,  Kerwin Hui,  
 B. C. Huynh,  M. Ivanov,  Hyunjun Ji,  Hanjie Jiang,  B. Kaduk,  S. Kaehler,  
 K. Khistyaev,  Jaehoon Kim,  P. Klunzinger,  Z. Koczor-Benda,  
 Joong Hoon Koh,  D. Kosenkov,  L. Koulias,  T. Kowalczyk,  C. M. Krauter,  
 K. Kue,  A. Kunitsa,  T. Kus,  A. Landau,  K. V. Lawler,  D. Lefrancois,  
 S. Lehtola,  Rain Li,  Yi-Pei Li,  Jiashu Liang,  M. Liebenthal,  
 Hung-Hsuan Lin,  You-Sheng Lin,  Fenglai Liu,  Kuan-Yu Liu,  
 M. Loipersberger,  A. Luenser,  A. Manjanath,  P. Manohar,  E. Mansoor,  
 S. F. Manzer,  Shan-Ping Mao,  A. V. Marenich,  T. Markovich,  S. Mason,  
 S. A. Maurer,  P. F. McLaughlin,  M. F. S. J. Menger,  J.-M. Mewes,  
 S. A. Mewes,  P. Morgante,  J. W. Mullinax,  K. J. Oosterbaan,  G. Paran,  
 Alexander C. Paul,  Suranjan K. Paul,  F. Pavosevic,  Zheng Pei,  S. Prager,  
 E. I. Proynov,  E. Ramos,  B. Rana,  A. E. Rask,  A. Rettig,  R. M. Richard,  
 F. Rob,  E. Rossomme,  T. Scheele,  M. Scheurer,  M. Schneider,  
 N. Sergueev,  S. M. Sharada,  W. Skomorowski,  D. W. Small,  C. J. Stein,  
 Yu-Chuan Su,  E. J. Sundstrom,  Zhen Tao,  J. Thirman,  T. Tsuchimochi,  
 N. M. Tubman,  S. P. Veccham,  O. Vydrov,  J. Wenzel,  J. Witte,  A. Yamada,  
 Kun Yao,  S. Yeganeh,  S. R. Yost,  A. Zech,  Igor Ying Zhang,  Xing Zhang,  
 Yu Zhang,  D. Zuev,  A. Aspuru-Guzik,  A. T. Bell,  N. A. Besley,  
 K. B. Bravaya,  B. R. Brooks,  D. Casanova,  Jeng-Da Chai,  S. Coriani,  
 C. J. Cramer,  A. E. DePrince, III,  R. A. DiStasio Jr.,  A. Dreuw,  
 B. D. Dunietz,  T. R. Furlani,  W. A. Goddard III,  S. Grimme,  
 S. Hammes-Schiffer,  T. Head-Gordon,  W. J. Hehre,  Chao-Ping Hsu,  
 T.-C. Jagau,  Yousung Jung,  A. Klamt,  Jing Kong,  D. S. Lambrecht,  
 WanZhen Liang,  N. J. Mayhall,  C. W. McCurdy,  J. B. Neaton,  
 C. Ochsenfeld,  J. A. Parkhill,  R. Peverati,  V. A. Rassolov,  Yihan Shao,  
 L. V. Slipchenko,  T. Stauch,  R. P. Steele,  J. E. Subotnik,  
 A. J. W. Thom,  A. Tkatchenko,  D. G. Truhlar,  T. Van Voorhis,  
 T. A. Wesolowski,  K. B. Whaley,  H. L. Woodcock III,  P. M. Zimmerman,  
 S. Faraji,  P. M. W. Gill,  M. Head-Gordon,  J. M. Herbert,  A. I. Krylov

 Additional authors for Version 5.4.1: 
 S. Kotaru,  Shaozhi Li,  Xiangyuan Li,  F. Matz,  A. Molle,  Haisheng Ren,  
 Yingli Su,  Hung-Yi Tsai,  C. Utku,  Fang Wang

 Contributors to earlier versions of Q-Chem not listed above: 
 R. D. Adamson,  B. Austin,  R. Baer,  J. Baker,  G. J. O. Beran,  
 K. Brandhorst,  S. T. Brown,  E. F. C. Byrd,  A. K. Chakraborty,  
 G. K. L. Chan,  Chun-Min Chang,  Yunqing Chen,  C.-L. Cheng,  
 Siu Hung Chien,  D. M. Chipman,  D. L. Crittenden,  H. Dachsel,  
 R. J. Doerksen,  A. D. Dutoi,  R. G. Edgar,  J. Fosso-Tande,  
 L. Fusti-Molnar,  D. Ghosh,  A. Ghysels,  A. Golubeva-Zadorozhnaya,  
 J. Gonthier,  M. S. Gordon,  S. R. Gwaltney,  G. Hawkins,  J. E. Herr,  
 A. Heyden,  S. Hirata,  E. G. Hohenstein,  G. Kedziora,  F. J. Keil,  
 C. Kelley,  Jihan Kim,  R. A. King,  R. Z. Khaliullin,  P. P. Korambath,  
 W. Kurlancheek,  A. Laurent,  A. M. Lee,  M. S. Lee,  S. V. Levchenko,  
 Ching Yeh Lin,  D. Liotard,  E. Livshits,  R. C. Lochan,  I. Lotan,  
 L. A. Martinez-Martinez,  P. E. Maslen,  N. Nair,  D. P. O'Neill,  
 D. Neuhauser,  E. Neuscamman,  C. M. Oana,  R. Olivares-Amaya,  R. Olson,  
 T. M. Perrine,  B. Peters,  P. A. Pieniazek,  A. Prociuk,  Y. M. Rhee,  
 J. Ritchie,  M. A. Rohrdanz,  E. Rosta,  N. J. Russ,  H. F. Schaefer III,  
 M. W. Schmidt,  N. E. Schultz,  S. Sharma,  N. Shenvi,  C. D. Sherrill,  
 A. C. Simmonett,  A. Sodt,  T. Stein,  D. Stuck,  K. S. Thanthiriwatte,  
 V. Vanovschi,  L. Vogt,  Tao Wang,  A. Warshel,  M. A. Watson,  
 C. F. Williams,  Q. Wu,  X. Xu,  Jun Yang,  W. Zhang,  Yan Zhao

 Please cite Q-Chem as follows:
 Y. Shao et al., Mol. Phys. 113, 184-215 (2015)
 DOI: 10.1080/00268976.2014.952696

 Q-Chem 5.4.1 for Intel X86 EM64T Linux

 Parts of Q-Chem use Armadillo 9.800.1 (Horizon Scraper).
 http://arma.sourceforge.net/

 Q-Chem begins on Thu Dec  7 16:04:19 2023  

 Host: 
0

     Scratch files written to /scratch/ari.fischer/qChem1854175.hpc-mn1/qchem24484//
 Aug1521 |scratch|qcdevops|jenkins|workspace|build_RNUM 8249   
 Processing $rem in /usr/local/qchem-5.4.1/config/preferences:
 Processing $rem in /home/ari.fischer/.qchemrc:
 Symmetry turned off for PCM/SM12/SMD calculation

 Checking the input file for inconsistencies... 	...done.

--------------------------------------------------------------
User input:
--------------------------------------------------------------
$molecule
-1 2
O        -0.5898693698    1.4364167686   -0.2011324283
C        -0.0505459724    0.4558973035    0.6364534286
O        -0.9992020981   -0.4709441896    1.0550590018
C         1.1382211719   -0.2198854210   -0.0797845773
O         2.1150602176    0.5155082449   -0.3422678855
O         1.0091565412   -1.4439638257   -0.3063138284
H        -1.2923185257    1.8935755434    0.2782478755
H        -0.6832252495   -1.3229325128    0.7021992984
H         0.3900654810    0.9778650496    1.5657085859
O         1.5169367837    1.7843143470    2.2297602170
H         2.0821964203    1.6320557921    1.4474164122
$end

$rem
BASIS = def2-TZVPPD
JOB_TYPE = SP
METHOD = wB97M-V
SCF_ALGORITHM = DIIS_GDM
MAX_SCF_CYCLES = 400
SCF_CONVERGENCE = 7
THRESH = 12
Solvent_method = SMD
$end
--------------------------------------------------------------
 ----------------------------------------------------------------
             Standard Nuclear Orientation (Angstroms)
    I     Atom           X                Y                Z
 ----------------------------------------------------------------
    1      O      -0.5898693698     1.4364167686    -0.2011324283
    2      C      -0.0505459724     0.4558973035     0.6364534286
    3      O      -0.9992020981    -0.4709441896     1.0550590018
    4      C       1.1382211719    -0.2198854210    -0.0797845773
    5      O       2.1150602176     0.5155082449    -0.3422678855
    6      O       1.0091565412    -1.4439638257    -0.3063138284
    7      H      -1.2923185257     1.8935755434     0.2782478755
    8      H      -0.6832252495    -1.3229325128     0.7021992984
    9      H       0.3900654810     0.9778650496     1.5657085859
   10      O       1.5169367837     1.7843143470     2.2297602170
   11      H       2.0821964203     1.6320557921     1.4474164122
 ----------------------------------------------------------------
 Nuclear Repulsion Energy =         316.74259526 hartrees
 There are       29 alpha and       28 beta electrons
 Requested basis set is def2-TZVPPD
 There are 124 shells and 342 basis functions

 Total QAlloc Memory Limit 288000 MB
 Mega-Array Size       188 MB
 MEM_STATIC part       192 MB
 
 Citation of the SMD model:
 Marenich, A.V.; Cramer, C.J.; Truhlar, D.G.
 J. Phys. Chem. B 2009, 113, 6378-6396.
 iSolventCode=           1
 Solvent: water                                                           
 
 vradii
            1           2           3           4           5           6
    1   1.5200000   1.8500000   1.5200000   1.8500000   1.5200000   1.5200000
            7           8           9          10          11
    1   1.2000000   1.2000000   1.2000000   1.5200000   1.2000000
 Changing PCM_VDW_RADII to SMD_RADIUS
 Discretize the solute cavity surface with Lebedev spheres
	Using 110 Lebedev grid points for each H atom
	Using 194 Lebedev grid points for other atoms
	Atomic van der Waals radii will be scaled by 1.20
 Remove points where switching function is < 1.0e-08
 Keep 976 surface tesserae and discard 822 interior tesserae
 Molecular Surface Area = 115.136 Angst**2

                       Distance Matrix (Angstroms)
             O (  1)   C (  2)   O (  3)   C (  4)   O (  5)   O (  6)
   C (  2)  1.397798
   O (  3)  2.320258  1.390760
   C (  4)  2.396739  1.543647  2.432998
   O (  5)  2.860880  2.377246  3.553061  1.250566
   O (  6)  3.296140  2.370918  2.614117  1.251536  2.250299
   H (  7)  0.965523  1.933191  2.506054  3.240745  3.727511  4.096055
   H (  8)  2.904950  1.889138  0.974800  2.268453  3.507303  1.973804
   H (  9)  2.071779  1.153301  2.071201  2.168407  2.613380  3.122979
   O ( 10)  3.235569  2.600062  3.577299  3.081272  2.929667  4.136580
   H ( 11)  3.145779  2.567022  3.751209  2.579364  2.109675  3.699849
             H (  7)   H (  8)   H (  9)   O ( 10)
   H (  8)  3.301008
   H (  9)  2.307920  2.681654
   O ( 10)  3.422317  4.102333  1.536608
   H ( 11)  3.580880  4.115199  1.818039  0.977120
 
 A cutoff of  1.0D-12 yielded   7314 shell pairs
 There are     56136 function pairs (     72108 Cartesian)
 Smallest overlap matrix eigenvalue = 6.84E-06

 Scale SEOQF with 1.000000e-01/1.000000e-01/1.000000e-01

 Standard Electronic Orientation quadrupole field applied
 Nucleus-field energy     =     0.0000000021 hartrees
 Guess from superposition of atomic densities
 Warning:  Energy on first SCF cycle will be non-variational
 SAD guess density has 56.000000 electrons

 -----------------------------------------------------------------------
  General SCF calculation program by
  Eric Jon Sundstrom, Paul Horn, Yuezhi Mao, Dmitri Zuev, Alec White,
  David Stuck, Shaama M.S., Shane Yost, Joonho Lee, David Small,
  Daniel Levine, Susi Lehtola, Hugh Burton, Evgeny Epifanovsky,
  Bang C. Huynh
 -----------------------------------------------------------------------
 Exchange:     0.1500 Hartree-Fock + 1.0000 wB97M-V + LR-HF
 Correlation:  1.0000 wB97M-V
 Using SG-2 standard quadrature grid
 Nonlocal Correlation:  VV10 with C = 0.0100 and b = 6.00 and scale = 1.00000
 Grid used for NLC:  SG-1 standard quadrature
 
 Citation of the SMD model:
 Marenich, A.V.; Cramer, C.J.; Truhlar, D.G.
 J. Phys. Chem. B 2009, 113, 6378-6396.
 iSolventCode=           1
 Solvent: water                                                           
 
 vradii
            1           2           3           4           5           6
    1   1.5200000   1.8500000   1.5200000   1.8500000   1.5200000   1.5200000
            7           8           9          10          11
    1   1.2000000   1.2000000   1.2000000   1.5200000   1.2000000
 using 4 threads for integral computing
 -------------------------------------------------------
 OpenMP Integral computing Module                
 Release: version 1.0, May 2013, Q-Chem Inc. Pittsburgh 
 -------------------------------------------------------
 -------------------------------------------------------
 OpenMP BLAS3 based DFT computing Module                
 Release: version 1.0, May 2013, Q-Chem Inc. Pittsburgh 
 -------------------------------------------------------
 A unrestricted SCF calculation will be
 performed using DIIS, GDM
 SCF converges when RMS gradient is below 1.0e-07
 ---------------------------------------
  Cycle       Energy         DIIS error
 ---------------------------------------
    1    -455.6319718813      1.20e-02  
    2    -454.5965180150      2.53e-03  Done DIIS. Switching to GDM
 ---------------------------------------
  Cycle       Energy        RMS Gradient
 ---------------------------------------
    1    -454.5965180150      2.81e-01   Descent step
    2    -454.8486209931      6.01e-02   Normal BFGS step
    3    -454.8953989655      7.12e-02   Normal BFGS step
    4    -454.9013154934      1.69e-02   Normal BFGS step
    5    -454.9058443344      1.90e-02   Normal BFGS step
    6    -454.9074935131      1.25e-02   Normal BFGS step
    7    -454.9080393309      5.61e-03   Normal BFGS step
    8    -454.9081558561      2.23e-03   Normal BFGS step
    9    -454.9081802800      8.55e-04   Normal BFGS step
   10    -454.9081875725      4.38e-04   Normal BFGS step
   11    -454.9081889122      2.66e-04   Normal BFGS step
   12    -454.9081894115      1.27e-04   Normal BFGS step
   13    -454.9081895377      1.11e-04   Normal BFGS step
   14    -454.9081895788      9.69e-05   Normal BFGS step
   15    -454.9081896057      7.39e-05   Normal BFGS step
   16    -454.9081896206      4.16e-05   Normal BFGS step
   17    -454.9081896349      3.72e-05   Normal BFGS step
   18    -454.9081896427      1.64e-05   Normal BFGS step
   19    -454.9081896444      6.08e-06   Normal BFGS step
   20    -454.9081896448      2.54e-06   Normal BFGS step
   21    -454.9081896449      8.17e-07   Normal BFGS step
   22    -454.9081896449      2.70e-07   Normal BFGS step
   23    -454.9081896448      7.09e-08  Convergence criterion met
 ---------------------------------------
 SCF time:   CPU 2008.98s  wall 504.00s 
<S^2> =          0.756787981
(3)  G-ENP(liq) elect-nuc-pol free energy of system     -454.908189645 a.u.
(4)  G-CDS(liq) cavity-dispersion-solvent structure 
     free energy                                                4.1292 kcal/mol
(6)  G-S(liq) free energy of system                     -454.901609289 a.u.
 SCF   energy in the final basis set =     -454.9016092891
 Total energy in the final basis set =     -454.9016092891
 
 --------------------------------------------------------------
 
                    Orbital Energies (a.u.)
 --------------------------------------------------------------
 
 Alpha MOs
 -- Occupied --
-19.3658 -19.3524 -19.3460 -19.2987 -19.2949 -10.4551 -10.4498  -1.2159
 -1.1729  -1.1435  -1.1170  -1.0910  -0.8172  -0.6903  -0.6501  -0.6220
 -0.5937  -0.5684  -0.5402  -0.5239  -0.5190  -0.4974  -0.4875  -0.4415
 -0.4211  -0.3941  -0.3812  -0.3709  -0.3563
 -- Virtual --
  0.0376   0.0608   0.0619   0.0674   0.0928   0.0979   0.1005   0.1071
  0.1079   0.1196   0.1388   0.1446   0.1477   0.1503   0.1557   0.1614
  0.1799   0.1942   0.2057   0.2127   0.2181   0.2441   0.2573   0.2652
  0.2720   0.2847   0.2916   0.2942   0.3095   0.3153   0.3261   0.3360
  0.3404   0.3439   0.3525   0.3686   0.3728   0.3864   0.3897   0.3986
  0.4066   0.4130   0.4159   0.4211   0.4334   0.4424   0.4567   0.4608
  0.4685   0.4823   0.4922   0.4960   0.5002   0.5076   0.5191   0.5236
  0.5347   0.5543   0.5657   0.5744   0.5852   0.5943   0.6093   0.6184
  0.6229   0.6260   0.6349   0.6574   0.6651   0.6659   0.6793   0.6839
  0.6890   0.7061   0.7205   0.7262   0.7360   0.7465   0.7543   0.7716
  0.7757   0.7874   0.8015   0.8114   0.8175   0.8328   0.8479   0.8509
  0.8932   0.8962   0.9073   0.9335   0.9362   0.9589   0.9848   0.9929
  1.0015   1.0275   1.0315   1.0519   1.0641   1.0762   1.0793   1.1190
  1.1225   1.1289   1.1420   1.1890   1.1977   1.1999   1.2256   1.2383
  1.2457   1.2581   1.2755   1.2914   1.3252   1.3277   1.3446   1.3694
  1.3732   1.4064   1.4517   1.4765   1.4885   1.5065   1.5204   1.5539
  1.5819   1.5969   1.6395   1.6838   1.6912   1.8587   1.8691   1.8974
  1.9080   1.9129   1.9399   1.9461   1.9846   2.0091   2.0315   2.0469
  2.1191   2.1529   2.1706   2.1800   2.2089   2.2407   2.2615   2.2678
  2.2927   2.2958   2.3437   2.3749   2.3912   2.4279   2.4398   2.4626
  2.5144   2.5224   2.5452   2.6170   2.7049   2.7601   2.7751   2.8480
  2.8953   2.9042   2.9737   2.9975   3.0299   3.0408   3.0617   3.0802
  3.0985   3.1417   3.1902   3.1990   3.2115   3.2445   3.2662   3.3005
  3.3218   3.3299   3.3499   3.3780   3.3903   3.4233   3.4398   3.4486
  3.4736   3.5082   3.5255   3.5509   3.5709   3.5855   3.6052   3.6075
  3.6272   3.6300   3.6540   3.6821   3.6910   3.7305   3.7507   3.8136
  3.8293   3.8670   3.8785   3.9164   3.9427   3.9886   4.0126   4.0500
  4.0963   4.1123   4.1316   4.1378   4.1717   4.1999   4.2382   4.2587
  4.2852   4.3183   4.3736   4.4340   4.4513   4.5190   4.5477   4.6048
  4.6350   4.6731   4.7358   4.7759   4.8530   4.8679   4.8955   5.0236
  5.0884   5.1299   5.1741   5.2063   5.2531   5.2936   5.3200   5.3715
  5.4080   5.4289   5.4451   5.4857   5.5054   5.5735   5.6059   5.6157
  5.6610   5.6889   5.7202   5.7331   5.8052   5.9173   5.9879   6.0026
  6.1159   6.2214   6.2613   6.3068   6.3246   6.3367   6.5212   6.5296
  6.5893   6.6071   6.6299   6.6379   6.6507   6.6633   6.7263   6.7613
  6.7795   6.7842   6.7960   6.8227   6.8590   6.8877   6.9301   6.9425
  6.9665   6.9969   7.0301   7.0592   7.1231   7.1811   7.2444   7.3073
  7.3374   7.3571   7.3927   7.4276   7.4451   7.5456   7.5627   7.6163
  7.7408   7.7715  23.4330  23.9907  44.3436  44.6331  44.6797  44.7550
 44.9257
 
 Beta MOs
 -- Occupied --
-19.3514 -19.3455 -19.3448 -19.2986 -19.2949 -10.4509 -10.4498  -1.2132
 -1.1721  -1.1408  -1.0921  -1.0640  -0.8096  -0.6838  -0.6448  -0.6092
 -0.5877  -0.5494  -0.5377  -0.5195  -0.5155  -0.4892  -0.4246  -0.4139
 -0.4099  -0.3801  -0.3721  -0.3648
 -- Virtual --
 -0.0653   0.0384   0.0612   0.0623   0.0678   0.0934   0.0997   0.1014
  0.1076   0.1088   0.1212   0.1395   0.1446   0.1483   0.1504   0.1558
  0.1616   0.1806   0.1950   0.2067   0.2143   0.2197   0.2450   0.2583
  0.2673   0.2727   0.2855   0.2928   0.2947   0.3123   0.3171   0.3275
  0.3375   0.3431   0.3510   0.3558   0.3705   0.3741   0.3878   0.3927
  0.3988   0.4071   0.4153   0.4189   0.4224   0.4343   0.4452   0.4579
  0.4615   0.4702   0.4863   0.4966   0.4980   0.5024   0.5083   0.5199
  0.5240   0.5357   0.5552   0.5665   0.5763   0.5874   0.5951   0.6119
  0.6196   0.6251   0.6272   0.6358   0.6583   0.6663   0.6667   0.6808
  0.6857   0.6900   0.7068   0.7212   0.7270   0.7366   0.7476   0.7549
  0.7725   0.7765   0.7894   0.8027   0.8120   0.8188   0.8347   0.8486
  0.8522   0.8938   0.8984   0.9088   0.9348   0.9369   0.9600   0.9870
  0.9944   1.0043   1.0295   1.0325   1.0536   1.0658   1.0774   1.0918
  1.1204   1.1244   1.1311   1.1432   1.1900   1.2007   1.2016   1.2269
  1.2412   1.2480   1.2599   1.2793   1.2931   1.3263   1.3290   1.3454
  1.3708   1.3748   1.4109   1.4537   1.4792   1.4899   1.5087   1.5226
  1.5562   1.5859   1.6010   1.6414   1.6858   1.7039   1.8639   1.8705
  1.9030   1.9177   1.9294   1.9424   1.9475   1.9878   2.0161   2.0414
  2.0517   2.1213   2.1595   2.1766   2.1864   2.2161   2.2472   2.2695
  2.2716   2.2974   2.2994   2.3481   2.3785   2.3935   2.4287   2.4414
  2.4642   2.5167   2.5258   2.5654   2.6193   2.7082   2.7648   2.7856
  2.8520   2.8975   2.9107   2.9833   3.0037   3.0394   3.0446   3.0639
  3.0893   3.1035   3.1551   3.1929   3.2059   3.2160   3.2527   3.2746
  3.3044   3.3276   3.3338   3.3601   3.3831   3.3925   3.4284   3.4457
  3.4546   3.4752   3.5120   3.5264   3.5528   3.5765   3.5901   3.6065
  3.6131   3.6274   3.6342   3.6604   3.6848   3.6960   3.7319   3.7496
  3.8158   3.8341   3.8738   3.8793   3.9184   3.9510   3.9908   4.0148
  4.0535   4.0955   4.1207   4.1333   4.1389   4.1702   4.1991   4.2366
  4.2625   4.2826   4.3162   4.3755   4.4423   4.4530   4.5206   4.5458
  4.6050   4.6340   4.6718   4.7301   4.7763   4.8525   4.8721   4.8970
  5.0242   5.0987   5.1349   5.1750   5.2042   5.2542   5.2952   5.3205
  5.3720   5.4238   5.4442   5.4700   5.5129   5.5309   5.5885   5.6094
  5.6429   5.6634   5.6895   5.7267   5.7346   5.8116   5.9370   5.9956
  6.0087   6.1196   6.2253   6.2651   6.3083   6.3257   6.3409   6.5473
  6.5810   6.6106   6.6346   6.6380   6.6522   6.6679   6.6768   6.7298
  6.7774   6.7850   6.7926   6.8011   6.8255   6.8621   6.9172   6.9486
  6.9642   6.9804   7.0165   7.0492   7.0615   7.1279   7.1837   7.2463
  7.3099   7.3381   7.3598   7.3976   7.4354   7.5046   7.5474   7.5688
  7.6528   7.7436   7.7740  23.4361  23.9909  44.3606  44.6334  44.6801
 44.7560  44.9264
 --------------------------------------------------------------
 
          Ground-State Mulliken Net Atomic Charges

     Atom                 Charge (a.u.)    Spin (a.u.)
  --------------------------------------------------------
      1 O                    -0.427639       0.033326
      2 C                     0.654479       0.149920
      3 O                    -0.567132       0.029334
      4 C                     0.668348       0.000472
      5 O                    -0.821592       0.003771
      6 O                    -0.827506       0.007210
      7 H                     0.180661      -0.002250
      8 H                     0.268679       0.005237
      9 H                     0.072027       0.030680
     10 O                    -0.499022       0.773340
     11 H                     0.298699      -0.031040
  --------------------------------------------------------
  Sum of atomic charges =    -1.000000
  Sum of spin   charges =     1.000000

 -----------------------------------------------------------------
                    Cartesian Multipole Moments
 -----------------------------------------------------------------
    Charge (ESU x 10^10)
                -4.8032
    Dipole Moment (Debye)
         X      -7.4630      Y       0.4703      Z      -0.1112
       Tot       7.4786
    Quadrupole Moments (Debye-Ang)
        XX     -56.7605     XY      -2.7742     YY     -50.7604
        XZ       1.0740     YZ      -4.0164     ZZ     -54.4053
    Octopole Moments (Debye-Ang^2)
       XXX    -103.8866    XXY      -6.9844    XYY     -46.9654
       YYY     -40.0639    XXZ     -15.1505    XYZ      -9.4164
       YYZ     -22.4866    XZZ     -36.8348    YZZ     -28.0666
       ZZZ     -85.6918
    Hexadecapole Moments (Debye-Ang^3)
      XXXX    -497.4760   XXXY     -40.2138   XXYY    -129.3180
      XYYY     -44.5705   YYYY    -387.7372   XXXZ      -4.7669
      XXYZ     -23.4281   XYYZ     -22.5328   YYYZ    -100.2602
      XXZZ    -146.4447   XYZZ     -33.8611   YYZZ    -142.7720
      XZZZ     -59.3450   YZZZ    -113.4124   ZZZZ    -374.1565
 -----------------------------------------------------------------
 Total job time:  505.29s(wall), 2011.30s(cpu) 
 Thu Dec  7 16:12:44 2023

        *************************************************************
        *                                                           *
        *  Thank you very much for using Q-Chem.  Have a nice day.  *
        *                                                           *
        *************************************************************


