
Running Job 1 of 1 Q_in.in
qchem Q_in.in_120100.0 /scratch/ari.fischer/qChem1627069.hpc-mn1/qchem120100/ 0
/usr/local/qchem-5.4.1/exe/qcprog.exe_s Q_in.in_120100.0 /scratch/ari.fischer/qChem1627069.hpc-mn1/qchem120100/
                  Welcome to Q-Chem
     A Quantum Leap Into The Future Of Chemistry


 Q-Chem 5.4, Q-Chem, Inc., Pleasanton, CA (2021)

 License issued to: Nanyang Technological University (site)

 E. Epifanovsky,  A. T. B. Gilbert,  Xintian Feng,  Joonho Lee,  Yuezhi Mao,  
 N. Mardirossian,  P. Pokhilko,  A. White,  M. Wormit,  M. P. Coons,  
 A. L. Dempwolff,  Zhengting Gan,  D. Hait,  P. R. Horn,  L. D. Jacobson,  
 I. Kaliman,  J. Kussmann,  A. W. Lange,  Ka Un Lao,  D. S. Levine,  Jie Liu,  
 S. C. McKenzie,  A. F. Morrison,  K. Nanda,  F. Plasser,  D. R. Rehn,  
 M. L. Vidal,  Zhi-Qiang You,  Ying Zhu,  B. Alam,  B. Albrecht,  
 A. Aldossary,  E. Alguire,  J. H. Andersen,  D. Barton,  K. Begam,  A. Behn,  
 Y. A. Bernard,  E. J. Berquist,  H. Burton,  A. Carreras,  K. Carter-Fenk,  
 R. Chakraborty,  A. D. Chien,  K. D. Closser,  V. Cofer-Shabica,  
 S. Dasgupta,  Jia Deng,  M. de Wergifosse,  M. Diedenhofen,  Hainam Do,  
 S. Ehlert,  Po-Tung Fang,  S. Fatehi,  Qingguo Feng,  T. Friedhoff,  
 J. Gayvert,  Qinghui Ge,  G. Gidofalvi,  M. Goldey,  J. Gomes,  
 C. Gonzalez-Espinoza,  S. Gulania,  A. Gunina,  M. W. D. Hanson-Heine,  
 P. H. P. Harbach,  A. W. Hauser,  M. F. Herbst,  M. Hernandez Vera,  
 M. Hodecker,  Z. C. Holden,  S. Houck,  Xunkun Huang,  Kerwin Hui,  
 B. C. Huynh,  M. Ivanov,  Hyunjun Ji,  Hanjie Jiang,  B. Kaduk,  S. Kaehler,  
 K. Khistyaev,  Jaehoon Kim,  P. Klunzinger,  Z. Koczor-Benda,  
 Joong Hoon Koh,  D. Kosenkov,  L. Koulias,  T. Kowalczyk,  C. M. Krauter,  
 K. Kue,  A. Kunitsa,  T. Kus,  A. Landau,  K. V. Lawler,  D. Lefrancois,  
 S. Lehtola,  Rain Li,  Yi-Pei Li,  Jiashu Liang,  M. Liebenthal,  
 Hung-Hsuan Lin,  You-Sheng Lin,  Fenglai Liu,  Kuan-Yu Liu,  
 M. Loipersberger,  A. Luenser,  A. Manjanath,  P. Manohar,  E. Mansoor,  
 S. F. Manzer,  Shan-Ping Mao,  A. V. Marenich,  T. Markovich,  S. Mason,  
 S. A. Maurer,  P. F. McLaughlin,  M. F. S. J. Menger,  J.-M. Mewes,  
 S. A. Mewes,  P. Morgante,  J. W. Mullinax,  K. J. Oosterbaan,  G. Paran,  
 Alexander C. Paul,  Suranjan K. Paul,  F. Pavosevic,  Zheng Pei,  S. Prager,  
 E. I. Proynov,  E. Ramos,  B. Rana,  A. E. Rask,  A. Rettig,  R. M. Richard,  
 F. Rob,  E. Rossomme,  T. Scheele,  M. Scheurer,  M. Schneider,  
 N. Sergueev,  S. M. Sharada,  W. Skomorowski,  D. W. Small,  C. J. Stein,  
 Yu-Chuan Su,  E. J. Sundstrom,  Zhen Tao,  J. Thirman,  T. Tsuchimochi,  
 N. M. Tubman,  S. P. Veccham,  O. Vydrov,  J. Wenzel,  J. Witte,  A. Yamada,  
 Kun Yao,  S. Yeganeh,  S. R. Yost,  A. Zech,  Igor Ying Zhang,  Xing Zhang,  
 Yu Zhang,  D. Zuev,  A. Aspuru-Guzik,  A. T. Bell,  N. A. Besley,  
 K. B. Bravaya,  B. R. Brooks,  D. Casanova,  Jeng-Da Chai,  S. Coriani,  
 C. J. Cramer,  A. E. DePrince, III,  R. A. DiStasio Jr.,  A. Dreuw,  
 B. D. Dunietz,  T. R. Furlani,  W. A. Goddard III,  S. Grimme,  
 S. Hammes-Schiffer,  T. Head-Gordon,  W. J. Hehre,  Chao-Ping Hsu,  
 T.-C. Jagau,  Yousung Jung,  A. Klamt,  Jing Kong,  D. S. Lambrecht,  
 WanZhen Liang,  N. J. Mayhall,  C. W. McCurdy,  J. B. Neaton,  
 C. Ochsenfeld,  J. A. Parkhill,  R. Peverati,  V. A. Rassolov,  Yihan Shao,  
 L. V. Slipchenko,  T. Stauch,  R. P. Steele,  J. E. Subotnik,  
 A. J. W. Thom,  A. Tkatchenko,  D. G. Truhlar,  T. Van Voorhis,  
 T. A. Wesolowski,  K. B. Whaley,  H. L. Woodcock III,  P. M. Zimmerman,  
 S. Faraji,  P. M. W. Gill,  M. Head-Gordon,  J. M. Herbert,  A. I. Krylov

 Additional authors for Version 5.4.1: 
 S. Kotaru,  Shaozhi Li,  Xiangyuan Li,  F. Matz,  A. Molle,  Haisheng Ren,  
 Yingli Su,  Hung-Yi Tsai,  C. Utku,  Fang Wang

 Contributors to earlier versions of Q-Chem not listed above: 
 R. D. Adamson,  B. Austin,  R. Baer,  J. Baker,  G. J. O. Beran,  
 K. Brandhorst,  S. T. Brown,  E. F. C. Byrd,  A. K. Chakraborty,  
 G. K. L. Chan,  Chun-Min Chang,  Yunqing Chen,  C.-L. Cheng,  
 Siu Hung Chien,  D. M. Chipman,  D. L. Crittenden,  H. Dachsel,  
 R. J. Doerksen,  A. D. Dutoi,  R. G. Edgar,  J. Fosso-Tande,  
 L. Fusti-Molnar,  D. Ghosh,  A. Ghysels,  A. Golubeva-Zadorozhnaya,  
 J. Gonthier,  M. S. Gordon,  S. R. Gwaltney,  G. Hawkins,  J. E. Herr,  
 A. Heyden,  S. Hirata,  E. G. Hohenstein,  G. Kedziora,  F. J. Keil,  
 C. Kelley,  Jihan Kim,  R. A. King,  R. Z. Khaliullin,  P. P. Korambath,  
 W. Kurlancheek,  A. Laurent,  A. M. Lee,  M. S. Lee,  S. V. Levchenko,  
 Ching Yeh Lin,  D. Liotard,  E. Livshits,  R. C. Lochan,  I. Lotan,  
 L. A. Martinez-Martinez,  P. E. Maslen,  N. Nair,  D. P. O'Neill,  
 D. Neuhauser,  E. Neuscamman,  C. M. Oana,  R. Olivares-Amaya,  R. Olson,  
 T. M. Perrine,  B. Peters,  P. A. Pieniazek,  A. Prociuk,  Y. M. Rhee,  
 J. Ritchie,  M. A. Rohrdanz,  E. Rosta,  N. J. Russ,  H. F. Schaefer III,  
 M. W. Schmidt,  N. E. Schultz,  S. Sharma,  N. Shenvi,  C. D. Sherrill,  
 A. C. Simmonett,  A. Sodt,  T. Stein,  D. Stuck,  K. S. Thanthiriwatte,  
 V. Vanovschi,  L. Vogt,  Tao Wang,  A. Warshel,  M. A. Watson,  
 C. F. Williams,  Q. Wu,  X. Xu,  Jun Yang,  W. Zhang,  Yan Zhao

 Please cite Q-Chem as follows:
 Y. Shao et al., Mol. Phys. 113, 184-215 (2015)
 DOI: 10.1080/00268976.2014.952696

 Q-Chem 5.4.1 for Intel X86 EM64T Linux

 Parts of Q-Chem use Armadillo 9.800.1 (Horizon Scraper).
 http://arma.sourceforge.net/

 Q-Chem begins on Mon Jul 17 12:27:46 2023  

 Host: 
0

     Scratch files written to /scratch/ari.fischer/qChem1627069.hpc-mn1/qchem120100//
 Aug1521 |scratch|qcdevops|jenkins|workspace|build_RNUM 8249   
 Processing $rem in /usr/local/qchem-5.4.1/config/preferences:
 Processing $rem in /home/ari.fischer/.qchemrc:
 Symmetry turned off for PCM/SM12/SMD calculation

 Checking the input file for inconsistencies... 	...done.

--------------------------------------------------------------
User input:
--------------------------------------------------------------
$molecule
-1 1
O        -0.7657880660    1.0527506494    0.0144797749
C        -0.3525735743   -0.2117506845    0.4962192404
O        -1.0418639450   -1.2654915069   -0.1416176222
C         1.1662864312   -0.3512125328    0.2324063744
O         1.8531408128    0.6705151806    0.4943822132
O         1.5836522570   -1.4651672551   -0.1721928077
H        -1.6434354212    1.2270407784    0.3915367207
H        -1.9492614337   -1.2550111888    0.2043887511
H        -0.5261326608   -0.2618192403    1.5811251552
$end

$rem
BASIS = 6-311++G(2df,2p)
GUI = 2
JOB_TYPE = Optimization
METHOD = wB97M-V
SCF_ALGORITHM = DIIS_GDM
MAX_SCF_CYCLES = 400
GEOM_OPT_MAX_CYCLES = 150
SCF_CONVERGENCE = 7
THRESH = 12
Solvent_method = SMD
$end
--------------------------------------------------------------
 ----------------------------------------------------------------
             Standard Nuclear Orientation (Angstroms)
    I     Atom           X                Y                Z
 ----------------------------------------------------------------
    1      O      -0.7657880660     1.0527506494     0.0144797749
    2      C      -0.3525735743    -0.2117506845     0.4962192404
    3      O      -1.0418639450    -1.2654915069    -0.1416176222
    4      C       1.1662864312    -0.3512125328     0.2324063744
    5      O       1.8531408128     0.6705151806     0.4943822132
    6      O       1.5836522570    -1.4651672551    -0.1721928077
    7      H      -1.6434354212     1.2270407784     0.3915367207
    8      H      -1.9492614337    -1.2550111888     0.2043887511
    9      H      -0.5261326608    -0.2618192403     1.5811251552
 ----------------------------------------------------------------
 Nuclear Repulsion Energy =         239.03074276 hartrees
 There are       24 alpha and       24 beta electrons
 Requested basis set is 6-311++G(2df,2p)
 There are 66 shells and 234 basis functions

 Total QAlloc Memory Limit 288000 MB
 Mega-Array Size       188 MB
 MEM_STATIC part       192 MB
 
 Citation of the SMD model:
 Marenich, A.V.; Cramer, C.J.; Truhlar, D.G.
 J. Phys. Chem. B 2009, 113, 6378-6396.
 iSolventCode=           1
 Solvent: water                                                           
 
 vradii
            1           2           3           4           5           6
    1   1.5200000   1.8500000   1.5200000   1.8500000   1.5200000   1.5200000
            7           8           9
    1   1.2000000   1.2000000   1.2000000
 Changing PCM_VDW_RADII to SMD_RADIUS
 Discretize the solute cavity surface with Lebedev spheres
	Using 110 Lebedev grid points for each H atom
	Using 194 Lebedev grid points for other atoms
	Atomic van der Waals radii will be scaled by 1.20
 Remove points where switching function is < 1.0e-08
 Keep 830 surface tesserae and discard 664 interior tesserae
 Molecular Surface Area = 99.871 Angst**2
 A cutoff of  1.0D-12 yielded   2100 shell pairs
 There are     26731 function pairs (     34052 Cartesian)
 Smallest overlap matrix eigenvalue = 9.61E-05

 Scale SEOQF with 1.000000e-01/1.000000e-01/1.000000e-01

 Standard Electronic Orientation quadrupole field applied
 Nucleus-field energy     =     0.0000000053 hartrees
 Guess from superposition of atomic densities
 Warning:  Energy on first SCF cycle will be non-variational
 SAD guess density has 47.000000 electrons

 -----------------------------------------------------------------------
  General SCF calculation program by
  Eric Jon Sundstrom, Paul Horn, Yuezhi Mao, Dmitri Zuev, Alec White,
  David Stuck, Shaama M.S., Shane Yost, Joonho Lee, David Small,
  Daniel Levine, Susi Lehtola, Hugh Burton, Evgeny Epifanovsky,
  Bang C. Huynh
 -----------------------------------------------------------------------
 Exchange:     0.1500 Hartree-Fock + 1.0000 wB97M-V + LR-HF
 Correlation:  1.0000 wB97M-V
 Using SG-2 standard quadrature grid
 Nonlocal Correlation:  VV10 with C = 0.0100 and b = 6.00 and scale = 1.00000
 Grid used for NLC:  SG-1 standard quadrature
 
 Citation of the SMD model:
 Marenich, A.V.; Cramer, C.J.; Truhlar, D.G.
 J. Phys. Chem. B 2009, 113, 6378-6396.
 iSolventCode=           1
 Solvent: water                                                           
 
 vradii
            1           2           3           4           5           6
    1   1.5200000   1.8500000   1.5200000   1.8500000   1.5200000   1.5200000
            7           8           9
    1   1.2000000   1.2000000   1.2000000
 using 8 threads for integral computing
 -------------------------------------------------------
 OpenMP Integral computing Module                
 Release: version 1.0, May 2013, Q-Chem Inc. Pittsburgh 
 -------------------------------------------------------
 -------------------------------------------------------
 OpenMP BLAS3 based DFT computing Module                
 Release: version 1.0, May 2013, Q-Chem Inc. Pittsburgh 
 -------------------------------------------------------
 A restricted SCF calculation will be
 performed using DIIS, GDM
 SCF converges when RMS gradient is below 1.0e-07
 ---------------------------------------
  Cycle       Energy         DIIS error
 ---------------------------------------
    1    -379.8116449365      3.25e-02  
    2    -378.9083193043      6.45e-03  Done DIIS. Switching to GDM
 ---------------------------------------
  Cycle       Energy        RMS Gradient
 ---------------------------------------
    1    -378.9083193043      1.31e-01   Descent step
    2    -379.1162522728      1.78e-02   Normal BFGS step
    3    -379.1265363571      5.40e-03   Normal BFGS step
    4    -379.1272325734      2.92e-03   Normal BFGS step
    5    -379.1274420356      5.41e-04   Normal BFGS step
    6    -379.1274560732      2.77e-04   Normal BFGS step
    7    -379.1274590705      4.60e-05   Normal BFGS step
    8    -379.1274591682      3.02e-05   Normal BFGS step
    9    -379.1274591792      2.72e-05   Normal BFGS step
   10    -379.1274591850      2.32e-06   Normal BFGS step
   11    -379.1274591854      9.99e-07   Normal BFGS step
   12    -379.1274591854      4.05e-07   Normal BFGS step
   13    -379.1274591854      1.73e-07   Normal BFGS step
   14    -379.1274591854      5.98e-08  Convergence criterion met
 ---------------------------------------
 SCF time:   CPU 336.20s  wall 48.00s 
(3)  G-ENP(liq) elect-nuc-pol free energy of system     -379.127459185 a.u.
(4)  G-CDS(liq) cavity-dispersion-solvent structure 
     free energy                                                4.1579 kcal/mol
(6)  G-S(liq) free energy of system                     -379.120833138 a.u.
 SCF   energy in the final basis set =     -379.1208331376
 Total energy in the final basis set =     -379.1208331376
 
 --------------------------------------------------------------
 
                    Orbital Energies (a.u.)
 --------------------------------------------------------------
 
 Alpha MOs
 -- Occupied --
-19.3416 -19.3412 -19.2870 -19.2855 -10.4412 -10.4387  -1.1994  -1.1606
 -1.1293  -1.0778  -0.8114  -0.6444  -0.6364  -0.6304  -0.5771  -0.5296
 -0.5085  -0.4971  -0.4927  -0.4123  -0.4116  -0.3719  -0.3592  -0.3576
 -- Virtual --
  0.0292   0.0583   0.0594   0.0733   0.1016   0.1097   0.1154   0.1174
  0.1443   0.1533   0.1557   0.1735   0.2156   0.2239   0.2386   0.2499
  0.2651   0.2789   0.2876   0.2961   0.3098   0.3122   0.3150   0.3381
  0.3389   0.3494   0.3590   0.3617   0.3678   0.3840   0.4111   0.4124
  0.4411   0.4510   0.5224   0.5689   0.5735   0.6326   0.6442   0.6645
  0.6794   0.6993   0.7006   0.7246   0.7791   0.7918   0.8049   0.8513
  0.8652   0.9320   0.9408   0.9712   0.9928   1.0410   1.0685   1.1024
  1.1138   1.1314   1.1501   1.1609   1.1757   1.1901   1.2122   1.2366
  1.2622   1.2837   1.2905   1.3085   1.3361   1.3589   1.3666   1.4651
  1.4678   1.5248   1.5354   1.5443   1.5920   1.6197   1.6407   1.6721
  1.6996   1.7388   1.7799   1.7899   1.8203   1.8872   1.9278   1.9433
  1.9812   2.0882   2.1433   2.2112   2.2209   2.2409   2.3588   2.3853
  2.4251   2.4924   2.5206   2.5488   2.5649   2.6786   2.7717   2.7791
  2.8115   2.8805   2.9073   3.0541   3.1006   3.1619   3.2012   3.2530
  3.2871   3.3269   3.3589   3.3970   3.4113   3.4362   3.5057   3.5308
  3.6000   3.6231   3.6379   3.6627   3.7049   3.7733   3.7819   3.8376
  3.8476   3.9046   3.9188   3.9930   4.0943   4.1322   4.1421   4.1823
  4.2470   4.2649   4.3223   4.3365   4.4296   4.4966   4.7650   5.1756
  5.1828   5.1897   5.1986   5.2007   5.2187   5.2238   5.2412   5.2700
  5.2768   5.2842   5.3132   5.3260   5.3437   5.3801   5.3873   5.4048
  5.4846   5.5106   5.5363   5.5588   5.5896   5.6246   5.6343   5.6764
  5.6854   5.7579   5.8227   5.9678   6.0052   6.0949   6.1254   6.3144
  6.4335   6.4885   6.6931   6.8587   6.9340   6.9778   7.0230   7.0521
  7.0682   7.1165   7.1387   7.2125   7.2384   7.2772   7.2860   7.3479
  7.3640   7.4065   7.4190   7.5092   7.5455   7.6015   7.6886   7.7353
  7.8079   7.8351   7.8499   7.8780  24.7342  25.1743  50.5809  50.5868
 50.6934  50.7099
 --------------------------------------------------------------
 
          Ground-State Mulliken Net Atomic Charges

     Atom                 Charge (a.u.)
  ----------------------------------------
      1 O                    -0.449502
      2 C                    -0.008311
      3 O                    -0.458045
      4 C                     0.369652
      5 O                    -0.677186
      6 O                    -0.674102
      7 H                     0.339029
      8 H                     0.338613
      9 H                     0.219853
  ----------------------------------------
  Sum of atomic charges =    -1.000000

 -----------------------------------------------------------------
                    Cartesian Multipole Moments
 -----------------------------------------------------------------
    Charge (ESU x 10^10)
                -4.8032
    Dipole Moment (Debye)
         X     -12.2448      Y       2.1058      Z       2.5272
       Tot      12.6790
    Quadrupole Moments (Debye-Ang)
        XX     -47.0753     XY       2.0630     YY     -50.1176
        XZ      -5.4824     YZ      -3.2227     ZZ     -36.2769
    Octopole Moments (Debye-Ang^2)
       XXX    -102.4323    XXY      12.9155    XYY     -33.5065
       YYY      42.8354    XXZ      -4.1839    XYZ      -4.3827
       YYZ      -2.9833    XZZ     -16.3461    YZZ       8.7186
       ZZZ     -15.9796
    Hexadecapole Moments (Debye-Ang^3)
      XXXX    -431.4880   XXXY      27.6586   XXYY    -120.4858
      XYYY      29.2764   YYYY    -283.0939   XXXZ     -31.2969
      XXYZ     -11.4722   XYYZ      -8.0922   YYYZ     -15.3846
      XXZZ     -79.7853   XYZZ       3.5101   YYZZ     -55.3513
      XZZZ     -16.9660   YZZZ     -13.9171   ZZZZ     -65.5227
 -----------------------------------------------------------------
 Calculating analytic gradient of the SCF energy
 Gradient of CDS energy
            1           2           3           4           5           6
    1   0.0002102  -0.0010875   0.0007255   0.0030724  -0.0013031  -0.0008163
    2  -0.0007625  -0.0004498   0.0011869  -0.0001988  -0.0017876   0.0019108
    3   0.0001860  -0.0006157   0.0005613  -0.0003817  -0.0005093   0.0006834
            7           8           9
    1  -0.0002895  -0.0003898  -0.0001218
    2   0.0004433  -0.0003539   0.0000117
    3   0.0000184  -0.0000440   0.0001016
 Gradient of SCF Energy
            1           2           3           4           5           6
    1   0.0063989  -0.0033032   0.0025474   0.0323278  -0.0178078  -0.0146779
    2   0.0146401  -0.0042223  -0.0132938  -0.0055522  -0.0128401   0.0193017
    3  -0.0122234   0.0489994  -0.0144166  -0.0057671  -0.0074556   0.0048514
            7           8           9
    1  -0.0022997  -0.0002661  -0.0029193
    2  -0.0072654   0.0071904   0.0020416
    3   0.0040508   0.0053968  -0.0234357
 Max gradient component =       4.900E-02
 RMS gradient           =       1.515E-02
 Computing fast CPCM-SWIG gradient
 Updating gradient with PCM contributions...
 -- total gradient after adding PCM contribution --
---------------------------------------------------
  Atom         X              Y              Z     
---------------------------------------------------
   1       0.007702       0.003137      -0.003918
   2      -0.002449      -0.000025      -0.000459
   3       0.006646      -0.004316      -0.004568
   4       0.000800       0.000396      -0.001034
   5       0.000886       0.006395       0.001833
   6      -0.000454      -0.006818      -0.002038
   7      -0.006186      -0.000341       0.003177
   8      -0.006015       0.001557       0.003074
   9      -0.000929       0.000015       0.003933
---------------------------------------------------
 Number of fixed atoms: 0
 Gradient time:  CPU 59.21 s  wall 9.54 s
 Geometry Optimization Parameters
   NAtoms,    NIC,     NZ,  NCons,   NDum,   NFix, NCnnct, MaxDiis
        9      49       0       0       0       0       0       0


** GEOMETRY OPTIMIZATION IN DELOCALIZED INTERNAL COORDINATES **
   Searching for a Minimum

   Optimization Cycle:   1

                       Coordinates (Angstroms)
     ATOM                X               Y               Z
      1  O        -0.7657880660    1.0527506494    0.0144797749
      2  C        -0.3525735743   -0.2117506845    0.4962192404
      3  O        -1.0418639450   -1.2654915069   -0.1416176222
      4  C         1.1662864312   -0.3512125328    0.2324063744
      5  O         1.8531408128    0.6705151806    0.4943822132
      6  O         1.5836522570   -1.4651672551   -0.1721928077
      7  H        -1.6434354212    1.2270407784    0.3915367207
      8  H        -1.9492614337   -1.2550111888    0.2043887511
      9  H        -0.5261326608   -0.2618192403    1.5811251552
   Point Group: c1    Number of degrees of freedom:    21


   Energy is   -379.120833138


 Attempting to generate delocalized internal coordinates
 Initial Hessian constructed with Jon Baker's OPTIMIZE code

 21 Hessian modes will be used to form the next step
  Hessian Eigenvalues:
     0.002843    0.002926    0.013682    0.014124    0.071059    0.072665
     0.091073    0.160000    0.160000    0.190279    0.207536    0.250000
     0.250000    0.278308    0.336997    0.432464    0.437669    0.531355
     0.531760    0.801031    0.808810

 Minimum search - taking simple RFO step
 Searching for Lamda that Minimizes Along All modes
 Value Taken    Lamda =  -0.00067159
 Step Taken.  Stepsize is  0.097221

                             Maximum     Tolerance    Cnvgd?
         Gradient           0.011242      0.000300      NO
         Displacement       0.059156      0.001200      NO
         Energy change     *********      0.000001      NO


 New Cartesian Coordinates Obtained by Inverse Iteration

 Displacement from previous Coordinates is:  0.101224
 ----------------------------------------------------------------
             Standard Nuclear Orientation (Angstroms)
    I     Atom           X                Y                Z
 ----------------------------------------------------------------
    1      O      -0.7780975038     1.0464224088     0.0049918870
    2      C      -0.3529248264    -0.2087035478     0.4925686040
    3      O      -1.0482040696    -1.2616914282    -0.1334157520
    4      C       1.1629574215    -0.3483245033     0.2275567405
    5      O       1.8628993645     0.6502227736     0.5229334450
    6      O       1.5860852567    -1.4516396866    -0.1868388354
    7      H      -1.6438381605     1.2368988631     0.3844598366
    8      H      -1.9472233040    -1.2689220523     0.2158129265
    9      H      -0.5176297784    -0.2544086272     1.5726589477
 ----------------------------------------------------------------
 Nuclear Repulsion Energy =         239.34727029 hartrees
 There are       24 alpha and       24 beta electrons
 Discretize the solute cavity surface with Lebedev spheres
	Using 110 Lebedev grid points for each H atom
	Using 194 Lebedev grid points for other atoms
	Atomic van der Waals radii will be scaled by 1.20
 Remove points where switching function is < 1.0e-08
 Keep 831 surface tesserae and discard 663 interior tesserae
 Molecular Surface Area = 99.686 Angst**2
 Applying Cartesian multipole field
    Component          Value
    ---------          -----
     (2,0,0)        1.00000E-11
     (0,2,0)        2.00000E-11
     (0,0,2)       -3.00000E-11
 Nucleus-field energy     =     0.0000000053 hartrees
 Requested basis set is 6-311++G(2df,2p)
 There are 66 shells and 234 basis functions
 A cutoff of  1.0D-12 yielded   2098 shell pairs
 There are     26691 function pairs (     34004 Cartesian)
 Smallest overlap matrix eigenvalue = 9.51E-05
 Guess MOs from SCF MO coefficient file

 -----------------------------------------------------------------------
  General SCF calculation program by
  Eric Jon Sundstrom, Paul Horn, Yuezhi Mao, Dmitri Zuev, Alec White,
  David Stuck, Shaama M.S., Shane Yost, Joonho Lee, David Small,
  Daniel Levine, Susi Lehtola, Hugh Burton, Evgeny Epifanovsky,
  Bang C. Huynh
 -----------------------------------------------------------------------
 Exchange:     0.1500 Hartree-Fock + 1.0000 wB97M-V + LR-HF
 Correlation:  1.0000 wB97M-V
 Using SG-2 standard quadrature grid
 Nonlocal Correlation:  VV10 with C = 0.0100 and b = 6.00 and scale = 1.00000
 Grid used for NLC:  SG-1 standard quadrature
 
 Citation of the SMD model:
 Marenich, A.V.; Cramer, C.J.; Truhlar, D.G.
 J. Phys. Chem. B 2009, 113, 6378-6396.
 iSolventCode=           1
 Solvent: water                                                           
 
 vradii
            1           2           3           4           5           6
    1   1.5200000   1.8500000   1.5200000   1.8500000   1.5200000   1.5200000
            7           8           9
    1   1.2000000   1.2000000   1.2000000
 -------------------------------------------------------
 OpenMP BLAS3 based DFT computing Module                
 Release: version 1.0, May 2013, Q-Chem Inc. Pittsburgh 
 -------------------------------------------------------
 A restricted SCF calculation will be
 performed using Roothaan-Hall, DIIS, GDM
 SCF converges when RMS gradient is below 1.0e-07
 ---------------------------------------
  Cycle       Energy         DIIS error
 ---------------------------------------
    1    -378.9645185126      1.23e-03  Roothaan Step
 ---------------------------------------
  Cycle       Energy         DIIS error
 ---------------------------------------
    1    -379.1080096571      1.33e-03  
    2    -379.1229332669      1.01e-03  Done DIIS. Switching to GDM
 ---------------------------------------
  Cycle       Energy        RMS Gradient
 ---------------------------------------
    1    -379.1229332669      1.30e-02   Normal BFGS step
    2    -379.1235194684      1.70e-02   Normal BFGS step
    3    -379.1277266433      1.69e-03   Normal BFGS step
    4    -379.1277768721      1.30e-03   Normal BFGS step
    5    -379.1277928079      1.99e-04   Normal BFGS step
    6    -379.1277932688      1.99e-04   Normal BFGS step
    7    -379.1277938916      3.67e-05   Normal BFGS step
    8    -379.1277939025      2.25e-05   Normal BFGS step
    9    -379.1277939162      8.53e-06   Normal BFGS step
   10    -379.1277939170      4.03e-06   Normal BFGS step
   11    -379.1277939171      7.19e-07   Normal BFGS step
   12    -379.1277939171      2.47e-07   Normal BFGS step
   13    -379.1277939171      6.52e-08  Convergence criterion met
 ---------------------------------------
 SCF time:   CPU 348.68s  wall 50.00s 
(3)  G-ENP(liq) elect-nuc-pol free energy of system     -379.127793917 a.u.
(4)  G-CDS(liq) cavity-dispersion-solvent structure 
     free energy                                                4.1890 kcal/mol
(6)  G-S(liq) free energy of system                     -379.121118242 a.u.
 SCF   energy in the final basis set =     -379.1211182423
 Total energy in the final basis set =     -379.1211182423
 
 --------------------------------------------------------------
 
                    Orbital Energies (a.u.)
 --------------------------------------------------------------
 
 Alpha MOs
 -- Occupied --
-19.3407 -19.3400 -19.2858 -19.2844 -10.4398 -10.4384  -1.2011  -1.1633
 -1.1303  -1.0779  -0.8142  -0.6455  -0.6393  -0.6329  -0.5775  -0.5297
 -0.5101  -0.4965  -0.4923  -0.4128  -0.4108  -0.3714  -0.3605  -0.3564
 -- Virtual --
  0.0293   0.0584   0.0593   0.0733   0.1015   0.1096   0.1159   0.1174
  0.1444   0.1545   0.1553   0.1732   0.2158   0.2250   0.2392   0.2507
  0.2651   0.2805   0.2875   0.2967   0.3106   0.3117   0.3162   0.3369
  0.3392   0.3498   0.3582   0.3626   0.3700   0.3860   0.4117   0.4128
  0.4422   0.4512   0.5278   0.5706   0.5767   0.6353   0.6465   0.6670
  0.6833   0.7004   0.7018   0.7284   0.7822   0.7953   0.8048   0.8512
  0.8662   0.9303   0.9394   0.9778   0.9878   1.0414   1.0711   1.1056
  1.1152   1.1329   1.1533   1.1615   1.1716   1.1890   1.2110   1.2382
  1.2631   1.2811   1.2872   1.3105   1.3384   1.3589   1.3671   1.4641
  1.4652   1.5215   1.5384   1.5457   1.5926   1.6217   1.6478   1.6725
  1.6981   1.7465   1.7781   1.8085   1.8271   1.8871   1.9289   1.9493
  1.9899   2.0911   2.1419   2.2154   2.2226   2.2457   2.3610   2.3866
  2.4186   2.4945   2.5259   2.5530   2.5661   2.6866   2.7709   2.7825
  2.8107   2.8840   2.9091   3.0593   3.1028   3.1681   3.2047   3.2548
  3.2892   3.3333   3.3603   3.3971   3.4149   3.4366   3.5084   3.5334
  3.6079   3.6239   3.6369   3.6626   3.7051   3.7750   3.7826   3.8422
  3.8536   3.9118   3.9303   4.0001   4.1031   4.1333   4.1467   4.1867
  4.2497   4.2741   4.3353   4.3540   4.4410   4.5022   4.7692   5.1755
  5.1832   5.1909   5.2002   5.2031   5.2194   5.2266   5.2416   5.2752
  5.2789   5.2859   5.3122   5.3315   5.3430   5.3779   5.3877   5.4045
  5.4928   5.5146   5.5369   5.5612   5.6071   5.6403   5.6519   5.6764
  5.6938   5.7624   5.8381   5.9925   6.0324   6.0983   6.1351   6.3359
  6.4337   6.4994   6.7055   6.8643   6.9356   6.9850   7.0225   7.0540
  7.0728   7.1230   7.1742   7.2198   7.2633   7.2812   7.3133   7.3487
  7.3643   7.4095   7.4208   7.5134   7.5381   7.6149   7.7029   7.7479
  7.8084   7.8342   7.8530   7.8798  24.7538  25.1963  50.5873  50.5918
 50.6993  50.7184
 --------------------------------------------------------------
 
          Ground-State Mulliken Net Atomic Charges

     Atom                 Charge (a.u.)
  ----------------------------------------
      1 O                    -0.449983
      2 C                    -0.005464
      3 O                    -0.459619
      4 C                     0.372189
      5 O                    -0.680368
      6 O                    -0.675262
      7 H                     0.338365
      8 H                     0.337905
      9 H                     0.222238
  ----------------------------------------
  Sum of atomic charges =    -1.000000

 -----------------------------------------------------------------
                    Cartesian Multipole Moments
 -----------------------------------------------------------------
    Charge (ESU x 10^10)
                -4.8032
    Dipole Moment (Debye)
         X     -12.2585      Y       2.1376      Z       2.4997
       Tot      12.6921
    Quadrupole Moments (Debye-Ang)
        XX     -47.2609     XY       2.1190     YY     -49.7392
        XZ      -5.6759     YZ      -3.3525     ZZ     -36.3756
    Octopole Moments (Debye-Ang^2)
       XXX    -102.5737    XXY      12.9553    XYY     -33.4011
       YYY      42.6739    XXZ      -4.4740    XYZ      -4.5791
       YYZ      -2.7808    XZZ     -16.5625    YZZ       8.6890
       ZZZ     -16.1463
    Hexadecapole Moments (Debye-Ang^3)
      XXXX    -434.5276   XXXY      28.1116   XXYY    -119.2054
      XYYY      29.2778   YYYY    -278.6417   XXXZ     -32.8805
      XXYZ     -12.0733   XYYZ      -8.2712   YYYZ     -15.8962
      XXZZ     -80.7396   XYZZ       3.5625   YYZZ     -54.9545
      XZZZ     -17.7753   YZZZ     -14.2844   ZZZZ     -66.5363
 -----------------------------------------------------------------
 Calculating analytic gradient of the SCF energy
 Gradient of CDS energy
            1           2           3           4           5           6
    1   0.0003860  -0.0016240   0.0010780   0.0030002  -0.0012673  -0.0007790
    2  -0.0012806  -0.0004608   0.0017210  -0.0002006  -0.0016985   0.0018234
    3   0.0003881  -0.0011132   0.0008618  -0.0003253  -0.0005558   0.0006760
            7           8           9
    1  -0.0002902  -0.0003894  -0.0001143
    2   0.0004452  -0.0003569   0.0000078
    3   0.0000165  -0.0000395   0.0000914
 Gradient of SCF Energy
            1           2           3           4           5           6
    1  -0.0003403  -0.0010865  -0.0032928   0.0326099  -0.0188340  -0.0147251
    2   0.0124645  -0.0043360  -0.0100174  -0.0055569  -0.0178099   0.0243568
    3  -0.0086877   0.0511497  -0.0103992  -0.0062299  -0.0092844   0.0072917
            7           8           9
    1   0.0031664   0.0051728  -0.0026705
    2  -0.0074144   0.0063456   0.0019677
    3   0.0010914   0.0025296  -0.0274610
 Max gradient component =       5.115E-02
 RMS gradient           =       1.581E-02
 Computing fast CPCM-SWIG gradient
 Updating gradient with PCM contributions...
 -- total gradient after adding PCM contribution --
---------------------------------------------------
  Atom         X              Y              Z     
---------------------------------------------------
   1      -0.000061       0.000070       0.000014
   2       0.000483      -0.000547       0.001312
   3       0.000287       0.000032       0.000080
   4      -0.000538       0.001839      -0.003580
   5       0.001006      -0.001601       0.000810
   6       0.000777       0.000100       0.001502
   7      -0.000747      -0.000036      -0.000047
   8      -0.000756       0.000219      -0.000032
   9      -0.000451      -0.000077      -0.000059
---------------------------------------------------
 Number of fixed atoms: 0
 Gradient time:  CPU 57.69 s  wall 9.95 s
 Geometry Optimization Parameters
   NAtoms,    NIC,     NZ,  NCons,   NDum,   NFix, NCnnct, MaxDiis
        9      49       0       0       0       0       0       0

 Cartesian Hessian Update
 Hessian updated using BFGS update


** GEOMETRY OPTIMIZATION IN DELOCALIZED INTERNAL COORDINATES **
   Searching for a Minimum

   Optimization Cycle:   2

                       Coordinates (Angstroms)
     ATOM                X               Y               Z
      1  O        -0.7780975038    1.0464224088    0.0049918870
      2  C        -0.3529248264   -0.2087035478    0.4925686040
      3  O        -1.0482040696   -1.2616914282   -0.1334157520
      4  C         1.1629574215   -0.3483245033    0.2275567405
      5  O         1.8628993645    0.6502227736    0.5229334450
      6  O         1.5860852567   -1.4516396866   -0.1868388354
      7  H        -1.6438381605    1.2368988631    0.3844598366
      8  H        -1.9472233040   -1.2689220523    0.2158129265
      9  H        -0.5176297784   -0.2544086272    1.5726589477
   Point Group: c1    Number of degrees of freedom:    21


   Energy is   -379.121118242

 Hessian updated using BFGS update

 21 Hessian modes will be used to form the next step
  Hessian Eigenvalues:
     0.002429    0.004086    0.013338    0.013997    0.071146    0.072606
     0.090649    0.156036    0.160006    0.194205    0.208049    0.247416
     0.267768    0.288035    0.337382    0.428376    0.436998    0.497034
     0.531564    0.803494    0.808308

 Minimum search - taking simple RFO step
 Searching for Lamda that Minimizes Along All modes
 Value Taken    Lamda =  -0.00117290
 Calculated Step too Large.  Step scaled by  0.602091
 Step Taken.  Stepsize is  0.300000

                             Maximum     Tolerance    Cnvgd?
         Gradient           0.002219      0.000300      NO
         Displacement       0.223751      0.001200      NO
         Energy change     -0.000285      0.000001      NO


 New Cartesian Coordinates Obtained by Inverse Iteration

 Displacement from previous Coordinates is:  0.214022
 ----------------------------------------------------------------
             Standard Nuclear Orientation (Angstroms)
    I     Atom           X                Y                Z
 ----------------------------------------------------------------
    1      O      -0.7622189623     1.0334054048     0.0032309007
    2      C      -0.3545412635    -0.2154730399     0.5123025913
    3      O      -1.0458033938    -1.2633339216    -0.1197587117
    4      C       1.1629915683    -0.3693082296     0.2931717051
    5      O       1.8519421424     0.6541727597     0.4981574536
    6      O       1.5776986870    -1.4181899435    -0.2406904464
    7      H      -1.6211515716     1.2541470436     0.3625149494
    8      H      -1.9443860611    -1.2835069984     0.2092304608
    9      H      -0.5405067452    -0.2520588750     1.5825688971
 ----------------------------------------------------------------
 Nuclear Repulsion Energy =         240.30103216 hartrees
 There are       24 alpha and       24 beta electrons
 Discretize the solute cavity surface with Lebedev spheres
	Using 110 Lebedev grid points for each H atom
	Using 194 Lebedev grid points for other atoms
	Atomic van der Waals radii will be scaled by 1.20
 Remove points where switching function is < 1.0e-08
 Keep 825 surface tesserae and discard 669 interior tesserae
 Molecular Surface Area = 99.481 Angst**2
 Applying Cartesian multipole field
    Component          Value
    ---------          -----
     (2,0,0)        1.00000E-11
     (0,2,0)        2.00000E-11
     (0,0,2)       -3.00000E-11
 Nucleus-field energy     =     0.0000000052 hartrees
 Requested basis set is 6-311++G(2df,2p)
 There are 66 shells and 234 basis functions
 A cutoff of  1.0D-12 yielded   2103 shell pairs
 There are     26756 function pairs (     34088 Cartesian)
 Smallest overlap matrix eigenvalue = 9.08E-05
 Guess MOs from SCF MO coefficient file

 -----------------------------------------------------------------------
  General SCF calculation program by
  Eric Jon Sundstrom, Paul Horn, Yuezhi Mao, Dmitri Zuev, Alec White,
  David Stuck, Shaama M.S., Shane Yost, Joonho Lee, David Small,
  Daniel Levine, Susi Lehtola, Hugh Burton, Evgeny Epifanovsky,
  Bang C. Huynh
 -----------------------------------------------------------------------
 Exchange:     0.1500 Hartree-Fock + 1.0000 wB97M-V + LR-HF
 Correlation:  1.0000 wB97M-V
 Using SG-2 standard quadrature grid
 Nonlocal Correlation:  VV10 with C = 0.0100 and b = 6.00 and scale = 1.00000
 Grid used for NLC:  SG-1 standard quadrature
 
 Citation of the SMD model:
 Marenich, A.V.; Cramer, C.J.; Truhlar, D.G.
 J. Phys. Chem. B 2009, 113, 6378-6396.
 iSolventCode=           1
 Solvent: water                                                           
 
 vradii
            1           2           3           4           5           6
    1   1.5200000   1.8500000   1.5200000   1.8500000   1.5200000   1.5200000
            7           8           9
    1   1.2000000   1.2000000   1.2000000
 -------------------------------------------------------
 OpenMP BLAS3 based DFT computing Module                
 Release: version 1.0, May 2013, Q-Chem Inc. Pittsburgh 
 -------------------------------------------------------
 A restricted SCF calculation will be
 performed using Roothaan-Hall, DIIS, GDM
 SCF converges when RMS gradient is below 1.0e-07
 ---------------------------------------
  Cycle       Energy         DIIS error
 ---------------------------------------
    1    -378.9508257319      1.58e-03  Roothaan Step
 ---------------------------------------
  Cycle       Energy         DIIS error
 ---------------------------------------
    1    -379.1036021435      1.40e-03  
    2    -379.1193832087      1.09e-03  Done DIIS. Switching to GDM
 ---------------------------------------
  Cycle       Energy        RMS Gradient
 ---------------------------------------
    1    -379.1193832087      1.08e-02   Normal BFGS step
    2    -379.1198961255      1.97e-02   Normal BFGS step
    3    -379.1249207073      1.65e-03   Normal BFGS step
    4    -379.1249794859      9.31e-04   Normal BFGS step
    5    -379.1249976320      2.99e-04   Normal BFGS step
    6    -379.1249983994      2.58e-04   Normal BFGS step
    7    -379.1249991710      6.59e-05   Normal BFGS step
    8    -379.1249992033      3.27e-05   Normal BFGS step
    9    -379.1249992254      1.17e-05   Normal BFGS step
   10    -379.1249992267      2.23e-06   Normal BFGS step
   11    -379.1249992269      6.21e-07   Normal BFGS step
   12    -379.1249992269      2.16e-07   Normal BFGS step
   13    -379.1249992269      5.53e-08  Convergence criterion met
 ---------------------------------------
 SCF time:   CPU 347.81s  wall 51.00s 
(3)  G-ENP(liq) elect-nuc-pol free energy of system     -379.124999227 a.u.
(4)  G-CDS(liq) cavity-dispersion-solvent structure 
     free energy                                                4.2403 kcal/mol
(6)  G-S(liq) free energy of system                     -379.118241841 a.u.
 SCF   energy in the final basis set =     -379.1182418412
 Total energy in the final basis set =     -379.1182418412
 
 --------------------------------------------------------------
 
                    Orbital Energies (a.u.)
 --------------------------------------------------------------
 
 Alpha MOs
 -- Occupied --
-19.3397 -19.3389 -19.2843 -19.2827 -10.4379 -10.4372  -1.2032  -1.1654
 -1.1317  -1.0776  -0.8171  -0.6466  -0.6420  -0.6355  -0.5781  -0.5298
 -0.5112  -0.4958  -0.4910  -0.4140  -0.4101  -0.3703  -0.3605  -0.3546
 -- Virtual --
  0.0298   0.0585   0.0592   0.0731   0.1021   0.1099   0.1140   0.1185
  0.1433   0.1502   0.1584   0.1759   0.2167   0.2286   0.2403   0.2510
  0.2600   0.2807   0.2920   0.2954   0.3097   0.3138   0.3180   0.3383
  0.3404   0.3510   0.3600   0.3617   0.3731   0.3823   0.4144   0.4235
  0.4443   0.4504   0.5337   0.5738   0.5809   0.6441   0.6507   0.6685
  0.6863   0.6908   0.7033   0.7280   0.7833   0.7980   0.8127   0.8494
  0.8751   0.9173   0.9339   0.9541   1.0074   1.0517   1.0705   1.1076
  1.1178   1.1313   1.1540   1.1648   1.1865   1.1911   1.2197   1.2297
  1.2605   1.2830   1.3006   1.3144   1.3451   1.3596   1.3661   1.4558
  1.4676   1.5126   1.5432   1.5493   1.5993   1.6198   1.6452   1.6639
  1.7101   1.7358   1.7981   1.8271   1.8418   1.8907   1.9235   1.9342
  1.9761   2.1040   2.1526   2.2031   2.2319   2.2465   2.3493   2.3936
  2.4148   2.5021   2.5323   2.5511   2.5688   2.6706   2.7823   2.8090
  2.8313   2.8646   2.9107   3.0662   3.0983   3.1239   3.2358   3.2617
  3.3098   3.3455   3.3621   3.3967   3.4228   3.4330   3.5115   3.5434
  3.5861   3.6363   3.6542   3.6697   3.7261   3.7695   3.7807   3.8455
  3.8637   3.9191   3.9485   4.0098   4.1113   4.1276   4.1644   4.1920
  4.2463   4.2861   4.3511   4.3692   4.4541   4.5132   4.7705   5.1755
  5.1817   5.1908   5.2079   5.2103   5.2167   5.2245   5.2438   5.2779
  5.2824   5.2936   5.3152   5.3357   5.3498   5.3667   5.3953   5.4187
  5.5002   5.5179   5.5374   5.5612   5.6247   5.6564   5.6619   5.6693
  5.7023   5.7646   5.8557   6.0374   6.0621   6.0932   6.1482   6.3504
  6.4513   6.5113   6.7260   6.8717   6.9376   6.9910   7.0257   7.0574
  7.0733   7.1218   7.2012   7.2284   7.2664   7.3105   7.3382   7.3552
  7.3691   7.3857   7.4384   7.5302   7.5330   7.6253   7.7031   7.7678
  7.8096   7.8322   7.8524   7.8877  24.7718  25.2176  50.5923  50.5972
 50.7040  50.7225
 --------------------------------------------------------------
 
          Ground-State Mulliken Net Atomic Charges

     Atom                 Charge (a.u.)
  ----------------------------------------
      1 O                    -0.448299
      2 C                    -0.012321
      3 O                    -0.460482
      4 C                     0.381478
      5 O                    -0.679098
      6 O                    -0.674330
      7 H                     0.337647
      8 H                     0.337098
      9 H                     0.218307
  ----------------------------------------
  Sum of atomic charges =    -1.000000

 -----------------------------------------------------------------
                    Cartesian Multipole Moments
 -----------------------------------------------------------------
    Charge (ESU x 10^10)
                -4.8032
    Dipole Moment (Debye)
         X     -12.2327      Y       2.0267      Z       2.8243
       Tot      12.7171
    Quadrupole Moments (Debye-Ang)
        XX     -47.0246     XY       1.7705     YY     -49.1466
        XZ      -4.8617     YZ      -3.6332     ZZ     -36.3477
    Octopole Moments (Debye-Ang^2)
       XXX    -101.6855    XXY      12.3272    XYY     -33.2431
       YYY      42.3959    XXZ      -3.7094    XYZ      -5.0289
       YYZ      -2.5737    XZZ     -16.4036    YZZ       8.6091
       ZZZ     -16.0941
    Hexadecapole Moments (Debye-Ang^3)
      XXXX    -429.2730   XXXY      26.0700   XXYY    -116.2394
      XYYY      26.7717   YYYY    -273.3021   XXXZ     -28.4207
      XXYZ     -12.9582   XYYZ      -7.1023   YYYZ     -16.4129
      XXZZ     -80.2781   XYZZ       3.0659   YYZZ     -54.6109
      XZZZ     -15.7479   YZZZ     -14.5872   ZZZZ     -68.1469
 -----------------------------------------------------------------
 Calculating analytic gradient of the SCF energy
 Gradient of CDS energy
            1           2           3           4           5           6
    1   0.0005859  -0.0021891   0.0014277   0.0028714  -0.0011881  -0.0007243
    2  -0.0019344  -0.0003372   0.0022595  -0.0000863  -0.0016646   0.0016636
    3   0.0006647  -0.0017236   0.0011842  -0.0005914  -0.0003985   0.0008268
            7           8           9
    1  -0.0002867  -0.0003913  -0.0001056
    2   0.0004495  -0.0003555   0.0000053
    3   0.0000056  -0.0000447   0.0000771
 Gradient of SCF Energy
            1           2           3           4           5           6
    1  -0.0088085   0.0006139  -0.0104076   0.0322370  -0.0209945  -0.0152257
    2   0.0102401  -0.0018156  -0.0062550  -0.0101268  -0.0223566   0.0316166
    3  -0.0048414   0.0488668  -0.0064938   0.0043834  -0.0151198   0.0074203
            7           8           9
    1   0.0097376   0.0116286   0.0012193
    2  -0.0079929   0.0056038   0.0010863
    3  -0.0020598  -0.0005002  -0.0316555
 Max gradient component =       4.887E-02
 RMS gradient           =       1.693E-02
 Computing fast CPCM-SWIG gradient
 Updating gradient with PCM contributions...
 -- total gradient after adding PCM contribution --
---------------------------------------------------
  Atom         X              Y              Z     
---------------------------------------------------
   1      -0.008967      -0.001863       0.004917
   2       0.003242       0.002309      -0.008761
   3      -0.007344       0.004270       0.004820
   4       0.003832      -0.011434       0.031685
   5      -0.003228      -0.004782      -0.013966
   6      -0.001320       0.012974      -0.006888
   7       0.005641       0.000216      -0.003759
   8       0.005458      -0.001079      -0.003478
   9       0.002686      -0.000611      -0.004571
---------------------------------------------------
 Number of fixed atoms: 0
 Gradient time:  CPU 59.46 s  wall 9.72 s
 Geometry Optimization Parameters
   NAtoms,    NIC,     NZ,  NCons,   NDum,   NFix, NCnnct, MaxDiis
        9      49       0       0       0       0       0       0

 Cartesian Hessian Update
 Hessian updated using BFGS update


** GEOMETRY OPTIMIZATION IN DELOCALIZED INTERNAL COORDINATES **
   Searching for a Minimum

   Optimization Cycle:   3

                       Coordinates (Angstroms)
     ATOM                X               Y               Z
      1  O        -0.7622189623    1.0334054048    0.0032309007
      2  C        -0.3545412635   -0.2154730399    0.5123025913
      3  O        -1.0458033938   -1.2633339216   -0.1197587117
      4  C         1.1629915683   -0.3693082296    0.2931717051
      5  O         1.8519421424    0.6541727597    0.4981574536
      6  O         1.5776986870   -1.4181899435   -0.2406904464
      7  H        -1.6211515716    1.2541470436    0.3625149494
      8  H        -1.9443860611   -1.2835069984    0.2092304608
      9  H        -0.5405067452   -0.2520588750    1.5825688971
   Point Group: c1    Number of degrees of freedom:    21


   Energy is   -379.118241841

 Hessian updated using BFGS update

 21 Hessian modes will be used to form the next step
  Hessian Eigenvalues:
     0.002797    0.013024    0.013964    0.068787    0.071469    0.077946
     0.094771    0.158284    0.160037    0.197215    0.207858    0.247823
     0.270505    0.279329    0.339633    0.429092    0.437442    0.507494
     0.531567    0.804363    0.821395

 Minimum search - taking simple RFO step
 Searching for Lamda that Minimizes Along All modes
 Value Taken    Lamda =  -0.00558002
 Step Taken.  Stepsize is  0.242758

                             Maximum     Tolerance    Cnvgd?
         Gradient           0.013386      0.000300      NO
         Displacement       0.160663      0.001200      NO
         Energy change      0.002876      0.000001      NO


 New Cartesian Coordinates Obtained by Inverse Iteration

 Displacement from previous Coordinates is:  0.169102
 ----------------------------------------------------------------
             Standard Nuclear Orientation (Angstroms)
    I     Atom           X                Y                Z
 ----------------------------------------------------------------
    1      O      -0.7714321412     1.0431941696    -0.0047432446
    2      C      -0.3557164106    -0.2099266445     0.4937204452
    3      O      -1.0464952100    -1.2671279748    -0.1292874888
    4      C       1.1592599971    -0.3515903211     0.2384333366
    5      O       1.8547634791     0.6493378424     0.5366857490
    6      O       1.5794648391    -1.4419084001    -0.2117428482
    7      H      -1.6299696863     1.2490816874     0.3799068820
    8      H      -1.9422479085    -1.2833285678     0.2245603158
    9      H      -0.5236025588    -0.2478775912     1.5731946531
 ----------------------------------------------------------------
 Nuclear Repulsion Energy =         239.58175052 hartrees
 There are       24 alpha and       24 beta electrons
 Discretize the solute cavity surface with Lebedev spheres
	Using 110 Lebedev grid points for each H atom
	Using 194 Lebedev grid points for other atoms
	Atomic van der Waals radii will be scaled by 1.20
 Remove points where switching function is < 1.0e-08
 Keep 830 surface tesserae and discard 664 interior tesserae
 Molecular Surface Area = 99.599 Angst**2
 Applying Cartesian multipole field
    Component          Value
    ---------          -----
     (2,0,0)        1.00000E-11
     (0,2,0)        2.00000E-11
     (0,0,2)       -3.00000E-11
 Nucleus-field energy     =     0.0000000052 hartrees
 Requested basis set is 6-311++G(2df,2p)
 There are 66 shells and 234 basis functions
 A cutoff of  1.0D-12 yielded   2102 shell pairs
 There are     26739 function pairs (     34063 Cartesian)
 Smallest overlap matrix eigenvalue = 9.37E-05
 Guess MOs from SCF MO coefficient file

 -----------------------------------------------------------------------
  General SCF calculation program by
  Eric Jon Sundstrom, Paul Horn, Yuezhi Mao, Dmitri Zuev, Alec White,
  David Stuck, Shaama M.S., Shane Yost, Joonho Lee, David Small,
  Daniel Levine, Susi Lehtola, Hugh Burton, Evgeny Epifanovsky,
  Bang C. Huynh
 -----------------------------------------------------------------------
 Exchange:     0.1500 Hartree-Fock + 1.0000 wB97M-V + LR-HF
 Correlation:  1.0000 wB97M-V
 Using SG-2 standard quadrature grid
 Nonlocal Correlation:  VV10 with C = 0.0100 and b = 6.00 and scale = 1.00000
 Grid used for NLC:  SG-1 standard quadrature
 
 Citation of the SMD model:
 Marenich, A.V.; Cramer, C.J.; Truhlar, D.G.
 J. Phys. Chem. B 2009, 113, 6378-6396.
 iSolventCode=           1
 Solvent: water                                                           
 
 vradii
            1           2           3           4           5           6
    1   1.5200000   1.8500000   1.5200000   1.8500000   1.5200000   1.5200000
            7           8           9
    1   1.2000000   1.2000000   1.2000000
 -------------------------------------------------------
 OpenMP BLAS3 based DFT computing Module                
 Release: version 1.0, May 2013, Q-Chem Inc. Pittsburgh 
 -------------------------------------------------------
 A restricted SCF calculation will be
 performed using Roothaan-Hall, DIIS, GDM
 SCF converges when RMS gradient is below 1.0e-07
 ---------------------------------------
  Cycle       Energy         DIIS error
 ---------------------------------------
    1    -378.9583032924      1.45e-03  Roothaan Step
 ---------------------------------------
  Cycle       Energy         DIIS error
 ---------------------------------------
    1    -379.1075468568      1.35e-03  
    2    -379.1227982052      1.03e-03  Done DIIS. Switching to GDM
 ---------------------------------------
  Cycle       Energy        RMS Gradient
 ---------------------------------------
    1    -379.1227982052      1.35e-02   Normal BFGS step
    2    -379.1234360368      1.67e-02   Normal BFGS step
    3    -379.1277925039      1.68e-03   Normal BFGS step
    4    -379.1278479601      1.24e-03   Normal BFGS step
    5    -379.1278663650      3.08e-04   Normal BFGS step
    6    -379.1278670847      2.63e-04   Normal BFGS step
    7    -379.1278679193      8.05e-05   Normal BFGS step
    8    -379.1278679484      3.58e-05   Normal BFGS step
    9    -379.1278679701      1.09e-05   Normal BFGS step
   10    -379.1278679713      2.78e-06   Normal BFGS step
   11    -379.1278679715      6.81e-07   Normal BFGS step
   12    -379.1278679715      2.01e-07   Normal BFGS step
   13    -379.1278679715      5.12e-08  Convergence criterion met
 ---------------------------------------
 SCF time:   CPU 342.82s  wall 49.00s 
(3)  G-ENP(liq) elect-nuc-pol free energy of system     -379.127867971 a.u.
(4)  G-CDS(liq) cavity-dispersion-solvent structure 
     free energy                                                4.1924 kcal/mol
(6)  G-S(liq) free energy of system                     -379.121186954 a.u.
 SCF   energy in the final basis set =     -379.1211869539
 Total energy in the final basis set =     -379.1211869539
 
 --------------------------------------------------------------
 
                    Orbital Energies (a.u.)
 --------------------------------------------------------------
 
 Alpha MOs
 -- Occupied --
-19.3406 -19.3399 -19.2858 -19.2841 -10.4393 -10.4378  -1.2013  -1.1629
 -1.1309  -1.0780  -0.8146  -0.6459  -0.6395  -0.6333  -0.5775  -0.5297
 -0.5099  -0.4968  -0.4912  -0.4132  -0.4111  -0.3713  -0.3602  -0.3564
 -- Virtual --
  0.0294   0.0586   0.0591   0.0733   0.1016   0.1101   0.1157   0.1173
  0.1442   0.1539   0.1552   0.1736   0.2155   0.2261   0.2397   0.2505
  0.2643   0.2811   0.2881   0.2967   0.3102   0.3115   0.3169   0.3375
  0.3394   0.3500   0.3582   0.3626   0.3705   0.3850   0.4116   0.4146
  0.4430   0.4520   0.5287   0.5713   0.5776   0.6367   0.6473   0.6671
  0.6849   0.7000   0.7007   0.7272   0.7829   0.7967   0.8058   0.8508
  0.8691   0.9262   0.9364   0.9744   0.9905   1.0434   1.0711   1.1068
  1.1165   1.1312   1.1550   1.1636   1.1729   1.1891   1.2124   1.2360
  1.2641   1.2824   1.2901   1.3121   1.3406   1.3579   1.3668   1.4624
  1.4652   1.5204   1.5389   1.5451   1.5974   1.6213   1.6463   1.6707
  1.7003   1.7477   1.7847   1.8071   1.8323   1.8869   1.9287   1.9472
  1.9892   2.0913   2.1484   2.2122   2.2223   2.2457   2.3629   2.3864
  2.4157   2.4984   2.5241   2.5515   2.5667   2.6886   2.7763   2.7889
  2.8126   2.8773   2.9088   3.0605   3.0993   3.1642   3.2102   3.2559
  3.2915   3.3389   3.3594   3.3978   3.4194   3.4366   3.5061   3.5345
  3.6066   3.6273   3.6379   3.6627   3.7101   3.7731   3.7815   3.8444
  3.8557   3.9146   3.9343   4.0036   4.1046   4.1334   4.1498   4.1922
  4.2490   4.2774   4.3369   4.3544   4.4445   4.5046   4.7706   5.1756
  5.1827   5.1906   5.2012   5.2038   5.2193   5.2261   5.2420   5.2757
  5.2806   5.2881   5.3116   5.3313   5.3448   5.3780   5.3908   5.4065
  5.4919   5.5161   5.5377   5.5614   5.6071   5.6419   5.6531   5.6763
  5.6965   5.7651   5.8382   5.9977   6.0329   6.1018   6.1419   6.3337
  6.4401   6.5020   6.7076   6.8677   6.9351   6.9847   7.0227   7.0542
  7.0717   7.1247   7.1726   7.2203   7.2643   7.2843   7.3210   7.3497
  7.3646   7.4074   7.4245   7.5219   7.5441   7.6149   7.7044   7.7493
  7.8073   7.8353   7.8534   7.8824  24.7574  25.1972  50.5876  50.5931
 50.6995  50.7204
 --------------------------------------------------------------
 
          Ground-State Mulliken Net Atomic Charges

     Atom                 Charge (a.u.)
  ----------------------------------------
      1 O                    -0.448763
      2 C                    -0.008179
      3 O                    -0.459857
      4 C                     0.375597
      5 O                    -0.680495
      6 O                    -0.675229
      7 H                     0.338076
      8 H                     0.337621
      9 H                     0.221229
  ----------------------------------------
  Sum of atomic charges =    -1.000000

 -----------------------------------------------------------------
                    Cartesian Multipole Moments
 -----------------------------------------------------------------
    Charge (ESU x 10^10)
                -4.8032
    Dipole Moment (Debye)
         X     -12.2188      Y       2.1260      Z       2.5821
       Tot      12.6683
    Quadrupole Moments (Debye-Ang)
        XX     -47.2272     XY       2.0398     YY     -49.4603
        XZ      -5.6205     YZ      -3.5094     ZZ     -36.4671
    Octopole Moments (Debye-Ang^2)
       XXX    -101.6545    XXY      12.7707    XYY     -33.3128
       YYY      42.6219    XXZ      -4.3081    XYZ      -4.8223
       YYZ      -2.4965    XZZ     -16.6708    YZZ       8.6823
       ZZZ     -16.0662
    Hexadecapole Moments (Debye-Ang^3)
      XXXX    -431.6711   XXXY      27.5157   XXYY    -117.7829
      XYYY      28.3174   YYYY    -276.9199   XXXZ     -32.5522
      XXYZ     -12.8024   XYYZ      -8.1357   YYYZ     -16.6101
      XXZZ     -80.7559   XYZZ       3.3559   YYZZ     -55.0466
      XZZZ     -17.7367   YZZZ     -14.8413   ZZZZ     -67.7903
 -----------------------------------------------------------------
 Calculating analytic gradient of the SCF energy
 Gradient of CDS energy
            1           2           3           4           5           6
    1   0.0004321  -0.0017121   0.0011157   0.0029899  -0.0012638  -0.0007768
    2  -0.0014440  -0.0003760   0.0017963  -0.0001758  -0.0016995   0.0017975
    3   0.0004622  -0.0012258   0.0008898  -0.0003687  -0.0005595   0.0007341
            7           8           9
    1  -0.0002891  -0.0003902  -0.0001056
    2   0.0004463  -0.0003569   0.0000120
    3   0.0000142  -0.0000371   0.0000910
 Gradient of SCF Energy
            1           2           3           4           5           6
    1  -0.0009824  -0.0017158  -0.0042280   0.0322003  -0.0191545  -0.0150807
    2   0.0123152  -0.0033857  -0.0101067  -0.0061917  -0.0171125   0.0241578
    3  -0.0079942   0.0506008  -0.0099377  -0.0049356  -0.0101195   0.0072827
            7           8           9
    1   0.0043616   0.0064456  -0.0018462
    2  -0.0076931   0.0063320   0.0016845
    3   0.0006561   0.0020683  -0.0276208
 Max gradient component =       5.060E-02
 RMS gradient           =       1.572E-02
 Computing fast CPCM-SWIG gradient
 Updating gradient with PCM contributions...
 -- total gradient after adding PCM contribution --
---------------------------------------------------
  Atom         X              Y              Z     
---------------------------------------------------
   1      -0.000229       0.000016       0.000665
   2      -0.000105       0.000379      -0.000630
   3      -0.000249      -0.000139       0.000388
   4      -0.000059      -0.000160       0.002097
   5      -0.000139      -0.000221      -0.000931
   6      -0.000283       0.000293      -0.000537
   7       0.000351      -0.000151      -0.000404
   8       0.000360       0.000084      -0.000410
   9       0.000353      -0.000101      -0.000236
---------------------------------------------------
 Number of fixed atoms: 0
 Gradient time:  CPU 58.39 s  wall 9.34 s
 Geometry Optimization Parameters
   NAtoms,    NIC,     NZ,  NCons,   NDum,   NFix, NCnnct, MaxDiis
        9      49       0       0       0       0       0       0

 Cartesian Hessian Update
 Hessian updated using BFGS update


** GEOMETRY OPTIMIZATION IN DELOCALIZED INTERNAL COORDINATES **
   Searching for a Minimum

   Optimization Cycle:   4

                       Coordinates (Angstroms)
     ATOM                X               Y               Z
      1  O        -0.7714321412    1.0431941696   -0.0047432446
      2  C        -0.3557164106   -0.2099266445    0.4937204452
      3  O        -1.0464952100   -1.2671279748   -0.1292874888
      4  C         1.1592599971   -0.3515903211    0.2384333366
      5  O         1.8547634791    0.6493378424    0.5366857490
      6  O         1.5794648391   -1.4419084001   -0.2117428482
      7  H        -1.6299696863    1.2490816874    0.3799068820
      8  H        -1.9422479085   -1.2833285678    0.2245603158
      9  H        -0.5236025588   -0.2478775912    1.5731946531
   Point Group: c1    Number of degrees of freedom:    21


   Energy is   -379.121186954

 Hessian updated using BFGS update

 21 Hessian modes will be used to form the next step
  Hessian Eigenvalues:
     0.002799    0.013027    0.013965    0.068988    0.071436    0.079002
     0.093724    0.158103    0.160059    0.198186    0.207726    0.248246
     0.269394    0.279519    0.339255    0.428884    0.437507    0.505676
     0.531566    0.804174    0.820003

 Minimum search - taking simple RFO step
 Searching for Lamda that Minimizes Along All modes
 Value Taken    Lamda =  -0.00004137
 Step Taken.  Stepsize is  0.056197

                             Maximum     Tolerance    Cnvgd?
         Gradient           0.000993      0.000300      NO
         Displacement       0.036989      0.001200      NO
         Energy change     -0.002945      0.000001      NO


 New Cartesian Coordinates Obtained by Inverse Iteration

 Displacement from previous Coordinates is:  0.057392
 ----------------------------------------------------------------
             Standard Nuclear Orientation (Angstroms)
    I     Atom           X                Y                Z
 ----------------------------------------------------------------
    1      O      -0.7735396029     1.0410137311    -0.0136779386
    2      C      -0.3561959671    -0.2098141073     0.4901528910
    3      O      -1.0489420484    -1.2692866179    -0.1267077070
    4      C       1.1597315113    -0.3508791352     0.2349087582
    5      O       1.8552121510     0.6432276400     0.5560668669
    6      O       1.5812579173    -1.4369713763    -0.2241676194
    7      H      -1.6276610889     1.2525547654     0.3786369039
    8      H      -1.9417642804    -1.2875789904     0.2354149865
    9      H      -0.5240741918    -0.2424117094     1.5701006584
 ----------------------------------------------------------------
 Nuclear Repulsion Energy =         239.47503254 hartrees
 There are       24 alpha and       24 beta electrons
 Discretize the solute cavity surface with Lebedev spheres
	Using 110 Lebedev grid points for each H atom
	Using 194 Lebedev grid points for other atoms
	Atomic van der Waals radii will be scaled by 1.20
 Remove points where switching function is < 1.0e-08
 Keep 832 surface tesserae and discard 662 interior tesserae
 Molecular Surface Area = 99.625 Angst**2
 Applying Cartesian multipole field
    Component          Value
    ---------          -----
     (2,0,0)        1.00000E-11
     (0,2,0)        2.00000E-11
     (0,0,2)       -3.00000E-11
 Nucleus-field energy     =     0.0000000052 hartrees
 Requested basis set is 6-311++G(2df,2p)
 There are 66 shells and 234 basis functions
 A cutoff of  1.0D-12 yielded   2098 shell pairs
 There are     26683 function pairs (     33996 Cartesian)
 Smallest overlap matrix eigenvalue = 9.41E-05
 Guess MOs from SCF MO coefficient file

 -----------------------------------------------------------------------
  General SCF calculation program by
  Eric Jon Sundstrom, Paul Horn, Yuezhi Mao, Dmitri Zuev, Alec White,
  David Stuck, Shaama M.S., Shane Yost, Joonho Lee, David Small,
  Daniel Levine, Susi Lehtola, Hugh Burton, Evgeny Epifanovsky,
  Bang C. Huynh
 -----------------------------------------------------------------------
 Exchange:     0.1500 Hartree-Fock + 1.0000 wB97M-V + LR-HF
 Correlation:  1.0000 wB97M-V
 Using SG-2 standard quadrature grid
 Nonlocal Correlation:  VV10 with C = 0.0100 and b = 6.00 and scale = 1.00000
 Grid used for NLC:  SG-1 standard quadrature
 
 Citation of the SMD model:
 Marenich, A.V.; Cramer, C.J.; Truhlar, D.G.
 J. Phys. Chem. B 2009, 113, 6378-6396.
 iSolventCode=           1
 Solvent: water                                                           
 
 vradii
            1           2           3           4           5           6
    1   1.5200000   1.8500000   1.5200000   1.8500000   1.5200000   1.5200000
            7           8           9
    1   1.2000000   1.2000000   1.2000000
 -------------------------------------------------------
 OpenMP BLAS3 based DFT computing Module                
 Release: version 1.0, May 2013, Q-Chem Inc. Pittsburgh 
 -------------------------------------------------------
 A restricted SCF calculation will be
 performed using Roothaan-Hall, DIIS, GDM
 SCF converges when RMS gradient is below 1.0e-07
 ---------------------------------------
  Cycle       Energy         DIIS error
 ---------------------------------------
    1    -378.9649412877      1.20e-03  Roothaan Step
 ---------------------------------------
  Cycle       Energy         DIIS error
 ---------------------------------------
    1    -379.1082144117      1.33e-03  
    2    -379.1230244378      1.01e-03  Done DIIS. Switching to GDM
 ---------------------------------------
  Cycle       Energy        RMS Gradient
 ---------------------------------------
    1    -379.1230244378      1.40e-02   Normal BFGS step
    2    -379.1236242053      1.65e-02   Normal BFGS step
    3    -379.1278279297      1.69e-03   Normal BFGS step
    4    -379.1278768103      1.28e-03   Normal BFGS step
    5    -379.1278933611      2.39e-04   Normal BFGS step
    6    -379.1278937988      2.37e-04   Normal BFGS step
    7    -379.1278944844      2.65e-05   Normal BFGS step
    8    -379.1278944927      2.37e-05   Normal BFGS step
    9    -379.1278945058      6.40e-06   Normal BFGS step
   10    -379.1278945063      3.38e-06   Normal BFGS step
   11    -379.1278945064      8.77e-07   Normal BFGS step
   12    -379.1278945064      2.07e-07   Normal BFGS step
   13    -379.1278945064      7.61e-08  Convergence criterion met
 ---------------------------------------
 SCF time:   CPU 344.15s  wall 50.00s 
(3)  G-ENP(liq) elect-nuc-pol free energy of system     -379.127894506 a.u.
(4)  G-CDS(liq) cavity-dispersion-solvent structure 
     free energy                                                4.1924 kcal/mol
(6)  G-S(liq) free energy of system                     -379.121213515 a.u.
 SCF   energy in the final basis set =     -379.1212135152
 Total energy in the final basis set =     -379.1212135152
 
 --------------------------------------------------------------
 
                    Orbital Energies (a.u.)
 --------------------------------------------------------------
 
 Alpha MOs
 -- Occupied --
-19.3406 -19.3399 -19.2860 -19.2842 -10.4395 -10.4379  -1.2011  -1.1629
 -1.1308  -1.0781  -0.8142  -0.6460  -0.6391  -0.6334  -0.5774  -0.5298
 -0.5101  -0.4970  -0.4908  -0.4132  -0.4109  -0.3713  -0.3603  -0.3566
 -- Virtual --
  0.0293   0.0587   0.0591   0.0733   0.1015   0.1100   0.1156   0.1173
  0.1443   0.1540   0.1551   0.1733   0.2151   0.2266   0.2398   0.2504
  0.2641   0.2816   0.2878   0.2968   0.3098   0.3110   0.3171   0.3371
  0.3395   0.3501   0.3575   0.3625   0.3706   0.3853   0.4109   0.4139
  0.4428   0.4527   0.5296   0.5706   0.5777   0.6362   0.6465   0.6672
  0.6851   0.6997   0.7012   0.7274   0.7827   0.7974   0.8056   0.8500
  0.8699   0.9245   0.9361   0.9776   0.9883   1.0436   1.0720   1.1075
  1.1167   1.1312   1.1562   1.1645   1.1708   1.1889   1.2120   1.2362
  1.2645   1.2813   1.2890   1.3130   1.3404   1.3577   1.3662   1.4619
  1.4642   1.5185   1.5384   1.5445   1.5972   1.6210   1.6473   1.6706
  1.6992   1.7508   1.7837   1.8073   1.8366   1.8850   1.9283   1.9481
  1.9917   2.0898   2.1500   2.2087   2.2212   2.2466   2.3640   2.3853
  2.4135   2.4986   2.5239   2.5524   2.5662   2.6936   2.7736   2.7890
  2.8141   2.8779   2.9085   3.0604   3.0957   3.1686   3.2101   3.2562
  3.2890   3.3399   3.3593   3.3978   3.4199   3.4374   3.5061   3.5338
  3.6099   3.6259   3.6366   3.6624   3.7103   3.7725   3.7800   3.8438
  3.8555   3.9147   3.9344   4.0044   4.1030   4.1321   4.1482   4.1924
  4.2496   4.2773   4.3347   4.3517   4.4443   4.5038   4.7694   5.1755
  5.1826   5.1901   5.2011   5.2043   5.2198   5.2267   5.2416   5.2758
  5.2813   5.2885   5.3105   5.3309   5.3442   5.3784   5.3914   5.4050
  5.4894   5.5159   5.5377   5.5610   5.6071   5.6416   5.6533   5.6757
  5.6955   5.7635   5.8376   5.9972   6.0323   6.1006   6.1410   6.3326
  6.4409   6.5012   6.7067   6.8669   6.9350   6.9844   7.0220   7.0540
  7.0716   7.1266   7.1711   7.2202   7.2630   7.2825   7.3190   7.3503
  7.3656   7.4071   7.4231   7.5222   7.5461   7.6146   7.7062   7.7489
  7.8058   7.8344   7.8528   7.8831  24.7558  25.1959  50.5873  50.5925
 50.6994  50.7212
 --------------------------------------------------------------
 
          Ground-State Mulliken Net Atomic Charges

     Atom                 Charge (a.u.)
  ----------------------------------------
      1 O                    -0.449054
      2 C                    -0.008116
      3 O                    -0.460523
      4 C                     0.375302
      5 O                    -0.680303
      6 O                    -0.674877
      7 H                     0.338249
      8 H                     0.337829
      9 H                     0.221493
  ----------------------------------------
  Sum of atomic charges =    -1.000000

 -----------------------------------------------------------------
                    Cartesian Multipole Moments
 -----------------------------------------------------------------
    Charge (ESU x 10^10)
                -4.8032
    Dipole Moment (Debye)
         X     -12.2021      Y       2.1401      Z       2.5834
       Tot      12.6549
    Quadrupole Moments (Debye-Ang)
        XX     -47.2990     XY       2.0456     YY     -49.3291
        XZ      -5.7573     YZ      -3.6029     ZZ     -36.5728
    Octopole Moments (Debye-Ang^2)
       XXX    -101.5394    XXY      12.8284    XYY     -33.1937
       YYY      42.6293    XXZ      -4.3357    XYZ      -4.9613
       YYZ      -2.3021    XZZ     -16.8706    YZZ       8.6895
       ZZZ     -16.0568
    Hexadecapole Moments (Debye-Ang^3)
      XXXX    -432.6767   XXXY      27.6633   XXYY    -117.4517
      XYYY      28.1281   YYYY    -275.6603   XXXZ     -33.4472
      XXYZ     -13.3139   XYYZ      -8.2389   YYYZ     -17.1010
      XXZZ     -81.3125   XYZZ       3.3548   YYZZ     -55.0837
      XZZZ     -18.2334   YZZZ     -15.2222   ZZZZ     -68.7657
 -----------------------------------------------------------------
 Calculating analytic gradient of the SCF energy
 Gradient of CDS energy
            1           2           3           4           5           6
    1   0.0004076  -0.0016996   0.0011225   0.0029984  -0.0012719  -0.0007798
    2  -0.0013698  -0.0004676   0.0018083  -0.0001761  -0.0016941   0.0017912
    3   0.0004398  -0.0012072   0.0008820  -0.0003477  -0.0005944   0.0007511
            7           8           9
    1  -0.0002889  -0.0003904  -0.0000979
    2   0.0004463  -0.0003567   0.0000185
    3   0.0000148  -0.0000325   0.0000941
 Gradient of SCF Energy
            1           2           3           4           5           6
    1  -0.0007795  -0.0015490  -0.0040207   0.0323398  -0.0189383  -0.0150352
    2   0.0123367  -0.0034343  -0.0100997  -0.0061658  -0.0168188   0.0238735
    3  -0.0081437   0.0505653  -0.0099864  -0.0057319  -0.0101158   0.0077835
            7           8           9
    1   0.0039853   0.0061200  -0.0021224
    2  -0.0076197   0.0063615   0.0015665
    3   0.0007958   0.0021977  -0.0273645
 Max gradient component =       5.057E-02
 RMS gradient           =       1.568E-02
 Computing fast CPCM-SWIG gradient
 Updating gradient with PCM contributions...
 -- total gradient after adding PCM contribution --
---------------------------------------------------
  Atom         X              Y              Z     
---------------------------------------------------
   1      -0.000091      -0.000053       0.000412
   2       0.000060       0.000103      -0.000356
   3      -0.000128      -0.000025       0.000235
   4       0.000094       0.000414       0.000133
   5       0.000024      -0.000296      -0.000136
   6      -0.000002      -0.000119       0.000061
   7      -0.000017      -0.000060      -0.000182
   8       0.000000       0.000106      -0.000177
   9       0.000061      -0.000070       0.000010
---------------------------------------------------
 Number of fixed atoms: 0
 Gradient time:  CPU 58.99 s  wall 9.64 s
 Geometry Optimization Parameters
   NAtoms,    NIC,     NZ,  NCons,   NDum,   NFix, NCnnct, MaxDiis
        9      49       0       0       0       0       0       0

 Cartesian Hessian Update
 Hessian updated using BFGS update


** GEOMETRY OPTIMIZATION IN DELOCALIZED INTERNAL COORDINATES **
   Searching for a Minimum

   Optimization Cycle:   5

                       Coordinates (Angstroms)
     ATOM                X               Y               Z
      1  O        -0.7735396029    1.0410137311   -0.0136779386
      2  C        -0.3561959671   -0.2098141073    0.4901528910
      3  O        -1.0489420484   -1.2692866179   -0.1267077070
      4  C         1.1597315113   -0.3508791352    0.2349087582
      5  O         1.8552121510    0.6432276400    0.5560668669
      6  O         1.5812579173   -1.4369713763   -0.2241676194
      7  H        -1.6276610889    1.2525547654    0.3786369039
      8  H        -1.9417642804   -1.2875789904    0.2354149865
      9  H        -0.5240741918   -0.2424117094    1.5701006584
   Point Group: c1    Number of degrees of freedom:    21


   Energy is   -379.121213515

 Hessian updated using BFGS update

 21 Hessian modes will be used to form the next step
  Hessian Eigenvalues:
     0.001998    0.010261    0.013942    0.071036    0.073553    0.080994
     0.107668    0.158395    0.160071    0.202050    0.205796    0.243755
     0.268480    0.292522    0.338792    0.427198    0.437537    0.505146
     0.531575    0.802086    0.819539

 Minimum search - taking simple RFO step
 Searching for Lamda that Minimizes Along All modes
 Value Taken    Lamda =  -0.00001978
 Step Taken.  Stepsize is  0.083237

                             Maximum     Tolerance    Cnvgd?
         Gradient           0.000302      0.000300      NO
         Displacement       0.056999      0.001200      NO
         Energy change     -0.000027      0.000001      NO


 New Cartesian Coordinates Obtained by Inverse Iteration

 Displacement from previous Coordinates is:  0.085410
 ----------------------------------------------------------------
             Standard Nuclear Orientation (Angstroms)
    I     Atom           X                Y                Z
 ----------------------------------------------------------------
    1      O      -0.7740023651     1.0376356888    -0.0263747104
    2      C      -0.3577435192    -0.2095889541     0.4880072237
    3      O      -1.0497596774    -1.2735827822    -0.1216649403
    4      C       1.1583208721    -0.3506557237     0.2340914935
    5      O       1.8543468460     0.6342884382     0.5819184771
    6      O       1.5795107026    -1.4272847597    -0.2465656855
    7      H      -1.6215089651     1.2596989701     0.3743844526
    8      H      -1.9390033196    -1.2969110320     0.2489300732
    9      H      -0.5261361743    -0.2337456455     1.5680014161
 ----------------------------------------------------------------
 Nuclear Repulsion Energy =         239.46289494 hartrees
 There are       24 alpha and       24 beta electrons
 Discretize the solute cavity surface with Lebedev spheres
	Using 110 Lebedev grid points for each H atom
	Using 194 Lebedev grid points for other atoms
	Atomic van der Waals radii will be scaled by 1.20
 Remove points where switching function is < 1.0e-08
 Keep 829 surface tesserae and discard 665 interior tesserae
 Molecular Surface Area = 99.623 Angst**2
 Applying Cartesian multipole field
    Component          Value
    ---------          -----
     (2,0,0)        1.00000E-11
     (0,2,0)        2.00000E-11
     (0,0,2)       -3.00000E-11
 Nucleus-field energy     =     0.0000000051 hartrees
 Requested basis set is 6-311++G(2df,2p)
 There are 66 shells and 234 basis functions
 A cutoff of  1.0D-12 yielded   2098 shell pairs
 There are     26683 function pairs (     33996 Cartesian)
 Smallest overlap matrix eigenvalue = 9.41E-05
 Guess MOs from SCF MO coefficient file

 -----------------------------------------------------------------------
  General SCF calculation program by
  Eric Jon Sundstrom, Paul Horn, Yuezhi Mao, Dmitri Zuev, Alec White,
  David Stuck, Shaama M.S., Shane Yost, Joonho Lee, David Small,
  Daniel Levine, Susi Lehtola, Hugh Burton, Evgeny Epifanovsky,
  Bang C. Huynh
 -----------------------------------------------------------------------
 Exchange:     0.1500 Hartree-Fock + 1.0000 wB97M-V + LR-HF
 Correlation:  1.0000 wB97M-V
 Using SG-2 standard quadrature grid
 Nonlocal Correlation:  VV10 with C = 0.0100 and b = 6.00 and scale = 1.00000
 Grid used for NLC:  SG-1 standard quadrature
 
 Citation of the SMD model:
 Marenich, A.V.; Cramer, C.J.; Truhlar, D.G.
 J. Phys. Chem. B 2009, 113, 6378-6396.
 iSolventCode=           1
 Solvent: water                                                           
 
 vradii
            1           2           3           4           5           6
    1   1.5200000   1.8500000   1.5200000   1.8500000   1.5200000   1.5200000
            7           8           9
    1   1.2000000   1.2000000   1.2000000
 -------------------------------------------------------
 OpenMP BLAS3 based DFT computing Module                
 Release: version 1.0, May 2013, Q-Chem Inc. Pittsburgh 
 -------------------------------------------------------
 A restricted SCF calculation will be
 performed using Roothaan-Hall, DIIS, GDM
 SCF converges when RMS gradient is below 1.0e-07
 ---------------------------------------
  Cycle       Energy         DIIS error
 ---------------------------------------
    1    -378.9647799811      1.21e-03  Roothaan Step
 ---------------------------------------
  Cycle       Energy         DIIS error
 ---------------------------------------
    1    -379.1082446014      1.33e-03  
    2    -379.1230319086      1.01e-03  Done DIIS. Switching to GDM
 ---------------------------------------
  Cycle       Energy        RMS Gradient
 ---------------------------------------
    1    -379.1230319086      1.44e-02   Normal BFGS step
    2    -379.1236230225      1.66e-02   Normal BFGS step
    3    -379.1278439341      1.69e-03   Normal BFGS step
    4    -379.1278926956      1.25e-03   Normal BFGS step
    5    -379.1279095293      2.67e-04   Normal BFGS step
    6    -379.1279099930      2.49e-04   Normal BFGS step
    7    -379.1279107354      2.38e-05   Normal BFGS step
    8    -379.1279107441      2.15e-05   Normal BFGS step
    9    -379.1279107575      5.97e-06   Normal BFGS step
   10    -379.1279107580      2.88e-06   Normal BFGS step
   11    -379.1279107581      8.68e-07   Normal BFGS step
   12    -379.1279107581      2.21e-07   Normal BFGS step
   13    -379.1279107581      7.58e-08  Convergence criterion met
 ---------------------------------------
 SCF time:   CPU 344.39s  wall 49.00s 
(3)  G-ENP(liq) elect-nuc-pol free energy of system     -379.127910758 a.u.
(4)  G-CDS(liq) cavity-dispersion-solvent structure 
     free energy                                                4.1932 kcal/mol
(6)  G-S(liq) free energy of system                     -379.121228483 a.u.
 SCF   energy in the final basis set =     -379.1212284831
 Total energy in the final basis set =     -379.1212284831
 
 --------------------------------------------------------------
 
                    Orbital Energies (a.u.)
 --------------------------------------------------------------
 
 Alpha MOs
 -- Occupied --
-19.3407 -19.3399 -19.2861 -19.2841 -10.4394 -10.4378  -1.2010  -1.1629
 -1.1308  -1.0782  -0.8141  -0.6463  -0.6388  -0.6336  -0.5773  -0.5298
 -0.5102  -0.4973  -0.4900  -0.4135  -0.4108  -0.3713  -0.3604  -0.3567
 -- Virtual --
  0.0293   0.0588   0.0590   0.0733   0.1015   0.1100   0.1154   0.1172
  0.1442   0.1539   0.1551   0.1731   0.2146   0.2274   0.2400   0.2502
  0.2638   0.2822   0.2874   0.2968   0.3094   0.3108   0.3174   0.3367
  0.3399   0.3502   0.3568   0.3624   0.3709   0.3853   0.4102   0.4138
[...]
 Value Taken    Lamda =  -0.00000052
 Step Taken.  Stepsize is  0.010135

                             Maximum     Tolerance    Cnvgd?
         Gradient           0.000100      0.000300     YES
         Displacement       0.006173      0.001200      NO
         Energy change     -0.000002      0.000001      NO


 New Cartesian Coordinates Obtained by Inverse Iteration

 Displacement from previous Coordinates is:  0.009378
 ----------------------------------------------------------------
             Standard Nuclear Orientation (Angstroms)
    I     Atom           X                Y                Z
 ----------------------------------------------------------------
    1      O      -0.7700752962     1.0095248173    -0.0901959350
    2      C      -0.3608196099    -0.2115914739     0.4922317158
    3      O      -1.0496930004    -1.3042071768    -0.0673185286
    4      C       1.1546408297    -0.3521732406     0.2396058149
    5      O       1.8571576590     0.5647537115     0.7328913092
    6      O       1.5662840877    -1.3426908188    -0.4048193267
    7      H      -1.6025330528     1.2738191661     0.3164522571
    8      H      -1.9354580049    -1.3186989432     0.3121775248
    9      H      -0.5354792121    -0.1788818416     1.5697029686
 ----------------------------------------------------------------
 Nuclear Repulsion Energy =         239.46429984 hartrees
 There are       24 alpha and       24 beta electrons
 Discretize the solute cavity surface with Lebedev spheres
	Using 110 Lebedev grid points for each H atom
	Using 194 Lebedev grid points for other atoms
	Atomic van der Waals radii will be scaled by 1.20
 Remove points where switching function is < 1.0e-08
 Keep 826 surface tesserae and discard 668 interior tesserae
 Molecular Surface Area = 99.736 Angst**2
 Applying Cartesian multipole field
    Component          Value
    ---------          -----
     (2,0,0)        1.00000E-11
     (0,2,0)        2.00000E-11
     (0,0,2)       -3.00000E-11
 Nucleus-field energy     =     0.0000000047 hartrees
 Requested basis set is 6-311++G(2df,2p)
 There are 66 shells and 234 basis functions
 A cutoff of  1.0D-12 yielded   2098 shell pairs
 There are     26685 function pairs (     33993 Cartesian)
 Smallest overlap matrix eigenvalue = 9.47E-05
 Guess MOs from SCF MO coefficient file

 -----------------------------------------------------------------------
  General SCF calculation program by
  Eric Jon Sundstrom, Paul Horn, Yuezhi Mao, Dmitri Zuev, Alec White,
  David Stuck, Shaama M.S., Shane Yost, Joonho Lee, David Small,
  Daniel Levine, Susi Lehtola, Hugh Burton, Evgeny Epifanovsky,
  Bang C. Huynh
 -----------------------------------------------------------------------
 Exchange:     0.1500 Hartree-Fock + 1.0000 wB97M-V + LR-HF
 Correlation:  1.0000 wB97M-V
 Using SG-2 standard quadrature grid
 Nonlocal Correlation:  VV10 with C = 0.0100 and b = 6.00 and scale = 1.00000
 Grid used for NLC:  SG-1 standard quadrature
 
 Citation of the SMD model:
 Marenich, A.V.; Cramer, C.J.; Truhlar, D.G.
 J. Phys. Chem. B 2009, 113, 6378-6396.
 iSolventCode=           1
 Solvent: water                                                           
 
 vradii
            1           2           3           4           5           6
    1   1.5200000   1.8500000   1.5200000   1.8500000   1.5200000   1.5200000
            7           8           9
    1   1.2000000   1.2000000   1.2000000
 -------------------------------------------------------
 OpenMP BLAS3 based DFT computing Module                
 Release: version 1.0, May 2013, Q-Chem Inc. Pittsburgh 
 -------------------------------------------------------
 A restricted SCF calculation will be
 performed using Roothaan-Hall, DIIS, GDM
 SCF converges when RMS gradient is below 1.0e-07
 ---------------------------------------
  Cycle       Energy         DIIS error
 ---------------------------------------
    1    -378.9661782063      1.18e-03  Roothaan Step
 ---------------------------------------
  Cycle       Energy         DIIS error
 ---------------------------------------
    1    -379.1084473210      1.32e-03  
    2    -379.1231007746      1.01e-03  Done DIIS. Switching to GDM
 ---------------------------------------
  Cycle       Energy        RMS Gradient
 ---------------------------------------
    1    -379.1231007746      1.23e-02   Normal BFGS step
    2    -379.1236701367      1.55e-02   Normal BFGS step
    3    -379.1278724640      1.62e-03   Normal BFGS step
    4    -379.1279195396      1.02e-03   Normal BFGS step
    5    -379.1279386369      3.64e-04   Normal BFGS step
    6    -379.1279392706      2.86e-04   Normal BFGS step
    7    -379.1279402311      2.37e-05   Normal BFGS step
    8    -379.1279402391      1.85e-05   Normal BFGS step
    9    -379.1279402516      3.56e-06   Normal BFGS step
   10    -379.1279402520      1.69e-06   Normal BFGS step
   11    -379.1279402520      5.24e-07   Normal BFGS step
   12    -379.1279402520      1.47e-07   Normal BFGS step
   13    -379.1279402520      7.70e-08  Convergence criterion met
 ---------------------------------------
 SCF time:   CPU 342.06s  wall 49.00s 
(3)  G-ENP(liq) elect-nuc-pol free energy of system     -379.127940252 a.u.
(4)  G-CDS(liq) cavity-dispersion-solvent structure 
     free energy                                                4.1889 kcal/mol
(6)  G-S(liq) free energy of system                     -379.121264877 a.u.
 SCF   energy in the final basis set =     -379.1212648768
 Total energy in the final basis set =     -379.1212648768
 
 --------------------------------------------------------------
 
                    Orbital Energies (a.u.)
 --------------------------------------------------------------
 
 Alpha MOs
 -- Occupied --
-19.3412 -19.3399 -19.2867 -19.2842 -10.4393 -10.4375  -1.2010  -1.1629
 -1.1310  -1.0787  -0.8139  -0.6471  -0.6385  -0.6338  -0.5766  -0.5299
 -0.5106  -0.4987  -0.4894  -0.4139  -0.4097  -0.3710  -0.3607  -0.3581
 -- Virtual --
  0.0295   0.0586   0.0595   0.0730   0.1013   0.1096   0.1137   0.1177
  0.1426   0.1534   0.1549   0.1719   0.2131   0.2335   0.2419   0.2490
  0.2616   0.2836   0.2853   0.2975   0.3095   0.3111   0.3186   0.3346
  0.3435   0.3516   0.3542   0.3605   0.3729   0.3846   0.4071   0.4146
  0.4417   0.4564   0.5418   0.5680   0.5765   0.6306   0.6433   0.6680
  0.6876   0.7005   0.7041   0.7338   0.7793   0.8008   0.8059   0.8382
  0.8814   0.9084   0.9301   0.9654   1.0063   1.0442   1.0824   1.1086
  1.1161   1.1293   1.1584   1.1635   1.1840   1.1880   1.2160   1.2356
  1.2668   1.2764   1.2915   1.3232   1.3459   1.3555   1.3665   1.4417
  1.4644   1.5068   1.5335   1.5488   1.5960   1.6278   1.6459   1.6646
  1.6914   1.7598   1.7929   1.8103   1.8619   1.8895   1.9366   1.9588
  1.9999   2.0791   2.1449   2.1818   2.2225   2.2526   2.3630   2.3890
  2.4001   2.5106   2.5242   2.5531   2.5742   2.7148   2.7714   2.7969
  2.8231   2.8793   2.9079   3.0439   3.0849   3.1846   3.2237   3.2472
  3.2803   3.3460   3.3735   3.3948   3.4307   3.4454   3.5217   3.5297
  3.5969   3.6161   3.6488   3.6728   3.7061   3.7626   3.7788   3.8430
  3.8597   3.9179   3.9483   4.0064   4.0953   4.1300   4.1512   4.1970
  4.2524   4.2839   4.3301   4.3453   4.4517   4.5101   4.7670   5.1754
  5.1823   5.1889   5.2000   5.2090   5.2179   5.2295   5.2401   5.2725
  5.2876   5.2957   5.3027   5.3265   5.3420   5.3825   5.3972   5.4088
  5.4789   5.5249   5.5337   5.5617   5.6056   5.6405   5.6615   5.6723
  5.6911   5.7586   5.8328   6.0009   6.0378   6.0972   6.1492   6.3248
  6.4487   6.4985   6.7029   6.8694   6.9326   6.9845   7.0202   7.0566
  7.0697   7.1355   7.1670   7.2209   7.2569   7.2816   7.3257   7.3556
  7.3671   7.3954   7.4221   7.5268   7.5594   7.6207   7.7137   7.7627
  7.7958   7.8302   7.8550   7.8865  24.7560  25.1956  50.5828  50.5938
 50.7008  50.7286
 --------------------------------------------------------------
 
          Ground-State Mulliken Net Atomic Charges

     Atom                 Charge (a.u.)
  ----------------------------------------
      1 O                    -0.446455
      2 C                    -0.018808
      3 O                    -0.462189
      4 C                     0.382788
      5 O                    -0.682635
      6 O                    -0.670952
      7 H                     0.338541
      8 H                     0.337013
      9 H                     0.222699
  ----------------------------------------
  Sum of atomic charges =    -1.000000

 -----------------------------------------------------------------
                    Cartesian Multipole Moments
 -----------------------------------------------------------------
    Charge (ESU x 10^10)
                -4.8032
    Dipole Moment (Debye)
         X     -12.1234      Y       2.2664      Z       2.6665
       Tot      12.6183
    Quadrupole Moments (Debye-Ang)
        XX     -47.4026     XY       1.7346     YY     -47.5847
        XZ      -6.0876     YZ      -4.6018     ZZ     -38.0220
    Octopole Moments (Debye-Ang^2)
       XXX    -100.2528    XXY      12.8296    XYY     -30.8692
       YYY      42.3649    XXZ      -4.8458    XYZ      -6.4964
       YYZ      -0.9941    XZZ     -19.2802    YZZ       8.9051
       ZZZ     -16.6143
    Hexadecapole Moments (Debye-Ang^3)
      XXXX    -431.5256   XXXY      25.8200   XXYY    -110.0828
      XYYY      22.7071   YYYY    -257.2047   XXXZ     -36.7888
      XXYZ     -18.1662   XYYZ      -7.1376   YYYZ     -21.2227
      XXZZ     -87.4262   XYZZ       3.2095   YYZZ     -55.8900
      XZZZ     -20.7097   YZZZ     -18.7308   ZZZZ     -84.1112
 -----------------------------------------------------------------
 Calculating analytic gradient of the SCF energy
 Gradient of CDS energy
            1           2           3           4           5           6
    1   0.0002673  -0.0016392   0.0011751   0.0030141  -0.0013249  -0.0007596
    2  -0.0009972  -0.0010233   0.0019648  -0.0001120  -0.0015902   0.0016123
    3   0.0003594  -0.0010832   0.0008091  -0.0003473  -0.0008863   0.0010612
            7           8           9
    1  -0.0002857  -0.0003924  -0.0000547
    2   0.0004487  -0.0003551   0.0000520
    3  -0.0000043  -0.0000087   0.0001003
 Gradient of SCF Energy
            1           2           3           4           5           6
    1  -0.0011023  -0.0020642  -0.0039945   0.0317236  -0.0180827  -0.0152222
    2   0.0123530   0.0002913  -0.0107572  -0.0079495  -0.0149445   0.0227656
    3  -0.0084692   0.0500444  -0.0094263  -0.0075968  -0.0121578   0.0128515
            7           8           9
    1   0.0039299   0.0065085  -0.0016960
    2  -0.0077314   0.0064800  -0.0005075
    3   0.0009999   0.0019015  -0.0281473
 Max gradient component =       5.004E-02
 RMS gradient           =       1.570E-02
 Computing fast CPCM-SWIG gradient
 Updating gradient with PCM contributions...
 -- total gradient after adding PCM contribution --
---------------------------------------------------
  Atom         X              Y              Z     
---------------------------------------------------
   1      -0.000028      -0.000019      -0.000015
   2       0.000000       0.000006      -0.000006
   3       0.000025      -0.000002       0.000016
   4       0.000009       0.000034       0.000075
   5      -0.000019      -0.000023      -0.000032
   6      -0.000001      -0.000027      -0.000021
   7       0.000018       0.000012      -0.000006
   8      -0.000001       0.000019      -0.000004
   9      -0.000004      -0.000001      -0.000006
---------------------------------------------------
 Number of fixed atoms: 0
 Gradient time:  CPU 60.78 s  wall 9.59 s
 Geometry Optimization Parameters
   NAtoms,    NIC,     NZ,  NCons,   NDum,   NFix, NCnnct, MaxDiis
        9      49       0       0       0       0       0       0

 Cartesian Hessian Update
 Hessian updated using BFGS update


** GEOMETRY OPTIMIZATION IN DELOCALIZED INTERNAL COORDINATES **
   Searching for a Minimum

   Optimization Cycle:  12

                       Coordinates (Angstroms)
     ATOM                X               Y               Z
      1  O        -0.7700752962    1.0095248173   -0.0901959350
      2  C        -0.3608196099   -0.2115914739    0.4922317158
      3  O        -1.0496930004   -1.3042071768   -0.0673185286
      4  C         1.1546408297   -0.3521732406    0.2396058149
      5  O         1.8571576590    0.5647537115    0.7328913092
      6  O         1.5662840877   -1.3426908188   -0.4048193267
      7  H        -1.6025330528    1.2738191661    0.3164522571
      8  H        -1.9354580049   -1.3186989432    0.3121775248
      9  H        -0.5354792121   -0.1788818416    1.5697029686
   Point Group: c1    Number of degrees of freedom:    21


   Energy is   -379.121264877

 Hessian updated using BFGS update

 21 Hessian modes will be used to form the next step
  Hessian Eigenvalues:
     0.000303    0.003093    0.012756    0.068190    0.074347    0.087884
     0.104701    0.159127    0.162210    0.196011    0.209539    0.244710
     0.268658    0.319208    0.340890    0.425728    0.452484    0.506440
     0.531584    0.802288    0.821502

 Minimum search - taking simple RFO step
 Searching for Lamda that Minimizes Along All modes
 Value Taken    Lamda =  -0.00000009
 Step Taken.  Stepsize is  0.006007

                             Maximum     Tolerance    Cnvgd?
         Gradient           0.000046      0.000300     YES
         Displacement       0.002845      0.001200      NO
         Energy change     -0.000000      0.000001     YES


                       Distance Matrix (Angstroms)
             O (  1)   C (  2)   O (  3)   C (  4)   O (  5)   O (  6)
   C (  2)  1.413449
   O (  3)  2.330679  1.407641
   C (  4)  2.380656  1.542791  2.420673
   O (  5)  2.788843  2.362213  3.547271  1.256032
   O (  6)  3.330237  2.407865  2.637939  1.251343  2.239941
   H (  7)  0.963431  1.944015  2.664420  3.201838  3.556073  4.172261
   H (  8)  2.634511  1.933285  0.963746  3.238541  4.255388  3.574473
   H (  9)  2.054899  1.092026  2.051978  2.157706  2.641583  3.109759
             H (  7)   H (  8)
   H (  8)  2.613811
   H (  9)  2.195355  2.200112
 
 Final energy is   -379.121264876843     


 ******************************
 **  OPTIMIZATION CONVERGED  **
 ******************************

                       Coordinates (Angstroms)
     ATOM                X               Y               Z
      1  O        -0.7700752962    1.0095248173   -0.0901959350
      2  C        -0.3608196099   -0.2115914739    0.4922317158
      3  O        -1.0496930004   -1.3042071768   -0.0673185286
      4  C         1.1546408297   -0.3521732406    0.2396058149
      5  O         1.8571576590    0.5647537115    0.7328913092
      6  O         1.5662840877   -1.3426908188   -0.4048193267
      7  H        -1.6025330528    1.2738191661    0.3164522571
      8  H        -1.9354580049   -1.3186989432    0.3121775248
      9  H        -0.5354792121   -0.1788818416    1.5697029686

Z-matrix Print:
$molecule
-1 1
C 
O  1 1.251343
O  1 1.256032 2 126.592246
C  1 1.542791 2 118.658589 3 -179.196810 0
H  4 1.092026 1 108.747650 2 121.188685 0
O  4 1.407641 1 110.175243 2 0.919077 0
H  6 0.963746 4 107.753782 1 164.337090 0
O  4 1.413449 1 107.197353 2 -120.472100 0
H  8 0.963431 4 108.255530 1 -159.587120 0
$end

 
 --------------------------------------------------------------
 
                    Orbital Energies (a.u.)
 --------------------------------------------------------------
 
 Alpha MOs
 -- Occupied --
-19.3412 -19.3399 -19.2867 -19.2842 -10.4393 -10.4375  -1.2010  -1.1629
 -1.1310  -1.0787  -0.8139  -0.6471  -0.6385  -0.6338  -0.5766  -0.5299
 -0.5106  -0.4987  -0.4894  -0.4139  -0.4097  -0.3710  -0.3607  -0.3581
 -- Virtual --
  0.0295   0.0586   0.0595   0.0730   0.1013   0.1096   0.1137   0.1177
  0.1426   0.1534   0.1549   0.1719   0.2131   0.2335   0.2419   0.2490
  0.2616   0.2836   0.2853   0.2975   0.3095   0.3111   0.3186   0.3346
  0.3435   0.3516   0.3542   0.3605   0.3729   0.3846   0.4071   0.4146
  0.4417   0.4564   0.5418   0.5680   0.5765   0.6306   0.6433   0.6680
  0.6876   0.7005   0.7041   0.7338   0.7793   0.8008   0.8059   0.8382
  0.8814   0.9084   0.9301   0.9654   1.0063   1.0442   1.0824   1.1086
  1.1161   1.1293   1.1584   1.1635   1.1840   1.1880   1.2160   1.2356
  1.2668   1.2764   1.2915   1.3232   1.3459   1.3555   1.3665   1.4417
  1.4644   1.5068   1.5335   1.5488   1.5960   1.6278   1.6459   1.6646
  1.6914   1.7598   1.7929   1.8103   1.8619   1.8895   1.9366   1.9588
  1.9999   2.0791   2.1449   2.1818   2.2225   2.2526   2.3630   2.3890
  2.4001   2.5106   2.5242   2.5531   2.5742   2.7148   2.7714   2.7969
  2.8231   2.8793   2.9079   3.0439   3.0849   3.1846   3.2237   3.2472
  3.2803   3.3460   3.3735   3.3948   3.4307   3.4454   3.5217   3.5297
  3.5969   3.6161   3.6488   3.6728   3.7061   3.7626   3.7788   3.8430
  3.8597   3.9179   3.9483   4.0064   4.0953   4.1300   4.1512   4.1970
  4.2524   4.2839   4.3301   4.3453   4.4517   4.5101   4.7670   5.1754
  5.1823   5.1889   5.2000   5.2090   5.2179   5.2295   5.2401   5.2725
  5.2876   5.2957   5.3027   5.3265   5.3420   5.3825   5.3972   5.4088
  5.4789   5.5249   5.5337   5.5617   5.6056   5.6405   5.6615   5.6723
  5.6911   5.7586   5.8328   6.0009   6.0378   6.0972   6.1492   6.3248
  6.4487   6.4985   6.7029   6.8694   6.9326   6.9845   7.0202   7.0566
  7.0697   7.1355   7.1670   7.2209   7.2569   7.2816   7.3257   7.3556
  7.3671   7.3954   7.4221   7.5268   7.5594   7.6207   7.7137   7.7627
  7.7958   7.8302   7.8550   7.8865  24.7560  25.1956  50.5828  50.5938
 50.7008  50.7286
 --------------------------------------------------------------
 
          Ground-State Mulliken Net Atomic Charges

     Atom                 Charge (a.u.)
  ----------------------------------------
      1 O                    -0.446455
      2 C                    -0.018808
      3 O                    -0.462189
      4 C                     0.382788
      5 O                    -0.682635
      6 O                    -0.670952
      7 H                     0.338541
      8 H                     0.337013
      9 H                     0.222699
  ----------------------------------------
  Sum of atomic charges =    -1.000000

 -----------------------------------------------------------------
                    Cartesian Multipole Moments
 -----------------------------------------------------------------
    Charge (ESU x 10^10)
                -4.8032
    Dipole Moment (Debye)
         X     -12.1234      Y       2.2664      Z       2.6665
       Tot      12.6183
    Quadrupole Moments (Debye-Ang)
        XX     -47.4026     XY       1.7346     YY     -47.5847
        XZ      -6.0876     YZ      -4.6018     ZZ     -38.0220
    Octopole Moments (Debye-Ang^2)
       XXX    -100.2528    XXY      12.8296    XYY     -30.8692
       YYY      42.3649    XXZ      -4.8458    XYZ      -6.4964
       YYZ      -0.9941    XZZ     -19.2802    YZZ       8.9051
       ZZZ     -16.6143
    Hexadecapole Moments (Debye-Ang^3)
      XXXX    -431.5256   XXXY      25.8200   XXYY    -110.0828
      XYYY      22.7071   YYYY    -257.2047   XXXZ     -36.7888
      XXYZ     -18.1662   XYYZ      -7.1376   YYYZ     -21.2227
      XXZZ     -87.4262   XYZZ       3.2095   YYZZ     -55.8900
      XZZZ     -20.7097   YZZZ     -18.7308   ZZZZ     -84.1112
 -----------------------------------------------------------------
 Total job time:  728.25s(wall), 4918.06s(cpu) 
 Mon Jul 17 12:39:54 2023

        *************************************************************
        *                                                           *
        *  Thank you very much for using Q-Chem.  Have a nice day.  *
        *                                                           *
        *************************************************************


