
Running Job 1 of 1 Q_in.in
qchem Q_in.in_257817.0 /scratch/ari.fischer/qChem1854166.hpc-mn1/qchem257817/ 0
/usr/local/qchem-5.4.1/exe/qcprog.exe_s Q_in.in_257817.0 /scratch/ari.fischer/qChem1854166.hpc-mn1/qchem257817/
                  Welcome to Q-Chem
     A Quantum Leap Into The Future Of Chemistry


 Q-Chem 5.4, Q-Chem, Inc., Pleasanton, CA (2021)

 License issued to: Nanyang Technological University (site)

 E. Epifanovsky,  A. T. B. Gilbert,  Xintian Feng,  Joonho Lee,  Yuezhi Mao,  
 N. Mardirossian,  P. Pokhilko,  A. White,  M. Wormit,  M. P. Coons,  
 A. L. Dempwolff,  Zhengting Gan,  D. Hait,  P. R. Horn,  L. D. Jacobson,  
 I. Kaliman,  J. Kussmann,  A. W. Lange,  Ka Un Lao,  D. S. Levine,  Jie Liu,  
 S. C. McKenzie,  A. F. Morrison,  K. Nanda,  F. Plasser,  D. R. Rehn,  
 M. L. Vidal,  Zhi-Qiang You,  Ying Zhu,  B. Alam,  B. Albrecht,  
 A. Aldossary,  E. Alguire,  J. H. Andersen,  D. Barton,  K. Begam,  A. Behn,  
 Y. A. Bernard,  E. J. Berquist,  H. Burton,  A. Carreras,  K. Carter-Fenk,  
 R. Chakraborty,  A. D. Chien,  K. D. Closser,  V. Cofer-Shabica,  
 S. Dasgupta,  Jia Deng,  M. de Wergifosse,  M. Diedenhofen,  Hainam Do,  
 S. Ehlert,  Po-Tung Fang,  S. Fatehi,  Qingguo Feng,  T. Friedhoff,  
 J. Gayvert,  Qinghui Ge,  G. Gidofalvi,  M. Goldey,  J. Gomes,  
 C. Gonzalez-Espinoza,  S. Gulania,  A. Gunina,  M. W. D. Hanson-Heine,  
 P. H. P. Harbach,  A. W. Hauser,  M. F. Herbst,  M. Hernandez Vera,  
 M. Hodecker,  Z. C. Holden,  S. Houck,  Xunkun Huang,  Kerwin Hui,  
 B. C. Huynh,  M. Ivanov,  Hyunjun Ji,  Hanjie Jiang,  B. Kaduk,  S. Kaehler,  
 K. Khistyaev,  Jaehoon Kim,  P. Klunzinger,  Z. Koczor-Benda,  
 Joong Hoon Koh,  D. Kosenkov,  L. Koulias,  T. Kowalczyk,  C. M. Krauter,  
 K. Kue,  A. Kunitsa,  T. Kus,  A. Landau,  K. V. Lawler,  D. Lefrancois,  
 S. Lehtola,  Rain Li,  Yi-Pei Li,  Jiashu Liang,  M. Liebenthal,  
 Hung-Hsuan Lin,  You-Sheng Lin,  Fenglai Liu,  Kuan-Yu Liu,  
 M. Loipersberger,  A. Luenser,  A. Manjanath,  P. Manohar,  E. Mansoor,  
 S. F. Manzer,  Shan-Ping Mao,  A. V. Marenich,  T. Markovich,  S. Mason,  
 S. A. Maurer,  P. F. McLaughlin,  M. F. S. J. Menger,  J.-M. Mewes,  
 S. A. Mewes,  P. Morgante,  J. W. Mullinax,  K. J. Oosterbaan,  G. Paran,  
 Alexander C. Paul,  Suranjan K. Paul,  F. Pavosevic,  Zheng Pei,  S. Prager,  
 E. I. Proynov,  E. Ramos,  B. Rana,  A. E. Rask,  A. Rettig,  R. M. Richard,  
 F. Rob,  E. Rossomme,  T. Scheele,  M. Scheurer,  M. Schneider,  
 N. Sergueev,  S. M. Sharada,  W. Skomorowski,  D. W. Small,  C. J. Stein,  
 Yu-Chuan Su,  E. J. Sundstrom,  Zhen Tao,  J. Thirman,  T. Tsuchimochi,  
 N. M. Tubman,  S. P. Veccham,  O. Vydrov,  J. Wenzel,  J. Witte,  A. Yamada,  
 Kun Yao,  S. Yeganeh,  S. R. Yost,  A. Zech,  Igor Ying Zhang,  Xing Zhang,  
 Yu Zhang,  D. Zuev,  A. Aspuru-Guzik,  A. T. Bell,  N. A. Besley,  
 K. B. Bravaya,  B. R. Brooks,  D. Casanova,  Jeng-Da Chai,  S. Coriani,  
 C. J. Cramer,  A. E. DePrince, III,  R. A. DiStasio Jr.,  A. Dreuw,  
 B. D. Dunietz,  T. R. Furlani,  W. A. Goddard III,  S. Grimme,  
 S. Hammes-Schiffer,  T. Head-Gordon,  W. J. Hehre,  Chao-Ping Hsu,  
 T.-C. Jagau,  Yousung Jung,  A. Klamt,  Jing Kong,  D. S. Lambrecht,  
 WanZhen Liang,  N. J. Mayhall,  C. W. McCurdy,  J. B. Neaton,  
 C. Ochsenfeld,  J. A. Parkhill,  R. Peverati,  V. A. Rassolov,  Yihan Shao,  
 L. V. Slipchenko,  T. Stauch,  R. P. Steele,  J. E. Subotnik,  
 A. J. W. Thom,  A. Tkatchenko,  D. G. Truhlar,  T. Van Voorhis,  
 T. A. Wesolowski,  K. B. Whaley,  H. L. Woodcock III,  P. M. Zimmerman,  
 S. Faraji,  P. M. W. Gill,  M. Head-Gordon,  J. M. Herbert,  A. I. Krylov

 Additional authors for Version 5.4.1: 
 S. Kotaru,  Shaozhi Li,  Xiangyuan Li,  F. Matz,  A. Molle,  Haisheng Ren,  
 Yingli Su,  Hung-Yi Tsai,  C. Utku,  Fang Wang

 Contributors to earlier versions of Q-Chem not listed above: 
 R. D. Adamson,  B. Austin,  R. Baer,  J. Baker,  G. J. O. Beran,  
 K. Brandhorst,  S. T. Brown,  E. F. C. Byrd,  A. K. Chakraborty,  
 G. K. L. Chan,  Chun-Min Chang,  Yunqing Chen,  C.-L. Cheng,  
 Siu Hung Chien,  D. M. Chipman,  D. L. Crittenden,  H. Dachsel,  
 R. J. Doerksen,  A. D. Dutoi,  R. G. Edgar,  J. Fosso-Tande,  
 L. Fusti-Molnar,  D. Ghosh,  A. Ghysels,  A. Golubeva-Zadorozhnaya,  
 J. Gonthier,  M. S. Gordon,  S. R. Gwaltney,  G. Hawkins,  J. E. Herr,  
 A. Heyden,  S. Hirata,  E. G. Hohenstein,  G. Kedziora,  F. J. Keil,  
 C. Kelley,  Jihan Kim,  R. A. King,  R. Z. Khaliullin,  P. P. Korambath,  
 W. Kurlancheek,  A. Laurent,  A. M. Lee,  M. S. Lee,  S. V. Levchenko,  
 Ching Yeh Lin,  D. Liotard,  E. Livshits,  R. C. Lochan,  I. Lotan,  
 L. A. Martinez-Martinez,  P. E. Maslen,  N. Nair,  D. P. O'Neill,  
 D. Neuhauser,  E. Neuscamman,  C. M. Oana,  R. Olivares-Amaya,  R. Olson,  
 T. M. Perrine,  B. Peters,  P. A. Pieniazek,  A. Prociuk,  Y. M. Rhee,  
 J. Ritchie,  M. A. Rohrdanz,  E. Rosta,  N. J. Russ,  H. F. Schaefer III,  
 M. W. Schmidt,  N. E. Schultz,  S. Sharma,  N. Shenvi,  C. D. Sherrill,  
 A. C. Simmonett,  A. Sodt,  T. Stein,  D. Stuck,  K. S. Thanthiriwatte,  
 V. Vanovschi,  L. Vogt,  Tao Wang,  A. Warshel,  M. A. Watson,  
 C. F. Williams,  Q. Wu,  X. Xu,  Jun Yang,  W. Zhang,  Yan Zhao

 Please cite Q-Chem as follows:
 Y. Shao et al., Mol. Phys. 113, 184-215 (2015)
 DOI: 10.1080/00268976.2014.952696

 Q-Chem 5.4.1 for Intel X86 EM64T Linux

 Parts of Q-Chem use Armadillo 9.800.1 (Horizon Scraper).
 http://arma.sourceforge.net/

 Q-Chem begins on Thu Dec  7 15:54:37 2023  

 Host: 
0

     Scratch files written to /scratch/ari.fischer/qChem1854166.hpc-mn1/qchem257817//
 Aug1521 |scratch|qcdevops|jenkins|workspace|build_RNUM 8249   
 Processing $rem in /usr/local/qchem-5.4.1/config/preferences:
 Processing $rem in /home/ari.fischer/.qchemrc:
 Symmetry turned off for PCM/SM12/SMD calculation

 Checking the input file for inconsistencies... 	...done.

--------------------------------------------------------------
User input:
--------------------------------------------------------------
$molecule
0 2
O         0.7139837603   -0.0221978848    0.0000000000
O        -0.5886126674    0.1177581209    0.0000000000
H        -0.9637405214   -0.7836068958    0.0000000000
$end

$rem
BASIS = 6-311++G(3df,2p)
JOB_TYPE = SP
METHOD = wB97M-V
SCF_ALGORITHM = DIIS_GDM
MAX_SCF_CYCLES = 400
SCF_CONVERGENCE = 7
THRESH = 12
Solvent_method = SMD
$end
--------------------------------------------------------------
 ----------------------------------------------------------------
             Standard Nuclear Orientation (Angstroms)
    I     Atom           X                Y                Z
 ----------------------------------------------------------------
    1      O       0.7139837603    -0.0221978848     0.0000000000
    2      O      -0.5886126674     0.1177581209     0.0000000000
    3      H      -0.9637405214    -0.7836068958     0.0000000000
 ----------------------------------------------------------------
 Nuclear Repulsion Energy =          32.48498172 hartrees
 There are        9 alpha and        8 beta electrons
 Requested basis set is 6-311++G(3df,2p)
 There are 24 shells and 88 basis functions

 Total QAlloc Memory Limit 288000 MB
 Mega-Array Size       188 MB
 MEM_STATIC part       192 MB
 
 Citation of the SMD model:
 Marenich, A.V.; Cramer, C.J.; Truhlar, D.G.
 J. Phys. Chem. B 2009, 113, 6378-6396.
 iSolventCode=           1
 Solvent: water                                                           
 
 vradii
            1           2           3
    1   1.5200000   1.5200000   1.2000000
 Changing PCM_VDW_RADII to SMD_RADIUS
 Discretize the solute cavity surface with Lebedev spheres
	Using 110 Lebedev grid points for each H atom
	Using 194 Lebedev grid points for other atoms
	Atomic van der Waals radii will be scaled by 1.20
 Remove points where switching function is < 1.0e-08
 Keep 354 surface tesserae and discard 144 interior tesserae
 Molecular Surface Area = 45.022 Angst**2

                       Distance Matrix (Angstroms)
             O (  1)   O (  2)
   O (  2)  1.310094
   H (  3)  1.842418  0.976309
 
 A cutoff of  1.0D-12 yielded    300 shell pairs
 There are      4072 function pairs (      5284 Cartesian)
 Smallest overlap matrix eigenvalue = 6.73E-04

 Scale SEOQF with 1.000000e-01/1.000000e+00/1.000000e+00

 Standard Electronic Orientation quadrupole field applied
 Nucleus-field energy     =     0.0000000008 hartrees
 Guess from superposition of atomic densities
 Warning:  Energy on first SCF cycle will be non-variational
 SAD guess density has 17.000000 electrons

 -----------------------------------------------------------------------
  General SCF calculation program by
  Eric Jon Sundstrom, Paul Horn, Yuezhi Mao, Dmitri Zuev, Alec White,
  David Stuck, Shaama M.S., Shane Yost, Joonho Lee, David Small,
  Daniel Levine, Susi Lehtola, Hugh Burton, Evgeny Epifanovsky,
  Bang C. Huynh
 -----------------------------------------------------------------------
 Exchange:     0.1500 Hartree-Fock + 1.0000 wB97M-V + LR-HF
 Correlation:  1.0000 wB97M-V
 Using SG-2 standard quadrature grid
 Nonlocal Correlation:  VV10 with C = 0.0100 and b = 6.00 and scale = 1.00000
 Grid used for NLC:  SG-1 standard quadrature
 
 Citation of the SMD model:
 Marenich, A.V.; Cramer, C.J.; Truhlar, D.G.
 J. Phys. Chem. B 2009, 113, 6378-6396.
 iSolventCode=           1
 Solvent: water                                                           
 
 vradii
            1           2           3
    1   1.5200000   1.5200000   1.2000000
 using 4 threads for integral computing
 -------------------------------------------------------
 OpenMP Integral computing Module                
 Release: version 1.0, May 2013, Q-Chem Inc. Pittsburgh 
 -------------------------------------------------------
 -------------------------------------------------------
 OpenMP BLAS3 based DFT computing Module                
 Release: version 1.0, May 2013, Q-Chem Inc. Pittsburgh 
 -------------------------------------------------------
 A unrestricted SCF calculation will be
 performed using DIIS, GDM
 SCF converges when RMS gradient is below 1.0e-07
 ---------------------------------------
  Cycle       Energy         DIIS error
 ---------------------------------------
    1    -150.9304190457      2.10e-02  
    2    -150.9021700171      2.99e-03  Done DIIS. Switching to GDM
 ---------------------------------------
  Cycle       Energy        RMS Gradient
 ---------------------------------------
    1    -150.9021700171      1.08e-01   Normal BFGS step
    2    -150.9128392092      9.49e-02   Normal BFGS step
    3    -150.9288493608      2.70e-02   Normal BFGS step
    4    -150.9300708884      9.43e-03   Normal BFGS step
    5    -150.9302946654      5.53e-03   Normal BFGS step
    6    -150.9303591185      2.40e-03   Normal BFGS step
    7    -150.9303760168      5.45e-04   Normal BFGS step
    8    -150.9303776560      2.27e-04   Normal BFGS step
    9    -150.9303779497      3.57e-05   Normal BFGS step
   10    -150.9303779662      1.49e-05   Normal BFGS step
   11    -150.9303779681      3.15e-06   Normal BFGS step
   12    -150.9303779682      1.47e-06   Normal BFGS step
   13    -150.9303779682      3.46e-07   Normal BFGS step
   14    -150.9303779682      1.70e-07   Normal BFGS step
   15    -150.9303779682      6.19e-08  Convergence criterion met
 ---------------------------------------
 SCF time:   CPU 38.19s  wall 10.00s 
<S^2> =          0.753855450
(3)  G-ENP(liq) elect-nuc-pol free energy of system     -150.930377968 a.u.
(4)  G-CDS(liq) cavity-dispersion-solvent structure 
     free energy                                                0.6953 kcal/mol
(6)  G-S(liq) free energy of system                     -150.929269907 a.u.
 SCF   energy in the final basis set =     -150.9292699065
 Total energy in the final basis set =     -150.9292699065
 
 --------------------------------------------------------------
 
                    Orbital Energies (a.u.)
 --------------------------------------------------------------
 
 Alpha MOs
 -- Occupied --
-19.4564 -19.4216  -1.3390  -0.9974  -0.6805  -0.6134  -0.6013  -0.4153
 -0.4084
 -- Virtual --
  0.0370   0.1238   0.1767   0.1856   0.2100   0.2383   0.2447   0.2511
  0.2698   0.2916   0.3667   0.5763   0.6810   0.7514   0.8816   0.8893
  0.9251   0.9434   0.9610   0.9957   1.0390   1.0682   1.0810   1.1552
  1.2406   1.2611   1.2980   1.3796   1.4414   1.4647   1.6714   1.8046
  2.4070   2.7218   3.0351   3.0531   3.1583   3.1784   3.3948   3.4145
  3.4424   3.5256   3.6739   3.9072   3.9944   4.0609   4.6633   4.6859
  4.7140   4.7794   4.9051   4.9418   5.0590   5.0807   5.0953   5.1466
  5.1772   5.2579   5.2964   5.4617   5.6474   5.7523   5.8303   6.5449
  6.5728   7.0017   7.8238  14.2007  14.2687  14.3086  14.3124  14.3487
 14.4083  14.6321  14.7345  14.9643  15.7765  50.4078  50.6178
 
 Beta MOs
 -- Occupied --
-19.4468 -19.4020  -1.3120  -0.9566  -0.6634  -0.5825  -0.5299  -0.3932
 -- Virtual --
 -0.0290   0.0381   0.1290   0.1793   0.1930   0.2130   0.2411   0.2477
  0.2592   0.2796   0.3037   0.3674   0.5795   0.6863   0.7534   0.8896
  0.9034   0.9291   0.9561   0.9682   1.0013   1.0697   1.0753   1.1188
  1.1645   1.2505   1.2651   1.3026   1.3885   1.4501   1.4656   1.6751
  1.8123   2.4227   2.7253   3.0656   3.0748   3.1679   3.2028   3.4219
  3.4691   3.4921   3.5383   3.7168   3.9261   4.0097   4.0740   4.6727
  4.7328   4.7446   4.7989   4.9242   4.9558   5.1296   5.1494   5.1521
  5.1996   5.2121   5.2877   5.3297   5.4908   5.6752   5.7704   5.8560
  6.5824   6.5825   7.0180   7.8382  14.2817  14.3267  14.3385  14.4033
 14.4574  14.4868  14.6767  14.8175  14.9929  15.8085  50.4189  50.6289
 --------------------------------------------------------------
 
          Ground-State Mulliken Net Atomic Charges

     Atom                 Charge (a.u.)    Spin (a.u.)
  --------------------------------------------------------
      1 O                    -0.198357       0.706840
      2 O                    -0.141937       0.302656
      3 H                     0.340294      -0.009495
  --------------------------------------------------------
  Sum of atomic charges =    -0.000000
  Sum of spin   charges =     1.000000

 -----------------------------------------------------------------
                    Cartesian Multipole Moments
 -----------------------------------------------------------------
    Charge (ESU x 10^10)
                -0.0000
    Dipole Moment (Debye)
         X      -2.2483      Y      -1.9276      Z      -0.0000
       Tot       2.9615
    Quadrupole Moments (Debye-Ang)
        XX     -10.6055     XY       2.0282     YY     -10.4245
        XZ       0.0000     YZ       0.0000     ZZ     -11.2570
    Octopole Moments (Debye-Ang^2)
       XXX      -3.6988    XXY      -2.3441    XYY      -2.3857
       YYY      -2.0332    XXZ      -0.0000    XYZ      -0.0000
       YYZ      -0.0000    XZZ      -0.2500    YZZ      -0.2860
       ZZZ      -0.0000
    Hexadecapole Moments (Debye-Ang^3)
      XXXX     -36.2428   XXXY       2.4202   XXYY      -7.7987
      XYYY       2.1678   YYYY     -10.3665   XXXZ       0.0000
      XXYZ       0.0000   XYYZ       0.0000   YYYZ       0.0000
      XXZZ      -8.1635   XYZZ       0.2858   YYZZ      -3.4299
      XZZZ       0.0000   YZZZ       0.0000   ZZZZ      -8.9735
 -----------------------------------------------------------------
 Total job time:  10.74s(wall), 39.71s(cpu) 
 Thu Dec  7 15:54:48 2023

        *************************************************************
        *                                                           *
        *  Thank you very much for using Q-Chem.  Have a nice day.  *
        *                                                           *
        *************************************************************


