
Running Job 1 of 1 Q_in.in
qchem Q_in.in_201204.0 /scratch/ari.fischer/qChem1524331.hpc-mn1/qchem201204/ 0
/usr/local/qchem-5.4.1/exe/qcprog.exe_s Q_in.in_201204.0 /scratch/ari.fischer/qChem1524331.hpc-mn1/qchem201204/
                  Welcome to Q-Chem
     A Quantum Leap Into The Future Of Chemistry


 Q-Chem 5.4, Q-Chem, Inc., Pleasanton, CA (2021)

 License issued to: Nanyang Technological University (site)

 E. Epifanovsky,  A. T. B. Gilbert,  Xintian Feng,  Joonho Lee,  Yuezhi Mao,  
 N. Mardirossian,  P. Pokhilko,  A. White,  M. Wormit,  M. P. Coons,  
 A. L. Dempwolff,  Zhengting Gan,  D. Hait,  P. R. Horn,  L. D. Jacobson,  
 I. Kaliman,  J. Kussmann,  A. W. Lange,  Ka Un Lao,  D. S. Levine,  Jie Liu,  
 S. C. McKenzie,  A. F. Morrison,  K. Nanda,  F. Plasser,  D. R. Rehn,  
 M. L. Vidal,  Zhi-Qiang You,  Ying Zhu,  B. Alam,  B. Albrecht,  
 A. Aldossary,  E. Alguire,  J. H. Andersen,  D. Barton,  K. Begam,  A. Behn,  
 Y. A. Bernard,  E. J. Berquist,  H. Burton,  A. Carreras,  K. Carter-Fenk,  
 R. Chakraborty,  A. D. Chien,  K. D. Closser,  V. Cofer-Shabica,  
 S. Dasgupta,  Jia Deng,  M. de Wergifosse,  M. Diedenhofen,  Hainam Do,  
 S. Ehlert,  Po-Tung Fang,  S. Fatehi,  Qingguo Feng,  T. Friedhoff,  
 J. Gayvert,  Qinghui Ge,  G. Gidofalvi,  M. Goldey,  J. Gomes,  
 C. Gonzalez-Espinoza,  S. Gulania,  A. Gunina,  M. W. D. Hanson-Heine,  
 P. H. P. Harbach,  A. W. Hauser,  M. F. Herbst,  M. Hernandez Vera,  
 M. Hodecker,  Z. C. Holden,  S. Houck,  Xunkun Huang,  Kerwin Hui,  
 B. C. Huynh,  M. Ivanov,  Hyunjun Ji,  Hanjie Jiang,  B. Kaduk,  S. Kaehler,  
 K. Khistyaev,  Jaehoon Kim,  P. Klunzinger,  Z. Koczor-Benda,  
 Joong Hoon Koh,  D. Kosenkov,  L. Koulias,  T. Kowalczyk,  C. M. Krauter,  
 K. Kue,  A. Kunitsa,  T. Kus,  A. Landau,  K. V. Lawler,  D. Lefrancois,  
 S. Lehtola,  Rain Li,  Yi-Pei Li,  Jiashu Liang,  M. Liebenthal,  
 Hung-Hsuan Lin,  You-Sheng Lin,  Fenglai Liu,  Kuan-Yu Liu,  
 M. Loipersberger,  A. Luenser,  A. Manjanath,  P. Manohar,  E. Mansoor,  
 S. F. Manzer,  Shan-Ping Mao,  A. V. Marenich,  T. Markovich,  S. Mason,  
 S. A. Maurer,  P. F. McLaughlin,  M. F. S. J. Menger,  J.-M. Mewes,  
 S. A. Mewes,  P. Morgante,  J. W. Mullinax,  K. J. Oosterbaan,  G. Paran,  
 Alexander C. Paul,  Suranjan K. Paul,  F. Pavosevic,  Zheng Pei,  S. Prager,  
 E. I. Proynov,  E. Ramos,  B. Rana,  A. E. Rask,  A. Rettig,  R. M. Richard,  
 F. Rob,  E. Rossomme,  T. Scheele,  M. Scheurer,  M. Schneider,  
 N. Sergueev,  S. M. Sharada,  W. Skomorowski,  D. W. Small,  C. J. Stein,  
 Yu-Chuan Su,  E. J. Sundstrom,  Zhen Tao,  J. Thirman,  T. Tsuchimochi,  
 N. M. Tubman,  S. P. Veccham,  O. Vydrov,  J. Wenzel,  J. Witte,  A. Yamada,  
 Kun Yao,  S. Yeganeh,  S. R. Yost,  A. Zech,  Igor Ying Zhang,  Xing Zhang,  
 Yu Zhang,  D. Zuev,  A. Aspuru-Guzik,  A. T. Bell,  N. A. Besley,  
 K. B. Bravaya,  B. R. Brooks,  D. Casanova,  Jeng-Da Chai,  S. Coriani,  
 C. J. Cramer,  A. E. DePrince, III,  R. A. DiStasio Jr.,  A. Dreuw,  
 B. D. Dunietz,  T. R. Furlani,  W. A. Goddard III,  S. Grimme,  
 S. Hammes-Schiffer,  T. Head-Gordon,  W. J. Hehre,  Chao-Ping Hsu,  
 T.-C. Jagau,  Yousung Jung,  A. Klamt,  Jing Kong,  D. S. Lambrecht,  
 WanZhen Liang,  N. J. Mayhall,  C. W. McCurdy,  J. B. Neaton,  
 C. Ochsenfeld,  J. A. Parkhill,  R. Peverati,  V. A. Rassolov,  Yihan Shao,  
 L. V. Slipchenko,  T. Stauch,  R. P. Steele,  J. E. Subotnik,  
 A. J. W. Thom,  A. Tkatchenko,  D. G. Truhlar,  T. Van Voorhis,  
 T. A. Wesolowski,  K. B. Whaley,  H. L. Woodcock III,  P. M. Zimmerman,  
 S. Faraji,  P. M. W. Gill,  M. Head-Gordon,  J. M. Herbert,  A. I. Krylov

 Additional authors for Version 5.4.1: 
 S. Kotaru,  Shaozhi Li,  Xiangyuan Li,  F. Matz,  A. Molle,  Haisheng Ren,  
 Yingli Su,  Hung-Yi Tsai,  C. Utku,  Fang Wang

 Contributors to earlier versions of Q-Chem not listed above: 
 R. D. Adamson,  B. Austin,  R. Baer,  J. Baker,  G. J. O. Beran,  
 K. Brandhorst,  S. T. Brown,  E. F. C. Byrd,  A. K. Chakraborty,  
 G. K. L. Chan,  Chun-Min Chang,  Yunqing Chen,  C.-L. Cheng,  
 Siu Hung Chien,  D. M. Chipman,  D. L. Crittenden,  H. Dachsel,  
 R. J. Doerksen,  A. D. Dutoi,  R. G. Edgar,  J. Fosso-Tande,  
 L. Fusti-Molnar,  D. Ghosh,  A. Ghysels,  A. Golubeva-Zadorozhnaya,  
 J. Gonthier,  M. S. Gordon,  S. R. Gwaltney,  G. Hawkins,  J. E. Herr,  
 A. Heyden,  S. Hirata,  E. G. Hohenstein,  G. Kedziora,  F. J. Keil,  
 C. Kelley,  Jihan Kim,  R. A. King,  R. Z. Khaliullin,  P. P. Korambath,  
 W. Kurlancheek,  A. Laurent,  A. M. Lee,  M. S. Lee,  S. V. Levchenko,  
 Ching Yeh Lin,  D. Liotard,  E. Livshits,  R. C. Lochan,  I. Lotan,  
 L. A. Martinez-Martinez,  P. E. Maslen,  N. Nair,  D. P. O'Neill,  
 D. Neuhauser,  E. Neuscamman,  C. M. Oana,  R. Olivares-Amaya,  R. Olson,  
 T. M. Perrine,  B. Peters,  P. A. Pieniazek,  A. Prociuk,  Y. M. Rhee,  
 J. Ritchie,  M. A. Rohrdanz,  E. Rosta,  N. J. Russ,  H. F. Schaefer III,  
 M. W. Schmidt,  N. E. Schultz,  S. Sharma,  N. Shenvi,  C. D. Sherrill,  
 A. C. Simmonett,  A. Sodt,  T. Stein,  D. Stuck,  K. S. Thanthiriwatte,  
 V. Vanovschi,  L. Vogt,  Tao Wang,  A. Warshel,  M. A. Watson,  
 C. F. Williams,  Q. Wu,  X. Xu,  Jun Yang,  W. Zhang,  Yan Zhao

 Please cite Q-Chem as follows:
 Y. Shao et al., Mol. Phys. 113, 184-215 (2015)
 DOI: 10.1080/00268976.2014.952696

 Q-Chem 5.4.1 for Intel X86 EM64T Linux

 Parts of Q-Chem use Armadillo 9.800.1 (Horizon Scraper).
 http://arma.sourceforge.net/

 Q-Chem begins on Thu May  4 21:07:32 2023  

 Host: 
0

     Scratch files written to /scratch/ari.fischer/qChem1524331.hpc-mn1/qchem201204//
 Aug1521 |scratch|qcdevops|jenkins|workspace|build_RNUM 8249   
 Processing $rem in /usr/local/qchem-5.4.1/config/preferences:
 Processing $rem in /home/ari.fischer/.qchemrc:
 Symmetry turned off for PCM/SM12/SMD calculation


!!********************************************.
!!******************Warning*******************.
!!Desired Analytical derivatives not available.
!!Finite difference job might take a long time.
!!********************************************.
!!********************************************.


 2-order derivative to be evaluated numerically with 1-order analytical derivatives

 Checking the input file for inconsistencies... 	...done.

--------------------------------------------------------------
User input:
--------------------------------------------------------------
$molecule
0 2
O        -0.7265937369    0.9841477964    0.4577690803
C        -0.2402478792   -0.2480819922    0.2787714565
O        -1.0332743381   -1.2873550349    0.0253175921
C         1.1606206866   -0.4586142849    0.3412688524
O         1.9284314593    0.6167230263    0.6653942023
O         1.7012960441   -1.5446342061    0.1197841305
H        -1.6551020347    0.9778739983    0.7336224659
H        -1.9370777822   -1.0038659970   -0.1746886398
H         1.3743443810    1.3906540943    0.8401361600
$end

$rem
BASIS = 6-311++G(2df,2p)
GUI = 2
JOB_TYPE = Frequency
METHOD = wB97M-V
SOLVENT_METHOD = SMD
SCF_ALGORITHM = DIIS_GDM
MAX_SCF_CYCLES = 400
SCF_CONVERGENCE = 7
THRESH = 12
UNRESTRICTED = 1
SYMMETRY_IGNORE = 1
$end
--------------------------------------------------------------
 ----------------------------------------------------------------
             Standard Nuclear Orientation (Angstroms)
    I     Atom           X                Y                Z
 ----------------------------------------------------------------
    1      O      -0.7265937369     0.9841477964     0.4577690803
    2      C      -0.2402478792    -0.2480819922     0.2787714565
    3      O      -1.0332743381    -1.2873550349     0.0253175921
    4      C       1.1606206866    -0.4586142849     0.3412688524
    5      O       1.9284314593     0.6167230263     0.6653942023
    6      O       1.7012960441    -1.5446342061     0.1197841305
    7      H      -1.6551020347     0.9778739983     0.7336224659
    8      H      -1.9370777822    -1.0038659970    -0.1746886398
    9      H       1.3743443810     1.3906540943     0.8401361600
 ----------------------------------------------------------------
 Nuclear Repulsion Energy =         241.63915279 hartrees
 There are       24 alpha and       23 beta electrons
 Requested basis set is 6-311++G(2df,2p)
 There are 66 shells and 234 basis functions

 Total QAlloc Memory Limit 288000 MB
 Mega-Array Size       188 MB
 MEM_STATIC part       192 MB
 
 Citation of the SMD model:
 Marenich, A.V.; Cramer, C.J.; Truhlar, D.G.
 J. Phys. Chem. B 2009, 113, 6378-6396.
 iSolventCode=           1
 Solvent: water                                                           
 
 vradii
            1           2           3           4           5           6
    1   1.5200000   1.8500000   1.5200000   1.8500000   1.5200000   1.5200000
            7           8           9
    1   1.2000000   1.2000000   1.2000000
 Changing PCM_VDW_RADII to SMD_RADIUS
 Discretize the solute cavity surface with Lebedev spheres
	Using 110 Lebedev grid points for each H atom
	Using 194 Lebedev grid points for other atoms
	Atomic van der Waals radii will be scaled by 1.20
 Remove points where switching function is < 1.0e-08
 Keep 817 surface tesserae and discard 677 interior tesserae
 Molecular Surface Area = 98.014 Angst**2

                       Distance Matrix (Angstroms)
             O (  1)   C (  2)   O (  3)   C (  4)   O (  5)   O (  6)
   C (  2)  1.336773
   O (  3)  2.332551  1.331622
   C (  4)  2.378385  1.417978  2.366392
   O (  5)  2.688358  2.366545  3.578675  1.360493
   O (  6)  3.521877  2.340068  2.748271  1.233217  2.240702
   H (  7)  0.968639  1.926569  2.453493  3.185237  3.602332  4.243260
   H (  8)  2.411944  1.912085  0.968106  3.187357  4.274834  3.690110
   H (  9)  2.173797  2.368015  3.692193  1.927262  0.967738  3.040020
             H (  7)   H (  8)
   H (  8)  2.198143
   H (  9)  3.059294  4.210595
 
 A cutoff of  1.0D-12 yielded   2086 shell pairs
 There are     26517 function pairs (     33760 Cartesian)
 Smallest overlap matrix eigenvalue = 4.57E-05
 Guess from superposition of atomic densities
 Warning:  Energy on first SCF cycle will be non-variational
 SAD guess density has 47.000000 electrons

 -----------------------------------------------------------------------
  General SCF calculation program by
  Eric Jon Sundstrom, Paul Horn, Yuezhi Mao, Dmitri Zuev, Alec White,
  David Stuck, Shaama M.S., Shane Yost, Joonho Lee, David Small,
  Daniel Levine, Susi Lehtola, Hugh Burton, Evgeny Epifanovsky,
  Bang C. Huynh
 -----------------------------------------------------------------------
 Exchange:     0.1500 Hartree-Fock + 1.0000 wB97M-V + LR-HF
 Correlation:  1.0000 wB97M-V
 Using SG-2 standard quadrature grid
 Nonlocal Correlation:  VV10 with C = 0.0100 and b = 6.00 and scale = 1.00000
 Grid used for NLC:  SG-1 standard quadrature
 using 8 threads for integral computing
 -------------------------------------------------------
 OpenMP Integral computing Module                
 Release: version 1.0, May 2013, Q-Chem Inc. Pittsburgh 
 -------------------------------------------------------
 
 Citation of the SMD model:
 Marenich, A.V.; Cramer, C.J.; Truhlar, D.G.
 J. Phys. Chem. B 2009, 113, 6378-6396.
 iSolventCode=           1
 Solvent: water                                                           
 
 vradii
            1           2           3           4           5           6
    1   1.5200000   1.8500000   1.5200000   1.8500000   1.5200000   1.5200000
            7           8           9
    1   1.2000000   1.2000000   1.2000000
 -------------------------------------------------------
 OpenMP BLAS3 based DFT computing Module                
 Release: version 1.0, May 2013, Q-Chem Inc. Pittsburgh 
 -------------------------------------------------------
 A unrestricted SCF calculation will be
 performed using DIIS, GDM
 SCF converges when RMS gradient is below 1.0e-07
 ---------------------------------------
  Cycle       Energy         DIIS error
 ---------------------------------------
    1    -380.1647306051      1.74e-02  
    2    -378.7759434351      2.76e-03  Done DIIS. Switching to GDM
 ---------------------------------------
  Cycle       Energy        RMS Gradient
 ---------------------------------------
    1    -378.7759434351      1.33e-01   Descent step
    2    -378.9260046633      2.71e-02   Normal BFGS step
    3    -378.9396213533      1.50e-02   Normal BFGS step
    4    -378.9406161059      1.28e-02   Normal BFGS step
    5    -378.9413299022      4.20e-03   Normal BFGS step
    6    -378.9413837329      2.36e-03   Normal BFGS step
    7    -378.9414029437      6.64e-04   Normal BFGS step
    8    -378.9414051228      2.38e-04   Normal BFGS step
    9    -378.9414057525      9.81e-05   Normal BFGS step
   10    -378.9414057912      5.60e-05   Normal BFGS step
   11    -378.9414058037      2.18e-05   Normal BFGS step
   12    -378.9414058051      1.27e-05   Normal BFGS step
   13    -378.9414058056      4.55e-06   Normal BFGS step
   14    -378.9414058056      1.43e-06   Normal BFGS step
   15    -378.9414058056      4.29e-07   Normal BFGS step
   16    -378.9414058057      1.36e-07   Normal BFGS step
   17    -378.9414058057      6.97e-08  Convergence criterion met
 ---------------------------------------
 SCF time:   CPU 383.92s  wall 49.00s 
<S^2> =          0.753908382
(3)  G-ENP(liq) elect-nuc-pol free energy of system     -378.941405806 a.u.
(4)  G-CDS(liq) cavity-dispersion-solvent structure 
     free energy                                                5.2038 kcal/mol
(6)  G-S(liq) free energy of system                     -378.933113093 a.u.
 SCF   energy in the final basis set =     -378.9331130928
 Total energy in the final basis set =     -378.9331130928
 
 --------------------------------------------------------------
 
                    Orbital Energies (a.u.)
 --------------------------------------------------------------
 
 Alpha MOs
 -- Occupied --
-19.3977 -19.3964 -19.3754 -19.3216 -10.4861 -10.4785  -1.2706  -1.2254
 -1.1963  -1.1459  -0.8770  -0.7348  -0.7246  -0.6842  -0.6144  -0.5922
 -0.5693  -0.5431  -0.5213  -0.4964  -0.4879  -0.4422  -0.4077  -0.2784
 -- Virtual --
  0.0253   0.0468   0.0590   0.0825   0.0893   0.1029   0.1129   0.1151
  0.1427   0.1472   0.1512   0.1601   0.2082   0.2159   0.2208   0.2441
  0.2649   0.2668   0.2842   0.2963   0.3020   0.3036   0.3149   0.3221
  0.3250   0.3330   0.3372   0.3548   0.3591   0.3843   0.4008   0.4235
  0.4344   0.4370   0.5223   0.5783   0.5913   0.6084   0.6169   0.6560
  0.6621   0.6871   0.6957   0.7259   0.7487   0.7741   0.8130   0.8280
  0.8414   0.8812   0.8955   0.9086   0.9326   0.9817   1.0343   1.0616
  1.0783   1.0986   1.1060   1.1132   1.1297   1.1462   1.1511   1.1585
  1.1914   1.2093   1.2438   1.2581   1.2691   1.3548   1.3928   1.3946
  1.4418   1.4912   1.5034   1.5250   1.6043   1.6441   1.6676   1.6852
  1.7124   1.7465   1.8094   1.8428   1.8760   1.9155   1.9348   1.9844
  1.9902   2.0811   2.1692   2.2480   2.2632   2.3357   2.3705   2.3964
  2.4239   2.4464   2.5583   2.5948   2.6010   2.6501   2.7104   2.7604
  2.8073   2.8539   2.8577   2.8937   2.9727   3.1066   3.1187   3.1664
  3.2499   3.2735   3.2803   3.3166   3.3477   3.4066   3.4118   3.4507
  3.5303   3.5412   3.5587   3.5725   3.6489   3.7035   3.7230   3.7584
  3.7905   3.8277   3.8470   3.9260   3.9840   4.0501   4.0900   4.2063
  4.2293   4.2753   4.3046   4.3228   4.3525   4.4165   4.5175   4.8871
  5.1200   5.1284   5.1505   5.1579   5.1740   5.1831   5.2131   5.2223
  5.2388   5.2564   5.2749   5.2944   5.3256   5.3713   5.4776   5.5012
  5.5153   5.5256   5.5776   5.6038   5.6439   5.6714   5.6945   5.7113
  5.8268   5.8773   5.9402   5.9739   6.0738   6.1227   6.3742   6.4266
  6.6380   6.8164   6.8501   6.9308   6.9839   7.0071   7.0307   7.0686
  7.1295   7.2130   7.2157   7.2378   7.2489   7.2864   7.3067   7.3693
  7.3963   7.4109   7.4513   7.4963   7.5431   7.6363   7.7011   7.7714
  7.8060   7.8513   7.9246   7.9615  24.8657  25.2325  50.5323  50.5767
 50.6208  50.7416
 
 Beta MOs
 -- Occupied --
-19.3947 -19.3931 -19.3742 -19.3166 -10.4778 -10.4772  -1.2626  -1.2211
 -1.1892  -1.1387  -0.8586  -0.7304  -0.7185  -0.6779  -0.5904  -0.5843
 -0.5626  -0.5264  -0.5158  -0.4911  -0.4628  -0.4186  -0.4007
 -- Virtual --
 -0.0013   0.0252   0.0469   0.0590   0.0826   0.0895   0.1030   0.1127
  0.1157   0.1471   0.1512   0.1607   0.1884   0.2104   0.2177   0.2235
  0.2455   0.2654   0.2673   0.2854   0.2977   0.3027   0.3051   0.3224
  0.3254   0.3267   0.3348   0.3413   0.3570   0.3617   0.3872   0.4026
  0.4285   0.4367   0.4442   0.5266   0.5811   0.5945   0.6114   0.6238
  0.6647   0.6681   0.6948   0.7057   0.7356   0.7558   0.7772   0.8139
  0.8346   0.8479   0.8843   0.8962   0.9137   0.9392   0.9831   1.0385
  1.0641   1.0860   1.1011   1.1098   1.1156   1.1344   1.1481   1.1561
  1.1655   1.1944   1.2154   1.2480   1.2606   1.2765   1.3585   1.3985
  1.4011   1.4453   1.4953   1.5076   1.5293   1.6092   1.6464   1.6745
  1.6918   1.7176   1.7534   1.8183   1.8472   1.8840   1.9207   1.9438
  1.9932   1.9981   2.0874   2.1754   2.2524   2.2709   2.3395   2.3756
  2.4047   2.4300   2.4519   2.5635   2.6003   2.6098   2.6612   2.7314
  2.7796   2.8479   2.8619   2.8951   2.9096   2.9877   3.1279   3.1417
  3.1782   3.2635   3.2880   3.2940   3.3430   3.3687   3.4260   3.4337
  3.4704   3.5568   3.5637   3.5781   3.6008   3.6637   3.7161   3.7390
  3.7658   3.7986   3.8388   3.8539   3.9326   3.9905   4.0539   4.0956
  4.2138   4.2346   4.2936   4.3254   4.3452   4.3609   4.4217   4.5271
  4.9165   5.1302   5.1385   5.1618   5.1738   5.1868   5.1972   5.2223
  5.2346   5.2455   5.2711   5.2835   5.3004   5.3345   5.3768   5.4840
  5.5064   5.5247   5.5322   5.5855   5.6104   5.6519   5.6785   5.7006
  5.7177   5.8344   5.8871   5.9493   5.9876   6.0766   6.1348   6.3887
  6.4315   6.6450   6.8226   6.8573   6.9519   6.9994   7.0244   7.0389
  7.0816   7.1381   7.2228   7.2264   7.2458   7.2592   7.2947   7.3174
  7.3752   7.4098   7.4220   7.4617   7.5011   7.5500   7.6422   7.7070
  7.7755   7.8129   7.8560   7.9292   7.9663  24.8702  25.2371  50.5344
 50.5794  50.6225  50.7453
 --------------------------------------------------------------
 
          Ground-State Mulliken Net Atomic Charges

     Atom                 Charge (a.u.)    Spin (a.u.)
  --------------------------------------------------------
      1 O                    -0.352298       0.078709
      2 C                     0.367157       0.501409
      3 O                    -0.335370       0.089400
      4 C                     0.189820       0.115027
      5 O                    -0.372463       0.034003
      6 O                    -0.561679       0.178271
      7 H                     0.373210       0.003876
      8 H                     0.365994       0.000754
      9 H                     0.325629      -0.001449
  --------------------------------------------------------
  Sum of atomic charges =     0.000000
  Sum of spin   charges =     1.000000

 -----------------------------------------------------------------
                    Cartesian Multipole Moments
 -----------------------------------------------------------------
    Charge (ESU x 10^10)
                 0.0000
    Dipole Moment (Debye)
         X      -9.2716      Y       5.3580      Z       0.9710
       Tot      10.7524
    Quadrupole Moments (Debye-Ang)
        XX     -34.8944     XY       6.8660     YY     -40.9993
        XZ      -2.0875     YZ       2.4149     ZZ     -33.2465
    Octopole Moments (Debye-Ang^2)
       XXX    -100.7185    XXY      22.0406    XYY     -26.0281
       YYY      53.7377    XXZ     -12.0549    XYZ      -1.2924
       YYZ      -8.3443    XZZ     -17.7102    YZZ      12.5843
       ZZZ     -32.0099
    Hexadecapole Moments (Debye-Ang^3)
      XXXX    -396.8102   XXXY      43.8828   XXYY    -112.5744
      XYYY      46.4019   YYYY    -260.7968   XXXZ     -40.7653
      XXYZ       4.9726   XYYZ      -6.7044   YYYZ      -2.0837
      XXZZ     -73.7305   XYZZ       6.8075   YYZZ     -48.3780
      XZZZ     -27.3745   YZZZ      -8.7822   ZZZZ     -63.1523
 -----------------------------------------------------------------
 Calculating analytic gradient of the SCF energy
 Gradient of CDS energy
            1           2           3           4           5           6
    1   0.0012680  -0.0040801   0.0022641   0.0047551  -0.0029615  -0.0007254
    2  -0.0031579   0.0003104   0.0028272   0.0022647  -0.0043262   0.0016005
    3  -0.0004945  -0.0003098   0.0007173   0.0009357  -0.0013048   0.0003337
            7           8           9
    1  -0.0002772  -0.0003478   0.0001048
    2   0.0002924  -0.0001810   0.0003701
    3   0.0001454  -0.0001369   0.0001138
 Gradient of SCF Energy
            1           2           3           4           5           6
    1   0.0292194   0.0000153   0.0303753   0.0028897   0.0103915  -0.0005643
    2   0.0024370   0.0038231  -0.0163241  -0.0040652  -0.0138147   0.0035674
    3  -0.0075355   0.0009405   0.0030355  -0.0001118  -0.0033596   0.0006870
            7           8           9
    1  -0.0334016  -0.0297589  -0.0091663
    2   0.0012610   0.0115349   0.0115806
    3   0.0066048  -0.0033995   0.0031385
 Max gradient component =       3.340E-02
 RMS gradient           =       1.347E-02
 Computing fast CPCM-SWIG gradient
 Updating gradient with PCM contributions...
 -- total gradient after adding PCM contribution --
---------------------------------------------------
  Atom         X              Y              Z     
---------------------------------------------------
   1       0.000007       0.000029      -0.000041
   2       0.000015      -0.000015       0.000053
   3      -0.000001      -0.000030      -0.000035
   4      -0.000011       0.000085       0.000006
   5       0.000005      -0.000038      -0.000036
   6       0.000009      -0.000060      -0.000016
   7       0.000004       0.000008       0.000033
   8      -0.000032       0.000003       0.000082
   9       0.000003       0.000018      -0.000045
---------------------------------------------------
 Number of fixed atoms: 0
 Gradient time:  CPU 59.53 s  wall 9.07 s
 ######################################################
 ######################################################
 # Starting finite difference calculation for IDERIV  #
 Finite diff step size:  1.88973e-03 a.u.
 ----------------------------------------------------------------
             Standard Nuclear Orientation (Angstroms)
    I     Atom           X                Y                Z
 ----------------------------------------------------------------
    1      O      -0.7255937369     0.9841477964     0.4577690803
    2      C      -0.2402478792    -0.2480819922     0.2787714565
    3      O      -1.0332743381    -1.2873550349     0.0253175921
    4      C       1.1606206866    -0.4586142849     0.3412688524
    5      O       1.9284314593     0.6167230263     0.6653942023
    6      O       1.7012960441    -1.5446342061     0.1197841305
    7      H      -1.6551020347     0.9778739983     0.7336224659
    8      H      -1.9370777822    -1.0038659970    -0.1746886398
    9      H       1.3743443810     1.3906540943     0.8401361600
 ----------------------------------------------------------------
 Nuclear Repulsion Energy =         241.64975734 hartrees
 There are       24 alpha and       23 beta electrons
 Discretize the solute cavity surface with Lebedev spheres
	Using 110 Lebedev grid points for each H atom
	Using 194 Lebedev grid points for other atoms
	Atomic van der Waals radii will be scaled by 1.20
 Remove points where switching function is < 1.0e-08
 Keep 817 surface tesserae and discard 677 interior tesserae
 Molecular Surface Area = 98.012 Angst**2

                       Distance Matrix (Angstroms)
             O (  1)   C (  2)   O (  3)   C (  4)   O (  5)   O (  6)
   C (  2)  1.336410
   O (  3)  2.332682  1.331622
   C (  4)  2.377591  1.417978  2.366392
   O (  5)  2.687370  2.366545  3.578675  1.360493
   O (  6)  3.521188  2.340068  2.748271  1.233217  2.240702
   H (  7)  0.969598  1.926569  2.453493  3.185237  3.602332  4.243260
   H (  8)  2.412446  1.912085  0.968106  3.187357  4.274834  3.690110
   H (  9)  2.172830  2.368015  3.692193  1.927262  0.967738  3.040020
             H (  7)   H (  8)
   H (  8)  2.198143
   H (  9)  3.059294  4.210595
 
 Requested basis set is 6-311++G(2df,2p)
 There are 66 shells and 234 basis functions
 A cutoff of  1.0D-12 yielded   2086 shell pairs
 There are     26517 function pairs (     33760 Cartesian)
 Smallest overlap matrix eigenvalue = 4.57E-05
 Guess MOs from SCF MO coefficient file

 -----------------------------------------------------------------------
  General SCF calculation program by
  Eric Jon Sundstrom, Paul Horn, Yuezhi Mao, Dmitri Zuev, Alec White,
  David Stuck, Shaama M.S., Shane Yost, Joonho Lee, David Small,
  Daniel Levine, Susi Lehtola, Hugh Burton, Evgeny Epifanovsky,
  Bang C. Huynh
 -----------------------------------------------------------------------
 Exchange:     0.1500 Hartree-Fock + 1.0000 wB97M-V + LR-HF
 Correlation:  1.0000 wB97M-V
 Using SG-2 standard quadrature grid
 Nonlocal Correlation:  VV10 with C = 0.0100 and b = 6.00 and scale = 1.00000
 Grid used for NLC:  SG-1 standard quadrature
 
 Citation of the SMD model:
 Marenich, A.V.; Cramer, C.J.; Truhlar, D.G.
 J. Phys. Chem. B 2009, 113, 6378-6396.
 iSolventCode=           1
 Solvent: water                                                           
 
 vradii
            1           2           3           4           5           6
    1   1.5200000   1.8500000   1.5200000   1.8500000   1.5200000   1.5200000
            7           8           9
    1   1.2000000   1.2000000   1.2000000
 -------------------------------------------------------
 OpenMP BLAS3 based DFT computing Module                
 Release: version 1.0, May 2013, Q-Chem Inc. Pittsburgh 
 -------------------------------------------------------
 A unrestricted SCF calculation will be
 performed using Roothaan-Hall, DIIS, GDM
 SCF converges when RMS gradient is below 1.0e-07
 ---------------------------------------
  Cycle       Energy         DIIS error
 ---------------------------------------
    1    -378.8781412644      5.34e-04  Roothaan Step
 ---------------------------------------
  Cycle       Energy         DIIS error
 ---------------------------------------
    1    -378.9242913864      6.44e-04  
    2    -378.9333864298      6.56e-04  Done DIIS. Switching to GDM
 ---------------------------------------
  Cycle       Energy        RMS Gradient
 ---------------------------------------
    1    -378.9333864298      2.70e-02   Normal BFGS step
    2    -378.9304034602      5.00e-02  Line search: overstep
    3    -378.9408543602      8.05e-03   Normal BFGS step
    4    -378.9412792040      6.99e-03   Normal BFGS step
    5    -378.9413781017      1.78e-03   Normal BFGS step
    6    -378.9414001047      7.47e-04   Normal BFGS step
    7    -378.9414056575      7.85e-04   Normal BFGS step
    8    -378.9414069640      8.66e-05   Normal BFGS step
    9    -378.9414070693      4.75e-05   Normal BFGS step
   10    -378.9414070840      2.62e-05   Normal BFGS step
   11    -378.9414070873      1.13e-05   Normal BFGS step
   12    -378.9414070881      7.08e-06   Normal BFGS step
   13    -378.9414070882      3.69e-06   Normal BFGS step
   14    -378.9414070883      9.71e-07   Normal BFGS step
   15    -378.9414070883      3.29e-07   Normal BFGS step
   16    -378.9414070883      1.10e-07   Normal BFGS step
   17    -378.9414070883      5.15e-08  Convergence criterion met
 ---------------------------------------
 SCF time:   CPU 417.96s  wall 54.00s 
<S^2> =          0.753906543
(3)  G-ENP(liq) elect-nuc-pol free energy of system     -378.941407088 a.u.
(4)  G-CDS(liq) cavity-dispersion-solvent structure 
     free energy                                                5.2053 kcal/mol
(6)  G-S(liq) free energy of system                     -378.933111986 a.u.
 SCF   energy in the final basis set =     -378.9331119864
 Total energy in the final basis set =     -378.9331119864
 
 --------------------------------------------------------------
 
                    Orbital Energies (a.u.)
 --------------------------------------------------------------
 
 Alpha MOs
 -- Occupied --
-19.3978 -19.3964 -19.3753 -19.3216 -10.4860 -10.4785  -1.2706  -1.2253
 -1.1963  -1.1459  -0.8769  -0.7348  -0.7245  -0.6842  -0.6145  -0.5922
 -0.5692  -0.5431  -0.5213  -0.4964  -0.4879  -0.4421  -0.4077  -0.2783
 -- Virtual --
  0.0253   0.0468   0.0590   0.0825   0.0893   0.1029   0.1129   0.1151
  0.1428   0.1471   0.1512   0.1601   0.2082   0.2159   0.2208   0.2441
  0.2648   0.2668   0.2843   0.2963   0.3020   0.3036   0.3149   0.3222
  0.3249   0.3331   0.3372   0.3548   0.3591   0.3843   0.4008   0.4235
  0.4344   0.4370   0.5223   0.5781   0.5912   0.6083   0.6167   0.6561
  0.6621   0.6871   0.6957   0.7259   0.7487   0.7741   0.8130   0.8281
  0.8414   0.8812   0.8955   0.9086   0.9326   0.9817   1.0344   1.0617
  1.0784   1.0986   1.1060   1.1132   1.1296   1.1462   1.1510   1.1585
  1.1914   1.2093   1.2438   1.2581   1.2691   1.3548   1.3930   1.3946
  1.4419   1.4908   1.5033   1.5251   1.6041   1.6442   1.6676   1.6853
  1.7123   1.7467   1.8096   1.8428   1.8759   1.9155   1.9348   1.9844
  1.9902   2.0812   2.1692   2.2480   2.2633   2.3358   2.3707   2.3966
  2.4241   2.4464   2.5584   2.5947   2.6012   2.6503   2.7104   2.7602
  2.8073   2.8540   2.8577   2.8937   2.9723   3.1066   3.1188   3.1664
  3.2500   3.2735   3.2803   3.3166   3.3478   3.4067   3.4119   3.4507
  3.5303   3.5414   3.5588   3.5725   3.6489   3.7035   3.7231   3.7584
  3.7905   3.8276   3.8468   3.9261   3.9839   4.0498   4.0900   4.2052
  4.2292   4.2754   4.3046   4.3228   4.3525   4.4159   4.5173   4.8871
  5.1199   5.1284   5.1505   5.1579   5.1740   5.1831   5.2131   5.2223
  5.2387   5.2566   5.2750   5.2944   5.3255   5.3713   5.4776   5.5012
  5.5152   5.5256   5.5770   5.6037   5.6436   5.6708   5.6945   5.7111
  5.8266   5.8776   5.9401   5.9741   6.0739   6.1232   6.3743   6.4269
  6.6384   6.8165   6.8504   6.9308   6.9839   7.0071   7.0307   7.0685
  7.1297   7.2129   7.2148   7.2379   7.2479   7.2856   7.3065   7.3687
  7.3963   7.4107   7.4513   7.4960   7.5431   7.6362   7.7009   7.7714
  7.8062   7.8514   7.9250   7.9615  24.8661  25.2329  50.5322  50.5767
 50.6207  50.7416
 
 Beta MOs
 -- Occupied --
-19.3948 -19.3931 -19.3742 -19.3165 -10.4777 -10.4771  -1.2626  -1.2210
 -1.1892  -1.1387  -0.8585  -0.7304  -0.7184  -0.6779  -0.5904  -0.5843
 -0.5625  -0.5264  -0.5158  -0.4911  -0.4628  -0.4186  -0.4007
 -- Virtual --
 -0.0012   0.0252   0.0469   0.0589   0.0826   0.0895   0.1030   0.1127
  0.1157   0.1471   0.1511   0.1607   0.1885   0.2104   0.2178   0.2235
  0.2454   0.2654   0.2673   0.2854   0.2977   0.3027   0.3051   0.3225
  0.3254   0.3267   0.3349   0.3414   0.3570   0.3618   0.3872   0.4026
  0.4285   0.4368   0.4442   0.5265   0.5810   0.5944   0.6113   0.6236
  0.6648   0.6681   0.6948   0.7057   0.7355   0.7558   0.7772   0.8139
  0.8346   0.8480   0.8843   0.8962   0.9137   0.9391   0.9830   1.0385
  1.0642   1.0862   1.1011   1.1098   1.1157   1.1344   1.1480   1.1560
  1.1655   1.1944   1.2154   1.2480   1.2607   1.2765   1.3585   1.3987
  1.4010   1.4454   1.4949   1.5075   1.5293   1.6090   1.6465   1.6745
  1.6919   1.7176   1.7536   1.8184   1.8472   1.8839   1.9206   1.9438
  1.9932   1.9981   2.0875   2.1754   2.2525   2.2710   2.3396   2.3759
  2.4050   2.4302   2.4520   2.5636   2.6003   2.6100   2.6614   2.7313
  2.7795   2.8479   2.8620   2.8951   2.9096   2.9872   3.1279   3.1417
  3.1783   3.2635   3.2880   3.2940   3.3430   3.3687   3.4261   3.4338
  3.4705   3.5569   3.5638   3.5782   3.6008   3.6637   3.7161   3.7391
  3.7658   3.7986   3.8387   3.8537   3.9327   3.9904   4.0536   4.0955
  4.2127   4.2344   4.2936   4.3254   4.3453   4.3609   4.4211   4.5269
  4.9165   5.1302   5.1385   5.1618   5.1738   5.1868   5.1972   5.2223
  5.2346   5.2454   5.2712   5.2835   5.3004   5.3345   5.3768   5.4840
  5.5064   5.5246   5.5322   5.5848   5.6102   5.6515   5.6780   5.7006
  5.7176   5.8342   5.8874   5.9493   5.9877   6.0768   6.1353   6.3888
  6.4318   6.6454   6.8227   6.8577   6.9519   6.9994   7.0245   7.0389
  7.0815   7.1383   7.2226   7.2254   7.2459   7.2584   7.2939   7.3173
  7.3747   7.4096   7.4220   7.4617   7.5008   7.5500   7.6421   7.7069
  7.7755   7.8131   7.8561   7.9296   7.9662  24.8706  25.2375  50.5343
 50.5794  50.6225  50.7454
 --------------------------------------------------------------
 
          Ground-State Mulliken Net Atomic Charges

     Atom                 Charge (a.u.)    Spin (a.u.)
  --------------------------------------------------------
      1 O                    -0.352258       0.078839
      2 C                     0.367008       0.501206
      3 O                    -0.335405       0.089310
      4 C                     0.189882       0.115168
      5 O                    -0.372554       0.033992
      6 O                    -0.561816       0.178289
      7 H                     0.373548       0.003890
      8 H                     0.365977       0.000753
      9 H                     0.325617      -0.001448
  --------------------------------------------------------
  Sum of atomic charges =     0.000000
  Sum of spin   charges =     1.000000

 -----------------------------------------------------------------
                    Cartesian Multipole Moments
 -----------------------------------------------------------------
    Charge (ESU x 10^10)
                 0.0000
    Dipole Moment (Debye)
         X      -9.2770      Y       5.3610      Z       0.9712
       Tot      10.7586
    Quadrupole Moments (Debye-Ang)
        XX     -34.8955     XY       6.8643     YY     -41.0000
        XZ      -2.0895     YZ       2.4157     ZZ     -33.2472
    Octopole Moments (Debye-Ang^2)
       XXX    -100.7497    XXY      22.0488    XYY     -26.0421
       YYY      53.7456    XXZ     -12.0551    XYZ      -1.2938
       YYZ      -8.3443    XZZ     -17.7181    YZZ      12.5857
       ZZZ     -32.0110
    Hexadecapole Moments (Debye-Ang^3)
      XXXX    -396.7963   XXXY      43.8713   XXYY    -112.5760
      XYYY      46.3915   YYYY    -260.8031   XXXZ     -40.7772
      XXYZ       4.9738   XYYZ      -6.7089   YYYZ      -2.0818
      XXZZ     -73.7269   XYZZ       6.8023   YYZZ     -48.3796
      XZZZ     -27.3831   YZZZ      -8.7820   ZZZZ     -63.1551
 -----------------------------------------------------------------
 Calculating analytic gradient of the SCF energy
 Gradient of CDS energy
            1           2           3           4           5           6
    1   0.0012605  -0.0040729   0.0022641   0.0047550  -0.0029615  -0.0007254
    2  -0.0031454   0.0002985   0.0028272   0.0022647  -0.0043262   0.0016005
    3  -0.0004926  -0.0003115   0.0007173   0.0009357  -0.0013048   0.0003337
            7           8           9
    1  -0.0002770  -0.0003478   0.0001050
    2   0.0002920  -0.0001811   0.0003699
    3   0.0001452  -0.0001369   0.0001139
 Gradient of SCF Energy
            1           2           3           4           5           6
    1   0.0304266  -0.0003157   0.0304255   0.0029081   0.0103714  -0.0006004
    2   0.0022942   0.0040132  -0.0163763  -0.0040028  -0.0138194   0.0036044
    3  -0.0078357   0.0009761   0.0030295  -0.0000983  -0.0033622   0.0006922
            7           8           9
    1  -0.0342847  -0.0297625  -0.0091683
    2   0.0011616   0.0115438   0.0115814
    3   0.0068583  -0.0033983   0.0031385
 Max gradient component =       3.428E-02
 RMS gradient           =       1.367E-02
 Computing fast CPCM-SWIG gradient
 Updating gradient with PCM contributions...
 -- total gradient after adding PCM contribution --
---------------------------------------------------
  Atom         X              Y              Z     
---------------------------------------------------
   1       0.001163      -0.000123      -0.000334
   2      -0.000302       0.000167       0.000082
   3       0.000038      -0.000069      -0.000039
   4       0.000018       0.000142       0.000018
   5      -0.000011      -0.000045      -0.000039
   6      -0.000030      -0.000024      -0.000012
   7      -0.000854      -0.000076       0.000286
   8      -0.000027       0.000007       0.000084
   9       0.000004       0.000022      -0.000045
---------------------------------------------------
 Number of fixed atoms: 0
 Gradient time:  CPU 59.38 s  wall 8.73 s
 ----------------------------------------------------------------
             Standard Nuclear Orientation (Angstroms)
    I     Atom           X                Y                Z
 ----------------------------------------------------------------
    1      O      -0.7275937369     0.9841477964     0.4577690803
    2      C      -0.2402478792    -0.2480819922     0.2787714565
    3      O      -1.0332743381    -1.2873550349     0.0253175921
    4      C       1.1606206866    -0.4586142849     0.3412688524
    5      O       1.9284314593     0.6167230263     0.6653942023
    6      O       1.7012960441    -1.5446342061     0.1197841305
    7      H      -1.6551020347     0.9778739983     0.7336224659
    8      H      -1.9370777822    -1.0038659970    -0.1746886398
    9      H       1.3743443810     1.3906540943     0.8401361600
 ----------------------------------------------------------------
 Nuclear Repulsion Energy =         241.62855352 hartrees
 There are       24 alpha and       23 beta electrons
 Discretize the solute cavity surface with Lebedev spheres
	Using 110 Lebedev grid points for each H atom
	Using 194 Lebedev grid points for other atoms
	Atomic van der Waals radii will be scaled by 1.20
 Remove points where switching function is < 1.0e-08
 Keep 817 surface tesserae and discard 677 interior tesserae
 Molecular Surface Area = 98.016 Angst**2

                       Distance Matrix (Angstroms)
             O (  1)   C (  2)   O (  3)   C (  4)   O (  5)   O (  6)
   C (  2)  1.337137
   O (  3)  2.332419  1.331622
   C (  4)  2.379178  1.417978  2.366392
   O (  5)  2.689345  2.366545  3.578675  1.360493
   O (  6)  3.522567  2.340068  2.748271  1.233217  2.240702
   H (  7)  0.967681  1.926569  2.453493  3.185237  3.602332  4.243260
   H (  8)  2.411442  1.912085  0.968106  3.187357  4.274834  3.690110
   H (  9)  2.174763  2.368015  3.692193  1.927262  0.967738  3.040020
             H (  7)   H (  8)
   H (  8)  2.198143
   H (  9)  3.059294  4.210595
 
 Requested basis set is 6-311++G(2df,2p)
 There are 66 shells and 234 basis functions
 A cutoff of  1.0D-12 yielded   2086 shell pairs
 There are     26517 function pairs (     33760 Cartesian)
 Smallest overlap matrix eigenvalue = 4.57E-05
 Guess MOs from SCF MO coefficient file

 -----------------------------------------------------------------------
  General SCF calculation program by
  Eric Jon Sundstrom, Paul Horn, Yuezhi Mao, Dmitri Zuev, Alec White,
  David Stuck, Shaama M.S., Shane Yost, Joonho Lee, David Small,
  Daniel Levine, Susi Lehtola, Hugh Burton, Evgeny Epifanovsky,
  Bang C. Huynh
 -----------------------------------------------------------------------
 Exchange:     0.1500 Hartree-Fock + 1.0000 wB97M-V + LR-HF
 Correlation:  1.0000 wB97M-V
 Using SG-2 standard quadrature grid
 Nonlocal Correlation:  VV10 with C = 0.0100 and b = 6.00 and scale = 1.00000
 Grid used for NLC:  SG-1 standard quadrature
 
 Citation of the SMD model:
 Marenich, A.V.; Cramer, C.J.; Truhlar, D.G.
 J. Phys. Chem. B 2009, 113, 6378-6396.
 iSolventCode=           1
 Solvent: water                                                           
 
 vradii
            1           2           3           4           5           6
    1   1.5200000   1.8500000   1.5200000   1.8500000   1.5200000   1.5200000
            7           8           9
    1   1.2000000   1.2000000   1.2000000
 -------------------------------------------------------
 OpenMP BLAS3 based DFT computing Module                
 Release: version 1.0, May 2013, Q-Chem Inc. Pittsburgh 
 -------------------------------------------------------
 A unrestricted SCF calculation will be
 performed using Roothaan-Hall, DIIS, GDM
 SCF converges when RMS gradient is below 1.0e-07
 ---------------------------------------
  Cycle       Energy         DIIS error
 ---------------------------------------
    1    -378.8781569928      5.35e-04  Roothaan Step
 ---------------------------------------
  Cycle       Energy         DIIS error
 ---------------------------------------
    1    -378.9242800558      6.44e-04  
    2    -378.9333651937      6.57e-04  Done DIIS. Switching to GDM
 ---------------------------------------
  Cycle       Energy        RMS Gradient
 ---------------------------------------
    1    -378.9333651937      2.70e-02   Normal BFGS step
    2    -378.9303691174      5.00e-02  Line search: overstep
    3    -378.9408511854      8.05e-03   Normal BFGS step
    4    -378.9412750447      6.96e-03   Normal BFGS step
    5    -378.9413734191      1.79e-03   Normal BFGS step
    6    -378.9413953639      7.45e-04   Normal BFGS step
    7    -378.9414008898      7.85e-04   Normal BFGS step
    8    -378.9414021957      8.68e-05   Normal BFGS step
    9    -378.9414023013      4.72e-05   Normal BFGS step
   10    -378.9414023162      2.67e-05   Normal BFGS step
   11    -378.9414023195      1.15e-05   Normal BFGS step
   12    -378.9414023203      7.14e-06   Normal BFGS step
   13    -378.9414023205      3.70e-06   Normal BFGS step
   14    -378.9414023205      9.66e-07   Normal BFGS step
   15    -378.9414023205      3.38e-07   Normal BFGS step
   16    -378.9414023205      1.11e-07   Normal BFGS step
   17    -378.9414023205      5.08e-08  Convergence criterion met
 ---------------------------------------
 SCF time:   CPU 412.49s  wall 53.00s 
<S^2> =          0.753910226
(3)  G-ENP(liq) elect-nuc-pol free energy of system     -378.941402320 a.u.
(4)  G-CDS(liq) cavity-dispersion-solvent structure 
     free energy                                                5.2022 kcal/mol
(6)  G-S(liq) free energy of system                     -378.933112011 a.u.
 SCF   energy in the final basis set =     -378.9331120109
 Total energy in the final basis set =     -378.9331120109
 
 --------------------------------------------------------------
 
                    Orbital Energies (a.u.)
 --------------------------------------------------------------
 
 Alpha MOs
 -- Occupied --
-19.3976 -19.3964 -19.3754 -19.3217 -10.4862 -10.4786  -1.2706  -1.2254
 -1.1963  -1.1459  -0.8771  -0.7348  -0.7247  -0.6843  -0.6144  -0.5923
 -0.5693  -0.5431  -0.5213  -0.4963  -0.4878  -0.4422  -0.4078  -0.2785
 -- Virtual --
  0.0253   0.0468   0.0590   0.0825   0.0893   0.1029   0.1129   0.1151
  0.1427   0.1472   0.1513   0.1601   0.2083   0.2159   0.2208   0.2441
  0.2649   0.2668   0.2842   0.2963   0.3020   0.3036   0.3149   0.3221
  0.3250   0.3330   0.3371   0.3548   0.3591   0.3842   0.4008   0.4235
  0.4343   0.4369   0.5224   0.5784   0.5914   0.6085   0.6171   0.6559
  0.6621   0.6871   0.6957   0.7259   0.7487   0.7741   0.8130   0.8280
  0.8413   0.8811   0.8955   0.9086   0.9326   0.9818   1.0343   1.0615
  1.0781   1.0986   1.1060   1.1132   1.1297   1.1463   1.1512   1.1585
  1.1914   1.2093   1.2438   1.2580   1.2690   1.3548   1.3926   1.3947
  1.4417   1.4916   1.5035   1.5250   1.6044   1.6440   1.6675   1.6852
  1.7125   1.7462   1.8093   1.8428   1.8761   1.9155   1.9348   1.9845
  1.9902   2.0809   2.1693   2.2479   2.2631   2.3356   2.3702   2.3961
  2.4237   2.4463   2.5582   2.5949   2.6008   2.6499   2.7104   2.7605
  2.8073   2.8538   2.8577   2.8938   2.9732   3.1066   3.1187   3.1663
  3.2499   3.2734   3.2803   3.3166   3.3477   3.4065   3.4117   3.4506
  3.5302   3.5410   3.5586   3.5725   3.6490   3.7036   3.7230   3.7583
  3.7905   3.8277   3.8472   3.9259   3.9840   4.0505   4.0901   4.2074
  4.2293   4.2752   4.3046   4.3227   4.3525   4.4172   4.5177   4.8870
  5.1200   5.1284   5.1505   5.1579   5.1740   5.1830   5.2130   5.2222
  5.2388   5.2562   5.2748   5.2944   5.3256   5.3714   5.4775   5.5011
  5.5153   5.5256   5.5783   5.6040   5.6442   5.6720   5.6945   5.7114
  5.8269   5.8770   5.9403   5.9738   6.0736   6.1223   6.3741   6.4262
  6.6375   6.8162   6.8497   6.9307   6.9839   7.0071   7.0306   7.0687
  7.1293   7.2131   7.2164   7.2376   7.2497   7.2873   7.3069   7.3699
  7.3963   7.4111   7.4513   7.4966   7.5431   7.6364   7.7012   7.7714
  7.8058   7.8512   7.9243   7.9616  24.8652  25.2322  50.5324  50.5767
 50.6208  50.7416
 
 Beta MOs
 -- Occupied --
-19.3946 -19.3931 -19.3743 -19.3166 -10.4779 -10.4773  -1.2626  -1.2211
 -1.1892  -1.1388  -0.8587  -0.7304  -0.7186  -0.6779  -0.5904  -0.5843
 -0.5626  -0.5264  -0.5158  -0.4911  -0.4628  -0.4187  -0.4008
 -- Virtual --
 -0.0014   0.0252   0.0469   0.0590   0.0826   0.0895   0.1030   0.1127
  0.1157   0.1472   0.1512   0.1607   0.1884   0.2104   0.2177   0.2235
  0.2455   0.2654   0.2673   0.2854   0.2977   0.3027   0.3051   0.3224
  0.3253   0.3267   0.3347   0.3413   0.3570   0.3617   0.3872   0.4025
  0.4285   0.4367   0.4441   0.5266   0.5813   0.5946   0.6115   0.6239
  0.6646   0.6681   0.6948   0.7057   0.7356   0.7558   0.7772   0.8139
  0.8346   0.8478   0.8843   0.8962   0.9137   0.9392   0.9831   1.0385
  1.0640   1.0859   1.1011   1.1098   1.1156   1.1344   1.1481   1.1562
  1.1655   1.1943   1.2154   1.2479   1.2606   1.2765   1.3584   1.3983
  1.4013   1.4452   1.4957   1.5076   1.5292   1.6094   1.6463   1.6745
  1.6918   1.7177   1.7531   1.8181   1.8472   1.8840   1.9207   1.9438
  1.9932   1.9980   2.0872   2.1755   2.2523   2.2707   2.3395   2.3754
  2.4045   2.4298   2.4519   2.5634   2.6004   2.6097   2.6610   2.7315
  2.7797   2.8478   2.8619   2.8952   2.9096   2.9881   3.1279   3.1416
  3.1781   3.2635   3.2880   3.2939   3.3431   3.3686   3.4259   3.4336
  3.4704   3.5566   3.5636   3.5779   3.6009   3.6637   3.7162   3.7390
  3.7658   3.7986   3.8389   3.8540   3.9325   3.9905   4.0542   4.0957
  4.2148   4.2347   4.2935   4.3254   4.3452   4.3608   4.4224   4.5273
  4.9165   5.1302   5.1385   5.1618   5.1738   5.1868   5.1971   5.2223
  5.2345   5.2455   5.2709   5.2834   5.3003   5.3345   5.3769   5.4840
  5.5064   5.5247   5.5322   5.5861   5.6105   5.6522   5.6790   5.7006
  5.7179   5.8345   5.8868   5.9494   5.9874   6.0765   6.1343   6.3886
  6.4312   6.6446   6.8224   6.8570   6.9518   6.9995   7.0244   7.0389
  7.0816   7.1379   7.2229   7.2273   7.2456   7.2599   7.2957   7.3175
  7.3759   7.4100   7.4221   7.4617   7.5013   7.5500   7.6423   7.7071
  7.7754   7.8127   7.8559   7.9289   7.9663  24.8697  25.2368  50.5346
 50.5794  50.6226  50.7453
 --------------------------------------------------------------
 
          Ground-State Mulliken Net Atomic Charges

     Atom                 Charge (a.u.)    Spin (a.u.)
  --------------------------------------------------------
      1 O                    -0.352338       0.078579
      2 C                     0.367305       0.501612
      3 O                    -0.335334       0.089490
      4 C                     0.189759       0.114886
      5 O                    -0.372372       0.034014
      6 O                    -0.561543       0.178253
      7 H                     0.372872       0.003861
      8 H                     0.366012       0.000755
      9 H                     0.325640      -0.001450
  --------------------------------------------------------
  Sum of atomic charges =     0.000000
  Sum of spin   charges =     1.000000

 -----------------------------------------------------------------
                    Cartesian Multipole Moments
 -----------------------------------------------------------------
    Charge (ESU x 10^10)
                 0.0000
    Dipole Moment (Debye)
         X      -9.2662      Y       5.3550      Z       0.9709
       Tot      10.7462
    Quadrupole Moments (Debye-Ang)
        XX     -34.8933     XY       6.8678     YY     -40.9985
        XZ      -2.0854     YZ       2.4140     ZZ     -33.2459
    Octopole Moments (Debye-Ang^2)
       XXX    -100.6874    XXY      22.0324    XYY     -26.0141
       YYY      53.7298    XXZ     -12.0548    XYZ      -1.2909
       YYZ      -8.3443    XZZ     -17.7022    YZZ      12.5828
       ZZZ     -32.0089
    Hexadecapole Moments (Debye-Ang^3)
      XXXX    -396.8242   XXXY      43.8943   XXYY    -112.5729
      XYYY      46.4122   YYYY    -260.7904   XXXZ     -40.7535
      XXYZ       4.9714   XYYZ      -6.6999   YYYZ      -2.0857
      XXZZ     -73.7342   XYZZ       6.8127   YYZZ     -48.3764
      XZZZ     -27.3659   YZZZ      -8.7823   ZZZZ     -63.1495
 -----------------------------------------------------------------
 Calculating analytic gradient of the SCF energy
 Gradient of CDS energy
            1           2           3           4           5           6
    1   0.0012755  -0.0040874   0.0022641   0.0047551  -0.0029614  -0.0007254
    2  -0.0031705   0.0003224   0.0028272   0.0022647  -0.0043263   0.0016005
    3  -0.0004963  -0.0003082   0.0007173   0.0009357  -0.0013047   0.0003337
            7           8           9
    1  -0.0002773  -0.0003478   0.0001046
    2   0.0002928  -0.0001809   0.0003702
    3   0.0001457  -0.0001370   0.0001137
 Gradient of SCF Energy
            1           2           3           4           5           6
    1   0.0280065   0.0003464   0.0303251   0.0028711   0.0104115  -0.0005282
    2   0.0025790   0.0036334  -0.0162719  -0.0041275  -0.0138100   0.0035304
    3  -0.0072330   0.0009050   0.0030416  -0.0001252  -0.0033570   0.0006818
            7           8           9
    1  -0.0325127  -0.0297553  -0.0091644
    2   0.0013607   0.0115261   0.0115798
    3   0.0063490  -0.0034006   0.0031384
 Max gradient component =       3.251E-02
 RMS gradient           =       1.327E-02
 Computing fast CPCM-SWIG gradient
 Updating gradient with PCM contributions...
 -- total gradient after adding PCM contribution --
---------------------------------------------------
  Atom         X              Y              Z     
---------------------------------------------------
   1      -0.001153       0.000180       0.000255
   2       0.000331      -0.000197       0.000023
   3      -0.000040       0.000009      -0.000030
   4      -0.000040       0.000027      -0.000006
   5       0.000022      -0.000030      -0.000033
   6       0.000047      -0.000095      -0.000021
   7       0.000867       0.000092      -0.000222
   8      -0.000037       0.000000       0.000080
   9       0.000003       0.000014      -0.000045
---------------------------------------------------
 Number of fixed atoms: 0
 Gradient time:  CPU 59.66 s  wall 8.83 s
 ----------------------------------------------------------------
             Standard Nuclear Orientation (Angstroms)
    I     Atom           X                Y                Z
 ----------------------------------------------------------------
    1      O      -0.7265937369     0.9851477964     0.4577690803
    2      C      -0.2402478792    -0.2480819922     0.2787714565
    3      O      -1.0332743381    -1.2873550349     0.0253175921
    4      C       1.1606206866    -0.4586142849     0.3412688524
    5      O       1.9284314593     0.6167230263     0.6653942023
    6      O       1.7012960441    -1.5446342061     0.1197841305
    7      H      -1.6551020347     0.9778739983     0.7336224659
    8      H      -1.9370777822    -1.0038659970    -0.1746886398
    9      H       1.3743443810     1.3906540943     0.8401361600
 ----------------------------------------------------------------
 Nuclear Repulsion Energy =         241.61420976 hartrees
 There are       24 alpha and       23 beta electrons
 Discretize the solute cavity surface with Lebedev spheres
	Using 110 Lebedev grid points for each H atom
	Using 194 Lebedev grid points for other atoms
	Atomic van der Waals radii will be scaled by 1.20
 Remove points where switching function is < 1.0e-08
 Keep 817 surface tesserae and discard 677 interior tesserae
 Molecular Surface Area = 98.019 Angst**2

                       Distance Matrix (Angstroms)
             O (  1)   C (  2)   O (  3)   C (  4)   O (  5)   O (  6)
   C (  2)  1.337695
   O (  3)  2.333524  1.331622
   C (  4)  2.378991  1.417978  2.366392
   O (  5)  2.688495  2.366545  3.578675  1.360493
   O (  6)  3.522596  2.340068  2.748271  1.233217  2.240702
   H (  7)  0.968646  1.926569  2.453493  3.185237  3.602332  4.243260
   H (  8)  2.412768  1.912085  0.968106  3.187357  4.274834  3.690110
   H (  9)  2.173610  2.368015  3.692193  1.927262  0.967738  3.040020
             H (  7)   H (  8)
   H (  8)  2.198143
   H (  9)  3.059294  4.210595
 
 Requested basis set is 6-311++G(2df,2p)
 There are 66 shells and 234 basis functions
 A cutoff of  1.0D-12 yielded   2086 shell pairs
 There are     26517 function pairs (     33760 Cartesian)
 Smallest overlap matrix eigenvalue = 4.57E-05
 Guess MOs from SCF MO coefficient file

 -----------------------------------------------------------------------
  General SCF calculation program by
  Eric Jon Sundstrom, Paul Horn, Yuezhi Mao, Dmitri Zuev, Alec White,
  David Stuck, Shaama M.S., Shane Yost, Joonho Lee, David Small,
  Daniel Levine, Susi Lehtola, Hugh Burton, Evgeny Epifanovsky,
  Bang C. Huynh
 -----------------------------------------------------------------------
 Exchange:     0.1500 Hartree-Fock + 1.0000 wB97M-V + LR-HF
 Correlation:  1.0000 wB97M-V
 Using SG-2 standard quadrature grid
 Nonlocal Correlation:  VV10 with C = 0.0100 and b = 6.00 and scale = 1.00000
 Grid used for NLC:  SG-1 standard quadrature
 
 Citation of the SMD model:
 Marenich, A.V.; Cramer, C.J.; Truhlar, D.G.
 J. Phys. Chem. B 2009, 113, 6378-6396.
 iSolventCode=           1
 Solvent: water                                                           
 
 vradii
            1           2           3           4           5           6
    1   1.5200000   1.8500000   1.5200000   1.8500000   1.5200000   1.5200000
            7           8           9
    1   1.2000000   1.2000000   1.2000000
 -------------------------------------------------------
 OpenMP BLAS3 based DFT computing Module                
 Release: version 1.0, May 2013, Q-Chem Inc. Pittsburgh 
 -------------------------------------------------------
 A unrestricted SCF calculation will be
 performed using Roothaan-Hall, DIIS, GDM
 SCF converges when RMS gradient is below 1.0e-07
 ---------------------------------------
  Cycle       Energy         DIIS error
 ---------------------------------------
    1    -378.8781914959      5.34e-04  Roothaan Step
 ---------------------------------------
  Cycle       Energy         DIIS error
 ---------------------------------------
    1    -378.9243152457      6.43e-04  
    2    -378.9333909407      6.56e-04  Done DIIS. Switching to GDM
 ---------------------------------------
  Cycle       Energy        RMS Gradient
 ---------------------------------------
    1    -378.9333909407      2.70e-02   Normal BFGS step
    2    -378.9304066091      5.00e-02  Line search: overstep
    3    -378.9408487519      8.04e-03   Normal BFGS step
    4    -378.9412719644      6.95e-03   Normal BFGS step
    5    -378.9413702501      1.78e-03   Normal BFGS step
    6    -378.9413921314      7.45e-04   Normal BFGS step
    7    -378.9413976475      7.83e-04   Normal BFGS step
    8    -378.9413989492      8.69e-05   Normal BFGS step
    9    -378.9413990543      4.71e-05   Normal BFGS step
   10    -378.9413990691      2.65e-05   Normal BFGS step
   11    -378.9413990724      1.15e-05   Normal BFGS step
   12    -378.9413990731      7.14e-06   Normal BFGS step
   13    -378.9413990733      3.70e-06   Normal BFGS step
   14    -378.9413990734      9.63e-07   Normal BFGS step
   15    -378.9413990734      3.31e-07   Normal BFGS step
   16    -378.9413990734      1.08e-07   Normal BFGS step
   17    -378.9413990734      5.05e-08  Convergence criterion met
 ---------------------------------------
 SCF time:   CPU 416.32s  wall 53.00s 
<S^2> =          0.753912180
(3)  G-ENP(liq) elect-nuc-pol free energy of system     -378.941399073 a.u.
(4)  G-CDS(liq) cavity-dispersion-solvent structure 
     free energy                                                5.2000 kcal/mol
(6)  G-S(liq) free energy of system                     -378.933112361 a.u.
 SCF   energy in the final basis set =     -378.9331123605
 Total energy in the final basis set =     -378.9331123605
 
 --------------------------------------------------------------
 
                    Orbital Energies (a.u.)
 --------------------------------------------------------------
 
 Alpha MOs
 -- Occupied --
-19.3976 -19.3965 -19.3754 -19.3217 -10.4862 -10.4786  -1.2704  -1.2254
 -1.1963  -1.1459  -0.8770  -0.7349  -0.7244  -0.6841  -0.6143  -0.5923
 -0.5693  -0.5431  -0.5213  -0.4964  -0.4878  -0.4422  -0.4078  -0.2785
 -- Virtual --
  0.0253   0.0468   0.0590   0.0825   0.0893   0.1029   0.1129   0.1151
  0.1427   0.1472   0.1512   0.1601   0.2082   0.2159   0.2208   0.2441
  0.2648   0.2668   0.2842   0.2962   0.3020   0.3036   0.3147   0.3221
  0.3249   0.3330   0.3371   0.3548   0.3590   0.3841   0.4008   0.4234
  0.4344   0.4369   0.5222   0.5782   0.5913   0.6084   0.6168   0.6559
  0.6621   0.6870   0.6957   0.7259   0.7487   0.7741   0.8130   0.8280
  0.8414   0.8812   0.8956   0.9086   0.9326   0.9817   1.0344   1.0616
  1.0782   1.0985   1.1059   1.1131   1.1297   1.1462   1.1510   1.1585
  1.1914   1.2093   1.2438   1.2580   1.2690   1.3546   1.3927   1.3947
  1.4418   1.4912   1.5033   1.5250   1.6042   1.6441   1.6675   1.6852
  1.7121   1.7463   1.8093   1.8428   1.8759   1.9153   1.9347   1.9842
  1.9901   2.0811   2.1689   2.2480   2.2629   2.3357   2.3704   2.3962
  2.4237   2.4464   2.5582   2.5946   2.6010   2.6502   2.7102   2.7602
  2.8072   2.8539   2.8576   2.8935   2.9722   3.1067   3.1189   3.1663
  3.2498   3.2735   3.2799   3.3166   3.3478   3.4063   3.4117   3.4506
  3.5303   3.5409   3.5585   3.5726   3.6486   3.7035   3.7229   3.7583
  3.7904   3.8276   3.8467   3.9259   3.9837   4.0499   4.0898   4.2064
  4.2291   4.2754   4.3046   4.3226   4.3522   4.4154   4.5173   4.8868
  5.1199   5.1284   5.1504   5.1579   5.1740   5.1830   5.2131   5.2223
  5.2388   5.2564   5.2748   5.2944   5.3255   5.3715   5.4776   5.5011
  5.5151   5.5254   5.5774   5.6035   5.6434   5.6710   5.6944   5.7108
  5.8259   5.8767   5.9396   5.9736   6.0734   6.1214   6.3741   6.4261
  6.6367   6.8163   6.8487   6.9307   6.9839   7.0071   7.0306   7.0685
  7.1292   7.2128   7.2157   7.2377   7.2486   7.2861   7.3063   7.3687
  7.3963   7.4105   7.4511   7.4961   7.5430   7.6359   7.7010   7.7707
  7.8056   7.8512   7.9245   7.9615  24.8642  25.2320  50.5320  50.5765
 50.6204  50.7415
 
 Beta MOs
 -- Occupied --
-19.3947 -19.3932 -19.3743 -19.3166 -10.4778 -10.4773  -1.2624  -1.2211
 -1.1891  -1.1388  -0.8586  -0.7304  -0.7183  -0.6778  -0.5904  -0.5843
 -0.5626  -0.5264  -0.5159  -0.4911  -0.4628  -0.4187  -0.4008
 -- Virtual --
 -0.0014   0.0252   0.0469   0.0590   0.0826   0.0895   0.1030   0.1127
  0.1157   0.1471   0.1512   0.1607   0.1884   0.2104   0.2177   0.2235
  0.2455   0.2654   0.2673   0.2854   0.2977   0.3027   0.3051   0.3224
  0.3252   0.3267   0.3348   0.3413   0.3570   0.3617   0.3870   0.4025
  0.4285   0.4367   0.4441   0.5264   0.5811   0.5945   0.6114   0.6237
  0.6645   0.6681   0.6948   0.7057   0.7355   0.7558   0.7772   0.8139
  0.8346   0.8479   0.8844   0.8962   0.9137   0.9392   0.9831   1.0385
  1.0641   1.0859   1.1011   1.1097   1.1156   1.1344   1.1480   1.1561
  1.1654   1.1943   1.2154   1.2480   1.2606   1.2765   1.3583   1.3985
  1.4011   1.4453   1.4953   1.5075   1.5292   1.6092   1.6464   1.6744
  1.6918   1.7174   1.7532   1.8182   1.8471   1.8839   1.9204   1.9437
  1.9930   1.9979   2.0874   2.1751   2.2525   2.2706   2.3396   2.3755
  2.4046   2.4298   2.4520   2.5634   2.6001   2.6099   2.6613   2.7311
  2.7794   2.8478   2.8620   2.8950   2.9094   2.9872   3.1279   3.1418
  3.1781   3.2634   3.2881   3.2935   3.3430   3.3687   3.4257   3.4335
  3.4704   3.5566   3.5636   3.5779   3.6009   3.6634   3.7161   3.7389
  3.7658   3.7985   3.8387   3.8536   3.9325   3.9902   4.0537   4.0953
  4.2139   4.2344   4.2937   4.3253   4.3452   4.3606   4.4206   4.5268
  4.9163   5.1301   5.1385   5.1618   5.1738   5.1868   5.1971   5.2223
  5.2346   5.2455   5.2710   5.2834   5.3003   5.3344   5.3770   5.4840
  5.5063   5.5246   5.5320   5.5852   5.6101   5.6513   5.6781   5.7005
  5.7172   5.8335   5.8865   5.9488   5.9872   6.0763   6.1335   6.3886
  6.4310   6.6438   6.8225   6.8559   6.9518   6.9995   7.0244   7.0389
  7.0814   7.1378   7.2226   7.2263   7.2457   7.2589   7.2944   7.3171
  7.3747   7.4097   7.4218   7.4615   7.5009   7.5499   7.6418   7.7069
  7.7747   7.8125   7.8559   7.9291   7.9662  24.8687  25.2366  50.5342
 50.5792  50.6221  50.7453
 --------------------------------------------------------------
 
          Ground-State Mulliken Net Atomic Charges

     Atom                 Charge (a.u.)    Spin (a.u.)
  --------------------------------------------------------
      1 O                    -0.352592       0.078506
      2 C                     0.367058       0.501849
      3 O                    -0.334999       0.089544
      4 C                     0.189685       0.114748
      5 O                    -0.372376       0.033993
      6 O                    -0.561524       0.178207
      7 H                     0.373097       0.003854
      8 H                     0.366022       0.000748
      9 H                     0.325629      -0.001449
  --------------------------------------------------------
  Sum of atomic charges =     0.000000
  Sum of spin   charges =     1.000000

 -----------------------------------------------------------------
                    Cartesian Multipole Moments
 -----------------------------------------------------------------
    Charge (ESU x 10^10)
                 0.0000
    Dipole Moment (Debye)
         X      -9.2678      Y       5.3509      Z       0.9700
       Tot      10.7455
    Quadrupole Moments (Debye-Ang)
        XX     -34.8918     XY       6.8701     YY     -41.0007
        XZ      -2.0854     YZ       2.4129     ZZ     -33.2482
    Octopole Moments (Debye-Ang^2)
       XXX    -100.7030    XXY      22.0226    XYY     -26.0187
       YYY      53.6967    XXZ     -12.0557    XYZ      -1.2906
       YYZ      -8.3473    XZZ     -17.7056    YZZ      12.5734
       ZZZ     -32.0133
    Hexadecapole Moments (Debye-Ang^3)
      XXXX    -396.7871   XXXY      43.9007   XXYY    -112.5771
      XYYY      46.4225   YYYY    -260.8535   XXXZ     -40.7578
      XXYZ       4.9677   XYYZ      -6.7000   YYYZ      -2.0974
      XXZZ     -73.7286   XYZZ       6.8141   YYZZ     -48.3902
      XZZZ     -27.3692   YZZZ      -8.7936   ZZZZ     -63.1567
 -----------------------------------------------------------------
 Calculating analytic gradient of the SCF energy
 Gradient of CDS energy
            1           2           3           4           5           6
    1   0.0012806  -0.0040920   0.0022641   0.0047551  -0.0029615  -0.0007254
    2  -0.0031922   0.0003432   0.0028272   0.0022647  -0.0043262   0.0016005
    3  -0.0004987  -0.0003057   0.0007173   0.0009357  -0.0013048   0.0003337
            7           8           9
    1  -0.0002774  -0.0003478   0.0001042
    2   0.0002934  -0.0001809   0.0003704
    3   0.0001456  -0.0001370   0.0001138
 Gradient of SCF Energy
            1           2           3           4           5           6
    1   0.0290490   0.0001495   0.0303664   0.0028408   0.0103980  -0.0005301
    2   0.0032275   0.0033023  -0.0164381  -0.0040718  -0.0137812   0.0035231
    3  -0.0074453   0.0008915   0.0030131  -0.0001157  -0.0033494   0.0006754
            7           8           9
    1  -0.0333691  -0.0297500  -0.0091545
    2   0.0011353   0.0115318   0.0115712
    3   0.0065926  -0.0033980   0.0031358
 Max gradient component =       3.337E-02
 RMS gradient           =       1.345E-02
 Computing fast CPCM-SWIG gradient
 Updating gradient with PCM contributions...
 -- total gradient after adding PCM contribution --
---------------------------------------------------
  Atom         X              Y              Z     
---------------------------------------------------
   1      -0.000143       0.000745       0.000047
   2       0.000164      -0.000526      -0.000001
   3      -0.000007      -0.000148      -0.000057
   4      -0.000067       0.000083       0.000003
   5       0.000018      -0.000012      -0.000028
   6       0.000042      -0.000105      -0.000029
   7       0.000007      -0.000063       0.000025
   8      -0.000020       0.000008       0.000085
   9       0.000006       0.000017      -0.000047
---------------------------------------------------
 Number of fixed atoms: 0
 Gradient time:  CPU 59.49 s  wall 8.68 s
 ----------------------------------------------------------------
             Standard Nuclear Orientation (Angstroms)
    I     Atom           X                Y                Z
 ----------------------------------------------------------------
    1      O      -0.7265937369     0.9831477964     0.4577690803
    2      C      -0.2402478792    -0.2480819922     0.2787714565
    3      O      -1.0332743381    -1.2873550349     0.0253175921
    4      C       1.1606206866    -0.4586142849     0.3412688524
    5      O       1.9284314593     0.6167230263     0.6653942023
    6      O       1.7012960441    -1.5446342061     0.1197841305
    7      H      -1.6551020347     0.9778739983     0.7336224659
    8      H      -1.9370777822    -1.0038659970    -0.1746886398
    9      H       1.3743443810     1.3906540943     0.8401361600
 ----------------------------------------------------------------
 Nuclear Repulsion Energy =         241.66411148 hartrees
 There are       24 alpha and       23 beta electrons
 Discretize the solute cavity surface with Lebedev spheres
	Using 110 Lebedev grid points for each H atom
	Using 194 Lebedev grid points for other atoms
	Atomic van der Waals radii will be scaled by 1.20
 Remove points where switching function is < 1.0e-08
 Keep 817 surface tesserae and discard 677 interior tesserae
 Molecular Surface Area = 98.009 Angst**2

                       Distance Matrix (Angstroms)
             O (  1)   C (  2)   O (  3)   C (  4)   O (  5)   O (  6)
   C (  2)  1.335852
   O (  3)  2.331577  1.331622
   C (  4)  2.377778  1.417978  2.366392
   O (  5)  2.688221  2.366545  3.578675  1.360493
   O (  6)  3.521160  2.340068  2.748271  1.233217  2.240702
   H (  7)  0.968633  1.926569  2.453493  3.185237  3.602332  4.243260
   H (  8)  2.411120  1.912085  0.968106  3.187357  4.274834  3.690110
   H (  9)  2.173984  2.368015  3.692193  1.927262  0.967738  3.040020
             H (  7)   H (  8)
   H (  8)  2.198143
   H (  9)  3.059294  4.210595
 
 Requested basis set is 6-311++G(2df,2p)
 There are 66 shells and 234 basis functions
 A cutoff of  1.0D-12 yielded   2086 shell pairs
 There are     26517 function pairs (     33760 Cartesian)
 Smallest overlap matrix eigenvalue = 4.57E-05
 Guess MOs from SCF MO coefficient file

 -----------------------------------------------------------------------
  General SCF calculation program by
  Eric Jon Sundstrom, Paul Horn, Yuezhi Mao, Dmitri Zuev, Alec White,
  David Stuck, Shaama M.S., Shane Yost, Joonho Lee, David Small,
  Daniel Levine, Susi Lehtola, Hugh Burton, Evgeny Epifanovsky,
  Bang C. Huynh
 -----------------------------------------------------------------------
 Exchange:     0.1500 Hartree-Fock + 1.0000 wB97M-V + LR-HF
 Correlation:  1.0000 wB97M-V
 Using SG-2 standard quadrature grid
 Nonlocal Correlation:  VV10 with C = 0.0100 and b = 6.00 and scale = 1.00000
 Grid used for NLC:  SG-1 standard quadrature
 
 Citation of the SMD model:
 Marenich, A.V.; Cramer, C.J.; Truhlar, D.G.
 J. Phys. Chem. B 2009, 113, 6378-6396.
 iSolventCode=           1
 Solvent: water                                                           
 
 vradii
            1           2           3           4           5           6
    1   1.5200000   1.8500000   1.5200000   1.8500000   1.5200000   1.5200000
            7           8           9
    1   1.2000000   1.2000000   1.2000000
 -------------------------------------------------------
 OpenMP BLAS3 based DFT computing Module                
 Release: version 1.0, May 2013, Q-Chem Inc. Pittsburgh 
 -------------------------------------------------------
 A unrestricted SCF calculation will be
 performed using Roothaan-Hall, DIIS, GDM
 SCF converges when RMS gradient is below 1.0e-07
 ---------------------------------------
  Cycle       Energy         DIIS error
 ---------------------------------------
    1    -378.8781951914      5.34e-04  Roothaan Step
 ---------------------------------------
  Cycle       Energy         DIIS error
 ---------------------------------------
    1    -378.9242831811      6.44e-04  
    2    -378.9333761654      6.57e-04  Done DIIS. Switching to GDM
 ---------------------------------------
  Cycle       Energy        RMS Gradient
 ---------------------------------------
    1    -378.9333761654      2.70e-02   Normal BFGS step
    2    -378.9303903982      5.00e-02  Line search: overstep
    3    -378.9408565943      8.04e-03   Normal BFGS step
    4    -378.9412825440      7.03e-03   Normal BFGS step
    5    -378.9413819545      1.78e-03   Normal BFGS step
    6    -378.9414041005      7.49e-04   Normal BFGS step
    7    -378.9414096813      7.89e-04   Normal BFGS step
    8    -378.9414109921      8.63e-05   Normal BFGS step
    9    -378.9414110974      4.79e-05   Normal BFGS step
   10    -378.9414111121      2.60e-05   Normal BFGS step
   11    -378.9414111154      1.12e-05   Normal BFGS step
   12    -378.9414111162      7.06e-06   Normal BFGS step
   13    -378.9414111163      3.69e-06   Normal BFGS step
   14    -378.9414111164      9.74e-07   Normal BFGS step
   15    -378.9414111164      3.29e-07   Normal BFGS step
   16    -378.9414111164      1.15e-07   Normal BFGS step
   17    -378.9414111164      5.32e-08  Convergence criterion met
 ---------------------------------------
 SCF time:   CPU 413.32s  wall 53.00s 
<S^2> =          0.753904585
(3)  G-ENP(liq) elect-nuc-pol free energy of system     -378.941411116 a.u.
(4)  G-CDS(liq) cavity-dispersion-solvent structure 
     free energy                                                5.2075 kcal/mol
(6)  G-S(liq) free energy of system                     -378.933112468 a.u.
 SCF   energy in the final basis set =     -378.9331124680
 Total energy in the final basis set =     -378.9331124680
 
 --------------------------------------------------------------
 
                    Orbital Energies (a.u.)
 --------------------------------------------------------------
 
 Alpha MOs
 -- Occupied --
-19.3977 -19.3963 -19.3753 -19.3216 -10.4860 -10.4785  -1.2708  -1.2254
 -1.1964  -1.1459  -0.8770  -0.7348  -0.7248  -0.6843  -0.6145  -0.5922
 -0.5693  -0.5431  -0.5212  -0.4963  -0.4879  -0.4422  -0.4077  -0.2783
 -- Virtual --
  0.0253   0.0468   0.0590   0.0825   0.0893   0.1029   0.1129   0.1151
  0.1428   0.1471   0.1512   0.1601   0.2083   0.2159   0.2208   0.2441
  0.2649   0.2668   0.2843   0.2964   0.3020   0.3037   0.3151   0.3222
  0.3250   0.3331   0.3372   0.3548   0.3591   0.3844   0.4008   0.4235
  0.4344   0.4370   0.5225   0.5783   0.5914   0.6085   0.6169   0.6561
  0.6621   0.6872   0.6957   0.7259   0.7487   0.7741   0.8130   0.8281
  0.8414   0.8811   0.8955   0.9086   0.9326   0.9817   1.0343   1.0616
  1.0784   1.0986   1.1060   1.1132   1.1296   1.1463   1.1511   1.1586
  1.1914   1.2093   1.2438   1.2581   1.2691   1.3550   1.3928   1.3946
  1.4418   1.4912   1.5035   1.5251   1.6043   1.6441   1.6676   1.6852
  1.7127   1.7466   1.8095   1.8428   1.8761   1.9157   1.9349   1.9847
  1.9903   2.0811   2.1695   2.2479   2.2635   2.3357   2.3706   2.3965
  2.4240   2.4463   2.5585   2.5951   2.6010   2.6499   2.7107   2.7606
  2.8074   2.8539   2.8578   2.8940   2.9732   3.1066   3.1186   3.1664
  3.2501   3.2734   3.2808   3.3166   3.3477   3.4070   3.4119   3.4507
  3.5302   3.5416   3.5588   3.5725   3.6493   3.7035   3.7232   3.7584
  3.7906   3.8278   3.8473   3.9261   3.9842   4.0503   4.0903   4.2061
  4.2294   4.2751   4.3046   4.3229   4.3528   4.4176   4.5178   4.8873
  5.1200   5.1284   5.1505   5.1579   5.1739   5.1831   5.2131   5.2223
  5.2387   5.2564   5.2749   5.2944   5.3256   5.3712   5.4776   5.5012
  5.5154   5.5258   5.5778   5.6041   5.6444   5.6718   5.6946   5.7118
  5.8276   5.8779   5.9407   5.9743   6.0741   6.1240   6.3743   6.4270
  6.6392   6.8165   6.8515   6.9308   6.9839   7.0071   7.0307   7.0688
  7.1298   7.2133   7.2156   7.2379   7.2491   7.2868   7.3070   7.3698
  7.3963   7.4112   7.4514   7.4965   7.5432   7.6367   7.7011   7.7721
  7.8063   7.8514   7.9248   7.9615  24.8672  25.2330  50.5326  50.5769
 50.6211  50.7417
 
 Beta MOs
 -- Occupied --
-19.3947 -19.3930 -19.3742 -19.3165 -10.4777 -10.4771  -1.2628  -1.2210
 -1.1893  -1.1387  -0.8586  -0.7304  -0.7187  -0.6780  -0.5904  -0.5844
 -0.5625  -0.5264  -0.5158  -0.4911  -0.4628  -0.4186  -0.4007
 -- Virtual --
 -0.0012   0.0252   0.0469   0.0589   0.0826   0.0895   0.1030   0.1127
  0.1157   0.1471   0.1511   0.1607   0.1885   0.2104   0.2178   0.2235
  0.2455   0.2654   0.2673   0.2854   0.2977   0.3027   0.3051   0.3225
  0.3255   0.3267   0.3348   0.3414   0.3570   0.3618   0.3874   0.4026
  0.4285   0.4368   0.4443   0.5267   0.5812   0.5946   0.6115   0.6238
  0.6648   0.6681   0.6949   0.7058   0.7356   0.7558   0.7772   0.8139
  0.8347   0.8479   0.8843   0.8961   0.9137   0.9392   0.9831   1.0385
  1.0641   1.0861   1.1012   1.1099   1.1157   1.1344   1.1481   1.1561
  1.1656   1.1944   1.2154   1.2479   1.2607   1.2765   1.3587   1.3985
  1.4011   1.4453   1.4953   1.5077   1.5294   1.6092   1.6464   1.6745
  1.6918   1.7179   1.7535   1.8184   1.8472   1.8841   1.9209   1.9439
  1.9934   1.9982   2.0874   2.1757   2.2524   2.2712   2.3395   2.3758
  2.4048   2.4301   2.4519   2.5637   2.6006   2.6098   2.6611   2.7317
  2.7798   2.8479   2.8619   2.8952   2.9098   2.9881   3.1278   3.1415
  3.1783   3.2636   3.2879   3.2944   3.3430   3.3686   3.4263   3.4339
  3.4705   3.5570   3.5638   3.5782   3.6008   3.6641   3.7162   3.7392
  3.7658   3.7988   3.8389   3.8541   3.9327   3.9907   4.0541   4.0959
  4.2136   4.2347   4.2934   4.3255   4.3453   4.3611   4.4228   4.5273
  4.9167   5.1302   5.1385   5.1619   5.1738   5.1868   5.1972   5.2223
  5.2346   5.2454   5.2711   5.2835   5.3004   5.3345   5.3767   5.4840
  5.5065   5.5248   5.5325   5.5857   5.6106   5.6524   5.6789   5.7007
  5.7182   5.8352   5.8877   5.9499   5.9879   6.0769   6.1361   6.3889
  6.4320   6.6462   6.8227   6.8588   6.9519   6.9994   7.0245   7.0389
  7.0817   7.1384   7.2230   7.2264   7.2459   7.2594   7.2951   7.3177
  7.3758   7.4099   7.4222   7.4618   7.5012   7.5501   7.6426   7.7070
  7.7762   7.8132   7.8561   7.9294   7.9663  24.8717  25.2376  50.5347
 50.5796  50.6229  50.7454
 --------------------------------------------------------------
 
          Ground-State Mulliken Net Atomic Charges

     Atom                 Charge (a.u.)    Spin (a.u.)
  --------------------------------------------------------
      1 O                    -0.352003       0.078912
      2 C                     0.367254       0.500968
      3 O                    -0.335740       0.089255
      4 C                     0.189955       0.115307
      5 O                    -0.372550       0.034013
      6 O                    -0.561835       0.178336
      7 H                     0.373324       0.003898
      8 H                     0.365966       0.000760
      9 H                     0.325628      -0.001449
  --------------------------------------------------------
  Sum of atomic charges =     0.000000
  Sum of spin   charges =     1.000000

 -----------------------------------------------------------------
                    Cartesian Multipole Moments
 -----------------------------------------------------------------
    Charge (ESU x 10^10)
                 0.0000
    Dipole Moment (Debye)
         X      -9.2755      Y       5.3651      Z       0.9720
       Tot      10.7593
    Quadrupole Moments (Debye-Ang)
        XX     -34.8971     XY       6.8619     YY     -40.9978
        XZ      -2.0896     YZ       2.4169     ZZ     -33.2449
    Octopole Moments (Debye-Ang^2)
       XXX    -100.7341    XXY      22.0586    XYY     -26.0375
       YYY      53.7787    XXZ     -12.0542    XYZ      -1.2942
       YYZ      -8.3413    XZZ     -17.7147    YZZ      12.5951
       ZZZ     -32.0066
    Hexadecapole Moments (Debye-Ang^3)
      XXXX    -396.8334   XXXY      43.8649   XXYY    -112.5718
      XYYY      46.3812   YYYY    -260.7401   XXXZ     -40.7728
      XXYZ       4.9775   XYYZ      -6.7088   YYYZ      -2.0700
      XXZZ     -73.7325   XYZZ       6.8008   YYZZ     -48.3659
      XZZZ     -27.3797   YZZZ      -8.7707   ZZZZ     -63.1480
 -----------------------------------------------------------------
 Calculating analytic gradient of the SCF energy
 Gradient of CDS energy
            1           2           3           4           5           6
    1   0.0012555  -0.0040684   0.0022641   0.0047551  -0.0029615  -0.0007254
    2  -0.0031240   0.0002779   0.0028272   0.0022647  -0.0043263   0.0016005
    3  -0.0004903  -0.0003139   0.0007173   0.0009357  -0.0013047   0.0003337
            7           8           9
    1  -0.0002770  -0.0003478   0.0001053
    2   0.0002914  -0.0001811   0.0003697
    3   0.0001453  -0.0001369   0.0001138
 Gradient of SCF Energy
            1           2           3           4           5           6
    1   0.0293925  -0.0001206   0.0303843   0.0029386   0.0103850  -0.0005987
    2   0.0016423   0.0043477  -0.0162098  -0.0040587  -0.0138483   0.0036119
    3  -0.0076268   0.0009903   0.0030580  -0.0001078  -0.0033697   0.0006986
            7           8           9
    1  -0.0334350  -0.0297678  -0.0091783
    2   0.0013868   0.0115382   0.0115900
    3   0.0066172  -0.0034010   0.0031412
 Max gradient component =       3.343E-02
 RMS gradient           =       1.349E-02
 Computing fast CPCM-SWIG gradient
 Updating gradient with PCM contributions...
 -- total gradient after adding PCM contribution --
---------------------------------------------------
  Atom         X              Y              Z     
---------------------------------------------------
   1       0.000160      -0.000691      -0.000130
   2      -0.000136       0.000499       0.000106
   3       0.000005       0.000088      -0.000013
   4       0.000046       0.000086       0.000008
   5      -0.000007      -0.000063      -0.000045
   6      -0.000024      -0.000014      -0.000004
   7      -0.000000       0.000078       0.000041
   8      -0.000044      -0.000001       0.000078
   9       0.000001       0.000019      -0.000043
---------------------------------------------------
 Number of fixed atoms: 0
 Gradient time:  CPU 60.87 s  wall 9.08 s
 ----------------------------------------------------------------
             Standard Nuclear Orientation (Angstroms)
    I     Atom           X                Y                Z
 ----------------------------------------------------------------
    1      O      -0.7265937369     0.9841477964     0.4587690803
[...]
     3    3.157937205642283e-03   5.094462124348956e-03  -7.964626614236142e-04
     4    3.424360506087007e-02  -7.585735502833522e-02  -7.738289294329467e-02
     5    2.925350615392956e-03  -2.536944886695970e-02   3.823976137504401e-03
     6   -4.072509954739399e-02   1.086489429487248e-01   5.293000062449287e-02
     7   -7.524820983337592e-04   5.832155707663196e-04   5.230845019248628e-04
     8   -5.739092714796022e-04   2.255221095455533e-04   1.176340020154259e-05
     9   -2.040885731923622e-03  -2.195984159237809e-03   4.606691363043669e-03


     7 Order 1, Length 27
    Atom      X          Y          Z
     1   -4.553340606942468e-01   1.942419210870747e-03   1.344474828691212e-01
     2   -1.349351257755917e-02   7.250312702212876e-03   1.757714366213763e-03
     3    4.232544538819207e-04  -4.783492284200377e-03  -9.973705301427162e-04
     4   -4.026776640102587e-03   1.706186004588074e-03   1.441269167112169e-03
     5    1.661890006239323e-03   1.597294963847688e-03   4.988228619491914e-04
     6    2.132203752753269e-03  -2.998134970089551e-03  -7.524820983337592e-04
     7    4.674846971669395e-01  -3.685479582299093e-03  -1.359330587763631e-01
     8    1.252821669570765e-03  -1.002877207336474e-03  -4.559942045923924e-04
     9   -1.005173758343480e-04  -2.621358090957724e-05  -6.395253102576155e-06

Order 1, Length 27
    Atom      X          Y          Z
     1   -4.455004766480422e-02  -3.725381471928574e-02   8.777347402466084e-03
     2    4.980461852671064e-02  -1.073566659415033e-02  -1.239202374838569e-02
     3   -1.064394890790998e-03   4.089984406677377e-03   1.633167395924408e-03
     4   -8.346634140446757e-04  -5.391128944934946e-03  -2.080436384162810e-03
     5   -1.182305661535976e-03   6.550790441355429e-04  -1.012495027187782e-04
     6    1.482232719069312e-03  -2.791666229278658e-05   5.832155707663196e-04
     7   -3.685479582299093e-03   5.253938796292336e-02   6.427883677602188e-03
     8   -1.594240775322934e-03  -4.144872759153570e-03  -3.429750664336681e-03
     9    1.624294304782184e-03   2.689435694554855e-04   5.818460697291073e-04

Order 1, Length 27
    Atom      X          Y          Z
     1    1.342817332088976e-01  -4.367380683369919e-03  -3.995348117311656e-02
     2    5.452731829669383e-03  -2.481551683345802e-03  -2.484416673029963e-03
     3   -7.950705519103225e-04   2.024318723815522e-03  -4.752122279725843e-04
     4   -3.548355504139516e-03   1.686719333599099e-03   5.322410134730282e-04
     5   -4.499878144093387e-04   1.697919459943476e-03   1.981858023618540e-04
     6    1.976276318934575e-04  -1.660936287899532e-03   5.230845019248628e-04
     7   -1.359330587763631e-01   6.427883677602188e-03   4.228089895873147e-02
     8   -6.097115976486929e-04  -3.717195400990140e-03  -6.761906232498144e-04
     9    1.404128506144690e-03   3.902079091070163e-04   5.487428372883878e-05


     8 Order 1, Length 27
    Atom      X          Y          Z
     1    2.840791842410307e-03   6.141977807908559e-03   1.678983195179923e-03
     2   -3.049100872579348e-02  -7.169772711976048e-04  -5.273193781152543e-03
     3   -4.279072711340074e-01   1.160209321167649e-01  -9.557000602746907e-02
     4   -4.322135773304800e-03  -1.575125889314017e-04  -1.151595153692956e-03
     5    1.102058789209171e-03   1.734709439554839e-03   5.428024156590573e-04
     6    2.575061607397408e-03  -3.187748261723969e-03  -5.739092714796022e-04
     7    1.252821669570765e-03  -1.594240775322934e-03  -6.097115976486929e-04
     8    4.549906134281494e-01  -1.180528184811064e-01   1.010254692352049e-01
     9   -4.095695616982209e-05  -1.883439343218535e-04  -6.882779925577201e-05

Order 1, Length 27
    Atom      X          Y          Z
     1    1.747930413565883e-03   2.296757353694777e-03   1.557043697377172e-03
     2   -4.544465523863842e-02   4.317744498464459e-03  -8.564272742425256e-03
     3    1.640913709137802e-01  -8.586932997692184e-02   3.343952675096713e-02
     4    2.057184157867522e-04  -4.855364235333001e-03  -1.396841881975588e-03
     5   -1.878835266262638e-03  -5.901632433087039e-04  -1.868306579907940e-04
     6    5.675805016089840e-04   8.546628717910063e-04   2.255221095455533e-04
     7   -1.002877207336474e-03  -4.144872759153570e-03  -3.717195400990140e-03
     8   -1.180528184811064e-01   8.770994361990066e-02  -2.140098790013508e-02
     9   -2.334077732901135e-04   2.806495028537082e-04   4.402327537236950e-05

Order 1, Length 27
    Atom      X          Y          Z
     1    1.130646198043031e-03   1.872893198961663e-03  -4.684597395985317e-04
     2   -9.811051223415690e-03   6.006620555835610e-04  -4.550840211564629e-03
     3   -9.344189170019973e-02   2.264605222750578e-02  -2.143452354754447e-02
     4    1.593630613211513e-03  -6.482576239973700e-04   5.819792589086465e-04
     5   -6.638265941117511e-05  -6.766688838929504e-04   1.106140167262533e-03
     6    1.788006299223454e-04   1.041193529777760e-03   1.176340020154259e-05
     7   -4.559942045923924e-04  -3.429750664336681e-03  -6.761906232498144e-04
     8    1.010254692352049e-01  -2.140098790013508e-02   2.553828116140190e-02
     9   -1.532498712963411e-04  -5.143100786894543e-06  -1.081670500547093e-04


     9 Order 1, Length 27
    Atom      X          Y          Z
     1    2.883564207138492e-04   1.365792059486660e-03  -1.475311731140972e-03
     2   -1.851340419801721e-03  -6.906417763523017e-03  -1.804832846223000e-03
     3   -3.260858203732136e-04   4.642506628614027e-04   3.419842125653642e-05
     4    1.947553887290242e-02  -1.889954137295798e-02  -3.299700417104427e-03
     5   -2.068033852143017e-01   2.347849768782258e-01   5.045959779245039e-02
     6   -2.204695863006033e-03  -6.897069103794716e-03  -2.040885731923622e-03
     7   -1.005173758343480e-04   1.624294304782184e-03   1.404128506144690e-03
     8   -4.095695616982209e-05  -2.334077732901135e-04  -1.532498712963411e-04
     9    1.915631676883854e-01  -2.053028626370404e-01  -4.312394867386203e-02

Order 1, Length 27
    Atom      X          Y          Z
     1    2.089311942528499e-03  -5.851397527768082e-04  -3.563605285162716e-04
     2   -3.244463354751172e-03  -8.353318259689453e-04  -5.486953769871939e-04
     3    3.188071724485786e-03   1.020076099391404e-03   7.184448818906568e-04
     4    1.900392177401218e-02  -3.431315703789133e-02  -6.072035640175452e-03
     5    1.893300148927300e-01  -3.189610940822044e-01  -7.245250236178497e-02
     6   -4.849420081772761e-03  -1.589946058198277e-03  -2.195984159237809e-03
     7   -2.621358090957724e-05   2.689435694554855e-04   3.902079091070163e-04
     8   -1.883439343218535e-04   2.806495028537082e-04  -5.143100786894543e-06
     9   -2.053028626370404e-01   3.547150147625199e-01   8.052207859130875e-02

Order 1, Length 27
    Atom      X          Y          Z
     1    1.514418953333299e-05  -8.247453276226859e-04  -6.956124975333496e-04
     2   -1.254794249000440e-03  -9.714775718700400e-04   1.002724281642616e-03
     3    8.655532314677933e-04   4.417230185299237e-04  -3.562260752347022e-04
     4    7.010650948281991e-03  -8.025555569122270e-03  -7.528006102701871e-03
     5    3.834255292636521e-02  -6.999184140491381e-02  -2.317873545314881e-02
     6   -1.779935597845558e-03  -1.776049479720237e-03   4.606691363043669e-03
     7   -6.395253102576155e-06   5.818460697291073e-04   5.487428372883878e-05
     8   -6.882779925577201e-05   4.402327537236950e-05  -1.081670500547093e-04
     9   -4.312394867386203e-02   8.052207859130875e-02   2.620243103823740e-02




 # Finishing finite difference calculation for IDERIV #
 ######################################################
 ######################################################
 Requested basis set is 6-311++G(2df,2p)
 There are 66 shells and 234 basis functions
 **********************************************************************
 **                                                                  **
 **                       VIBRATIONAL ANALYSIS                       **
 **                       --------------------                       **
 **                                                                  **
 **        VIBRATIONAL FREQUENCIES (CM**-1) AND NORMAL MODES         **
 **     FORCE CONSTANTS (mDYN/ANGSTROM) AND REDUCED MASSES (AMU)     **
 **                  INFRARED INTENSITIES (KM/MOL)                   **
 **                                                                  **
 **********************************************************************
 

 Mode:                 1                      2                      3
 Frequency:       138.55                 186.98                 237.28
 Force Cnst:      0.1033                 0.0231                 0.0397
 Red. Mass:       9.1374                 1.1235                 1.1962
 IR Active:          YES                    YES                    YES
 IR Intens:        6.741                174.699                331.143
 Raman Active:       YES                    YES                    YES
               X      Y      Z        X      Y      Z        X      Y      Z
 O          0.022  0.060 -0.365   -0.055 -0.008 -0.044    0.025  0.013 -0.058
 C          0.005 -0.000 -0.013    0.015  0.009 -0.022   -0.006 -0.017  0.045
 O         -0.045 -0.056  0.376   -0.012  0.022  0.001    0.011  0.001 -0.070
 C          0.010  0.000 -0.031    0.020 -0.003 -0.002   -0.006 -0.012  0.015
 O         -0.037 -0.082  0.344    0.014 -0.006 -0.007   -0.030  0.006  0.015
 O          0.044  0.085 -0.349    0.008 -0.008  0.028    0.013  0.002 -0.009
 H          0.112  0.112 -0.055    0.223 -0.169  0.909    0.126  0.081  0.284
 H          0.063 -0.046 -0.108    0.075  0.122 -0.259   -0.221 -0.051  0.909
 H         -0.087 -0.176  0.611    0.001 -0.011 -0.022   -0.061 -0.023  0.046
 TransDip   0.039 -0.026  0.069    0.310 -0.085  0.276   -0.111 -0.052  0.570

 Mode:                 4                      5                      6
 Frequency:       250.62                 352.18                 436.04
 Force Cnst:      0.2291                 0.4634                 0.3916
 Red. Mass:       6.1907                 6.3416                 3.4958
 IR Active:          YES                    YES                    YES
 IR Intens:       13.409                  7.334                 26.794
 Raman Active:       YES                    YES                    YES
               X      Y      Z        X      Y      Z        X      Y      Z
 O          0.288 -0.025  0.050   -0.003  0.001 -0.160    0.159  0.068  0.019
 C         -0.000 -0.134 -0.035   -0.042 -0.120  0.568    0.038  0.025 -0.006
 O         -0.267  0.069  0.012   -0.010  0.022 -0.144    0.207 -0.084  0.004
 C          0.005 -0.112 -0.024   -0.006 -0.033  0.202   -0.047 -0.002  0.017
 O         -0.274  0.100 -0.032    0.039  0.027 -0.113   -0.164  0.086 -0.054
 O          0.269  0.012  0.033   -0.003  0.039 -0.115   -0.200 -0.069 -0.014
 H          0.294  0.182  0.072    0.015  0.190 -0.092    0.222  0.141  0.240
 H         -0.103  0.345 -0.350    0.162  0.217 -0.650    0.223 -0.224 -0.266
 H         -0.513 -0.072 -0.015    0.048  0.008  0.003   -0.362 -0.199  0.603
 TransDip  -0.083 -0.017 -0.082    0.071  0.040  0.030   -0.006 -0.066  0.152

 Mode:                 7                      8                      9
 Frequency:       450.65                 563.42                 613.73
 Force Cnst:      0.1534                 1.5132                 1.1248
 Red. Mass:       1.2820                 8.0905                 5.0683
 IR Active:          YES                    YES                    YES
 IR Intens:      163.655                 13.552                  4.357
 Raman Active:       YES                    YES                    YES
               X      Y      Z        X      Y      Z        X      Y      Z
 O         -0.050 -0.013 -0.004    0.255 -0.188 -0.019    0.057  0.231  0.044
 C         -0.004  0.006 -0.028   -0.052 -0.199 -0.091   -0.207  0.040 -0.010
 O         -0.044  0.026 -0.003   -0.234 -0.202 -0.049    0.016 -0.219 -0.039
 C          0.011 -0.011  0.030   -0.034  0.237  0.024   -0.159  0.009 -0.008
 O          0.049  0.003 -0.079    0.261  0.160  0.060    0.022 -0.222 -0.057
 O          0.046  0.005  0.027   -0.255  0.175  0.033    0.153  0.177  0.059
 H         -0.073 -0.064 -0.084    0.326  0.126  0.215    0.120  0.455  0.279
 H         -0.049  0.051  0.055   -0.164  0.047 -0.044   -0.030 -0.495 -0.235
 H          0.016 -0.251  0.945    0.436  0.251  0.216    0.323 -0.040  0.060
 TransDip  -0.028 -0.123  0.390    0.075  0.075  0.052   -0.052  0.035  0.025

 Mode:                10                     11                     12
 Frequency:       685.88                 820.28                1050.94
 Force Cnst:      2.5905                 3.6023                 3.3518
 Red. Mass:       9.3461                 9.0868                 5.1509
 IR Active:          YES                    YES                    YES
 IR Intens:        8.438                 49.700                662.438
 Raman Active:       YES                    YES                    YES
               X      Y      Z        X      Y      Z        X      Y      Z
 O          0.010 -0.001  0.020   -0.118  0.321  0.053   -0.052  0.151  0.023
 C          0.023  0.059 -0.322   -0.103  0.016 -0.005    0.239 -0.044  0.005
 O         -0.002 -0.002  0.025   -0.166 -0.254 -0.061   -0.116 -0.170 -0.032
 C         -0.063 -0.170  0.729    0.239 -0.152 -0.012    0.306  0.179  0.069
 O          0.014  0.033 -0.122    0.174  0.341  0.097   -0.125 -0.177 -0.054
 O          0.006  0.056 -0.208    0.049 -0.305 -0.072   -0.095  0.094  0.014
 H          0.017 -0.112  0.052   -0.116  0.341  0.093   -0.098 -0.283 -0.136
 H         -0.039 -0.078  0.088   -0.185 -0.339 -0.128    0.076  0.594  0.137
 H          0.071  0.148 -0.455   -0.359  0.013 -0.059   -0.308 -0.288 -0.098
 TransDip  -0.011 -0.044  0.081    0.068 -0.209 -0.052    0.792  0.206  0.100

 Mode:                13                     14                     15
 Frequency:      1180.05                1229.30                1290.35
 Force Cnst:      0.9286                 1.1398                 1.8637
 Red. Mass:       1.1318                 1.2802                 1.8998
 IR Active:          YES                    YES                    YES
 IR Intens:      251.254                143.070                680.856
 Raman Active:       YES                    YES                    YES
               X      Y      Z        X      Y      Z        X      Y      Z
 O         -0.041 -0.054  0.010   -0.008  0.046  0.005   -0.003 -0.071 -0.005
 C         -0.029 -0.004 -0.034    0.045 -0.019 -0.004   -0.011  0.080  0.010
 O          0.034 -0.015  0.009    0.013 -0.057 -0.001   -0.036  0.017 -0.006
 C          0.012  0.010  0.006   -0.079 -0.031 -0.015    0.141  0.126  0.040
 O          0.016 -0.007 -0.001   -0.047  0.032  0.006   -0.103 -0.032 -0.016
 O          0.005 -0.003  0.000    0.019 -0.041 -0.009    0.018 -0.088 -0.019
 H         -0.025  0.827  0.051   -0.019 -0.110 -0.024    0.027  0.424  0.078
 H          0.174  0.476  0.042    0.179  0.575  0.094   -0.163 -0.487 -0.099
 H         -0.168 -0.123 -0.038    0.609  0.445  0.160    0.549  0.381  0.149
 TransDip  -0.108  0.493  0.056    0.256  0.275  0.077    0.231  0.775  0.213

 Mode:                16                     17                     18
 Frequency:      1368.61                1546.53                1738.61
 Force Cnst:      8.9577                 5.3493                11.8364
 Red. Mass:       8.1169                 3.7960                 6.6461
 IR Active:          YES                    YES                    YES
 IR Intens:      351.261                459.080                267.823
 Raman Active:       YES                    YES                    YES
               X      Y      Z        X      Y      Z        X      Y      Z
 O          0.089 -0.207 -0.034    0.067  0.002 -0.008    0.058 -0.038 -0.008
 C          0.062  0.666  0.130   -0.297 -0.003 -0.016   -0.401  0.055 -0.018
 O         -0.115 -0.235 -0.047    0.059 -0.003  0.010    0.078  0.023  0.015
 C         -0.084 -0.076 -0.022   -0.002  0.304  0.074    0.406 -0.309 -0.045
 O          0.020  0.011  0.004    0.014 -0.031 -0.007   -0.059  0.005 -0.003
 O          0.035 -0.004  0.001    0.085 -0.177 -0.037   -0.116  0.184  0.036
 H          0.076 -0.303 -0.065    0.041 -0.601 -0.068    0.041 -0.356 -0.070
 H          0.044  0.392  0.055    0.180  0.505  0.098    0.174  0.395  0.093
 H         -0.304 -0.198 -0.078   -0.248 -0.185 -0.066    0.346  0.235  0.084
 TransDip   0.023  0.590  0.108   -0.413  0.538  0.100    0.395 -0.339 -0.058

 Mode:                19                     20                     21
 Frequency:      3756.08                3769.16                3773.06
 Force Cnst:      8.8668                 8.9190                 8.9434
 Red. Mass:       1.0667                 1.0656                 1.0663
 IR Active:          YES                    YES                    YES
 IR Intens:      221.019                164.755                495.791
 Raman Active:       YES                    YES                    YES
               X      Y      Z        X      Y      Z        X      Y      Z
 O         -0.059  0.001  0.017   -0.007  0.000  0.002   -0.011  0.001  0.003
 C         -0.000  0.000  0.000   -0.001  0.001  0.000   -0.001  0.000 -0.000
 O          0.013 -0.004  0.003   -0.021  0.006 -0.005   -0.053  0.015 -0.012
 C         -0.001 -0.000  0.000    0.000 -0.002 -0.000   -0.001  0.001  0.000
 O         -0.001  0.002  0.001    0.032 -0.047 -0.011   -0.013  0.019  0.004
 O          0.000 -0.000 -0.000   -0.000  0.001  0.000    0.001 -0.001 -0.000
 H          0.932 -0.005 -0.273    0.117 -0.003 -0.035    0.186 -0.002 -0.053
 H         -0.210  0.063 -0.047    0.337 -0.099  0.074    0.848 -0.252  0.187
 H          0.022 -0.034 -0.008   -0.512  0.750  0.169    0.208 -0.306 -0.069
 TransDip   0.400 -0.183 -0.182    0.125  0.372  0.124    0.685 -0.193  0.050

 STANDARD THERMODYNAMIC QUANTITIES AT   298.15 K  AND     1.00 ATM

   This Molecule has  0 Imaginary Frequencies
   Zero point vibrational energy:       36.366 kcal/mol

   Atom    1 Element O  Has Mass   15.99491
   Atom    2 Element C  Has Mass   12.00000
   Atom    3 Element O  Has Mass   15.99491
   Atom    4 Element C  Has Mass   12.00000
   Atom    5 Element O  Has Mass   15.99491
   Atom    6 Element O  Has Mass   15.99491
   Atom    7 Element H  Has Mass    1.00783
   Atom    8 Element H  Has Mass    1.00783
   Atom    9 Element H  Has Mass    1.00783
   Molecular Mass:    91.003130 amu
   Principal axes and moments of inertia in amu*Bohr^2:
                             1           2           3
    Eigenvalues --      319.63779   504.68424   822.91064
          X               0.99541     0.05721    -0.07666
          Y              -0.07239     0.97441    -0.21280
          Z               0.06252     0.21738     0.97408
   Rotational Symmetry Number is   1
   The Molecule is an Asymmetric Top
   Translational Enthalpy:        0.889 kcal/mol
   Rotational Enthalpy:           0.889 kcal/mol
   Vibrational Enthalpy:         38.717 kcal/mol
   gas constant (RT):             0.592 kcal/mol
   Translational Entropy:        39.437  cal/mol.K
   Rotational Entropy:           26.387  cal/mol.K
   Vibrational Entropy:          13.099  cal/mol.K

   Total Enthalpy:               41.087 kcal/mol
   Total Entropy:                78.923  cal/mol.K
 Total job time:  3405.67s(wall), 26191.70s(cpu) 
 Thu May  4 22:04:18 2023

        *************************************************************
        *                                                           *
        *  Thank you very much for using Q-Chem.  Have a nice day.  *
        *                                                           *
        *************************************************************


