
Running Job 1 of 1 Q_in.in
qchem Q_in.in_390146.0 /scratch/ari.fischer/qChem1524231.hpc-mn1/qchem390146/ 0
/usr/local/qchem-5.4.1/exe/qcprog.exe_s Q_in.in_390146.0 /scratch/ari.fischer/qChem1524231.hpc-mn1/qchem390146/
                  Welcome to Q-Chem
     A Quantum Leap Into The Future Of Chemistry


 Q-Chem 5.4, Q-Chem, Inc., Pleasanton, CA (2021)

 License issued to: Nanyang Technological University (site)

 E. Epifanovsky,  A. T. B. Gilbert,  Xintian Feng,  Joonho Lee,  Yuezhi Mao,  
 N. Mardirossian,  P. Pokhilko,  A. White,  M. Wormit,  M. P. Coons,  
 A. L. Dempwolff,  Zhengting Gan,  D. Hait,  P. R. Horn,  L. D. Jacobson,  
 I. Kaliman,  J. Kussmann,  A. W. Lange,  Ka Un Lao,  D. S. Levine,  Jie Liu,  
 S. C. McKenzie,  A. F. Morrison,  K. Nanda,  F. Plasser,  D. R. Rehn,  
 M. L. Vidal,  Zhi-Qiang You,  Ying Zhu,  B. Alam,  B. Albrecht,  
 A. Aldossary,  E. Alguire,  J. H. Andersen,  D. Barton,  K. Begam,  A. Behn,  
 Y. A. Bernard,  E. J. Berquist,  H. Burton,  A. Carreras,  K. Carter-Fenk,  
 R. Chakraborty,  A. D. Chien,  K. D. Closser,  V. Cofer-Shabica,  
 S. Dasgupta,  Jia Deng,  M. de Wergifosse,  M. Diedenhofen,  Hainam Do,  
 S. Ehlert,  Po-Tung Fang,  S. Fatehi,  Qingguo Feng,  T. Friedhoff,  
 J. Gayvert,  Qinghui Ge,  G. Gidofalvi,  M. Goldey,  J. Gomes,  
 C. Gonzalez-Espinoza,  S. Gulania,  A. Gunina,  M. W. D. Hanson-Heine,  
 P. H. P. Harbach,  A. W. Hauser,  M. F. Herbst,  M. Hernandez Vera,  
 M. Hodecker,  Z. C. Holden,  S. Houck,  Xunkun Huang,  Kerwin Hui,  
 B. C. Huynh,  M. Ivanov,  Hyunjun Ji,  Hanjie Jiang,  B. Kaduk,  S. Kaehler,  
 K. Khistyaev,  Jaehoon Kim,  P. Klunzinger,  Z. Koczor-Benda,  
 Joong Hoon Koh,  D. Kosenkov,  L. Koulias,  T. Kowalczyk,  C. M. Krauter,  
 K. Kue,  A. Kunitsa,  T. Kus,  A. Landau,  K. V. Lawler,  D. Lefrancois,  
 S. Lehtola,  Rain Li,  Yi-Pei Li,  Jiashu Liang,  M. Liebenthal,  
 Hung-Hsuan Lin,  You-Sheng Lin,  Fenglai Liu,  Kuan-Yu Liu,  
 M. Loipersberger,  A. Luenser,  A. Manjanath,  P. Manohar,  E. Mansoor,  
 S. F. Manzer,  Shan-Ping Mao,  A. V. Marenich,  T. Markovich,  S. Mason,  
 S. A. Maurer,  P. F. McLaughlin,  M. F. S. J. Menger,  J.-M. Mewes,  
 S. A. Mewes,  P. Morgante,  J. W. Mullinax,  K. J. Oosterbaan,  G. Paran,  
 Alexander C. Paul,  Suranjan K. Paul,  F. Pavosevic,  Zheng Pei,  S. Prager,  
 E. I. Proynov,  E. Ramos,  B. Rana,  A. E. Rask,  A. Rettig,  R. M. Richard,  
 F. Rob,  E. Rossomme,  T. Scheele,  M. Scheurer,  M. Schneider,  
 N. Sergueev,  S. M. Sharada,  W. Skomorowski,  D. W. Small,  C. J. Stein,  
 Yu-Chuan Su,  E. J. Sundstrom,  Zhen Tao,  J. Thirman,  T. Tsuchimochi,  
 N. M. Tubman,  S. P. Veccham,  O. Vydrov,  J. Wenzel,  J. Witte,  A. Yamada,  
 Kun Yao,  S. Yeganeh,  S. R. Yost,  A. Zech,  Igor Ying Zhang,  Xing Zhang,  
 Yu Zhang,  D. Zuev,  A. Aspuru-Guzik,  A. T. Bell,  N. A. Besley,  
 K. B. Bravaya,  B. R. Brooks,  D. Casanova,  Jeng-Da Chai,  S. Coriani,  
 C. J. Cramer,  A. E. DePrince, III,  R. A. DiStasio Jr.,  A. Dreuw,  
 B. D. Dunietz,  T. R. Furlani,  W. A. Goddard III,  S. Grimme,  
 S. Hammes-Schiffer,  T. Head-Gordon,  W. J. Hehre,  Chao-Ping Hsu,  
 T.-C. Jagau,  Yousung Jung,  A. Klamt,  Jing Kong,  D. S. Lambrecht,  
 WanZhen Liang,  N. J. Mayhall,  C. W. McCurdy,  J. B. Neaton,  
 C. Ochsenfeld,  J. A. Parkhill,  R. Peverati,  V. A. Rassolov,  Yihan Shao,  
 L. V. Slipchenko,  T. Stauch,  R. P. Steele,  J. E. Subotnik,  
 A. J. W. Thom,  A. Tkatchenko,  D. G. Truhlar,  T. Van Voorhis,  
 T. A. Wesolowski,  K. B. Whaley,  H. L. Woodcock III,  P. M. Zimmerman,  
 S. Faraji,  P. M. W. Gill,  M. Head-Gordon,  J. M. Herbert,  A. I. Krylov

 Additional authors for Version 5.4.1: 
 S. Kotaru,  Shaozhi Li,  Xiangyuan Li,  F. Matz,  A. Molle,  Haisheng Ren,  
 Yingli Su,  Hung-Yi Tsai,  C. Utku,  Fang Wang

 Contributors to earlier versions of Q-Chem not listed above: 
 R. D. Adamson,  B. Austin,  R. Baer,  J. Baker,  G. J. O. Beran,  
 K. Brandhorst,  S. T. Brown,  E. F. C. Byrd,  A. K. Chakraborty,  
 G. K. L. Chan,  Chun-Min Chang,  Yunqing Chen,  C.-L. Cheng,  
 Siu Hung Chien,  D. M. Chipman,  D. L. Crittenden,  H. Dachsel,  
 R. J. Doerksen,  A. D. Dutoi,  R. G. Edgar,  J. Fosso-Tande,  
 L. Fusti-Molnar,  D. Ghosh,  A. Ghysels,  A. Golubeva-Zadorozhnaya,  
 J. Gonthier,  M. S. Gordon,  S. R. Gwaltney,  G. Hawkins,  J. E. Herr,  
 A. Heyden,  S. Hirata,  E. G. Hohenstein,  G. Kedziora,  F. J. Keil,  
 C. Kelley,  Jihan Kim,  R. A. King,  R. Z. Khaliullin,  P. P. Korambath,  
 W. Kurlancheek,  A. Laurent,  A. M. Lee,  M. S. Lee,  S. V. Levchenko,  
 Ching Yeh Lin,  D. Liotard,  E. Livshits,  R. C. Lochan,  I. Lotan,  
 L. A. Martinez-Martinez,  P. E. Maslen,  N. Nair,  D. P. O'Neill,  
 D. Neuhauser,  E. Neuscamman,  C. M. Oana,  R. Olivares-Amaya,  R. Olson,  
 T. M. Perrine,  B. Peters,  P. A. Pieniazek,  A. Prociuk,  Y. M. Rhee,  
 J. Ritchie,  M. A. Rohrdanz,  E. Rosta,  N. J. Russ,  H. F. Schaefer III,  
 M. W. Schmidt,  N. E. Schultz,  S. Sharma,  N. Shenvi,  C. D. Sherrill,  
 A. C. Simmonett,  A. Sodt,  T. Stein,  D. Stuck,  K. S. Thanthiriwatte,  
 V. Vanovschi,  L. Vogt,  Tao Wang,  A. Warshel,  M. A. Watson,  
 C. F. Williams,  Q. Wu,  X. Xu,  Jun Yang,  W. Zhang,  Yan Zhao

 Please cite Q-Chem as follows:
 Y. Shao et al., Mol. Phys. 113, 184-215 (2015)
 DOI: 10.1080/00268976.2014.952696

 Q-Chem 5.4.1 for Intel X86 EM64T Linux

 Parts of Q-Chem use Armadillo 9.800.1 (Horizon Scraper).
 http://arma.sourceforge.net/

 Q-Chem begins on Thu May  4 15:59:17 2023  

 Host: 
0

     Scratch files written to /scratch/ari.fischer/qChem1524231.hpc-mn1/qchem390146//
 Aug1521 |scratch|qcdevops|jenkins|workspace|build_RNUM 8249   
 Processing $rem in /usr/local/qchem-5.4.1/config/preferences:
 Processing $rem in /home/ari.fischer/.qchemrc:
 Symmetry turned off for PCM/SM12/SMD calculation

 Checking the input file for inconsistencies... 	...done.

--------------------------------------------------------------
User input:
--------------------------------------------------------------
$molecule
0 2
O        -0.7332235113    0.9969251586    0.4037026647
C        -0.2420667196   -0.2498071743    0.2684347530
O        -1.0444415015   -1.3010622463    0.0522328532
C         1.1640080621   -0.4633893764    0.3436656418
O         1.9225610435    0.6253864047    0.6604060741
O         1.7047423448   -1.5549629701    0.1429978176
H        -1.6140389091    0.9784463333    0.8250312467
H        -1.9244426437   -0.9937654509   -0.2350921545
H         1.3392986348    1.3890767215    0.8259964036
$end

$rem
BASIS = 6-311++G(2df,2p)
GUI = 2
JOB_TYPE = Optimization
METHOD = wB97M-V
SCF_ALGORITHM = DIIS_GDM
MAX_SCF_CYCLES = 400
GEOM_OPT_MAX_CYCLES = 150
SCF_CONVERGENCE = 7
THRESH = 12
UNRESTRICTED = 1
Solvent_method = SMD
$end
--------------------------------------------------------------
 ----------------------------------------------------------------
             Standard Nuclear Orientation (Angstroms)
    I     Atom           X                Y                Z
 ----------------------------------------------------------------
    1      O      -0.7332235113     0.9969251586     0.4037026647
    2      C      -0.2420667196    -0.2498071743     0.2684347530
    3      O      -1.0444415015    -1.3010622463     0.0522328532
    4      C       1.1640080621    -0.4633893764     0.3436656418
    5      O       1.9225610435     0.6253864047     0.6604060741
    6      O       1.7047423448    -1.5549629701     0.1429978176
    7      H      -1.6140389091     0.9784463333     0.8250312467
    8      H      -1.9244426437    -0.9937654509    -0.2350921545
    9      H       1.3392986348     1.3890767215     0.8259964036
 ----------------------------------------------------------------
 Nuclear Repulsion Energy =         240.71788694 hartrees
 There are       24 alpha and       23 beta electrons
 Requested basis set is 6-311++G(2df,2p)
 There are 66 shells and 234 basis functions

 Total QAlloc Memory Limit 288000 MB
 Mega-Array Size       188 MB
 MEM_STATIC part       192 MB
 
 Citation of the SMD model:
 Marenich, A.V.; Cramer, C.J.; Truhlar, D.G.
 J. Phys. Chem. B 2009, 113, 6378-6396.
 iSolventCode=           1
 Solvent: water                                                           
 
 vradii
            1           2           3           4           5           6
    1   1.5200000   1.8500000   1.5200000   1.8500000   1.5200000   1.5200000
            7           8           9
    1   1.2000000   1.2000000   1.2000000
 Changing PCM_VDW_RADII to SMD_RADIUS
 Discretize the solute cavity surface with Lebedev spheres
	Using 110 Lebedev grid points for each H atom
	Using 194 Lebedev grid points for other atoms
	Atomic van der Waals radii will be scaled by 1.20
 Remove points where switching function is < 1.0e-08
 Keep 817 surface tesserae and discard 677 interior tesserae
 Molecular Surface Area = 98.432 Angst**2
 A cutoff of  1.0D-12 yielded   2086 shell pairs
 There are     26517 function pairs (     33760 Cartesian)
 Smallest overlap matrix eigenvalue = 4.90E-05

 Scale SEOQF with 1.000000e-01/1.000000e-01/1.000000e-01

 Standard Electronic Orientation quadrupole field applied
 Nucleus-field energy     =     0.0000000057 hartrees
 Guess from superposition of atomic densities
 Warning:  Energy on first SCF cycle will be non-variational
 SAD guess density has 47.000000 electrons

 -----------------------------------------------------------------------
  General SCF calculation program by
  Eric Jon Sundstrom, Paul Horn, Yuezhi Mao, Dmitri Zuev, Alec White,
  David Stuck, Shaama M.S., Shane Yost, Joonho Lee, David Small,
  Daniel Levine, Susi Lehtola, Hugh Burton, Evgeny Epifanovsky,
  Bang C. Huynh
 -----------------------------------------------------------------------
 Exchange:     0.1500 Hartree-Fock + 1.0000 wB97M-V + LR-HF
 Correlation:  1.0000 wB97M-V
 Using SG-2 standard quadrature grid
 Nonlocal Correlation:  VV10 with C = 0.0100 and b = 6.00 and scale = 1.00000
 Grid used for NLC:  SG-1 standard quadrature
 
 Citation of the SMD model:
 Marenich, A.V.; Cramer, C.J.; Truhlar, D.G.
 J. Phys. Chem. B 2009, 113, 6378-6396.
 iSolventCode=           1
 Solvent: water                                                           
 
 vradii
            1           2           3           4           5           6
    1   1.5200000   1.8500000   1.5200000   1.8500000   1.5200000   1.5200000
            7           8           9
    1   1.2000000   1.2000000   1.2000000
 using 8 threads for integral computing
 -------------------------------------------------------
 OpenMP Integral computing Module                
 Release: version 1.0, May 2013, Q-Chem Inc. Pittsburgh 
 -------------------------------------------------------
 -------------------------------------------------------
 OpenMP BLAS3 based DFT computing Module                
 Release: version 1.0, May 2013, Q-Chem Inc. Pittsburgh 
 -------------------------------------------------------
 A unrestricted SCF calculation will be
 performed using DIIS, GDM
 SCF converges when RMS gradient is below 1.0e-07
 ---------------------------------------
  Cycle       Energy         DIIS error
 ---------------------------------------
    1    -380.1014310058      1.72e-02  
    2    -378.7739467149      2.77e-03  Done DIIS. Switching to GDM
 ---------------------------------------
  Cycle       Energy        RMS Gradient
 ---------------------------------------
    1    -378.7739467149      1.30e-01   Descent step
    2    -378.9251187639      2.92e-02   Normal BFGS step
    3    -378.9389206791      1.48e-02   Normal BFGS step
    4    -378.9399336849      1.32e-02   Normal BFGS step
    5    -378.9406732962      4.46e-03   Normal BFGS step
    6    -378.9407322462      2.47e-03   Normal BFGS step
    7    -378.9407527225      6.74e-04   Normal BFGS step
    8    -378.9407548738      2.52e-04   Normal BFGS step
    9    -378.9407555716      1.02e-04   Normal BFGS step
   10    -378.9407556131      6.10e-05   Normal BFGS step
   11    -378.9407556274      2.45e-05   Normal BFGS step
   12    -378.9407556292      1.42e-05   Normal BFGS step
   13    -378.9407556297      3.92e-06   Normal BFGS step
   14    -378.9407556298      2.15e-06   Normal BFGS step
   15    -378.9407556298      6.89e-07   Normal BFGS step
   16    -378.9407556298      2.39e-07   Normal BFGS step
   17    -378.9407556298      6.56e-08  Convergence criterion met
 ---------------------------------------
 SCF time:   CPU 387.29s  wall 49.00s 
<S^2> =          0.754077699
(3)  G-ENP(liq) elect-nuc-pol free energy of system     -378.940755630 a.u.
(4)  G-CDS(liq) cavity-dispersion-solvent structure 
     free energy                                                5.1063 kcal/mol
(6)  G-S(liq) free energy of system                     -378.932618212 a.u.
 SCF   energy in the final basis set =     -378.9326182117
 Total energy in the final basis set =     -378.9326182117
 
 --------------------------------------------------------------
 
                    Orbital Energies (a.u.)
 --------------------------------------------------------------
 
 Alpha MOs
 -- Occupied --
-19.3972 -19.3970 -19.3770 -19.3243 -10.4870 -10.4819  -1.2659  -1.2240
 -1.1926  -1.1466  -0.8731  -0.7304  -0.7193  -0.6815  -0.6129  -0.5909
 -0.5701  -0.5441  -0.5220  -0.4938  -0.4861  -0.4430  -0.4084  -0.2833
 -- Virtual --
  0.0251   0.0469   0.0585   0.0810   0.0904   0.1034   0.1126   0.1145
  0.1384   0.1472   0.1527   0.1597   0.2080   0.2137   0.2197   0.2432
  0.2572   0.2657   0.2759   0.2948   0.3033   0.3043   0.3125   0.3152
  0.3243   0.3309   0.3330   0.3549   0.3552   0.3803   0.4008   0.4198
  0.4321   0.4359   0.5168   0.5721   0.5930   0.6012   0.6200   0.6478
  0.6586   0.6811   0.6956   0.7246   0.7451   0.7697   0.8115   0.8202
  0.8416   0.8796   0.8992   0.9107   0.9461   0.9910   1.0341   1.0482
  1.0648   1.0959   1.0981   1.1123   1.1259   1.1404   1.1545   1.1574
  1.1961   1.2116   1.2454   1.2533   1.2696   1.3544   1.3803   1.3917
  1.4425   1.4923   1.4955   1.5123   1.5983   1.6405   1.6651   1.6783
  1.6996   1.7260   1.8308   1.8493   1.8780   1.8850   1.9416   1.9644
  1.9854   2.0901   2.1569   2.2558   2.2665   2.3130   2.3666   2.3893
  2.4236   2.4389   2.5507   2.5887   2.6087   2.6561   2.6983   2.7621
  2.8179   2.8403   2.8569   2.8887   2.9624   3.0970   3.1263   3.1605
  3.2297   3.2673   3.2741   3.3210   3.3663   3.3955   3.4120   3.4510
  3.5286   3.5363   3.5505   3.5662   3.6274   3.7045   3.7140   3.7589
  3.7900   3.8144   3.8467   3.9169   3.9824   4.0517   4.0788   4.2044
  4.2231   4.2651   4.2941   4.2975   4.3142   4.3474   4.4966   4.8734
  5.1296   5.1340   5.1529   5.1678   5.1799   5.1862   5.2117   5.2255
  5.2371   5.2544   5.2751   5.2906   5.3055   5.3669   5.4715   5.5029
  5.5086   5.5201   5.5639   5.5941   5.6288   5.6634   5.6734   5.6951
  5.8019   5.8540   5.9199   5.9582   6.0408   6.1023   6.3616   6.4111
  6.5933   6.7918   6.8312   6.9290   6.9843   7.0208   7.0296   7.0597
  7.1141   7.1936   7.2098   7.2129   7.2354   7.2895   7.2999   7.3178
  7.3768   7.3930   7.4518   7.4914   7.5360   7.6250   7.6956   7.7604
  7.7903   7.8308   7.8962   7.9551  24.8325  25.1985  50.5245  50.5665
 50.6074  50.7332
 
 Beta MOs
 -- Occupied --
-19.3946 -19.3936 -19.3759 -19.3194 -10.4809 -10.4782  -1.2580  -1.2197
 -1.1857  -1.1396  -0.8542  -0.7263  -0.7125  -0.6751  -0.5904  -0.5829
 -0.5627  -0.5287  -0.5161  -0.4873  -0.4632  -0.4200  -0.4014
 -- Virtual --
 -0.0054   0.0250   0.0470   0.0584   0.0810   0.0905   0.1035   0.1124
  0.1151   0.1471   0.1526   0.1604   0.1833   0.2104   0.2153   0.2220
  0.2447   0.2582   0.2664   0.2771   0.2968   0.3039   0.3061   0.3157
  0.3232   0.3260   0.3323   0.3376   0.3571   0.3575   0.3824   0.4027
  0.4250   0.4342   0.4429   0.5214   0.5747   0.5967   0.6035   0.6274
  0.6558   0.6653   0.6892   0.7040   0.7350   0.7524   0.7742   0.8150
  0.8258   0.8463   0.8831   0.9006   0.9166   0.9500   0.9922   1.0384
  1.0515   1.0723   1.0982   1.1002   1.1149   1.1299   1.1446   1.1598
  1.1621   1.1992   1.2177   1.2503   1.2556   1.2773   1.3580   1.3866
  1.3989   1.4461   1.4946   1.5006   1.5171   1.6029   1.6428   1.6711
  1.6855   1.7046   1.7332   1.8372   1.8556   1.8840   1.8918   1.9523
  1.9708   1.9942   2.0967   2.1630   2.2636   2.2719   2.3169   2.3728
  2.3965   2.4284   2.4450   2.5567   2.5959   2.6170   2.6675   2.7159
  2.7812   2.8473   2.8526   2.8927   2.9098   2.9810   3.1198   3.1483
  3.1726   3.2432   3.2825   3.2876   3.3503   3.3871   3.4155   3.4338
  3.4701   3.5495   3.5618   3.5792   3.5903   3.6424   3.7174   3.7313
  3.7671   3.7976   3.8247   3.8529   3.9233   3.9893   4.0563   4.0852
  4.2094   4.2320   4.2825   4.2999   4.3202   4.3348   4.3566   4.5062
  4.9032   5.1395   5.1454   5.1652   5.1814   5.1934   5.1970   5.2206
  5.2380   5.2453   5.2650   5.2846   5.2970   5.3132   5.3722   5.4785
  5.5077   5.5171   5.5274   5.5710   5.6009   5.6368   5.6703   5.6797
  5.7008   5.8088   5.8652   5.9281   5.9713   6.0438   6.1138   6.3755
  6.4163   6.6004   6.7979   6.8383   6.9497   7.0012   7.0331   7.0407
  7.0704   7.1228   7.2010   7.2167   7.2229   7.2476   7.2976   7.3091
  7.3254   7.3854   7.4093   7.4619   7.4966   7.5429   7.6303   7.7015
  7.7638   7.7970   7.8361   7.9003   7.9596  24.8374  25.2028  50.5266
 50.5692  50.6089  50.7369
 --------------------------------------------------------------
 
          Ground-State Mulliken Net Atomic Charges

     Atom                 Charge (a.u.)    Spin (a.u.)
  --------------------------------------------------------
      1 O                    -0.361867       0.067584
      2 C                     0.355243       0.523994
      3 O                    -0.338381       0.089614
      4 C                     0.194211       0.101728
      5 O                    -0.369208       0.033817
      6 O                    -0.552534       0.174635
      7 H                     0.375801       0.008071
      8 H                     0.369030       0.002012
      9 H                     0.327705      -0.001454
  --------------------------------------------------------
  Sum of atomic charges =     0.000000
  Sum of spin   charges =     1.000000

 -----------------------------------------------------------------
                    Cartesian Multipole Moments
 -----------------------------------------------------------------
    Charge (ESU x 10^10)
                 0.0000
    Dipole Moment (Debye)
         X      -8.9780      Y       5.2804      Z       1.0030
       Tot      10.4639
    Quadrupole Moments (Debye-Ang)
        XX     -35.5511     XY       6.6672     YY     -41.2636
        XZ      -2.2638     YZ       3.0000     ZZ     -32.7868
    Octopole Moments (Debye-Ang^2)
       XXX     -98.3365    XXY      21.5741    XYY     -25.5728
       YYY      53.8068    XXZ     -12.5143    XYZ      -2.0455
       YYZ      -8.4624    XZZ     -18.3315    YZZ      12.9219
       ZZZ     -31.3573
    Hexadecapole Moments (Debye-Ang^3)
      XXXX    -400.3943   XXXY      43.3178   XXYY    -114.9445
      XYYY      45.8875   YYYY    -265.2055   XXXZ     -41.1003
      XXYZ       6.7066   XYYZ      -7.4698   YYYZ       0.4819
      XXZZ     -72.6747   XYZZ       6.1067   YYZZ     -48.4406
      XZZZ     -28.7844   YZZZ      -6.3264   ZZZZ     -61.2409
 -----------------------------------------------------------------
 Calculating analytic gradient of the SCF energy
 Gradient of CDS energy
            1           2           3           4           5           6
    1   0.0013904  -0.0044233   0.0024953   0.0048503  -0.0030425  -0.0007431
    2  -0.0035400   0.0003422   0.0031592   0.0024356  -0.0045305   0.0016298
    3  -0.0004239  -0.0003673   0.0006843   0.0009885  -0.0013204   0.0003080
            7           8           9
    1  -0.0002718  -0.0003542   0.0000989
    2   0.0003046  -0.0001783   0.0003774
    3   0.0001798  -0.0001624   0.0001133
 Gradient of SCF Energy
            1           2           3           4           5           6
    1   0.0315775  -0.0012292   0.0308497   0.0037850   0.0170362   0.0010392
    2   0.0117489   0.0044134  -0.0264445  -0.0033261  -0.0147339  -0.0016024
    3  -0.0157751   0.0014203   0.0066219   0.0000816  -0.0032097  -0.0003237
            7           8           9
    1  -0.0359287  -0.0327077  -0.0144219
    2  -0.0007305   0.0148813   0.0157936
    3   0.0144146  -0.0074288   0.0041988
 Max gradient component =       3.593E-02
 RMS gradient           =       1.607E-02
 Computing fast CPCM-SWIG gradient
 Updating gradient with PCM contributions...
 -- total gradient after adding PCM contribution --
---------------------------------------------------
  Atom         X              Y              Z     
---------------------------------------------------
   1       0.004563       0.008148      -0.002822
   2      -0.000168       0.000586       0.000293
   3       0.002406      -0.009423       0.001218
   4       0.000404       0.000989       0.000012
   5       0.006280      -0.001017       0.000097
   6       0.001675      -0.005469      -0.000996
   7      -0.005414      -0.000919       0.003438
   8      -0.004999       0.002878      -0.002141
   9      -0.004747       0.004226       0.000901
---------------------------------------------------
 Number of fixed atoms: 0
 Gradient time:  CPU 57.86 s  wall 8.48 s
 Geometry Optimization Parameters
   NAtoms,    NIC,     NZ,  NCons,   NDum,   NFix, NCnnct, MaxDiis
        9      45       0       0       0       0       0       0


** GEOMETRY OPTIMIZATION IN DELOCALIZED INTERNAL COORDINATES **
   Searching for a Minimum

   Optimization Cycle:   1

                       Coordinates (Angstroms)
     ATOM                X               Y               Z
      1  O        -0.7332235113    0.9969251586    0.4037026647
      2  C        -0.2420667196   -0.2498071743    0.2684347530
      3  O        -1.0444415015   -1.3010622463    0.0522328532
      4  C         1.1640080621   -0.4633893764    0.3436656418
      5  O         1.9225610435    0.6253864047    0.6604060741
      6  O         1.7047423448   -1.5549629701    0.1429978176
      7  H        -1.6140389091    0.9784463333    0.8250312467
      8  H        -1.9244426437   -0.9937654509   -0.2350921545
      9  H         1.3392986348    1.3890767215    0.8259964036
   Point Group: c1    Number of degrees of freedom:    21


   Energy is   -378.932618212


 Attempting to generate delocalized internal coordinates
 Initial Hessian constructed with Jon Baker's OPTIMIZE code

 21 Hessian modes will be used to form the next step
  Hessian Eigenvalues:
     0.019207    0.019575    0.020375    0.021218    0.022683    0.023578
     0.160000    0.160000    0.160000    0.249994    0.249996    0.250000
     0.250000    0.418352    0.520562    0.520990    0.522903    0.523465
     0.557075    0.571978    0.892034

 Minimum search - taking simple RFO step
 Searching for Lamda that Minimizes Along All modes
 Value Taken    Lamda =  -0.00067082
 Step Taken.  Stepsize is  0.060849

                             Maximum     Tolerance    Cnvgd?
         Gradient           0.009538      0.000300      NO
         Displacement       0.045628      0.001200      NO
         Energy change     *********      0.000001      NO


 New Cartesian Coordinates Obtained by Inverse Iteration

 Displacement from previous Coordinates is:  0.074967
 ----------------------------------------------------------------
             Standard Nuclear Orientation (Angstroms)
    I     Atom           X                Y                Z
 ----------------------------------------------------------------
    1      O      -0.7385491106     0.9872843414     0.4118172224
    2      C      -0.2420330067    -0.2495710092     0.2718384242
    3      O      -1.0430196917    -1.2920237559     0.0471909029
    4      C       1.1596178745    -0.4607621460     0.3471675116
    5      O       1.9236382145     0.6208096252     0.6594079329
    6      O       1.7011927485    -1.5467905642     0.1396146393
    7      H      -1.6245776429     0.9696989589     0.8063976290
    8      H      -1.9241915520    -0.9925239333    -0.2236988836
    9      H       1.3603189663     1.3907258831     0.8276399214
 ----------------------------------------------------------------
 Nuclear Repulsion Energy =         241.46587700 hartrees
 There are       24 alpha and       23 beta electrons
 Discretize the solute cavity surface with Lebedev spheres
	Using 110 Lebedev grid points for each H atom
	Using 194 Lebedev grid points for other atoms
	Atomic van der Waals radii will be scaled by 1.20
 Remove points where switching function is < 1.0e-08
 Keep 821 surface tesserae and discard 673 interior tesserae
 Molecular Surface Area = 98.180 Angst**2
 Applying Cartesian multipole field
    Component          Value
    ---------          -----
     (2,0,0)        1.00000E-11
     (0,2,0)        2.00000E-11
     (0,0,2)       -3.00000E-11
 Nucleus-field energy     =     0.0000000056 hartrees
 Requested basis set is 6-311++G(2df,2p)
 There are 66 shells and 234 basis functions
 A cutoff of  1.0D-12 yielded   2087 shell pairs
 There are     26522 function pairs (     33766 Cartesian)
 Smallest overlap matrix eigenvalue = 4.72E-05
 Guess MOs from SCF MO coefficient file

 -----------------------------------------------------------------------
  General SCF calculation program by
  Eric Jon Sundstrom, Paul Horn, Yuezhi Mao, Dmitri Zuev, Alec White,
  David Stuck, Shaama M.S., Shane Yost, Joonho Lee, David Small,
  Daniel Levine, Susi Lehtola, Hugh Burton, Evgeny Epifanovsky,
  Bang C. Huynh
 -----------------------------------------------------------------------
 Exchange:     0.1500 Hartree-Fock + 1.0000 wB97M-V + LR-HF
 Correlation:  1.0000 wB97M-V
 Using SG-2 standard quadrature grid
 Nonlocal Correlation:  VV10 with C = 0.0100 and b = 6.00 and scale = 1.00000
 Grid used for NLC:  SG-1 standard quadrature
 
 Citation of the SMD model:
 Marenich, A.V.; Cramer, C.J.; Truhlar, D.G.
 J. Phys. Chem. B 2009, 113, 6378-6396.
 iSolventCode=           1
 Solvent: water                                                           
 
 vradii
            1           2           3           4           5           6
    1   1.5200000   1.8500000   1.5200000   1.8500000   1.5200000   1.5200000
            7           8           9
    1   1.2000000   1.2000000   1.2000000
 -------------------------------------------------------
 OpenMP BLAS3 based DFT computing Module                
 Release: version 1.0, May 2013, Q-Chem Inc. Pittsburgh 
 -------------------------------------------------------
 A unrestricted SCF calculation will be
 performed using Roothaan-Hall, DIIS, GDM
 SCF converges when RMS gradient is below 1.0e-07
 ---------------------------------------
  Cycle       Energy         DIIS error
 ---------------------------------------
    1    -378.8800055465      5.37e-04  Roothaan Step
 ---------------------------------------
  Cycle       Energy         DIIS error
 ---------------------------------------
    1    -378.9245797318      6.37e-04  
    2    -378.9332775630      6.55e-04  Done DIIS. Switching to GDM
 ---------------------------------------
  Cycle       Energy        RMS Gradient
 ---------------------------------------
    1    -378.9332775630      2.75e-02   Normal BFGS step
    2    -378.9302109182      5.02e-02  Line search: overstep
    3    -378.9407217271      8.03e-03   Normal BFGS step
    4    -378.9411447286      7.08e-03   Normal BFGS step
    5    -378.9412426843      1.71e-03   Normal BFGS step
    6    -378.9412651449      7.40e-04   Normal BFGS step
    7    -378.9412704542      7.96e-04   Normal BFGS step
    8    -378.9412717325      8.23e-05   Normal BFGS step
    9    -378.9412718375      4.46e-05   Normal BFGS step
   10    -378.9412718509      2.67e-05   Normal BFGS step
   11    -378.9412718544      1.08e-05   Normal BFGS step
   12    -378.9412718551      7.27e-06   Normal BFGS step
   13    -378.9412718553      3.73e-06   Normal BFGS step
   14    -378.9412718553      9.24e-07   Normal BFGS step
   15    -378.9412718553      3.00e-07   Normal BFGS step
   16    -378.9412718553      1.13e-07   Normal BFGS step
   17    -378.9412718553      5.05e-08  Convergence criterion met
 ---------------------------------------
 SCF time:   CPU 413.34s  wall 52.00s 
<S^2> =          0.753996182
(3)  G-ENP(liq) elect-nuc-pol free energy of system     -378.941271855 a.u.
(4)  G-CDS(liq) cavity-dispersion-solvent structure 
     free energy                                                5.1867 kcal/mol
(6)  G-S(liq) free energy of system                     -378.933006246 a.u.
 SCF   energy in the final basis set =     -378.9330062465
 Total energy in the final basis set =     -378.9330062465
 
 --------------------------------------------------------------
 
                    Orbital Energies (a.u.)
 --------------------------------------------------------------
 
 Alpha MOs
 -- Occupied --
-19.3962 -19.3960 -19.3760 -19.3229 -10.4857 -10.4800  -1.2695  -1.2262
 -1.1945  -1.1473  -0.8753  -0.7336  -0.7224  -0.6841  -0.6145  -0.5916
 -0.5703  -0.5448  -0.5214  -0.4940  -0.4863  -0.4429  -0.4082  -0.2815
 -- Virtual --
  0.0253   0.0469   0.0587   0.0811   0.0902   0.1034   0.1127   0.1146
  0.1414   0.1473   0.1525   0.1600   0.2093   0.2144   0.2207   0.2443
  0.2592   0.2662   0.2776   0.2961   0.3036   0.3046   0.3151   0.3170
  0.3248   0.3313   0.3344   0.3554   0.3565   0.3825   0.4006   0.4228
  0.4328   0.4377   0.5218   0.5756   0.5951   0.6064   0.6207   0.6521
  0.6606   0.6838   0.6966   0.7266   0.7475   0.7712   0.8112   0.8227
  0.8411   0.8791   0.8983   0.9116   0.9441   0.9893   1.0343   1.0526
  1.0686   1.0971   1.0987   1.1132   1.1282   1.1442   1.1550   1.1572
  1.1951   1.2110   1.2441   1.2533   1.2702   1.3567   1.3845   1.3948
  1.4407   1.4951   1.5005   1.5175   1.6007   1.6425   1.6669   1.6822
  1.7053   1.7332   1.8313   1.8480   1.8835   1.8931   1.9455   1.9708
  1.9897   2.0893   2.1658   2.2588   2.2624   2.3161   2.3666   2.3909
  2.4238   2.4437   2.5556   2.5934   2.6063   2.6538   2.7068   2.7664
  2.8171   2.8504   2.8589   2.8951   2.9708   3.0963   3.1205   3.1631
  3.2375   3.2707   3.2817   3.3225   3.3631   3.4003   3.4158   3.4494
  3.5321   3.5391   3.5544   3.5716   3.6364   3.7071   3.7197   3.7616
  3.7921   3.8227   3.8501   3.9249   3.9855   4.0557   4.0883   4.2135
  4.2319   4.2707   4.3035   4.3131   4.3312   4.3721   4.5137   4.8841
  5.1291   5.1333   5.1534   5.1664   5.1814   5.1853   5.2116   5.2248
  5.2398   5.2543   5.2765   5.2932   5.3122   5.3686   5.4785   5.5052
  5.5177   5.5246   5.5777   5.6069   5.6403   5.6789   5.6942   5.7110
  5.8205   5.8700   5.9325   5.9728   6.0690   6.1198   6.3765   6.4236
  6.6211   6.8077   6.8480   6.9309   6.9890   7.0201   7.0309   7.0660
  7.1255   7.2156   7.2204   7.2296   7.2467   7.2966   7.3138   7.3529
  7.3919   7.4071   7.4553   7.4948   7.5403   7.6340   7.6991   7.7717
  7.7997   7.8397   7.9042   7.9569  24.8591  25.2259  50.5321  50.5742
 50.6167  50.7419
 
 Beta MOs
 -- Occupied --
-19.3935 -19.3927 -19.3749 -19.3179 -10.4789 -10.4771  -1.2615  -1.2219
 -1.1876  -1.1403  -0.8566  -0.7294  -0.7158  -0.6777  -0.5914  -0.5838
 -0.5630  -0.5289  -0.5156  -0.4877  -0.4633  -0.4197  -0.4012
 -- Virtual --
 -0.0039   0.0252   0.0470   0.0586   0.0811   0.0903   0.1034   0.1126
  0.1151   0.1473   0.1524   0.1606   0.1864   0.2116   0.2161   0.2231
  0.2456   0.2599   0.2669   0.2787   0.2976   0.3041   0.3061   0.3171
  0.3250   0.3279   0.3327   0.3390   0.3574   0.3593   0.3850   0.4027
  0.4270   0.4358   0.4450   0.5262   0.5783   0.5988   0.6088   0.6277
  0.6600   0.6671   0.6919   0.7054   0.7368   0.7546   0.7755   0.8135
  0.8294   0.8460   0.8823   0.8996   0.9172   0.9487   0.9905   1.0387
  1.0556   1.0760   1.0994   1.1011   1.1161   1.1324   1.1478   1.1595
  1.1632   1.1982   1.2171   1.2489   1.2557   1.2778   1.3601   1.3906
  1.4020   1.4441   1.4983   1.5049   1.5222   1.6053   1.6448   1.6732
  1.6892   1.7104   1.7405   1.8387   1.8533   1.8898   1.8997   1.9555
  1.9776   1.9987   2.0959   2.1719   2.2653   2.2690   2.3199   2.3721
  2.3985   2.4291   2.4497   2.5614   2.6006   2.6145   2.6655   2.7249
  2.7861   2.8516   2.8585   2.8960   2.9141   2.9883   3.1185   3.1428
  3.1750   3.2508   3.2851   3.2951   3.3512   3.3840   3.4199   3.4381
  3.4690   3.5554   3.5640   3.5798   3.5961   3.6514   3.7196   3.7366
  3.7696   3.7998   3.8339   3.8562   3.9315   3.9923   4.0602   4.0943
  4.2189   4.2407   4.2887   4.3164   4.3356   4.3455   4.3796   4.5231
  4.9136   5.1394   5.1439   5.1657   5.1804   5.1944   5.1973   5.2205
  5.2375   5.2476   5.2654   5.2867   5.2994   5.3201   5.3740   5.4854
  5.5103   5.5272   5.5310   5.5849   5.6136   5.6488   5.6856   5.7006
  5.7170   5.8276   5.8811   5.9408   5.9863   6.0720   6.1315   6.3906
  6.4288   6.6283   6.8138   6.8552   6.9517   7.0060   7.0338   7.0408
  7.0776   7.1341   7.2236   7.2325   7.2362   7.2576   7.3064   7.3224
  7.3591   7.4060   7.4177   7.4652   7.5001   7.5471   7.6396   7.7051
  7.7754   7.8063   7.8450   7.9085   7.9615  24.8639  25.2304  50.5341
 50.5769  50.6183  50.7456
 --------------------------------------------------------------
 
          Ground-State Mulliken Net Atomic Charges

     Atom                 Charge (a.u.)    Spin (a.u.)
  --------------------------------------------------------
      1 O                    -0.360354       0.070091
      2 C                     0.362378       0.516011
      3 O                    -0.338265       0.090173
      4 C                     0.194467       0.105837
      5 O                    -0.369445       0.033870
      6 O                    -0.555197       0.176137
      7 H                     0.373307       0.007477
      8 H                     0.367109       0.001849
      9 H                     0.325998      -0.001444
  --------------------------------------------------------
  Sum of atomic charges =     0.000000
  Sum of spin   charges =     1.000000

 -----------------------------------------------------------------
                    Cartesian Multipole Moments
 -----------------------------------------------------------------
    Charge (ESU x 10^10)
                 0.0000
    Dipole Moment (Debye)
         X      -8.9983      Y       5.2896      Z       1.0073
       Tot      10.4863
    Quadrupole Moments (Debye-Ang)
        XX     -35.3667     XY       6.7779     YY     -41.1375
        XZ      -2.1978     YZ       2.8858     ZZ     -32.8210
    Octopole Moments (Debye-Ang^2)
       XXX     -98.4263    XXY      21.7196    XYY     -25.3351
       YYY      53.6341    XXZ     -12.3418    XYZ      -1.8179
       YYZ      -8.4499    XZZ     -18.1001    YZZ      12.8161
       ZZZ     -31.4665
    Hexadecapole Moments (Debye-Ang^3)
      XXXX    -399.1598   XXXY      43.4226   XXYY    -113.7809
      XYYY      45.9361   YYYY    -262.0796   XXXZ     -40.9278
      XXYZ       6.5282   XYYZ      -7.1995   YYYZ       0.1657
      XXZZ     -72.6849   XYZZ       6.2686   YYZZ     -48.0553
      XZZZ     -28.4483   YZZZ      -6.6090   ZZZZ     -61.4118
 -----------------------------------------------------------------
 Calculating analytic gradient of the SCF energy
 Gradient of CDS energy
            1           2           3           4           5           6
    1   0.0013212  -0.0041993   0.0023329   0.0047340  -0.0029553  -0.0007134
    2  -0.0032931   0.0003392   0.0029215   0.0023242  -0.0043578   0.0015717
    3  -0.0004161  -0.0003541   0.0006653   0.0009303  -0.0012609   0.0003078
            7           8           9
    1  -0.0002725  -0.0003496   0.0001021
    2   0.0002949  -0.0001734   0.0003728
    3   0.0001737  -0.0001582   0.0001121
 Gradient of SCF Energy
            1           2           3           4           5           6
    1   0.0270347   0.0002859   0.0283015   0.0033688   0.0119739  -0.0008891
    2   0.0050157   0.0035608  -0.0181565  -0.0053443  -0.0139225   0.0044198
    3  -0.0128087   0.0010606   0.0052377   0.0006680  -0.0035350   0.0004838
            7           8           9
    1  -0.0313705  -0.0285340  -0.0101711
    2  -0.0000468   0.0124753   0.0119984
    3   0.0109552  -0.0053931   0.0033314
 Max gradient component =       3.137E-02
 RMS gradient           =       1.342E-02
 Computing fast CPCM-SWIG gradient
 Updating gradient with PCM contributions...
 -- total gradient after adding PCM contribution --
---------------------------------------------------
  Atom         X              Y              Z     
---------------------------------------------------
   1      -0.000266       0.001856      -0.000928
   2       0.001107      -0.000345      -0.000028
   3      -0.000522      -0.001568       0.000282
   4       0.000148      -0.001285       0.000696
   5       0.001325      -0.000097      -0.000243
   6      -0.000324       0.000942      -0.000179
   7      -0.000392      -0.000500       0.000757
   8      -0.000398       0.000725      -0.000409
   9      -0.000679       0.000273       0.000051
---------------------------------------------------
 Number of fixed atoms: 0
 Gradient time:  CPU 59.03 s  wall 8.72 s
 Geometry Optimization Parameters
   NAtoms,    NIC,     NZ,  NCons,   NDum,   NFix, NCnnct, MaxDiis
        9      45       0       0       0       0       0       0

 Cartesian Hessian Update
 Hessian updated using BFGS update


** GEOMETRY OPTIMIZATION IN DELOCALIZED INTERNAL COORDINATES **
   Searching for a Minimum

   Optimization Cycle:   2

                       Coordinates (Angstroms)
     ATOM                X               Y               Z
      1  O        -0.7385491106    0.9872843414    0.4118172224
      2  C        -0.2420330067   -0.2495710092    0.2718384242
      3  O        -1.0430196917   -1.2920237559    0.0471909029
      4  C         1.1596178745   -0.4607621460    0.3471675116
      5  O         1.9236382145    0.6208096252    0.6594079329
      6  O         1.7011927485   -1.5467905642    0.1396146393
      7  H        -1.6245776429    0.9696989589    0.8063976290
      8  H        -1.9241915520   -0.9925239333   -0.2236988836
      9  H         1.3603189663    1.3907258831    0.8276399214
   Point Group: c1    Number of degrees of freedom:    21


   Energy is   -378.933006246

 Hessian updated using BFGS update

 20 Hessian modes will be used to form the next step
  Hessian Eigenvalues:
     0.018987    0.019772    0.020372    0.021197    0.021256    0.023392
     0.145467    0.160321    0.249097    0.249996    0.250000    0.265063
     0.415639    0.496847    0.520906    0.521837    0.523281    0.546039
     0.567549    0.924087

 Minimum search - taking simple RFO step
 Searching for Lamda that Minimizes Along All modes
 Value Taken    Lamda =  -0.00008917
 Step Taken.  Stepsize is  0.053411

                             Maximum     Tolerance    Cnvgd?
         Gradient           0.001804      0.000300      NO
         Displacement       0.036389      0.001200      NO
         Energy change     -0.000388      0.000001      NO


 New Cartesian Coordinates Obtained by Inverse Iteration

 Displacement from previous Coordinates is:  0.045966
 ----------------------------------------------------------------
             Standard Nuclear Orientation (Angstroms)
    I     Atom           X                Y                Z
 ----------------------------------------------------------------
    1      O      -0.7365447826     0.9857945727     0.4187247623
    2      C      -0.2417475827    -0.2481175927     0.2692344789
    3      O      -1.0395445173    -1.2898343495     0.0418168580
    4      C       1.1591016977    -0.4583891676     0.3387927473
    5      O       1.9222385951     0.6188839488     0.6636140433
    6      O       1.6992970856    -1.5470741059     0.1398751236
    7      H      -1.6287382974     0.9730419870     0.7954891205
    8      H      -1.9271019495    -0.9991582566    -0.2121113711
    9      H       1.3654365511     1.3917003639     0.8319395374
 ----------------------------------------------------------------
 Nuclear Repulsion Energy =         241.66860329 hartrees
 There are       24 alpha and       23 beta electrons
 Discretize the solute cavity surface with Lebedev spheres
	Using 110 Lebedev grid points for each H atom
	Using 194 Lebedev grid points for other atoms
	Atomic van der Waals radii will be scaled by 1.20
 Remove points where switching function is < 1.0e-08
 Keep 819 surface tesserae and discard 675 interior tesserae
 Molecular Surface Area = 98.113 Angst**2
 Applying Cartesian multipole field
    Component          Value
    ---------          -----
     (2,0,0)        1.00000E-11
     (0,2,0)        2.00000E-11
     (0,0,2)       -3.00000E-11
 Nucleus-field energy     =     0.0000000056 hartrees
 Requested basis set is 6-311++G(2df,2p)
 There are 66 shells and 234 basis functions
 A cutoff of  1.0D-12 yielded   2087 shell pairs
 There are     26522 function pairs (     33766 Cartesian)
 Smallest overlap matrix eigenvalue = 4.68E-05
 Guess MOs from SCF MO coefficient file

 -----------------------------------------------------------------------
  General SCF calculation program by
  Eric Jon Sundstrom, Paul Horn, Yuezhi Mao, Dmitri Zuev, Alec White,
  David Stuck, Shaama M.S., Shane Yost, Joonho Lee, David Small,
  Daniel Levine, Susi Lehtola, Hugh Burton, Evgeny Epifanovsky,
  Bang C. Huynh
 -----------------------------------------------------------------------
 Exchange:     0.1500 Hartree-Fock + 1.0000 wB97M-V + LR-HF
 Correlation:  1.0000 wB97M-V
 Using SG-2 standard quadrature grid
 Nonlocal Correlation:  VV10 with C = 0.0100 and b = 6.00 and scale = 1.00000
 Grid used for NLC:  SG-1 standard quadrature
 
 Citation of the SMD model:
 Marenich, A.V.; Cramer, C.J.; Truhlar, D.G.
 J. Phys. Chem. B 2009, 113, 6378-6396.
 iSolventCode=           1
 Solvent: water                                                           
 
 vradii
            1           2           3           4           5           6
    1   1.5200000   1.8500000   1.5200000   1.8500000   1.5200000   1.5200000
            7           8           9
    1   1.2000000   1.2000000   1.2000000
 -------------------------------------------------------
 OpenMP BLAS3 based DFT computing Module                
 Release: version 1.0, May 2013, Q-Chem Inc. Pittsburgh 
 -------------------------------------------------------
 A unrestricted SCF calculation will be
 performed using Roothaan-Hall, DIIS, GDM
 SCF converges when RMS gradient is below 1.0e-07
 ---------------------------------------
  Cycle       Energy         DIIS error
 ---------------------------------------
    1    -378.8797267795      5.31e-04  Roothaan Step
 ---------------------------------------
  Cycle       Energy         DIIS error
 ---------------------------------------
    1    -378.9246603360      6.36e-04  
    2    -378.9334361725      6.51e-04  Done DIIS. Switching to GDM
 ---------------------------------------
  Cycle       Energy        RMS Gradient
 ---------------------------------------
    1    -378.9334361725      2.69e-02   Normal BFGS step
    2    -378.9304680898      4.96e-02  Line search: overstep
    3    -378.9407997716      7.88e-03   Normal BFGS step
    4    -378.9412202234      6.96e-03   Normal BFGS step
    5    -378.9413182248      1.74e-03   Normal BFGS step
    6    -378.9413403257      7.42e-04   Normal BFGS step
    7    -378.9413457057      7.73e-04   Normal BFGS step
    8    -378.9413469799      8.40e-05   Normal BFGS step
    9    -378.9413470842      4.63e-05   Normal BFGS step
   10    -378.9413470985      2.72e-05   Normal BFGS step
   11    -378.9413471020      1.16e-05   Normal BFGS step
   12    -378.9413471027      7.30e-06   Normal BFGS step
   13    -378.9413471029      3.69e-06   Normal BFGS step
   14    -378.9413471029      9.10e-07   Normal BFGS step
   15    -378.9413471029      3.13e-07   Normal BFGS step
   16    -378.9413471029      1.12e-07   Normal BFGS step
   17    -378.9413471029      5.14e-08  Convergence criterion met
 ---------------------------------------
 SCF time:   CPU 416.54s  wall 53.00s 
<S^2> =          0.753958021
(3)  G-ENP(liq) elect-nuc-pol free energy of system     -378.941347103 a.u.
(4)  G-CDS(liq) cavity-dispersion-solvent structure 
     free energy                                                5.2111 kcal/mol
(6)  G-S(liq) free energy of system                     -378.933042627 a.u.
 SCF   energy in the final basis set =     -378.9330426269
 Total energy in the final basis set =     -378.9330426269
 
 --------------------------------------------------------------
 
                    Orbital Energies (a.u.)
 --------------------------------------------------------------
 
 Alpha MOs
 -- Occupied --
-19.3962 -19.3958 -19.3756 -19.3224 -10.4855 -10.4793  -1.2703  -1.2262
 -1.1953  -1.1471  -0.8761  -0.7348  -0.7238  -0.6847  -0.6148  -0.5914
 -0.5700  -0.5445  -0.5210  -0.4942  -0.4867  -0.4427  -0.4080  -0.2805
 -- Virtual --
  0.0254   0.0469   0.0588   0.0815   0.0899   0.1033   0.1128   0.1147
  0.1420   0.1474   0.1523   0.1601   0.2094   0.2148   0.2208   0.2443
  0.2605   0.2662   0.2794   0.2970   0.3031   0.3048   0.3159   0.3176
  0.3249   0.3319   0.3352   0.3552   0.3576   0.3832   0.4008   0.4232
  0.4332   0.4381   0.5224   0.5769   0.5950   0.6080   0.6206   0.6543
  0.6619   0.6843   0.6960   0.7265   0.7469   0.7728   0.8125   0.8234
  0.8413   0.8794   0.8972   0.9119   0.9414   0.9890   1.0348   1.0534
  1.0701   1.0971   1.1006   1.1133   1.1292   1.1454   1.1545   1.1578
  1.1941   1.2112   1.2445   1.2544   1.2701   1.3566   1.3854   1.3950
  1.4410   1.4941   1.5018   1.5199   1.6014   1.6435   1.6687   1.6816
  1.7081   1.7376   1.8299   1.8459   1.8851   1.8955   1.9441   1.9736
  1.9900   2.0894   2.1680   2.2576   2.2625   2.3189   2.3671   2.3919
  2.4245   2.4446   2.5575   2.5923   2.6033   2.6544   2.7067   2.7673
  2.8150   2.8534   2.8604   2.8965   2.9722   3.0982   3.1204   3.1626
  3.2411   3.2721   3.2836   3.3227   3.3595   3.4029   3.4151   3.4489
  3.5324   3.5408   3.5590   3.5703   3.6397   3.7082   3.7216   3.7616
  3.7928   3.8259   3.8508   3.9266   3.9864   4.0561   4.0909   4.2135
  4.2338   4.2716   4.3056   4.3200   4.3392   4.3861   4.5191   4.8870
  5.1290   5.1316   5.1532   5.1644   5.1816   5.1837   5.2119   5.2245
  5.2389   5.2547   5.2758   5.2938   5.3141   5.3686   5.4769   5.5043
  5.5196   5.5251   5.5811   5.6085   5.6442   5.6811   5.6978   5.7129
  5.8253   5.8730   5.9418   5.9753   6.0743   6.1251   6.3781   6.4273
  6.6317   6.8125   6.8523   6.9315   6.9895   7.0171   7.0311   7.0672
  7.1287   7.2164   7.2212   7.2362   7.2511   7.2964   7.3168   7.3642
  7.3925   7.4114   7.4556   7.4962   7.5418   7.6365   7.7005   7.7738
  7.8035   7.8449   7.9087   7.9583  24.8662  25.2328  50.5341  50.5762
 50.6192  50.7427
 
 Beta MOs
 -- Occupied --
-19.3934 -19.3925 -19.3745 -19.3174 -10.4782 -10.4769  -1.2623  -1.2219
 -1.1883  -1.1400  -0.8574  -0.7305  -0.7173  -0.6783  -0.5912  -0.5838
 -0.5628  -0.5284  -0.5154  -0.4881  -0.4632  -0.4194  -0.4010
 -- Virtual --
 -0.0030   0.0252   0.0469   0.0587   0.0815   0.0900   0.1034   0.1126
  0.1152   0.1473   0.1521   0.1607   0.1872   0.2116   0.2165   0.2233
  0.2457   0.2611   0.2668   0.2805   0.2984   0.3036   0.3063   0.3178
  0.3251   0.3282   0.3332   0.3401   0.3573   0.3603   0.3859   0.4027
  0.4275   0.4363   0.4455   0.5268   0.5797   0.5987   0.6104   0.6276
  0.6621   0.6685   0.6925   0.7050   0.7366   0.7539   0.7767   0.8143
  0.8303   0.8468   0.8825   0.8981   0.9176   0.9460   0.9903   1.0393
  1.0563   1.0775   1.0996   1.1033   1.1162   1.1334   1.1487   1.1594
  1.1638   1.1972   1.2173   1.2492   1.2568   1.2778   1.3600   1.3915
  1.4021   1.4444   1.4977   1.5060   1.5244   1.6061   1.6457   1.6751
  1.6884   1.7132   1.7449   1.8382   1.8504   1.8925   1.9011   1.9539
  1.9807   1.9989   2.0960   2.1741   2.2628   2.2703   2.3227   2.3725
  2.3997   2.4300   2.4505   2.5632   2.5993   2.6115   2.6657   2.7259
  2.7867   2.8507   2.8628   2.8976   2.9137   2.9891   3.1206   3.1426
  3.1745   3.2545   3.2864   3.2966   3.3509   3.3807   3.4221   3.4374
  3.4686   3.5571   3.5655   3.5817   3.5957   3.6547   3.7208   3.7380
  3.7696   3.8008   3.8372   3.8568   3.9332   3.9931   4.0605   4.0969
  4.2190   4.2421   4.2900   4.3223   4.3410   4.3517   4.3928   4.5285
  4.9163   5.1395   5.1419   5.1652   5.1787   5.1937   5.1970   5.2208
  5.2372   5.2465   5.2662   5.2860   5.2999   5.3222   5.3740   5.4837
  5.5095   5.5292   5.5314   5.5884   5.6152   5.6527   5.6878   5.7041
  5.7190   5.8326   5.8836   5.9504   5.9888   6.0773   6.1370   6.3923
  6.4324   6.6389   6.8187   6.8595   6.9524   7.0064   7.0316   7.0403
  7.0791   7.1373   7.2245   7.2336   7.2435   7.2615   7.3063   7.3257
  7.3702   7.4072   7.4213   7.4656   7.5013   7.5486   7.6422   7.7065
  7.7777   7.8101   7.8501   7.9130   7.9629  24.8708  25.2374  50.5362
 50.5789  50.6209  50.7464
 --------------------------------------------------------------
 
          Ground-State Mulliken Net Atomic Charges

     Atom                 Charge (a.u.)    Spin (a.u.)
  --------------------------------------------------------
      1 O                    -0.359270       0.072228
      2 C                     0.363288       0.511455
      3 O                    -0.337667       0.090085
      4 C                     0.195415       0.108451
      5 O                    -0.369783       0.034062
      6 O                    -0.557755       0.176720
      7 H                     0.373205       0.006770
      8 H                     0.366709       0.001673
      9 H                     0.325857      -0.001443
  --------------------------------------------------------
  Sum of atomic charges =     0.000000
  Sum of spin   charges =     1.000000

 -----------------------------------------------------------------
                    Cartesian Multipole Moments
 -----------------------------------------------------------------
    Charge (ESU x 10^10)
                 0.0000
    Dipole Moment (Debye)
         X      -9.0554      Y       5.3172      Z       0.9880
       Tot      10.5475
    Quadrupole Moments (Debye-Ang)
        XX     -35.2374     XY       6.8550     YY     -41.0833
        XZ      -2.2494     YZ       2.8409     ZZ     -32.8984
    Octopole Moments (Debye-Ang^2)
       XXX     -98.7748    XXY      21.7690    XYY     -25.5119
       YYY      53.6776    XXZ     -12.2817    XYZ      -1.6719
       YYZ      -8.3812    XZZ     -18.0573    YZZ      12.8174
       ZZZ     -31.4571
    Hexadecapole Moments (Debye-Ang^3)
      XXXX    -397.8304   XXXY      43.8037   XXYY    -113.2258
      XYYY      46.2265   YYYY    -261.6047   XXXZ     -41.2100
      XXYZ       6.3588   XYYZ      -7.1860   YYYZ      -0.1488
      XXZZ     -72.7664   XYZZ       6.4130   YYZZ     -48.0310
      XZZZ     -28.4124   YZZZ      -6.9579   ZZZZ     -61.6070
 -----------------------------------------------------------------
 Calculating analytic gradient of the SCF energy
 Gradient of CDS energy
            1           2           3           4           5           6
    1   0.0012876  -0.0041085   0.0022733   0.0047007  -0.0029206  -0.0007131
    2  -0.0032029   0.0003259   0.0028476   0.0022628  -0.0043014   0.0015792
    3  -0.0004312  -0.0003270   0.0006566   0.0009691  -0.0012962   0.0002982
            7           8           9
    1  -0.0002728  -0.0003492   0.0001026
    2   0.0002927  -0.0001744   0.0003705
    3   0.0001698  -0.0001527   0.0001134
 Gradient of SCF Energy
            1           2           3           4           5           6
    1   0.0265346   0.0003996   0.0285150   0.0035730   0.0098410  -0.0011859
    2   0.0026778   0.0036221  -0.0158041  -0.0047304  -0.0137197   0.0043814
    3  -0.0114541   0.0013814   0.0047176  -0.0018438  -0.0027851   0.0014821
            7           8           9
    1  -0.0307378  -0.0280053  -0.0089341
    2   0.0007901   0.0114091   0.0113737
    3   0.0099095  -0.0046708   0.0032632
 Max gradient component =       3.074E-02
 RMS gradient           =       1.291E-02
 Computing fast CPCM-SWIG gradient
 Updating gradient with PCM contributions...
 -- total gradient after adding PCM contribution --
---------------------------------------------------
  Atom         X              Y              Z     
---------------------------------------------------
   1      -0.001051      -0.000144      -0.000247
   2       0.000938      -0.000313       0.000418
   3      -0.000720       0.000515       0.000182
   4       0.000511      -0.000608      -0.002025
   5      -0.000746       0.000176       0.000522
   6      -0.000633       0.000857       0.000963
   7       0.000694       0.000052       0.000198
   8       0.000544      -0.000136      -0.000044
   9       0.000464      -0.000399       0.000033
---------------------------------------------------
 Number of fixed atoms: 0
 Gradient time:  CPU 58.21 s  wall 8.60 s
 Geometry Optimization Parameters
   NAtoms,    NIC,     NZ,  NCons,   NDum,   NFix, NCnnct, MaxDiis
        9      45       0       0       0       0       0       0

 Cartesian Hessian Update
 Hessian updated using BFGS update


** GEOMETRY OPTIMIZATION IN DELOCALIZED INTERNAL COORDINATES **
   Searching for a Minimum

   Optimization Cycle:   3

                       Coordinates (Angstroms)
     ATOM                X               Y               Z
      1  O        -0.7365447826    0.9857945727    0.4187247623
      2  C        -0.2417475827   -0.2481175927    0.2692344789
      3  O        -1.0395445173   -1.2898343495    0.0418168580
      4  C         1.1591016977   -0.4583891676    0.3387927473
      5  O         1.9222385951    0.6188839488    0.6636140433
      6  O         1.6992970856   -1.5470741059    0.1398751236
      7  H        -1.6287382974    0.9730419870    0.7954891205
      8  H        -1.9271019495   -0.9991582566   -0.2121113711
      9  H         1.3654365511    1.3917003639    0.8319395374
   Point Group: c1    Number of degrees of freedom:    21


   Energy is   -378.933042627

 Hessian updated using BFGS update

 21 Hessian modes will be used to form the next step
  Hessian Eigenvalues:
     0.011039    0.019384    0.020423    0.021201    0.023361    0.041751
     0.149160    0.160035    0.161846    0.245358    0.250000    0.250143
     0.259211    0.421503    0.516782    0.521262    0.523129    0.526636
     0.544538    0.568691    0.920029

 Minimum search - taking simple RFO step
 Searching for Lamda that Minimizes Along All modes
 Value Taken    Lamda =  -0.00007518
 Step Taken.  Stepsize is  0.064733

                             Maximum     Tolerance    Cnvgd?
         Gradient           0.001163      0.000300      NO
         Displacement       0.048683      0.001200      NO
         Energy change     -0.000036      0.000001      NO


 New Cartesian Coordinates Obtained by Inverse Iteration

 Displacement from previous Coordinates is:  0.057762
 ----------------------------------------------------------------
             Standard Nuclear Orientation (Angstroms)
    I     Atom           X                Y                Z
 ----------------------------------------------------------------
    1      O      -0.7331839550     0.9840228263     0.4338973777
    2      C      -0.2420944717    -0.2483382525     0.2753825333
    3      O      -1.0363463777    -1.2879319871     0.0341221720
    4      C       1.1580433555    -0.4599425598     0.3466695953
    5      O       1.9229457338     0.6181349447     0.6622713373
    6      O       1.6988174576    -1.5465143170     0.1325724854
    7      H      -1.6374634778     0.9761927331     0.7790675929
    8      H      -1.9289727599    -1.0026266209    -0.2054862010
    9      H       1.3706512953     1.3938506332     0.8288784074
 ----------------------------------------------------------------
 Nuclear Repulsion Energy =         241.77123732 hartrees
 There are       24 alpha and       23 beta electrons
 Discretize the solute cavity surface with Lebedev spheres
	Using 110 Lebedev grid points for each H atom
	Using 194 Lebedev grid points for other atoms
	Atomic van der Waals radii will be scaled by 1.20
 Remove points where switching function is < 1.0e-08
 Keep 820 surface tesserae and discard 674 interior tesserae
 Molecular Surface Area = 98.063 Angst**2
 Applying Cartesian multipole field
    Component          Value
    ---------          -----
     (2,0,0)        1.00000E-11
     (0,2,0)        2.00000E-11
     (0,0,2)       -3.00000E-11
 Nucleus-field energy     =     0.0000000056 hartrees
 Requested basis set is 6-311++G(2df,2p)
 There are 66 shells and 234 basis functions
 A cutoff of  1.0D-12 yielded   2086 shell pairs
 There are     26517 function pairs (     33760 Cartesian)
 Smallest overlap matrix eigenvalue = 4.66E-05
 Guess MOs from SCF MO coefficient file

 -----------------------------------------------------------------------
  General SCF calculation program by
  Eric Jon Sundstrom, Paul Horn, Yuezhi Mao, Dmitri Zuev, Alec White,
  David Stuck, Shaama M.S., Shane Yost, Joonho Lee, David Small,
  Daniel Levine, Susi Lehtola, Hugh Burton, Evgeny Epifanovsky,
  Bang C. Huynh
 -----------------------------------------------------------------------
 Exchange:     0.1500 Hartree-Fock + 1.0000 wB97M-V + LR-HF
 Correlation:  1.0000 wB97M-V
 Using SG-2 standard quadrature grid
 Nonlocal Correlation:  VV10 with C = 0.0100 and b = 6.00 and scale = 1.00000
 Grid used for NLC:  SG-1 standard quadrature
 
 Citation of the SMD model:
 Marenich, A.V.; Cramer, C.J.; Truhlar, D.G.
 J. Phys. Chem. B 2009, 113, 6378-6396.
 iSolventCode=           1
 Solvent: water                                                           
 
 vradii
            1           2           3           4           5           6
    1   1.5200000   1.8500000   1.5200000   1.8500000   1.5200000   1.5200000
            7           8           9
    1   1.2000000   1.2000000   1.2000000
 -------------------------------------------------------
 OpenMP BLAS3 based DFT computing Module                
 Release: version 1.0, May 2013, Q-Chem Inc. Pittsburgh 
 -------------------------------------------------------
 A unrestricted SCF calculation will be
 performed using Roothaan-Hall, DIIS, GDM
 SCF converges when RMS gradient is below 1.0e-07
 ---------------------------------------
  Cycle       Energy         DIIS error
 ---------------------------------------
    1    -378.8790377919      5.37e-04  Roothaan Step
 ---------------------------------------
  Cycle       Energy         DIIS error
 ---------------------------------------
    1    -378.9245541615      6.38e-04  
    2    -378.9334471773      6.53e-04  Done DIIS. Switching to GDM
 ---------------------------------------
  Cycle       Energy        RMS Gradient
 ---------------------------------------
    1    -378.9334471773      2.70e-02   Normal BFGS step
    2    -378.9304765242      4.99e-02  Line search: overstep
    3    -378.9408481724      8.02e-03   Normal BFGS step
    4    -378.9412738941      7.08e-03   Normal BFGS step
    5    -378.9413739196      1.75e-03   Normal BFGS step
    6    -378.9413962501      7.57e-04   Normal BFGS step
    7    -378.9414017655      7.82e-04   Normal BFGS step
    8    -378.9414030506      8.54e-05   Normal BFGS step
    9    -378.9414031548      4.59e-05   Normal BFGS step
   10    -378.9414031693      2.65e-05   Normal BFGS step
   11    -378.9414031727      1.13e-05   Normal BFGS step
   12    -378.9414031734      7.30e-06   Normal BFGS step
   13    -378.9414031736      3.74e-06   Normal BFGS step
   14    -378.9414031736      9.40e-07   Normal BFGS step
   15    -378.9414031736      2.77e-07   Normal BFGS step
   16    -378.9414031736      1.01e-07   Normal BFGS step
   17    -378.9414031736      4.81e-08  Convergence criterion met
 ---------------------------------------
 SCF time:   CPU 411.03s  wall 52.00s 
<S^2> =          0.753922721
(3)  G-ENP(liq) elect-nuc-pol free energy of system     -378.941403174 a.u.
(4)  G-CDS(liq) cavity-dispersion-solvent structure 
     free energy                                                5.2260 kcal/mol
(6)  G-S(liq) free energy of system                     -378.933074947 a.u.
 SCF   energy in the final basis set =     -378.9330749470
 Total energy in the final basis set =     -378.9330749470
 
 --------------------------------------------------------------
 
                    Orbital Energies (a.u.)
 --------------------------------------------------------------
 
 Alpha MOs
 -- Occupied --
-19.3965 -19.3958 -19.3754 -19.3219 -10.4854 -10.4788  -1.2708  -1.2261
 -1.1960  -1.1465  -0.8765  -0.7354  -0.7248  -0.6850  -0.6150  -0.5913
 -0.5697  -0.5441  -0.5209  -0.4947  -0.4871  -0.4424  -0.4078  -0.2795
 -- Virtual --
  0.0254   0.0468   0.0588   0.0816   0.0899   0.1033   0.1128   0.1148
  0.1426   0.1472   0.1519   0.1602   0.2092   0.2152   0.2211   0.2442
  0.2622   0.2661   0.2809   0.2973   0.3031   0.3044   0.3165   0.3193
  0.3249   0.3323   0.3356   0.3552   0.3580   0.3840   0.4008   0.4237
  0.4337   0.4379   0.5226   0.5777   0.5947   0.6090   0.6192   0.6551
  0.6616   0.6855   0.6966   0.7268   0.7482   0.7729   0.8126   0.8253
  0.8411   0.8800   0.8967   0.9102   0.9396   0.9855   1.0349   1.0560
  1.0734   1.0976   1.1019   1.1134   1.1294   1.1464   1.1537   1.1574
  1.1937   1.2106   1.2446   1.2559   1.2696   1.3582   1.3882   1.3949
  1.4414   1.4925   1.5026   1.5219   1.6021   1.6436   1.6676   1.6846
  1.7102   1.7413   1.8231   1.8432   1.8840   1.9027   1.9424   1.9778
  1.9904   2.0870   2.1690   2.2546   2.2641   2.3234   2.3673   2.3943
  2.4250   2.4457   2.5576   2.5956   2.5982   2.6511   2.7103   2.7655
  2.8127   2.8565   2.8594   2.8977   2.9727   3.1007   3.1184   3.1665
  3.2435   3.2732   3.2839   3.3214   3.3563   3.4046   3.4157   3.4495
  3.5319   3.5417   3.5566   3.5719   3.6445   3.7058   3.7227   3.7619
  3.7928   3.8283   3.8500   3.9276   3.9863   4.0562   4.0912   4.2125
  4.2331   4.2727   4.3061   4.3232   4.3469   4.3997   4.5211   4.8884
  5.1273   5.1298   5.1528   5.1622   5.1795   5.1836   5.2120   5.2236
  5.2383   5.2557   5.2751   5.2943   5.3174   5.3691   5.4774   5.5028
  5.5180   5.5250   5.5816   5.6075   5.6461   5.6809   5.6999   5.7134
  5.8287   5.8781   5.9412   5.9784   6.0766   6.1297   6.3766   6.4293
  6.6388   6.8169   6.8549   6.9312   6.9889   7.0133   7.0308   7.0678
  7.1302   7.2167   7.2198   7.2388   7.2533   7.2960   7.3153   7.3704
  7.3943   7.4128   7.4547   7.4963   7.5425   7.6379   7.7012   7.7747
  7.8055   7.8489   7.9150   7.9600  24.8701  25.2357  50.5347  50.5776
 50.6212  50.7423
 
 Beta MOs
 -- Occupied --
-19.3936 -19.3925 -19.3743 -19.3169 -10.4776 -10.4769  -1.2628  -1.2218
 -1.1889  -1.1394  -0.8580  -0.7311  -0.7184  -0.6786  -0.5910  -0.5838
 -0.5627  -0.5278  -0.5152  -0.4889  -0.4631  -0.4190  -0.4008
 -- Virtual --
 -0.0022   0.0252   0.0469   0.0587   0.0816   0.0900   0.1033   0.1126
  0.1153   0.1472   0.1518   0.1607   0.1879   0.2114   0.2169   0.2236
  0.2456   0.2627   0.2668   0.2820   0.2986   0.3037   0.3059   0.3199
  0.3254   0.3280   0.3334   0.3405   0.3573   0.3608   0.3868   0.4027
  0.4281   0.4366   0.4454   0.5269   0.5805   0.5982   0.6115   0.6262
  0.6632   0.6680   0.6935   0.7059   0.7369   0.7554   0.7766   0.8140
  0.8324   0.8466   0.8831   0.8977   0.9157   0.9449   0.9868   1.0392
  1.0588   1.0807   1.1001   1.1049   1.1163   1.1339   1.1493   1.1584
  1.1639   1.1968   1.2166   1.2491   1.2583   1.2772   1.3618   1.3941
  1.4018   1.4448   1.4965   1.5067   1.5263   1.6068   1.6459   1.6742
  1.6914   1.7153   1.7486   1.8317   1.8475   1.8914   1.9084   1.9517
  1.9853   1.9992   2.0936   2.1752   2.2595   2.2721   2.3272   2.3725
  2.4024   2.4306   2.4515   2.5631   2.6012   2.6075   2.6624   2.7299
  2.7852   2.8500   2.8648   2.8971   2.9142   2.9891   3.1225   3.1409
  3.1784   3.2568   3.2873   3.2973   3.3490   3.3773   3.4239   3.4380
  3.4691   3.5576   3.5651   3.5791   3.5975   3.6594   3.7183   3.7393
  3.7696   3.8008   3.8400   3.8558   3.9342   3.9929   4.0605   4.0971
  4.2185   4.2404   4.2912   4.3258   4.3455   4.3560   4.4057   4.5305
  4.9177   5.1385   5.1392   5.1647   5.1770   5.1915   5.1974   5.2210
  5.2364   5.2456   5.2677   5.2854   5.3003   5.3258   5.3744   5.4842
  5.5079   5.5276   5.5314   5.5890   5.6142   5.6544   5.6878   5.7061
  5.7198   5.8362   5.8885   5.9498   5.9920   6.0795   6.1417   6.3910
  6.4343   6.6460   6.8230   6.8621   6.9522   7.0055   7.0288   7.0396
  7.0800   7.1388   7.2251   7.2321   7.2466   7.2633   7.3057   7.3244
  7.3766   7.4088   7.4228   7.4649   7.5012   7.5494   7.6437   7.7072
  7.7787   7.8121   7.8540   7.9194   7.9648  24.8746  25.2404  50.5368
 50.5803  50.6229  50.7460
 --------------------------------------------------------------
 
          Ground-State Mulliken Net Atomic Charges

     Atom                 Charge (a.u.)    Spin (a.u.)
  --------------------------------------------------------
      1 O                    -0.357379       0.074114
      2 C                     0.363558       0.506711
      3 O                    -0.336864       0.090266
      4 C                     0.195829       0.111638
      5 O                    -0.370605       0.034244
      6 O                    -0.560158       0.177128
      7 H                     0.373279       0.005991
      8 H                     0.366587       0.001354
      9 H                     0.325754      -0.001445
  --------------------------------------------------------
  Sum of atomic charges =     0.000000
  Sum of spin   charges =     1.000000

 -----------------------------------------------------------------
                    Cartesian Multipole Moments
 -----------------------------------------------------------------
    Charge (ESU x 10^10)
                 0.0000
    Dipole Moment (Debye)
         X      -9.1354      Y       5.3446      Z       0.9894
       Tot      10.6301
    Quadrupole Moments (Debye-Ang)
        XX     -35.1103     XY       6.8906     YY     -41.0229
        XZ      -2.1722     YZ       2.6968     ZZ     -32.9958
    Octopole Moments (Debye-Ang^2)
       XXX     -99.3432    XXY      21.9189    XYY     -25.6860
       YYY      53.8231    XXZ     -12.2097    XYZ      -1.6043
       YYZ      -8.4140    XZZ     -17.9662    YZZ      12.7267
       ZZZ     -31.7412
    Hexadecapole Moments (Debye-Ang^3)
      XXXX    -397.0198   XXXY      43.9664   XXYY    -112.7856
      XYYY      46.4753   YYYY    -261.2117   XXXZ     -40.9310
      XXYZ       5.9720   XYYZ      -7.0491   YYYZ      -0.7609
      XXZZ     -72.9372   XYZZ       6.5084   YYZZ     -48.1700
      XZZZ     -28.1093   YZZZ      -7.5951   ZZZZ     -62.2556
 -----------------------------------------------------------------
 Calculating analytic gradient of the SCF energy
 Gradient of CDS energy
            1           2           3           4           5           6
    1   0.0012581  -0.0040385   0.0022314   0.0046979  -0.0029101  -0.0007203
    2  -0.0031357   0.0003177   0.0027928   0.0022304  -0.0042813   0.0015902
    3  -0.0004455  -0.0003346   0.0006814   0.0009094  -0.0012551   0.0003204
            7           8           9
    1  -0.0002744  -0.0003480   0.0001038
    2   0.0002914  -0.0001753   0.0003697
    3   0.0001623  -0.0001493   0.0001110
 Gradient of SCF Energy
            1           2           3           4           5           6
    1   0.0271628  -0.0000988   0.0292568   0.0032978   0.0088878  -0.0009171
    2   0.0012243   0.0040066  -0.0145223  -0.0046246  -0.0135132   0.0040039
    3  -0.0101415   0.0008696   0.0041837   0.0007134  -0.0034786   0.0004504
            7           8           9
    1  -0.0310844  -0.0281397  -0.0083651
    2   0.0013581   0.0108527   0.0112145
    3   0.0087087  -0.0042921   0.0029864
 Max gradient component =       3.108E-02
 RMS gradient           =       1.283E-02
 Computing fast CPCM-SWIG gradient
 Updating gradient with PCM contributions...
 -- total gradient after adding PCM contribution --
---------------------------------------------------
  Atom         X              Y              Z     
---------------------------------------------------
   1      -0.000987      -0.001282      -0.000082
   2       0.000222       0.000084      -0.000142
   3      -0.000364       0.001646       0.000045
   4       0.000291      -0.000564       0.000826
   5      -0.001594       0.000433      -0.000255
   6      -0.000342       0.000468      -0.000247
   7       0.001040       0.000336      -0.000021
   8       0.000817      -0.000578       0.000056
   9       0.000916      -0.000542      -0.000179
---------------------------------------------------
 Number of fixed atoms: 0
 Gradient time:  CPU 58.66 s  wall 8.69 s
 Geometry Optimization Parameters
   NAtoms,    NIC,     NZ,  NCons,   NDum,   NFix, NCnnct, MaxDiis
        9      45       0       0       0       0       0       0

 Cartesian Hessian Update
 Hessian updated using BFGS update


** GEOMETRY OPTIMIZATION IN DELOCALIZED INTERNAL COORDINATES **
   Searching for a Minimum

   Optimization Cycle:   4

                       Coordinates (Angstroms)
     ATOM                X               Y               Z
      1  O        -0.7331839550    0.9840228263    0.4338973777
      2  C        -0.2420944717   -0.2483382525    0.2753825333
      3  O        -1.0363463777   -1.2879319871    0.0341221720
      4  C         1.1580433555   -0.4599425598    0.3466695953
      5  O         1.9229457338    0.6181349447    0.6622713373
      6  O         1.6988174576   -1.5465143170    0.1325724854
      7  H        -1.6374634778    0.9761927331    0.7790675929
      8  H        -1.9289727599   -1.0026266209   -0.2054862010
      9  H         1.3706512953    1.3938506332    0.8288784074
   Point Group: c1    Number of degrees of freedom:    21


   Energy is   -378.933074947

 Hessian updated using BFGS update

 21 Hessian modes will be used to form the next step
  Hessian Eigenvalues:
     0.007774    0.019345    0.020419    0.021201    0.023367    0.063846
     0.156638    0.160076    0.162274    0.242430    0.250000    0.250121
     0.263179    0.419664    0.520758    0.521406    0.523147    0.533599
     0.543604    0.571333    0.900673

 Minimum search - taking simple RFO step
 Searching for Lamda that Minimizes Along All modes
 Value Taken    Lamda =  -0.00003235
 Step Taken.  Stepsize is  0.035793

                             Maximum     Tolerance    Cnvgd?
         Gradient           0.001142      0.000300      NO
         Displacement       0.023563      0.001200      NO
         Energy change     -0.000032      0.000001      NO


 New Cartesian Coordinates Obtained by Inverse Iteration

 Displacement from previous Coordinates is:  0.035646
 ----------------------------------------------------------------
             Standard Nuclear Orientation (Angstroms)
    I     Atom           X                Y                Z
 ----------------------------------------------------------------
    1      O      -0.7318734560     0.9844886614     0.4388422558
    2      C      -0.2416491795    -0.2479475961     0.2757451369
    3      O      -1.0357479499    -1.2877539240     0.0318097543
    4      C       1.1593800662    -0.4591333509     0.3447949858
    5      O       1.9256786335     0.6173576826     0.6639087786
    6      O       1.7004413069    -1.5459096646     0.1295513463
    7      H      -1.6431919838     0.9743393480     0.7670312191
    8      H      -1.9316652794    -1.0006463596    -0.1959403429
    9      H       1.3710246421     1.3920526033     0.8316321663
 ----------------------------------------------------------------
 Nuclear Repulsion Energy =         241.68519357 hartrees
 There are       24 alpha and       23 beta electrons
 Discretize the solute cavity surface with Lebedev spheres
	Using 110 Lebedev grid points for each H atom
	Using 194 Lebedev grid points for other atoms
	Atomic van der Waals radii will be scaled by 1.20
 Remove points where switching function is < 1.0e-08
 Keep 817 surface tesserae and discard 677 interior tesserae
 Molecular Surface Area = 98.056 Angst**2
 Applying Cartesian multipole field
    Component          Value
    ---------          -----
     (2,0,0)        1.00000E-11
     (0,2,0)        2.00000E-11
     (0,0,2)       -3.00000E-11
 Nucleus-field energy     =     0.0000000056 hartrees
 Requested basis set is 6-311++G(2df,2p)
 There are 66 shells and 234 basis functions
 A cutoff of  1.0D-12 yielded   2086 shell pairs
 There are     26517 function pairs (     33760 Cartesian)
 Smallest overlap matrix eigenvalue = 4.63E-05
 Guess MOs from SCF MO coefficient file

 -----------------------------------------------------------------------
  General SCF calculation program by
  Eric Jon Sundstrom, Paul Horn, Yuezhi Mao, Dmitri Zuev, Alec White,
  David Stuck, Shaama M.S., Shane Yost, Joonho Lee, David Small,
  Daniel Levine, Susi Lehtola, Hugh Burton, Evgeny Epifanovsky,
  Bang C. Huynh
 -----------------------------------------------------------------------
 Exchange:     0.1500 Hartree-Fock + 1.0000 wB97M-V + LR-HF
 Correlation:  1.0000 wB97M-V
 Using SG-2 standard quadrature grid
 Nonlocal Correlation:  VV10 with C = 0.0100 and b = 6.00 and scale = 1.00000
 Grid used for NLC:  SG-1 standard quadrature
 
 Citation of the SMD model:
 Marenich, A.V.; Cramer, C.J.; Truhlar, D.G.
 J. Phys. Chem. B 2009, 113, 6378-6396.
 iSolventCode=           1
 Solvent: water                                                           
 
 vradii
            1           2           3           4           5           6
    1   1.5200000   1.8500000   1.5200000   1.8500000   1.5200000   1.5200000
            7           8           9
    1   1.2000000   1.2000000   1.2000000
 -------------------------------------------------------
 OpenMP BLAS3 based DFT computing Module                
 Release: version 1.0, May 2013, Q-Chem Inc. Pittsburgh 
 -------------------------------------------------------
 A unrestricted SCF calculation will be
 performed using Roothaan-Hall, DIIS, GDM
 SCF converges when RMS gradient is below 1.0e-07
 ---------------------------------------
  Cycle       Energy         DIIS error
 ---------------------------------------
    1    -378.8787641947      5.33e-04  Roothaan Step
 ---------------------------------------
  Cycle       Energy         DIIS error
 ---------------------------------------
    1    -378.9244720746      6.41e-04  
    2    -378.9334137013      6.56e-04  Done DIIS. Switching to GDM
 ---------------------------------------
  Cycle       Energy        RMS Gradient
 ---------------------------------------
    1    -378.9334137013      2.70e-02   Normal BFGS step
    2    -378.9304161096      4.99e-02  Line search: overstep
    3    -378.9408640746      7.99e-03   Normal BFGS step
    4    -378.9412853670      6.96e-03   Normal BFGS step
    5    -378.9413836561      1.77e-03   Normal BFGS step
    6    -378.9414055839      7.47e-04   Normal BFGS step
    7    -378.9414110513      7.78e-04   Normal BFGS step
    8    -378.9414123374      8.67e-05   Normal BFGS step
    9    -378.9414124422      4.71e-05   Normal BFGS step
   10    -378.9414124569      2.68e-05   Normal BFGS step
   11    -378.9414124602      1.16e-05   Normal BFGS step
   12    -378.9414124610      7.26e-06   Normal BFGS step
   13    -378.9414124612      3.73e-06   Normal BFGS step
   14    -378.9414124612      9.40e-07   Normal BFGS step
   15    -378.9414124612      2.99e-07   Normal BFGS step
   16    -378.9414124612      1.09e-07   Normal BFGS step
   17    -378.9414124612      5.14e-08  Convergence criterion met
 ---------------------------------------
 SCF time:   CPU 413.94s  wall 52.00s 
<S^2> =          0.753921856
(3)  G-ENP(liq) elect-nuc-pol free energy of system     -378.941412461 a.u.
(4)  G-CDS(liq) cavity-dispersion-solvent structure 
     free energy                                                5.2176 kcal/mol
(6)  G-S(liq) free energy of system                     -378.933097726 a.u.
 SCF   energy in the final basis set =     -378.9330977260
 Total energy in the final basis set =     -378.9330977260
 
 --------------------------------------------------------------
 
                    Orbital Energies (a.u.)
 --------------------------------------------------------------
 
 Alpha MOs
 -- Occupied --
-19.3969 -19.3961 -19.3755 -19.3218 -10.4857 -10.4788  -1.2708  -1.2259
 -1.1960  -1.1462  -0.8765  -0.7349  -0.7245  -0.6846  -0.6148  -0.5918
 -0.5695  -0.5439  -0.5211  -0.4954  -0.4873  -0.4423  -0.4077  -0.2792
 -- Virtual --
  0.0254   0.0468   0.0589   0.0818   0.0897   0.1031   0.1128   0.1149
  0.1425   0.1472   0.1517   0.1601   0.2088   0.2153   0.2210   0.2442
  0.2629   0.2661   0.2817   0.2969   0.3027   0.3041   0.3159   0.3198
  0.3249   0.3323   0.3357   0.3551   0.3581   0.3841   0.4009   0.4236
  0.4338   0.4374   0.5226   0.5775   0.5933   0.6084   0.6185   0.6551
  0.6617   0.6859   0.6960   0.7265   0.7481   0.7732   0.8127   0.8260
  0.8409   0.8803   0.8964   0.9099   0.9376   0.9848   1.0347   1.0578
  1.0743   1.0978   1.1028   1.1134   1.1294   1.1470   1.1524   1.1575
  1.1929   1.2102   1.2442   1.2561   1.2695   1.3566   1.3894   1.3945
  1.4413   1.4920   1.5028   1.5222   1.6025   1.6437   1.6676   1.6846
  1.7099   1.7420   1.8197   1.8432   1.8822   1.9060   1.9399   1.9795
  1.9894   2.0854   2.1689   2.2530   2.2638   2.3263   2.3676   2.3946
  2.4248   2.4457   2.5576   2.5971   2.5987   2.6512   2.7100   2.7641
  2.8116   2.8541   2.8588   2.8958   2.9726   3.1025   3.1187   3.1659
  3.2453   3.2729   3.2827   3.3201   3.3543   3.4048   3.4146   3.4500
  3.5311   3.5413   3.5573   3.5718   3.6452   3.7051   3.7223   3.7607
  3.7913   3.8279   3.8482   3.9269   3.9852   4.0535   4.0903   4.2107
  4.2308   4.2729   4.3041   4.3215   4.3462   4.4014   4.5183   4.8871
  5.1257   5.1293   5.1522   5.1609   5.1782   5.1833   5.2123   5.2232
  5.2390   5.2561   5.2745   5.2941   5.3199   5.3696   5.4779   5.5029
  5.5169   5.5248   5.5799   5.6059   5.6446   5.6780   5.6971   5.7127
  5.8271   5.8771   5.9401   5.9759   6.0753   6.1267   6.3746   6.4277
  6.6363   6.8160   6.8530   6.9310   6.9879   7.0112   7.0308   7.0683
  7.1290   7.2158   7.2176   7.2374   7.2504   7.2934   7.3109   7.3676
  7.3946   7.4110   7.4537   7.4961   7.5424   7.6369   7.7008   7.7736
  7.8047   7.8488   7.9166   7.9599  24.8684  25.2326  50.5335  50.5770
 50.6206  50.7416
 
 Beta MOs
 -- Occupied --
-19.3941 -19.3928 -19.3744 -19.3168 -10.4777 -10.4772  -1.2628  -1.2216
 -1.1890  -1.1391  -0.8580  -0.7306  -0.7182  -0.6783  -0.5910  -0.5840
 -0.5626  -0.5275  -0.5155  -0.4897  -0.4631  -0.4188  -0.4007
 -- Virtual --
 -0.0020   0.0252   0.0469   0.0588   0.0819   0.0899   0.1032   0.1127
  0.1154   0.1472   0.1516   0.1607   0.1879   0.2111   0.2171   0.2235
  0.2456   0.2634   0.2668   0.2828   0.2983   0.3032   0.3056   0.3205
  0.3252   0.3274   0.3335   0.3405   0.3572   0.3609   0.3869   0.4028
  0.4282   0.4366   0.4448   0.5269   0.5803   0.5968   0.6110   0.6255
  0.6634   0.6679   0.6938   0.7055   0.7364   0.7552   0.7767   0.8140
  0.8330   0.8467   0.8834   0.8973   0.9153   0.9432   0.9861   1.0390
  1.0605   1.0817   1.1003   1.1061   1.1162   1.1339   1.1494   1.1572
  1.1643   1.1959   1.2163   1.2486   1.2586   1.2770   1.3602   1.3953
  1.4014   1.4448   1.4959   1.5070   1.5265   1.6073   1.6459   1.6743
[...]
   12    -378.9414058056      7.09e-06   Normal BFGS step
   13    -378.9414058057      3.70e-06   Normal BFGS step
   14    -378.9414058058      9.73e-07   Normal BFGS step
   15    -378.9414058058      3.25e-07   Normal BFGS step
   16    -378.9414058058      1.12e-07   Normal BFGS step
   17    -378.9414058058      5.22e-08  Convergence criterion met
 ---------------------------------------
 SCF time:   CPU 415.29s  wall 53.00s 
<S^2> =          0.753908382
(3)  G-ENP(liq) elect-nuc-pol free energy of system     -378.941405806 a.u.
(4)  G-CDS(liq) cavity-dispersion-solvent structure 
     free energy                                                5.2038 kcal/mol
(6)  G-S(liq) free energy of system                     -378.933113093 a.u.
 SCF   energy in the final basis set =     -378.9331130929
 Total energy in the final basis set =     -378.9331130929
 
 --------------------------------------------------------------
 
                    Orbital Energies (a.u.)
 --------------------------------------------------------------
 
 Alpha MOs
 -- Occupied --
-19.3977 -19.3964 -19.3754 -19.3216 -10.4861 -10.4785  -1.2706  -1.2254
 -1.1963  -1.1459  -0.8770  -0.7348  -0.7246  -0.6842  -0.6144  -0.5922
 -0.5693  -0.5431  -0.5213  -0.4964  -0.4879  -0.4422  -0.4077  -0.2784
 -- Virtual --
  0.0253   0.0468   0.0590   0.0825   0.0893   0.1029   0.1129   0.1151
  0.1427   0.1472   0.1512   0.1601   0.2082   0.2159   0.2208   0.2441
  0.2649   0.2668   0.2842   0.2963   0.3020   0.3036   0.3149   0.3221
  0.3250   0.3330   0.3372   0.3548   0.3591   0.3843   0.4008   0.4235
  0.4344   0.4370   0.5223   0.5783   0.5913   0.6084   0.6169   0.6560
  0.6621   0.6871   0.6957   0.7259   0.7487   0.7741   0.8130   0.8280
  0.8414   0.8812   0.8955   0.9086   0.9326   0.9817   1.0343   1.0616
  1.0783   1.0986   1.1060   1.1132   1.1297   1.1462   1.1511   1.1585
  1.1914   1.2093   1.2438   1.2581   1.2691   1.3548   1.3928   1.3946
  1.4418   1.4912   1.5034   1.5250   1.6043   1.6441   1.6676   1.6852
  1.7124   1.7465   1.8094   1.8428   1.8760   1.9155   1.9348   1.9844
  1.9902   2.0811   2.1692   2.2480   2.2632   2.3357   2.3705   2.3964
  2.4239   2.4464   2.5583   2.5948   2.6010   2.6501   2.7104   2.7604
  2.8073   2.8539   2.8577   2.8937   2.9727   3.1066   3.1187   3.1664
  3.2499   3.2735   3.2803   3.3166   3.3477   3.4066   3.4118   3.4507
  3.5303   3.5412   3.5587   3.5725   3.6489   3.7035   3.7230   3.7584
  3.7905   3.8277   3.8470   3.9260   3.9840   4.0501   4.0900   4.2063
  4.2293   4.2753   4.3046   4.3228   4.3525   4.4165   4.5175   4.8871
  5.1200   5.1284   5.1505   5.1579   5.1740   5.1831   5.2131   5.2223
  5.2388   5.2564   5.2749   5.2944   5.3256   5.3713   5.4776   5.5012
  5.5153   5.5256   5.5776   5.6038   5.6439   5.6714   5.6945   5.7113
  5.8268   5.8773   5.9402   5.9739   6.0738   6.1227   6.3742   6.4266
  6.6380   6.8164   6.8501   6.9308   6.9839   7.0071   7.0307   7.0686
  7.1295   7.2130   7.2157   7.2378   7.2489   7.2864   7.3067   7.3693
  7.3963   7.4109   7.4513   7.4963   7.5431   7.6363   7.7011   7.7714
  7.8060   7.8513   7.9246   7.9615  24.8657  25.2325  50.5323  50.5767
 50.6208  50.7416
 
 Beta MOs
 -- Occupied --
-19.3947 -19.3931 -19.3742 -19.3166 -10.4778 -10.4772  -1.2626  -1.2211
 -1.1892  -1.1387  -0.8586  -0.7304  -0.7185  -0.6779  -0.5904  -0.5843
 -0.5626  -0.5264  -0.5158  -0.4911  -0.4628  -0.4186  -0.4007
 -- Virtual --
 -0.0013   0.0252   0.0469   0.0590   0.0826   0.0895   0.1030   0.1127
  0.1157   0.1471   0.1512   0.1607   0.1884   0.2104   0.2177   0.2235
  0.2455   0.2654   0.2673   0.2854   0.2977   0.3027   0.3051   0.3224
  0.3254   0.3267   0.3348   0.3413   0.3570   0.3617   0.3872   0.4026
  0.4285   0.4367   0.4442   0.5266   0.5811   0.5945   0.6114   0.6238
  0.6647   0.6681   0.6948   0.7057   0.7356   0.7558   0.7772   0.8139
  0.8346   0.8479   0.8843   0.8962   0.9137   0.9392   0.9831   1.0385
  1.0641   1.0860   1.1011   1.1098   1.1156   1.1344   1.1481   1.1561
  1.1655   1.1944   1.2154   1.2480   1.2606   1.2765   1.3585   1.3985
  1.4011   1.4453   1.4953   1.5076   1.5293   1.6092   1.6464   1.6745
  1.6918   1.7176   1.7534   1.8183   1.8472   1.8840   1.9207   1.9438
  1.9932   1.9981   2.0874   2.1754   2.2524   2.2709   2.3395   2.3756
  2.4047   2.4300   2.4519   2.5635   2.6003   2.6098   2.6612   2.7314
  2.7796   2.8479   2.8619   2.8951   2.9096   2.9877   3.1279   3.1417
  3.1782   3.2635   3.2880   3.2940   3.3430   3.3687   3.4260   3.4337
  3.4704   3.5568   3.5637   3.5781   3.6008   3.6637   3.7161   3.7390
  3.7658   3.7986   3.8388   3.8539   3.9326   3.9905   4.0539   4.0956
  4.2138   4.2346   4.2936   4.3254   4.3452   4.3609   4.4217   4.5271
  4.9165   5.1302   5.1385   5.1618   5.1738   5.1868   5.1972   5.2223
  5.2346   5.2455   5.2711   5.2835   5.3004   5.3345   5.3768   5.4840
  5.5064   5.5247   5.5322   5.5855   5.6104   5.6519   5.6785   5.7006
  5.7177   5.8344   5.8871   5.9493   5.9876   6.0766   6.1348   6.3887
  6.4315   6.6450   6.8226   6.8573   6.9519   6.9994   7.0244   7.0389
  7.0816   7.1381   7.2228   7.2264   7.2458   7.2592   7.2947   7.3174
  7.3752   7.4098   7.4220   7.4617   7.5011   7.5500   7.6422   7.7070
  7.7755   7.8129   7.8560   7.9292   7.9663  24.8702  25.2371  50.5344
 50.5794  50.6225  50.7453
 --------------------------------------------------------------
 
          Ground-State Mulliken Net Atomic Charges

     Atom                 Charge (a.u.)    Spin (a.u.)
  --------------------------------------------------------
      1 O                    -0.352298       0.078709
      2 C                     0.367157       0.501409
      3 O                    -0.335370       0.089400
      4 C                     0.189820       0.115027
      5 O                    -0.372463       0.034003
      6 O                    -0.561679       0.178271
      7 H                     0.373210       0.003876
      8 H                     0.365994       0.000754
      9 H                     0.325629      -0.001449
  --------------------------------------------------------
  Sum of atomic charges =     0.000000
  Sum of spin   charges =     1.000000

 -----------------------------------------------------------------
                    Cartesian Multipole Moments
 -----------------------------------------------------------------
    Charge (ESU x 10^10)
                 0.0000
    Dipole Moment (Debye)
         X      -9.2716      Y       5.3580      Z       0.9710
       Tot      10.7524
    Quadrupole Moments (Debye-Ang)
        XX     -34.8944     XY       6.8660     YY     -40.9993
        XZ      -2.0875     YZ       2.4149     ZZ     -33.2465
    Octopole Moments (Debye-Ang^2)
       XXX    -100.7185    XXY      22.0406    XYY     -26.0281
       YYY      53.7377    XXZ     -12.0549    XYZ      -1.2924
       YYZ      -8.3443    XZZ     -17.7102    YZZ      12.5843
       ZZZ     -32.0099
    Hexadecapole Moments (Debye-Ang^3)
      XXXX    -396.8102   XXXY      43.8828   XXYY    -112.5744
      XYYY      46.4019   YYYY    -260.7968   XXXZ     -40.7653
      XXYZ       4.9726   XYYZ      -6.7044   YYYZ      -2.0837
      XXZZ     -73.7305   XYZZ       6.8075   YYZZ     -48.3780
      XZZZ     -27.3745   YZZZ      -8.7822   ZZZZ     -63.1523
 -----------------------------------------------------------------
 Calculating analytic gradient of the SCF energy
 Gradient of CDS energy
            1           2           3           4           5           6
    1   0.0012680  -0.0040801   0.0022641   0.0047551  -0.0029615  -0.0007254
    2  -0.0031579   0.0003104   0.0028272   0.0022647  -0.0043262   0.0016005
    3  -0.0004945  -0.0003098   0.0007173   0.0009357  -0.0013048   0.0003337
            7           8           9
    1  -0.0002772  -0.0003478   0.0001048
    2   0.0002924  -0.0001810   0.0003701
    3   0.0001454  -0.0001369   0.0001138
 Gradient of SCF Energy
            1           2           3           4           5           6
    1   0.0292194   0.0000153   0.0303753   0.0028897   0.0103915  -0.0005643
    2   0.0024370   0.0038231  -0.0163241  -0.0040652  -0.0138147   0.0035674
    3  -0.0075355   0.0009405   0.0030355  -0.0001118  -0.0033596   0.0006870
            7           8           9
    1  -0.0334016  -0.0297589  -0.0091664
    2   0.0012610   0.0115349   0.0115806
    3   0.0066048  -0.0033995   0.0031385
 Max gradient component =       3.340E-02
 RMS gradient           =       1.347E-02
 Computing fast CPCM-SWIG gradient
 Updating gradient with PCM contributions...
 -- total gradient after adding PCM contribution --
---------------------------------------------------
  Atom         X              Y              Z     
---------------------------------------------------
   1       0.000007       0.000029      -0.000041
   2       0.000015      -0.000015       0.000053
   3      -0.000001      -0.000030      -0.000035
   4      -0.000011       0.000085       0.000006
   5       0.000005      -0.000038      -0.000036
   6       0.000009      -0.000060      -0.000016
   7       0.000004       0.000008       0.000033
   8      -0.000032       0.000003       0.000082
   9       0.000003       0.000018      -0.000045
---------------------------------------------------
 Number of fixed atoms: 0
 Gradient time:  CPU 55.47 s  wall 8.16 s
 Geometry Optimization Parameters
   NAtoms,    NIC,     NZ,  NCons,   NDum,   NFix, NCnnct, MaxDiis
        9      45       0       0       0       0       0       0

 Cartesian Hessian Update
 Hessian updated using BFGS update


** GEOMETRY OPTIMIZATION IN DELOCALIZED INTERNAL COORDINATES **
   Searching for a Minimum

   Optimization Cycle:   8

                       Coordinates (Angstroms)
     ATOM                X               Y               Z
      1  O        -0.7265937369    0.9841477964    0.4577690803
      2  C        -0.2402478792   -0.2480819922    0.2787714565
      3  O        -1.0332743381   -1.2873550349    0.0253175921
      4  C         1.1606206866   -0.4586142849    0.3412688524
      5  O         1.9284314593    0.6167230263    0.6653942023
      6  O         1.7012960441   -1.5446342061    0.1197841305
      7  H        -1.6551020347    0.9778739983    0.7336224659
      8  H        -1.9370777822   -1.0038659970   -0.1746886398
      9  H         1.3743443810    1.3906540943    0.8401361600
   Point Group: c1    Number of degrees of freedom:    21


   Energy is   -378.933113093

 Hessian updated using BFGS update

 21 Hessian modes will be used to form the next step
  Hessian Eigenvalues:
     0.002523    0.016350    0.019452    0.020951    0.021739    0.061244
     0.157964    0.160425    0.172456    0.241321    0.248238    0.250721
     0.282889    0.437986    0.473497    0.517537    0.521746    0.523772
     0.554459    0.567440    0.871907

 Minimum search - taking simple RFO step
 Searching for Lamda that Minimizes Along All modes
 Value Taken    Lamda =  -0.00000022
 Step Taken.  Stepsize is  0.004774

                             Maximum     Tolerance    Cnvgd?
         Gradient           0.000047      0.000300     YES
         Displacement       0.002659      0.001200      NO
         Energy change     -0.000001      0.000001     YES


                       Distance Matrix (Angstroms)
             O (  1)   C (  2)   O (  3)   C (  4)   O (  5)   O (  6)
   C (  2)  1.336773
   O (  3)  2.332551  1.331622
   C (  4)  2.378385  1.417978  2.366392
   O (  5)  2.688358  2.366545  3.578675  1.360493
   O (  6)  3.521877  2.340068  2.748271  1.233217  2.240702
   H (  7)  0.968639  1.926569  2.453493  3.185237  3.602332  4.243260
   H (  8)  2.411944  1.912085  0.968106  3.187357  4.274834  3.690110
   H (  9)  2.173797  2.368015  3.692193  1.927262  0.967738  3.040020
             H (  7)   H (  8)
   H (  8)  2.198143
   H (  9)  3.059294  4.210595
 
 Final energy is   -378.933113092927     


 ******************************
 **  OPTIMIZATION CONVERGED  **
 ******************************

                       Coordinates (Angstroms)
     ATOM                X               Y               Z
      1  O        -0.7265937369    0.9841477964    0.4577690803
      2  C        -0.2402478792   -0.2480819922    0.2787714565
      3  O        -1.0332743381   -1.2873550349    0.0253175921
      4  C         1.1606206866   -0.4586142849    0.3412688524
      5  O         1.9284314593    0.6167230263    0.6653942023
      6  O         1.7012960441   -1.5446342061    0.1197841305
      7  H        -1.6551020347    0.9778739983    0.7336224659
      8  H        -1.9370777822   -1.0038659970   -0.1746886398
      9  H         1.3743443810    1.3906540943    0.8401361600

Z-matrix Print:
$molecule
0 2
C 
O  1 1.233217
O  1 1.360493 2 119.433720
H  3 0.967738 1 110.609593 2 -178.132243 0
C  1 1.417978 2 123.777718 3 179.944133 0
O  5 1.331622 1 118.741586 2 3.095154 0
H  6 0.968106 5 111.515966 1 -168.226285 0
O  5 1.336773 1 119.366290 2 -176.060787 0
H  8 0.968639 5 112.390098 1 -157.918231 0
$end

 
 --------------------------------------------------------------
 
                    Orbital Energies (a.u.)
 --------------------------------------------------------------
 
 Alpha MOs
 -- Occupied --
-19.3977 -19.3964 -19.3754 -19.3216 -10.4861 -10.4785  -1.2706  -1.2254
 -1.1963  -1.1459  -0.8770  -0.7348  -0.7246  -0.6842  -0.6144  -0.5922
 -0.5693  -0.5431  -0.5213  -0.4964  -0.4879  -0.4422  -0.4077  -0.2784
 -- Virtual --
  0.0253   0.0468   0.0590   0.0825   0.0893   0.1029   0.1129   0.1151
  0.1427   0.1472   0.1512   0.1601   0.2082   0.2159   0.2208   0.2441
  0.2649   0.2668   0.2842   0.2963   0.3020   0.3036   0.3149   0.3221
  0.3250   0.3330   0.3372   0.3548   0.3591   0.3843   0.4008   0.4235
  0.4344   0.4370   0.5223   0.5783   0.5913   0.6084   0.6169   0.6560
  0.6621   0.6871   0.6957   0.7259   0.7487   0.7741   0.8130   0.8280
  0.8414   0.8812   0.8955   0.9086   0.9326   0.9817   1.0343   1.0616
  1.0783   1.0986   1.1060   1.1132   1.1297   1.1462   1.1511   1.1585
  1.1914   1.2093   1.2438   1.2581   1.2691   1.3548   1.3928   1.3946
  1.4418   1.4912   1.5034   1.5250   1.6043   1.6441   1.6676   1.6852
  1.7124   1.7465   1.8094   1.8428   1.8760   1.9155   1.9348   1.9844
  1.9902   2.0811   2.1692   2.2480   2.2632   2.3357   2.3705   2.3964
  2.4239   2.4464   2.5583   2.5948   2.6010   2.6501   2.7104   2.7604
  2.8073   2.8539   2.8577   2.8937   2.9727   3.1066   3.1187   3.1664
  3.2499   3.2735   3.2803   3.3166   3.3477   3.4066   3.4118   3.4507
  3.5303   3.5412   3.5587   3.5725   3.6489   3.7035   3.7230   3.7584
  3.7905   3.8277   3.8470   3.9260   3.9840   4.0501   4.0900   4.2063
  4.2293   4.2753   4.3046   4.3228   4.3525   4.4165   4.5175   4.8871
  5.1200   5.1284   5.1505   5.1579   5.1740   5.1831   5.2131   5.2223
  5.2388   5.2564   5.2749   5.2944   5.3256   5.3713   5.4776   5.5012
  5.5153   5.5256   5.5776   5.6038   5.6439   5.6714   5.6945   5.7113
  5.8268   5.8773   5.9402   5.9739   6.0738   6.1227   6.3742   6.4266
  6.6380   6.8164   6.8501   6.9308   6.9839   7.0071   7.0307   7.0686
  7.1295   7.2130   7.2157   7.2378   7.2489   7.2864   7.3067   7.3693
  7.3963   7.4109   7.4513   7.4963   7.5431   7.6363   7.7011   7.7714
  7.8060   7.8513   7.9246   7.9615  24.8657  25.2325  50.5323  50.5767
 50.6208  50.7416
 
 Beta MOs
 -- Occupied --
-19.3947 -19.3931 -19.3742 -19.3166 -10.4778 -10.4772  -1.2626  -1.2211
 -1.1892  -1.1387  -0.8586  -0.7304  -0.7185  -0.6779  -0.5904  -0.5843
 -0.5626  -0.5264  -0.5158  -0.4911  -0.4628  -0.4186  -0.4007
 -- Virtual --
 -0.0013   0.0252   0.0469   0.0590   0.0826   0.0895   0.1030   0.1127
  0.1157   0.1471   0.1512   0.1607   0.1884   0.2104   0.2177   0.2235
  0.2455   0.2654   0.2673   0.2854   0.2977   0.3027   0.3051   0.3224
  0.3254   0.3267   0.3348   0.3413   0.3570   0.3617   0.3872   0.4026
  0.4285   0.4367   0.4442   0.5266   0.5811   0.5945   0.6114   0.6238
  0.6647   0.6681   0.6948   0.7057   0.7356   0.7558   0.7772   0.8139
  0.8346   0.8479   0.8843   0.8962   0.9137   0.9392   0.9831   1.0385
  1.0641   1.0860   1.1011   1.1098   1.1156   1.1344   1.1481   1.1561
  1.1655   1.1944   1.2154   1.2480   1.2606   1.2765   1.3585   1.3985
  1.4011   1.4453   1.4953   1.5076   1.5293   1.6092   1.6464   1.6745
  1.6918   1.7176   1.7534   1.8183   1.8472   1.8840   1.9207   1.9438
  1.9932   1.9981   2.0874   2.1754   2.2524   2.2709   2.3395   2.3756
  2.4047   2.4300   2.4519   2.5635   2.6003   2.6098   2.6612   2.7314
  2.7796   2.8479   2.8619   2.8951   2.9096   2.9877   3.1279   3.1417
  3.1782   3.2635   3.2880   3.2940   3.3430   3.3687   3.4260   3.4337
  3.4704   3.5568   3.5637   3.5781   3.6008   3.6637   3.7161   3.7390
  3.7658   3.7986   3.8388   3.8539   3.9326   3.9905   4.0539   4.0956
  4.2138   4.2346   4.2936   4.3254   4.3452   4.3609   4.4217   4.5271
  4.9165   5.1302   5.1385   5.1618   5.1738   5.1868   5.1972   5.2223
  5.2346   5.2455   5.2711   5.2835   5.3004   5.3345   5.3768   5.4840
  5.5064   5.5247   5.5322   5.5855   5.6104   5.6519   5.6785   5.7006
  5.7177   5.8344   5.8871   5.9493   5.9876   6.0766   6.1348   6.3887
  6.4315   6.6450   6.8226   6.8573   6.9519   6.9994   7.0244   7.0389
  7.0816   7.1381   7.2228   7.2264   7.2458   7.2592   7.2947   7.3174
  7.3752   7.4098   7.4220   7.4617   7.5011   7.5500   7.6422   7.7070
  7.7755   7.8129   7.8560   7.9292   7.9663  24.8702  25.2371  50.5344
 50.5794  50.6225  50.7453
 --------------------------------------------------------------
 
          Ground-State Mulliken Net Atomic Charges

     Atom                 Charge (a.u.)    Spin (a.u.)
  --------------------------------------------------------
      1 O                    -0.352298       0.078709
      2 C                     0.367157       0.501409
      3 O                    -0.335370       0.089400
      4 C                     0.189820       0.115027
      5 O                    -0.372463       0.034003
      6 O                    -0.561679       0.178271
      7 H                     0.373210       0.003876
      8 H                     0.365994       0.000754
      9 H                     0.325629      -0.001449
  --------------------------------------------------------
  Sum of atomic charges =     0.000000
  Sum of spin   charges =     1.000000

 -----------------------------------------------------------------
                    Cartesian Multipole Moments
 -----------------------------------------------------------------
    Charge (ESU x 10^10)
                 0.0000
    Dipole Moment (Debye)
         X      -9.2716      Y       5.3580      Z       0.9710
       Tot      10.7524
    Quadrupole Moments (Debye-Ang)
        XX     -34.8944     XY       6.8660     YY     -40.9993
        XZ      -2.0875     YZ       2.4149     ZZ     -33.2465
    Octopole Moments (Debye-Ang^2)
       XXX    -100.7185    XXY      22.0406    XYY     -26.0281
       YYY      53.7377    XXZ     -12.0549    XYZ      -1.2924
       YYZ      -8.3443    XZZ     -17.7102    YZZ      12.5843
       ZZZ     -32.0099
    Hexadecapole Moments (Debye-Ang^3)
      XXXX    -396.8102   XXXY      43.8828   XXYY    -112.5744
      XYYY      46.4019   YYYY    -260.7968   XXXZ     -40.7653
      XXYZ       4.9726   XYYZ      -6.7044   YYYZ      -2.0837
      XXZZ     -73.7305   XYZZ       6.8075   YYZZ     -48.3780
      XZZZ     -27.3745   YZZZ      -8.7822   ZZZZ     -63.1523
 -----------------------------------------------------------------
 Total job time:  488.16s(wall), 3782.12s(cpu) 
 Thu May  4 16:07:25 2023

        *************************************************************
        *                                                           *
        *  Thank you very much for using Q-Chem.  Have a nice day.  *
        *                                                           *
        *************************************************************


