
Running Job 1 of 1 Q_in.in
qchem Q_in.in_232529.0 /scratch/ari.fischer/qChem1853787.hpc-mn1/qchem232529/ 0
/usr/local/qchem-5.4.1/exe/qcprog.exe_s Q_in.in_232529.0 /scratch/ari.fischer/qChem1853787.hpc-mn1/qchem232529/
                  Welcome to Q-Chem
     A Quantum Leap Into The Future Of Chemistry


 Q-Chem 5.4, Q-Chem, Inc., Pleasanton, CA (2021)

 License issued to: Nanyang Technological University (site)

 E. Epifanovsky,  A. T. B. Gilbert,  Xintian Feng,  Joonho Lee,  Yuezhi Mao,  
 N. Mardirossian,  P. Pokhilko,  A. White,  M. Wormit,  M. P. Coons,  
 A. L. Dempwolff,  Zhengting Gan,  D. Hait,  P. R. Horn,  L. D. Jacobson,  
 I. Kaliman,  J. Kussmann,  A. W. Lange,  Ka Un Lao,  D. S. Levine,  Jie Liu,  
 S. C. McKenzie,  A. F. Morrison,  K. Nanda,  F. Plasser,  D. R. Rehn,  
 M. L. Vidal,  Zhi-Qiang You,  Ying Zhu,  B. Alam,  B. Albrecht,  
 A. Aldossary,  E. Alguire,  J. H. Andersen,  D. Barton,  K. Begam,  A. Behn,  
 Y. A. Bernard,  E. J. Berquist,  H. Burton,  A. Carreras,  K. Carter-Fenk,  
 R. Chakraborty,  A. D. Chien,  K. D. Closser,  V. Cofer-Shabica,  
 S. Dasgupta,  Jia Deng,  M. de Wergifosse,  M. Diedenhofen,  Hainam Do,  
 S. Ehlert,  Po-Tung Fang,  S. Fatehi,  Qingguo Feng,  T. Friedhoff,  
 J. Gayvert,  Qinghui Ge,  G. Gidofalvi,  M. Goldey,  J. Gomes,  
 C. Gonzalez-Espinoza,  S. Gulania,  A. Gunina,  M. W. D. Hanson-Heine,  
 P. H. P. Harbach,  A. W. Hauser,  M. F. Herbst,  M. Hernandez Vera,  
 M. Hodecker,  Z. C. Holden,  S. Houck,  Xunkun Huang,  Kerwin Hui,  
 B. C. Huynh,  M. Ivanov,  Hyunjun Ji,  Hanjie Jiang,  B. Kaduk,  S. Kaehler,  
 K. Khistyaev,  Jaehoon Kim,  P. Klunzinger,  Z. Koczor-Benda,  
 Joong Hoon Koh,  D. Kosenkov,  L. Koulias,  T. Kowalczyk,  C. M. Krauter,  
 K. Kue,  A. Kunitsa,  T. Kus,  A. Landau,  K. V. Lawler,  D. Lefrancois,  
 S. Lehtola,  Rain Li,  Yi-Pei Li,  Jiashu Liang,  M. Liebenthal,  
 Hung-Hsuan Lin,  You-Sheng Lin,  Fenglai Liu,  Kuan-Yu Liu,  
 M. Loipersberger,  A. Luenser,  A. Manjanath,  P. Manohar,  E. Mansoor,  
 S. F. Manzer,  Shan-Ping Mao,  A. V. Marenich,  T. Markovich,  S. Mason,  
 S. A. Maurer,  P. F. McLaughlin,  M. F. S. J. Menger,  J.-M. Mewes,  
 S. A. Mewes,  P. Morgante,  J. W. Mullinax,  K. J. Oosterbaan,  G. Paran,  
 Alexander C. Paul,  Suranjan K. Paul,  F. Pavosevic,  Zheng Pei,  S. Prager,  
 E. I. Proynov,  E. Ramos,  B. Rana,  A. E. Rask,  A. Rettig,  R. M. Richard,  
 F. Rob,  E. Rossomme,  T. Scheele,  M. Scheurer,  M. Schneider,  
 N. Sergueev,  S. M. Sharada,  W. Skomorowski,  D. W. Small,  C. J. Stein,  
 Yu-Chuan Su,  E. J. Sundstrom,  Zhen Tao,  J. Thirman,  T. Tsuchimochi,  
 N. M. Tubman,  S. P. Veccham,  O. Vydrov,  J. Wenzel,  J. Witte,  A. Yamada,  
 Kun Yao,  S. Yeganeh,  S. R. Yost,  A. Zech,  Igor Ying Zhang,  Xing Zhang,  
 Yu Zhang,  D. Zuev,  A. Aspuru-Guzik,  A. T. Bell,  N. A. Besley,  
 K. B. Bravaya,  B. R. Brooks,  D. Casanova,  Jeng-Da Chai,  S. Coriani,  
 C. J. Cramer,  A. E. DePrince, III,  R. A. DiStasio Jr.,  A. Dreuw,  
 B. D. Dunietz,  T. R. Furlani,  W. A. Goddard III,  S. Grimme,  
 S. Hammes-Schiffer,  T. Head-Gordon,  W. J. Hehre,  Chao-Ping Hsu,  
 T.-C. Jagau,  Yousung Jung,  A. Klamt,  Jing Kong,  D. S. Lambrecht,  
 WanZhen Liang,  N. J. Mayhall,  C. W. McCurdy,  J. B. Neaton,  
 C. Ochsenfeld,  J. A. Parkhill,  R. Peverati,  V. A. Rassolov,  Yihan Shao,  
 L. V. Slipchenko,  T. Stauch,  R. P. Steele,  J. E. Subotnik,  
 A. J. W. Thom,  A. Tkatchenko,  D. G. Truhlar,  T. Van Voorhis,  
 T. A. Wesolowski,  K. B. Whaley,  H. L. Woodcock III,  P. M. Zimmerman,  
 S. Faraji,  P. M. W. Gill,  M. Head-Gordon,  J. M. Herbert,  A. I. Krylov

 Additional authors for Version 5.4.1: 
 S. Kotaru,  Shaozhi Li,  Xiangyuan Li,  F. Matz,  A. Molle,  Haisheng Ren,  
 Yingli Su,  Hung-Yi Tsai,  C. Utku,  Fang Wang

 Contributors to earlier versions of Q-Chem not listed above: 
 R. D. Adamson,  B. Austin,  R. Baer,  J. Baker,  G. J. O. Beran,  
 K. Brandhorst,  S. T. Brown,  E. F. C. Byrd,  A. K. Chakraborty,  
 G. K. L. Chan,  Chun-Min Chang,  Yunqing Chen,  C.-L. Cheng,  
 Siu Hung Chien,  D. M. Chipman,  D. L. Crittenden,  H. Dachsel,  
 R. J. Doerksen,  A. D. Dutoi,  R. G. Edgar,  J. Fosso-Tande,  
 L. Fusti-Molnar,  D. Ghosh,  A. Ghysels,  A. Golubeva-Zadorozhnaya,  
 J. Gonthier,  M. S. Gordon,  S. R. Gwaltney,  G. Hawkins,  J. E. Herr,  
 A. Heyden,  S. Hirata,  E. G. Hohenstein,  G. Kedziora,  F. J. Keil,  
 C. Kelley,  Jihan Kim,  R. A. King,  R. Z. Khaliullin,  P. P. Korambath,  
 W. Kurlancheek,  A. Laurent,  A. M. Lee,  M. S. Lee,  S. V. Levchenko,  
 Ching Yeh Lin,  D. Liotard,  E. Livshits,  R. C. Lochan,  I. Lotan,  
 L. A. Martinez-Martinez,  P. E. Maslen,  N. Nair,  D. P. O'Neill,  
 D. Neuhauser,  E. Neuscamman,  C. M. Oana,  R. Olivares-Amaya,  R. Olson,  
 T. M. Perrine,  B. Peters,  P. A. Pieniazek,  A. Prociuk,  Y. M. Rhee,  
 J. Ritchie,  M. A. Rohrdanz,  E. Rosta,  N. J. Russ,  H. F. Schaefer III,  
 M. W. Schmidt,  N. E. Schultz,  S. Sharma,  N. Shenvi,  C. D. Sherrill,  
 A. C. Simmonett,  A. Sodt,  T. Stein,  D. Stuck,  K. S. Thanthiriwatte,  
 V. Vanovschi,  L. Vogt,  Tao Wang,  A. Warshel,  M. A. Watson,  
 C. F. Williams,  Q. Wu,  X. Xu,  Jun Yang,  W. Zhang,  Yan Zhao

 Please cite Q-Chem as follows:
 Y. Shao et al., Mol. Phys. 113, 184-215 (2015)
 DOI: 10.1080/00268976.2014.952696

 Q-Chem 5.4.1 for Intel X86 EM64T Linux

 Parts of Q-Chem use Armadillo 9.800.1 (Horizon Scraper).
 http://arma.sourceforge.net/

 Q-Chem begins on Wed Dec  6 10:57:05 2023  

 Host: 
0

     Scratch files written to /scratch/ari.fischer/qChem1853787.hpc-mn1/qchem232529//
 Aug1521 |scratch|qcdevops|jenkins|workspace|build_RNUM 8249   
 Processing $rem in /usr/local/qchem-5.4.1/config/preferences:
 Processing $rem in /home/ari.fischer/.qchemrc:
 Symmetry turned off for PCM/SM12/SMD calculation

 Checking the input file for inconsistencies... 	...done.

--------------------------------------------------------------
User input:
--------------------------------------------------------------
$molecule
-1 2
C         0.0335825890    0.2156391192    0.2364698461
O         1.2001413651    0.0826017418    0.8943481755
H        -1.1277621868    1.3766541534   -0.6298194523
C        -0.8393693190   -0.8929137460   -0.0274891381
O        -0.5062190370   -2.0526716429    0.3744233366
O        -1.9104150558   -0.6008046154   -0.6669935653
O        -0.2722929998    1.4647120681   -0.1745756269
H         1.6345905442    0.9437645218    0.9577898244
$end

$rem
BASIS = 6-311++G**
JOB_TYPE = SP
METHOD = wB97M-V
SCF_ALGORITHM = DIIS_GDM
MAX_SCF_CYCLES = 400
SCF_CONVERGENCE = 7
THRESH = 12
Solvent_method = SMD
$end
--------------------------------------------------------------
 ----------------------------------------------------------------
             Standard Nuclear Orientation (Angstroms)
    I     Atom           X                Y                Z
 ----------------------------------------------------------------
    1      C       0.0335825890     0.2156391192     0.2364698461
    2      O       1.2001413651     0.0826017418     0.8943481755
    3      H      -1.1277621868     1.3766541534    -0.6298194523
    4      C      -0.8393693190    -0.8929137460    -0.0274891381
    5      O      -0.5062190370    -2.0526716429     0.3744233366
    6      O      -1.9104150558    -0.6008046154    -0.6669935653
    7      O      -0.2722929998     1.4647120681    -0.1745756269
    8      H       1.6345905442     0.9437645218     0.9577898244
 ----------------------------------------------------------------
 Nuclear Repulsion Energy =         230.26877983 hartrees
 There are       24 alpha and       23 beta electrons
 Requested basis set is 6-311++G(d,p)
 There are 46 shells and 146 basis functions

 Total QAlloc Memory Limit 288000 MB
 Mega-Array Size       188 MB
 MEM_STATIC part       192 MB
 
 Citation of the SMD model:
 Marenich, A.V.; Cramer, C.J.; Truhlar, D.G.
 J. Phys. Chem. B 2009, 113, 6378-6396.
 iSolventCode=           1
 Solvent: water                                                           
 
 vradii
            1           2           3           4           5           6
    1   1.8500000   1.5200000   1.2000000   1.8500000   1.5200000   1.5200000
            7           8
    1   1.5200000   1.2000000
 Changing PCM_VDW_RADII to SMD_RADIUS
 Discretize the solute cavity surface with Lebedev spheres
	Using 110 Lebedev grid points for each H atom
	Using 194 Lebedev grid points for other atoms
	Atomic van der Waals radii will be scaled by 1.20
 Remove points where switching function is < 1.0e-08
 Keep 774 surface tesserae and discard 610 interior tesserae
 Molecular Surface Area = 94.678 Angst**2

                       Distance Matrix (Angstroms)
             C (  1)   O (  2)   H (  3)   C (  4)   O (  5)   O (  6)
   O (  2)  1.345869
   H (  3)  1.856646  3.068679
   C (  4)  1.435482  2.441520  2.365779
   O (  5)  2.335733  2.782334  3.626995  1.271834
   O (  6)  2.293895  3.546885  2.127033  1.281184  2.272495
   O (  7)  1.350075  2.284927  0.973051  2.429323  3.567648  2.681842
   H (  8)  1.900972  0.966629  3.215352  3.234909  3.728540  4.194363
             O (  7)
   H (  8)  2.278123
 
 A cutoff of  1.0D-12 yielded   1023 shell pairs
 There are     10557 function pairs (     11458 Cartesian)
 Smallest overlap matrix eigenvalue = 4.92E-05

 Scale SEOQF with 1.000000e-01/1.000000e-01/1.000000e-01

 Standard Electronic Orientation quadrupole field applied
 Nucleus-field energy     =     0.0000000049 hartrees
 Guess from superposition of atomic densities
 Warning:  Energy on first SCF cycle will be non-variational
 SAD guess density has 46.000000 electrons

 -----------------------------------------------------------------------
  General SCF calculation program by
  Eric Jon Sundstrom, Paul Horn, Yuezhi Mao, Dmitri Zuev, Alec White,
  David Stuck, Shaama M.S., Shane Yost, Joonho Lee, David Small,
  Daniel Levine, Susi Lehtola, Hugh Burton, Evgeny Epifanovsky,
  Bang C. Huynh
 -----------------------------------------------------------------------
 Exchange:     0.1500 Hartree-Fock + 1.0000 wB97M-V + LR-HF
 Correlation:  1.0000 wB97M-V
 Using SG-2 standard quadrature grid
 Nonlocal Correlation:  VV10 with C = 0.0100 and b = 6.00 and scale = 1.00000
 Grid used for NLC:  SG-1 standard quadrature
 
 Citation of the SMD model:
 Marenich, A.V.; Cramer, C.J.; Truhlar, D.G.
 J. Phys. Chem. B 2009, 113, 6378-6396.
 iSolventCode=           1
 Solvent: water                                                           
 
 vradii
            1           2           3           4           5           6
    1   1.8500000   1.5200000   1.2000000   1.8500000   1.5200000   1.5200000
            7           8
    1   1.5200000   1.2000000
 using 4 threads for integral computing
 -------------------------------------------------------
 OpenMP Integral computing Module                
 Release: version 1.0, May 2013, Q-Chem Inc. Pittsburgh 
 -------------------------------------------------------
 -------------------------------------------------------
 OpenMP BLAS3 based DFT computing Module                
 Release: version 1.0, May 2013, Q-Chem Inc. Pittsburgh 
 -------------------------------------------------------
 A unrestricted SCF calculation will be
 performed using DIIS, GDM
 SCF converges when RMS gradient is below 1.0e-07
 ---------------------------------------
  Cycle       Energy         DIIS error
 ---------------------------------------
    1    -379.3468316398      2.64e-02  
    2    -378.2465584893      5.12e-03  Done DIIS. Switching to GDM
 ---------------------------------------
  Cycle       Energy        RMS Gradient
 ---------------------------------------
    1    -378.2465584893      2.00e-01   Descent step
    2    -378.4436141067      5.98e-02   Normal BFGS step
    3    -378.4683926796      1.42e-02   Normal BFGS step
    4    -378.4696513597      7.32e-03   Normal BFGS step
    5    -378.4699713887      6.20e-03   Normal BFGS step
    6    -378.4700467800      2.26e-03   Normal BFGS step
    7    -378.4700649222      4.33e-04   Normal BFGS step
    8    -378.4700663051      2.32e-04   Normal BFGS step
    9    -378.4700666202      1.28e-04   Normal BFGS step
   10    -378.4700667181      5.02e-05   Normal BFGS step
   11    -378.4700667246      1.68e-05   Normal BFGS step
   12    -378.4700667271      7.37e-06   Normal BFGS step
   13    -378.4700667273      4.12e-06   Normal BFGS step
   14    -378.4700667274      1.17e-06   Normal BFGS step
   15    -378.4700667274      4.72e-07   Normal BFGS step
   16    -378.4700667274      1.22e-07   Normal BFGS step
   17    -378.4700667274      4.14e-08  Convergence criterion met
 ---------------------------------------
 SCF time:   CPU 138.97s  wall 35.00s 
<S^2> =          0.752860533
(3)  G-ENP(liq) elect-nuc-pol free energy of system     -378.470066727 a.u.
(4)  G-CDS(liq) cavity-dispersion-solvent structure 
     free energy                                                4.9896 kcal/mol
(6)  G-S(liq) free energy of system                     -378.462115344 a.u.
 SCF   energy in the final basis set =     -378.4621153444
 Total energy in the final basis set =     -378.4621153444
 
 --------------------------------------------------------------
 
                    Orbital Energies (a.u.)
 --------------------------------------------------------------
 
 Alpha MOs
 -- Occupied --
-19.3763 -19.3733 -19.2809 -19.2795 -10.4489 -10.4391  -1.2441  -1.1751
 -1.1564  -1.0700  -0.8238  -0.7087  -0.6709  -0.5865  -0.5824  -0.5318
 -0.5200  -0.5126  -0.5006  -0.4662  -0.3786  -0.3778  -0.3567  -0.2442
 -- Virtual --
  0.0350   0.0548   0.0748   0.0949   0.1050   0.1151   0.1187   0.1217
  0.1631   0.1724   0.1804   0.2133   0.2266   0.2391   0.2506   0.2699
  0.2867   0.3025   0.3071   0.3076   0.3275   0.3325   0.3424   0.3448
  0.3537   0.3629   0.3919   0.4070   0.4230   0.4317   0.4465   0.4680
  0.5694   0.6157   0.6171   0.6238   0.7157   0.7193   0.7308   0.8193
  0.8260   0.9250   0.9291   0.9764   1.0874   1.0899   1.1495   1.1648
  1.1896   1.2253   1.2346   1.2353   1.2492   1.2575   1.2706   1.2938
  1.2967   1.3148   1.4738   1.5029   1.5368   1.5856   1.6078   1.6406
  1.7155   1.7536   1.7790   1.8096   1.8777   1.8913   1.9162   2.0944
  2.1297   2.1713   2.2396   2.3177   2.6265   2.6426   2.6948   2.7959
  2.9626   3.0040   3.0413   3.0459   3.1017   3.1288   3.1329   3.1926
  3.2047   3.2620   3.2969   3.3148   3.3998   3.4797   3.5125   3.5914
  3.6235   3.7000   3.8003   3.9201   3.9721   4.1243   4.2508   4.3044
  5.0682   5.1271   5.1807   5.2332   5.2827   5.3446   5.4058   5.5878
  5.6492   5.8879   5.9803   6.0300  24.0570  24.2533  50.4027  50.4891
 50.5088  50.6295
 
 Beta MOs
 -- Occupied --
-19.3731 -19.3702 -19.2783 -19.2769 -10.4391 -10.4385  -1.2353  -1.1680
 -1.1516  -1.0647  -0.8046  -0.7021  -0.6637  -0.5817  -0.5527  -0.5275
 -0.5155  -0.5083  -0.4832  -0.4400  -0.3726  -0.3565  -0.3533
 -- Virtual --
  0.0346   0.0350   0.0548   0.0750   0.0953   0.1051   0.1151   0.1186
  0.1225   0.1634   0.1727   0.2148   0.2214   0.2282   0.2411   0.2515
  0.2706   0.2870   0.3037   0.3092   0.3098   0.3290   0.3330   0.3468
  0.3510   0.3582   0.3655   0.3956   0.4116   0.4253   0.4335   0.4529
  0.4778   0.5728   0.6186   0.6254   0.6292   0.7244   0.7279   0.7386
  0.8268   0.8290   0.9257   0.9373   0.9877   1.0887   1.1018   1.1637
  1.1721   1.1914   1.2270   1.2361   1.2508   1.2520   1.2590   1.2781
  1.2954   1.3162   1.3187   1.4793   1.5071   1.5433   1.5890   1.6249
  1.6447   1.7222   1.7637   1.7894   1.8178   1.8835   1.9143   1.9205
  2.1021   2.1413   2.1841   2.2459   2.3247   2.6471   2.6615   2.6970
  2.8177   2.9704   3.0132   3.0498   3.0573   3.1103   3.1386   3.1464
  3.2077   3.2083   3.2739   3.3176   3.3182   3.4073   3.4890   3.5215
  3.5975   3.6291   3.7049   3.8066   3.9256   3.9786   4.1299   4.2546
  4.3190   5.0856   5.1440   5.1952   5.2474   5.2860   5.3480   5.4103
  5.5922   5.6533   5.8962   5.9862   6.0338  24.0624  24.2562  50.4054
 50.4918  50.5110  50.6316
 --------------------------------------------------------------
 
          Ground-State Mulliken Net Atomic Charges

     Atom                 Charge (a.u.)    Spin (a.u.)
  --------------------------------------------------------
      1 C                    -0.074252       0.613204
      2 O                    -0.297418       0.077724
      3 H                     0.302303      -0.002910
      4 C                     0.328459       0.051938
      5 O                    -0.675491       0.093290
      6 O                    -0.679410       0.088997
      7 O                    -0.263084       0.080212
      8 H                     0.358893      -0.002455
  --------------------------------------------------------
  Sum of atomic charges =    -1.000000
  Sum of spin   charges =     1.000000

 -----------------------------------------------------------------
                    Cartesian Multipole Moments
 -----------------------------------------------------------------
    Charge (ESU x 10^10)
                -4.8032
    Dipole Moment (Debye)
         X       6.3287      Y       9.7291      Z       0.3149
       Tot      11.6107
    Quadrupole Moments (Debye-Ang)
        XX     -46.2121     XY      -5.5383     YY     -53.2456
        XZ      -2.5908     YZ       2.6498     ZZ     -38.3575
    Octopole Moments (Debye-Ang^2)
       XXX      75.7171    XXY      31.9980    XYY      25.7872
       YYY      68.9194    XXZ       7.1617    XYZ       7.7937
       YYZ      -8.6123    XZZ      18.2687    YZZ      17.0390
       ZZZ     -10.3156
    Hexadecapole Moments (Debye-Ang^3)
      XXXX    -327.1093   XXXY     -64.7136   XXYY    -103.3613
      XYYY     -73.7144   YYYY    -419.7436   XXXZ     -57.8080
      XXYZ       0.5385   XYYZ      -7.4545   YYYZ      21.6902
      XXZZ     -66.5978   XYZZ     -18.0240   YYZZ     -72.2661
      XZZZ     -47.6882   YZZZ      11.3417   ZZZZ     -97.9379
 -----------------------------------------------------------------
 Total job time:  36.37s(wall), 140.74s(cpu) 
 Wed Dec  6 10:57:41 2023

        *************************************************************
        *                                                           *
        *  Thank you very much for using Q-Chem.  Have a nice day.  *
        *                                                           *
        *************************************************************


