
Running Job 1 of 2 Q_in.in
qchem Q_in.in_197565.0 /scratch/ari.fischer/qChem1627075.hpc-mn1/qchem197565/ 0
/usr/local/qchem-5.4.1/exe/qcprog.exe_s Q_in.in_197565.0 /scratch/ari.fischer/qChem1627075.hpc-mn1/qchem197565/
                  Welcome to Q-Chem
     A Quantum Leap Into The Future Of Chemistry


 Q-Chem 5.4, Q-Chem, Inc., Pleasanton, CA (2021)

 License issued to: Nanyang Technological University (site)

 E. Epifanovsky,  A. T. B. Gilbert,  Xintian Feng,  Joonho Lee,  Yuezhi Mao,  
 N. Mardirossian,  P. Pokhilko,  A. White,  M. Wormit,  M. P. Coons,  
 A. L. Dempwolff,  Zhengting Gan,  D. Hait,  P. R. Horn,  L. D. Jacobson,  
 I. Kaliman,  J. Kussmann,  A. W. Lange,  Ka Un Lao,  D. S. Levine,  Jie Liu,  
 S. C. McKenzie,  A. F. Morrison,  K. Nanda,  F. Plasser,  D. R. Rehn,  
 M. L. Vidal,  Zhi-Qiang You,  Ying Zhu,  B. Alam,  B. Albrecht,  
 A. Aldossary,  E. Alguire,  J. H. Andersen,  D. Barton,  K. Begam,  A. Behn,  
 Y. A. Bernard,  E. J. Berquist,  H. Burton,  A. Carreras,  K. Carter-Fenk,  
 R. Chakraborty,  A. D. Chien,  K. D. Closser,  V. Cofer-Shabica,  
 S. Dasgupta,  Jia Deng,  M. de Wergifosse,  M. Diedenhofen,  Hainam Do,  
 S. Ehlert,  Po-Tung Fang,  S. Fatehi,  Qingguo Feng,  T. Friedhoff,  
 J. Gayvert,  Qinghui Ge,  G. Gidofalvi,  M. Goldey,  J. Gomes,  
 C. Gonzalez-Espinoza,  S. Gulania,  A. Gunina,  M. W. D. Hanson-Heine,  
 P. H. P. Harbach,  A. W. Hauser,  M. F. Herbst,  M. Hernandez Vera,  
 M. Hodecker,  Z. C. Holden,  S. Houck,  Xunkun Huang,  Kerwin Hui,  
 B. C. Huynh,  M. Ivanov,  Hyunjun Ji,  Hanjie Jiang,  B. Kaduk,  S. Kaehler,  
 K. Khistyaev,  Jaehoon Kim,  P. Klunzinger,  Z. Koczor-Benda,  
 Joong Hoon Koh,  D. Kosenkov,  L. Koulias,  T. Kowalczyk,  C. M. Krauter,  
 K. Kue,  A. Kunitsa,  T. Kus,  A. Landau,  K. V. Lawler,  D. Lefrancois,  
 S. Lehtola,  Rain Li,  Yi-Pei Li,  Jiashu Liang,  M. Liebenthal,  
 Hung-Hsuan Lin,  You-Sheng Lin,  Fenglai Liu,  Kuan-Yu Liu,  
 M. Loipersberger,  A. Luenser,  A. Manjanath,  P. Manohar,  E. Mansoor,  
 S. F. Manzer,  Shan-Ping Mao,  A. V. Marenich,  T. Markovich,  S. Mason,  
 S. A. Maurer,  P. F. McLaughlin,  M. F. S. J. Menger,  J.-M. Mewes,  
 S. A. Mewes,  P. Morgante,  J. W. Mullinax,  K. J. Oosterbaan,  G. Paran,  
 Alexander C. Paul,  Suranjan K. Paul,  F. Pavosevic,  Zheng Pei,  S. Prager,  
 E. I. Proynov,  E. Ramos,  B. Rana,  A. E. Rask,  A. Rettig,  R. M. Richard,  
 F. Rob,  E. Rossomme,  T. Scheele,  M. Scheurer,  M. Schneider,  
 N. Sergueev,  S. M. Sharada,  W. Skomorowski,  D. W. Small,  C. J. Stein,  
 Yu-Chuan Su,  E. J. Sundstrom,  Zhen Tao,  J. Thirman,  T. Tsuchimochi,  
 N. M. Tubman,  S. P. Veccham,  O. Vydrov,  J. Wenzel,  J. Witte,  A. Yamada,  
 Kun Yao,  S. Yeganeh,  S. R. Yost,  A. Zech,  Igor Ying Zhang,  Xing Zhang,  
 Yu Zhang,  D. Zuev,  A. Aspuru-Guzik,  A. T. Bell,  N. A. Besley,  
 K. B. Bravaya,  B. R. Brooks,  D. Casanova,  Jeng-Da Chai,  S. Coriani,  
 C. J. Cramer,  A. E. DePrince, III,  R. A. DiStasio Jr.,  A. Dreuw,  
 B. D. Dunietz,  T. R. Furlani,  W. A. Goddard III,  S. Grimme,  
 S. Hammes-Schiffer,  T. Head-Gordon,  W. J. Hehre,  Chao-Ping Hsu,  
 T.-C. Jagau,  Yousung Jung,  A. Klamt,  Jing Kong,  D. S. Lambrecht,  
 WanZhen Liang,  N. J. Mayhall,  C. W. McCurdy,  J. B. Neaton,  
 C. Ochsenfeld,  J. A. Parkhill,  R. Peverati,  V. A. Rassolov,  Yihan Shao,  
 L. V. Slipchenko,  T. Stauch,  R. P. Steele,  J. E. Subotnik,  
 A. J. W. Thom,  A. Tkatchenko,  D. G. Truhlar,  T. Van Voorhis,  
 T. A. Wesolowski,  K. B. Whaley,  H. L. Woodcock III,  P. M. Zimmerman,  
 S. Faraji,  P. M. W. Gill,  M. Head-Gordon,  J. M. Herbert,  A. I. Krylov

 Additional authors for Version 5.4.1: 
 S. Kotaru,  Shaozhi Li,  Xiangyuan Li,  F. Matz,  A. Molle,  Haisheng Ren,  
 Yingli Su,  Hung-Yi Tsai,  C. Utku,  Fang Wang

 Contributors to earlier versions of Q-Chem not listed above: 
 R. D. Adamson,  B. Austin,  R. Baer,  J. Baker,  G. J. O. Beran,  
 K. Brandhorst,  S. T. Brown,  E. F. C. Byrd,  A. K. Chakraborty,  
 G. K. L. Chan,  Chun-Min Chang,  Yunqing Chen,  C.-L. Cheng,  
 Siu Hung Chien,  D. M. Chipman,  D. L. Crittenden,  H. Dachsel,  
 R. J. Doerksen,  A. D. Dutoi,  R. G. Edgar,  J. Fosso-Tande,  
 L. Fusti-Molnar,  D. Ghosh,  A. Ghysels,  A. Golubeva-Zadorozhnaya,  
 J. Gonthier,  M. S. Gordon,  S. R. Gwaltney,  G. Hawkins,  J. E. Herr,  
 A. Heyden,  S. Hirata,  E. G. Hohenstein,  G. Kedziora,  F. J. Keil,  
 C. Kelley,  Jihan Kim,  R. A. King,  R. Z. Khaliullin,  P. P. Korambath,  
 W. Kurlancheek,  A. Laurent,  A. M. Lee,  M. S. Lee,  S. V. Levchenko,  
 Ching Yeh Lin,  D. Liotard,  E. Livshits,  R. C. Lochan,  I. Lotan,  
 L. A. Martinez-Martinez,  P. E. Maslen,  N. Nair,  D. P. O'Neill,  
 D. Neuhauser,  E. Neuscamman,  C. M. Oana,  R. Olivares-Amaya,  R. Olson,  
 T. M. Perrine,  B. Peters,  P. A. Pieniazek,  A. Prociuk,  Y. M. Rhee,  
 J. Ritchie,  M. A. Rohrdanz,  E. Rosta,  N. J. Russ,  H. F. Schaefer III,  
 M. W. Schmidt,  N. E. Schultz,  S. Sharma,  N. Shenvi,  C. D. Sherrill,  
 A. C. Simmonett,  A. Sodt,  T. Stein,  D. Stuck,  K. S. Thanthiriwatte,  
 V. Vanovschi,  L. Vogt,  Tao Wang,  A. Warshel,  M. A. Watson,  
 C. F. Williams,  Q. Wu,  X. Xu,  Jun Yang,  W. Zhang,  Yan Zhao

 Please cite Q-Chem as follows:
 Y. Shao et al., Mol. Phys. 113, 184-215 (2015)
 DOI: 10.1080/00268976.2014.952696

 Q-Chem 5.4.1 for Intel X86 EM64T Linux

 Parts of Q-Chem use Armadillo 9.800.1 (Horizon Scraper).
 http://arma.sourceforge.net/

 Q-Chem begins on Mon Jul 17 12:21:46 2023  

 Host: 
0

     Scratch files written to /scratch/ari.fischer/qChem1627075.hpc-mn1/qchem197565//
 Aug1521 |scratch|qcdevops|jenkins|workspace|build_RNUM 8249   
 Processing $rem in /usr/local/qchem-5.4.1/config/preferences:
 Processing $rem in /home/ari.fischer/.qchemrc:
 Symmetry turned off for PCM/SM12/SMD calculation


!!********************************************.
!!******************Warning*******************.
!!Desired Analytical derivatives not available.
!!Finite difference job might take a long time.
!!********************************************.
!!********************************************.


 2-order derivative to be evaluated numerically with 1-order analytical derivatives

 Checking the input file for inconsistencies... 	...done.

--------------------------------------------------------------
User input:
--------------------------------------------------------------
$molecule
-1 2
O   -0.8820247    1.0690563   -0.2833168
C   -0.0643048    0.4858447    0.6971505
O   -0.7508723   -0.5472826    1.3581975
C    1.1876969   -0.0532654    0.0533649
O    2.4070601    0.4068181    0.4067364
O    1.1033302   -0.9184384   -0.8040392
H   -1.5933885    1.5585038    0.2055143
H   -1.1573745   -1.1261802    0.6609745
H    0.3218659    1.4369544    1.5673464
O    1.5706511    1.7733809    1.7923166
H    2.4938360    1.1525155    1.3311010
$end

$rem
BASIS = 6-311++G(2df,2p)
GUI = 2
JOB_TYPE = Frequency
METHOD = wB97M-V
SCF_ALGORITHM = DIIS_GDM
MAX_SCF_CYCLES = 400
SCF_CONVERGENCE = 6
THRESH = 11
SYMMETRY_IGNORE = 1
solvent_method = SMD
$end

--------------------------------------------------------------
 ----------------------------------------------------------------
             Standard Nuclear Orientation (Angstroms)
    I     Atom           X                Y                Z
 ----------------------------------------------------------------
    1      O      -0.8820247000     1.0690563000    -0.2833168000
    2      C      -0.0643048000     0.4858447000     0.6971505000
    3      O      -0.7508723000    -0.5472826000     1.3581975000
    4      C       1.1876969000    -0.0532654000     0.0533649000
    5      O       2.4070601000     0.4068181000     0.4067364000
    6      O       1.1033302000    -0.9184384000    -0.8040392000
    7      H      -1.5933885000     1.5585038000     0.2055143000
    8      H      -1.1573745000    -1.1261802000     0.6609745000
    9      H       0.3218659000     1.4369544000     1.5673464000
   10      O       1.5706511000     1.7733809000     1.7923166000
   11      H       2.4938360000     1.1525155000     1.3311010000
 ----------------------------------------------------------------
 Nuclear Repulsion Energy =         322.61815035 hartrees
 There are       29 alpha and       28 beta electrons
 Requested basis set is 6-311++G(2df,2p)
 There are 80 shells and 278 basis functions

 Total QAlloc Memory Limit 288000 MB
 Mega-Array Size       188 MB
 MEM_STATIC part       192 MB
 
 Citation of the SMD model:
 Marenich, A.V.; Cramer, C.J.; Truhlar, D.G.
 J. Phys. Chem. B 2009, 113, 6378-6396.
 iSolventCode=           1
 Solvent: water                                                           
 
 vradii
            1           2           3           4           5           6
    1   1.5200000   1.8500000   1.5200000   1.8500000   1.5200000   1.5200000
            7           8           9          10          11
    1   1.2000000   1.2000000   1.2000000   1.5200000   1.2000000
 Changing PCM_VDW_RADII to SMD_RADIUS
 Discretize the solute cavity surface with Lebedev spheres
	Using 110 Lebedev grid points for each H atom
	Using 194 Lebedev grid points for other atoms
	Atomic van der Waals radii will be scaled by 1.20
 Remove points where switching function is < 1.0e-08
 Keep 952 surface tesserae and discard 846 interior tesserae
 Molecular Surface Area = 112.475 Angst**2

                       Distance Matrix (Angstroms)
             O (  1)   C (  2)   O (  3)   C (  4)   O (  5)   O (  6)
   C (  2)  1.403609
   O (  3)  2.307449  1.405600
   C (  4)  2.378383  1.507517  2.388450
   O (  5)  3.425319  2.489624  3.433384  1.350331
   O (  6)  2.857083  2.364097  2.872471  1.220977  2.218557
   H (  7)  0.992247  1.931425  2.544179  3.217978  4.167788  3.798254
   H (  8)  2.405528  1.948008  0.993220  2.649471  3.888433  2.701890
   H (  9)  2.238226  1.345726  2.265327  2.294027  2.599275  3.432496
   O ( 10)  3.289369  2.351642  3.311104  2.550930  2.118232  3.768998
   H ( 11)  3.742959  2.718534  3.663083  2.189182  1.190817  3.283471
             H (  7)   H (  8)   H (  9)   O ( 10)
   H (  8)  2.757731
   H (  9)  2.353202  3.095048
   O ( 10)  3.546161  4.138782  1.312730
   H ( 11)  4.258776  4.355785  2.203218  1.204352
 
 A cutoff of  1.0D-11 yielded   2997 shell pairs
 There are     36493 function pairs (     46170 Cartesian)
 Smallest overlap matrix eigenvalue = 5.39E-05
 Guess from superposition of atomic densities
 Warning:  Energy on first SCF cycle will be non-variational
 SAD guess density has 56.000000 electrons

 -----------------------------------------------------------------------
  General SCF calculation program by
  Eric Jon Sundstrom, Paul Horn, Yuezhi Mao, Dmitri Zuev, Alec White,
  David Stuck, Shaama M.S., Shane Yost, Joonho Lee, David Small,
  Daniel Levine, Susi Lehtola, Hugh Burton, Evgeny Epifanovsky,
  Bang C. Huynh
 -----------------------------------------------------------------------
 Exchange:     0.1500 Hartree-Fock + 1.0000 wB97M-V + LR-HF
 Correlation:  1.0000 wB97M-V
 Using SG-2 standard quadrature grid
 Nonlocal Correlation:  VV10 with C = 0.0100 and b = 6.00 and scale = 1.00000
 Grid used for NLC:  SG-1 standard quadrature
 using 16 threads for integral computing
 -------------------------------------------------------
 OpenMP Integral computing Module                
 Release: version 1.0, May 2013, Q-Chem Inc. Pittsburgh 
 -------------------------------------------------------
 
 Citation of the SMD model:
 Marenich, A.V.; Cramer, C.J.; Truhlar, D.G.
 J. Phys. Chem. B 2009, 113, 6378-6396.
 iSolventCode=           1
 Solvent: water                                                           
 
 vradii
            1           2           3           4           5           6
    1   1.5200000   1.8500000   1.5200000   1.8500000   1.5200000   1.5200000
            7           8           9          10          11
    1   1.2000000   1.2000000   1.2000000   1.5200000   1.2000000
 -------------------------------------------------------
 OpenMP BLAS3 based DFT computing Module                
 Release: version 1.0, May 2013, Q-Chem Inc. Pittsburgh 
 -------------------------------------------------------
 A unrestricted SCF calculation will be
 performed using DIIS, GDM
 SCF converges when RMS gradient is below 1.0e-06
 ---------------------------------------
  Cycle       Energy         DIIS error
 ---------------------------------------
    1    -455.5302523793      1.42e-02  
    2    -454.4627855438      3.20e-03  Done DIIS. Switching to GDM
 ---------------------------------------
  Cycle       Energy        RMS Gradient
 ---------------------------------------
    1    -454.4627855438      2.53e-01   Descent step
    2    -454.7338602555      4.57e-02   Normal BFGS step
    3    -454.7825376856      4.42e-02   Normal BFGS step
    4    -454.7898772374      1.30e-02   Normal BFGS step
    5    -454.7936145160      1.05e-02   Normal BFGS step
    6    -454.7940934619      6.10e-03   Normal BFGS step
    7    -454.7942931544      2.64e-03   Normal BFGS step
    8    -454.7943515864      2.74e-03   Normal BFGS step
    9    -454.7943805704      2.47e-03   Normal BFGS step
   10    -454.7944059917      1.70e-03   Normal BFGS step
   11    -454.7944191555      8.31e-04   Normal BFGS step
   12    -454.7944266669      3.28e-04   Normal BFGS step
   13    -454.7944283998      1.97e-04   Normal BFGS step
   14    -454.7944286672      1.61e-04   Normal BFGS step
   15    -454.7944287390      1.27e-04   Normal BFGS step
   16    -454.7944287806      9.35e-05   Normal BFGS step
   17    -454.7944288148      3.70e-05   Normal BFGS step
   18    -454.7944288281      1.26e-05   Normal BFGS step
   19    -454.7944288314      3.39e-06   Normal BFGS step
   20    -454.7944288317      1.22e-06   Normal BFGS step
   21    -454.7944288316      3.41e-07  Convergence criterion met
 ---------------------------------------
 SCF time:   CPU 792.57s  wall 52.00s 
<S^2> =          0.757552017
(3)  G-ENP(liq) elect-nuc-pol free energy of system     -454.794428832 a.u.
(4)  G-CDS(liq) cavity-dispersion-solvent structure 
     free energy                                                3.7577 kcal/mol
(6)  G-S(liq) free energy of system                     -454.788440558 a.u.
 SCF   energy in the final basis set =     -454.7884405579
 Total energy in the final basis set =     -454.7884405579
 
 --------------------------------------------------------------
 
                    Orbital Energies (a.u.)
 --------------------------------------------------------------
 
 Alpha MOs
 -- Occupied --
-19.3584 -19.3529 -19.3146 -19.3075 -19.2974 -10.4674 -10.4600  -1.2186
 -1.1861  -1.1348  -1.1133  -1.0269  -0.8258  -0.6818  -0.6757  -0.6333
 -0.5989  -0.5525  -0.5511  -0.5289  -0.5182  -0.4794  -0.4519  -0.4208
 -0.4140  -0.3908  -0.3762  -0.3438  -0.3224
 -- Virtual --
  0.0331   0.0533   0.0547   0.0705   0.0849   0.0896   0.1036   0.1154
  0.1298   0.1328   0.1466   0.1530   0.1709   0.2197   0.2316   0.2385
  0.2422   0.2519   0.2567   0.2746   0.2856   0.2896   0.3049   0.3135
  0.3185   0.3249   0.3323   0.3399   0.3541   0.3562   0.3634   0.3716
  0.3747   0.3906   0.3966   0.4069   0.4122   0.4307   0.4493   0.4719
  0.5164   0.5502   0.5720   0.5988   0.6162   0.6371   0.6590   0.6802
  0.7093   0.7230   0.7438   0.7700   0.7978   0.8444   0.8521   0.8662
  0.8771   0.9182   0.9705   0.9848   1.0153   1.0291   1.0568   1.0843
  1.1101   1.1208   1.1480   1.1553   1.1642   1.1747   1.1880   1.2071
  1.2097   1.2238   1.2384   1.2490   1.2684   1.2799   1.3031   1.3450
  1.3574   1.3786   1.4029   1.4211   1.4310   1.4977   1.5004   1.5312
  1.5757   1.5909   1.6320   1.6757   1.6892   1.6989   1.7235   1.7527
  1.7800   1.7964   1.8152   1.8972   1.9370   1.9464   1.9806   2.0053
  2.0625   2.1023   2.1331   2.1899   2.2334   2.3035   2.3333   2.3546
  2.3866   2.4026   2.4274   2.4430   2.5011   2.5509   2.5746   2.6360
  2.7085   2.7761   2.8373   2.8885   2.9266   2.9581   2.9909   3.0387
  3.1562   3.1681   3.1797   3.2202   3.2786   3.3076   3.3479   3.3924
  3.4445   3.4614   3.5341   3.5453   3.5982   3.6100   3.6508   3.7062
  3.7107   3.7665   3.8210   3.8235   3.8664   3.8681   3.8966   3.9171
  3.9311   4.0155   4.0465   4.0749   4.0856   4.1456   4.1579   4.1840
  4.2397   4.2558   4.3203   4.3361   4.4177   4.7384   4.8298   5.1170
  5.1373   5.1499   5.1601   5.1705   5.1849   5.1878   5.1979   5.2173
  5.2451   5.2620   5.2662   5.2756   5.2786   5.2868   5.2994   5.3078
  5.3095   5.3153   5.3664   5.4071   5.4155   5.4450   5.4747   5.5066
  5.5342   5.5548   5.5728   5.5946   5.6162   5.6488   5.6948   5.7140
  5.7523   5.8343   5.9025   5.9602   6.0259   6.0830   6.1044   6.1331
  6.3770   6.3917   6.5878   6.7008   6.7244   6.9033   6.9576   6.9991
  7.0188   7.0381   7.0605   7.0767   7.1011   7.1158   7.1400   7.1702
  7.2107   7.2572   7.2904   7.3542   7.3592   7.3991   7.4496   7.5006
  7.5501   7.6037   7.6115   7.6313   7.6837   7.7935   7.8258   7.8640
  7.9228   8.0042  24.6758  25.1052  50.5230  50.5639  50.5789  50.6532
 50.7528
 
 Beta MOs
 -- Occupied --
-19.3573 -19.3523 -19.3145 -19.3075 -19.2793 -10.4675 -10.4535  -1.2159
 -1.1845  -1.1324  -1.1081  -0.9859  -0.8183  -0.6731  -0.6719  -0.6285
 -0.5843  -0.5503  -0.5454  -0.5251  -0.5106  -0.4511  -0.4406  -0.4088
 -0.4047  -0.3827  -0.3606  -0.3169
 -- Virtual --
 -0.0210   0.0356   0.0537   0.0557   0.0717   0.0854   0.0898   0.1048
  0.1155   0.1301   0.1333   0.1475   0.1524   0.1725   0.2203   0.2350
  0.2386   0.2439   0.2536   0.2587   0.2751   0.2906   0.2910   0.3049
  0.3153   0.3194   0.3271   0.3341   0.3403   0.3551   0.3582   0.3642
  0.3724   0.3786   0.3920   0.4005   0.4123   0.4180   0.4340   0.4499
  0.4740   0.5187   0.5513   0.5758   0.6007   0.6213   0.6393   0.6618
  0.6814   0.7149   0.7279   0.7458   0.7716   0.7994   0.8454   0.8535
  0.8695   0.8831   0.9205   0.9727   0.9891   1.0181   1.0361   1.0593
  1.0864   1.1123   1.1227   1.1545   1.1574   1.1676   1.1769   1.1965
  1.2104   1.2109   1.2286   1.2461   1.2549   1.2698   1.2872   1.3113
  1.3501   1.3613   1.3824   1.4064   1.4263   1.4372   1.4995   1.5066
  1.5334   1.5808   1.5956   1.6370   1.6807   1.6942   1.7175   1.7276
  1.7550   1.7896   1.8020   1.8231   1.8990   1.9398   1.9520   1.9825
  2.0138   2.0737   2.1116   2.1369   2.1923   2.2386   2.3070   2.3395
  2.3583   2.3952   2.4056   2.4315   2.4485   2.5083   2.5553   2.5765
  2.6451   2.7110   2.7796   2.8396   2.8917   2.9306   2.9604   2.9943
  3.0411   3.1620   3.1725   3.1969   3.2216   3.2859   3.3129   3.3523
  3.3984   3.4491   3.4710   3.5414   3.5546   3.6042   3.6132   3.6561
  3.7204   3.7244   3.7730   3.8278   3.8288   3.8665   3.8719   3.9046
  3.9278   3.9376   4.0203   4.0472   4.0707   4.0864   4.1457   4.1590
  4.1906   4.2423   4.2587   4.3237   4.3471   4.4262   4.7435   4.8405
  5.1282   5.1446   5.1749   5.1834   5.1904   5.2013   5.2034   5.2115
  5.2228   5.2593   5.2718   5.2770   5.2795   5.2838   5.3005   5.3074
  5.3175   5.3220   5.3314   5.3946   5.4215   5.4445   5.4526   5.4793
  5.5093   5.5410   5.5689   5.5779   5.5977   5.6207   5.6528   5.6977
  5.7218   5.7677   5.8405   5.9059   5.9661   6.0305   6.0915   6.1177
  6.1347   6.3827   6.3923   6.5956   6.7049   6.7266   6.9591   6.9699
  7.0028   7.0314   7.0454   7.0694   7.0972   7.1062   7.1384   7.1746
  7.1792   7.2180   7.2599   7.2950   7.3563   7.3612   7.4040   7.4618
  7.5171   7.5584   7.6154   7.6321   7.6470   7.7227   7.7951   7.8306
  7.8672   7.9297   8.0079  24.6813  25.1055  50.5345  50.5646  50.5800
 50.6540  50.7531
 --------------------------------------------------------------
 
          Ground-State Mulliken Net Atomic Charges

     Atom                 Charge (a.u.)    Spin (a.u.)
  --------------------------------------------------------
      1 O                    -0.393076       0.025610
      2 C                    -0.134218       0.316177
      3 O                    -0.408726       0.002266
      4 C                     0.410188      -0.015634
      5 O                    -0.543127       0.013297
      6 O                    -0.562114       0.005414
      7 H                     0.355717      -0.001675
      8 H                     0.351148       0.016337
      9 H                     0.273946      -0.017528
     10 O                    -0.714455       0.653870
     11 H                     0.364718       0.001866
  --------------------------------------------------------
  Sum of atomic charges =    -1.000000
  Sum of spin   charges =     1.000000

 -----------------------------------------------------------------
                    Cartesian Multipole Moments
 -----------------------------------------------------------------
    Charge (ESU x 10^10)
                -4.8032
    Dipole Moment (Debye)
         X      -9.7048      Y      -1.7491      Z      -2.0847
       Tot      10.0791
    Quadrupole Moments (Debye-Ang)
        XX     -55.2881     XY      -5.5861     YY     -51.7063
        XZ      -3.6708     YZ      -7.5345     ZZ     -58.8495
    Octopole Moments (Debye-Ang^2)
       XXX    -124.7408    XXY     -15.7947    XYY     -54.0389
       YYY     -64.3198    XXZ     -23.2408    XYZ     -17.1283
       YYZ     -34.2648    XZZ     -39.3383    YZZ     -28.3233
       ZZZ     -92.5510
    Hexadecapole Moments (Debye-Ang^3)
      XXXX    -574.7126   XXXY     -54.2306   XXYY    -139.1934
      XYYY     -83.7537   YYYY    -329.5933   XXXZ     -41.9510
      XXYZ     -37.5076   XYYZ     -44.0906   YYYZ    -111.5219
      XXZZ    -156.9304   XYZZ     -41.0580   YYZZ    -138.4539
      XZZZ     -71.2893   YZZZ    -109.2449   ZZZZ    -373.0175
 -----------------------------------------------------------------
 Calculating analytic gradient of the SCF energy
 Gradient of CDS energy
            1           2           3           4           5           6
    1   0.0019124  -0.0035979   0.0014669   0.0045500  -0.0041400   0.0001748
    2  -0.0015300  -0.0006950   0.0022808   0.0000426  -0.0015191   0.0011176
    3   0.0023786  -0.0005231  -0.0015627  -0.0003462  -0.0012461   0.0010211
            7           8           9          10          11
    1  -0.0004002  -0.0003701   0.0001857  -0.0001444   0.0003630
    2   0.0002940  -0.0003411   0.0001866   0.0000804   0.0000830
    3  -0.0001222   0.0000514   0.0001246   0.0000122   0.0002124
 Gradient of SCF Energy
            1           2           3           4           5           6
    1   0.0018471   0.0209884  -0.0081732  -0.0374401   0.0025902   0.0084058
    2  -0.0056527   0.0084197  -0.0092882  -0.0416892   0.0373326   0.0329676
    3  -0.0196115   0.0037090   0.0067436  -0.0289943   0.0280911   0.0286057
            7           8           9          10          11
    1  -0.0097167  -0.0040800  -0.0129381   0.0096250   0.0288915
    2   0.0046215   0.0000004   0.0095442  -0.0263769  -0.0098789
    3   0.0102000  -0.0026860   0.0025002  -0.0336679   0.0051102
 Max gradient component =       4.169E-02
 RMS gradient           =       1.960E-02
 Computing fast CPCM-SWIG gradient
 Updating gradient with PCM contributions...
 -- total gradient after adding PCM contribution --
---------------------------------------------------
  Atom         X              Y              Z     
---------------------------------------------------
   1       0.008888      -0.011908      -0.012477
   2       0.011733      -0.022097      -0.021235
   3       0.004822       0.007562       0.009971
   4      -0.063050      -0.012563      -0.001044
   5       0.003682       0.055098       0.044439
   6       0.010820       0.007406       0.006863
   7      -0.016288       0.011942       0.013444
   8      -0.010360      -0.012375      -0.014481
   9      -0.010462       0.034341       0.024322
  10       0.001774      -0.058454      -0.063163
  11       0.058441       0.001049       0.013360
---------------------------------------------------
 Number of fixed atoms: 0
 Gradient time:  CPU 85.94 s  wall 7.87 s
 ######################################################
 ######################################################
 # Starting finite difference calculation for IDERIV  #
 Finite diff step size:  1.88973e-03 a.u.
 ----------------------------------------------------------------
             Standard Nuclear Orientation (Angstroms)
    I     Atom           X                Y                Z
 ----------------------------------------------------------------
    1      O      -0.8810247000     1.0690563000    -0.2833168000
    2      C      -0.0643048000     0.4858447000     0.6971505000
    3      O      -0.7508723000    -0.5472826000     1.3581975000
    4      C       1.1876969000    -0.0532654000     0.0533649000
    5      O       2.4070601000     0.4068181000     0.4067364000
    6      O       1.1033302000    -0.9184384000    -0.8040392000
    7      H      -1.5933885000     1.5585038000     0.2055143000
    8      H      -1.1573745000    -1.1261802000     0.6609745000
    9      H       0.3218659000     1.4369544000     1.5673464000
   10      O       1.5706511000     1.7733809000     1.7923166000
   11      H       2.4938360000     1.1525155000     1.3311010000
 ----------------------------------------------------------------
 Nuclear Repulsion Energy =         322.63548241 hartrees
 There are       29 alpha and       28 beta electrons
 Discretize the solute cavity surface with Lebedev spheres
	Using 110 Lebedev grid points for each H atom
	Using 194 Lebedev grid points for other atoms
	Atomic van der Waals radii will be scaled by 1.20
 Remove points where switching function is < 1.0e-08
 Keep 952 surface tesserae and discard 846 interior tesserae
 Molecular Surface Area = 112.474 Angst**2

                       Distance Matrix (Angstroms)
             O (  1)   C (  2)   O (  3)   C (  4)   O (  5)   O (  6)
   C (  2)  1.403026
   O (  3)  2.307393  1.405600
   C (  4)  2.377513  1.507517  2.388450
   O (  5)  3.424359  2.489624  3.433384  1.350331
   O (  6)  2.856388  2.364097  2.872471  1.220977  2.218557
   H (  7)  0.992964  1.931425  2.544179  3.217978  4.167788  3.798254
   H (  8)  2.405643  1.948008  0.993220  2.649471  3.888433  2.701890
   H (  9)  2.237688  1.345726  2.265327  2.294027  2.599275  3.432496
   O ( 10)  3.288623  2.351642  3.311104  2.550930  2.118232  3.768998
   H ( 11)  3.742058  2.718534  3.663083  2.189182  1.190817  3.283471
             H (  7)   H (  8)   H (  9)   O ( 10)
   H (  8)  2.757731
   H (  9)  2.353202  3.095048
   O ( 10)  3.546161  4.138782  1.312730
   H ( 11)  4.258776  4.355785  2.203218  1.204352
 
 Requested basis set is 6-311++G(2df,2p)
 There are 80 shells and 278 basis functions
 A cutoff of  1.0D-11 yielded   2997 shell pairs
 There are     36493 function pairs (     46170 Cartesian)
 Smallest overlap matrix eigenvalue = 5.39E-05
 Guess MOs from SCF MO coefficient file

 -----------------------------------------------------------------------
  General SCF calculation program by
  Eric Jon Sundstrom, Paul Horn, Yuezhi Mao, Dmitri Zuev, Alec White,
  David Stuck, Shaama M.S., Shane Yost, Joonho Lee, David Small,
  Daniel Levine, Susi Lehtola, Hugh Burton, Evgeny Epifanovsky,
  Bang C. Huynh
 -----------------------------------------------------------------------
 Exchange:     0.1500 Hartree-Fock + 1.0000 wB97M-V + LR-HF
 Correlation:  1.0000 wB97M-V
 Using SG-2 standard quadrature grid
 Nonlocal Correlation:  VV10 with C = 0.0100 and b = 6.00 and scale = 1.00000
 Grid used for NLC:  SG-1 standard quadrature
 
 Citation of the SMD model:
 Marenich, A.V.; Cramer, C.J.; Truhlar, D.G.
 J. Phys. Chem. B 2009, 113, 6378-6396.
 iSolventCode=           1
 Solvent: water                                                           
 
 vradii
            1           2           3           4           5           6
    1   1.5200000   1.8500000   1.5200000   1.8500000   1.5200000   1.5200000
            7           8           9          10          11
    1   1.2000000   1.2000000   1.2000000   1.5200000   1.2000000
 -------------------------------------------------------
 OpenMP BLAS3 based DFT computing Module                
 Release: version 1.0, May 2013, Q-Chem Inc. Pittsburgh 
 -------------------------------------------------------
 A unrestricted SCF calculation will be
 performed using Roothaan-Hall, DIIS, GDM
 SCF converges when RMS gradient is below 1.0e-06
 ---------------------------------------
  Cycle       Energy         DIIS error
 ---------------------------------------
    1    -454.6673162929      3.32e-04  Roothaan Step
 ---------------------------------------
  Cycle       Energy         DIIS error
 ---------------------------------------
    1    -454.7854893341      3.69e-04  
    2    -454.7914002094      3.30e-04  Done DIIS. Switching to GDM
 ---------------------------------------
  Cycle       Energy        RMS Gradient
 ---------------------------------------
    1    -454.7914002094      1.43e-02   Normal BFGS step
    2    -454.7908014086      1.70e-02  Line search: overstep
    3    -454.7941413064      3.56e-03   Normal BFGS step
    4    -454.7943493322      1.82e-03   Normal BFGS step
    5    -454.7943894226      1.60e-03   Normal BFGS step
    6    -454.7943992935      1.45e-03   Normal BFGS step
    7    -454.7944056062      1.10e-03   Normal BFGS step
    8    -454.7944106379      8.04e-04   Normal BFGS step
    9    -454.7944130791      3.18e-04   Normal BFGS step
   10    -454.7944141249      1.92e-04   Normal BFGS step
   11    -454.7944147399      1.36e-04   Normal BFGS step
   12    -454.7944149355      9.31e-05   Normal BFGS step
   13    -454.7944149644      7.72e-05   Normal BFGS step
   14    -454.7944149814      6.34e-05   Normal BFGS step
   15    -454.7944149945      3.59e-05   Normal BFGS step
   16    -454.7944150003      1.96e-05   Normal BFGS step
   17    -454.7944150032      1.01e-05   Normal BFGS step
   18    -454.7944150035      3.44e-06   Normal BFGS step
   19    -454.7944150036      7.92e-07  Convergence criterion met
 ---------------------------------------
 SCF time:   CPU 761.60s  wall 50.00s 
<S^2> =          0.757555131
(3)  G-ENP(liq) elect-nuc-pol free energy of system     -454.794415004 a.u.
(4)  G-CDS(liq) cavity-dispersion-solvent structure 
     free energy                                                3.7600 kcal/mol
(6)  G-S(liq) free energy of system                     -454.788423050 a.u.
 SCF   energy in the final basis set =     -454.7884230498
 Total energy in the final basis set =     -454.7884230498
 
 --------------------------------------------------------------
 
                    Orbital Energies (a.u.)
 --------------------------------------------------------------
 
 Alpha MOs
 -- Occupied --
-19.3585 -19.3529 -19.3146 -19.3075 -19.2974 -10.4674 -10.4599  -1.2186
 -1.1861  -1.1349  -1.1132  -1.0268  -0.8257  -0.6818  -0.6756  -0.6332
 -0.5989  -0.5526  -0.5511  -0.5289  -0.5182  -0.4794  -0.4519  -0.4208
 -0.4140  -0.3908  -0.3762  -0.3437  -0.3223
 -- Virtual --
  0.0331   0.0533   0.0547   0.0705   0.0849   0.0896   0.1036   0.1154
  0.1298   0.1328   0.1466   0.1530   0.1709   0.2197   0.2316   0.2384
  0.2422   0.2518   0.2567   0.2746   0.2856   0.2896   0.3050   0.3135
  0.3185   0.3249   0.3323   0.3399   0.3541   0.3562   0.3635   0.3716
  0.3747   0.3906   0.3967   0.4069   0.4123   0.4307   0.4493   0.4719
  0.5164   0.5503   0.5718   0.5988   0.6161   0.6371   0.6590   0.6802
  0.7093   0.7230   0.7438   0.7700   0.7978   0.8444   0.8520   0.8662
  0.8771   0.9182   0.9705   0.9848   1.0154   1.0292   1.0568   1.0845
  1.1100   1.1208   1.1480   1.1553   1.1642   1.1747   1.1880   1.2071
  1.2097   1.2238   1.2385   1.2490   1.2684   1.2799   1.3031   1.3450
  1.3575   1.3786   1.4029   1.4211   1.4311   1.4973   1.5005   1.5311
  1.5758   1.5909   1.6320   1.6757   1.6891   1.6989   1.7235   1.7529
  1.7801   1.7964   1.8152   1.8970   1.9371   1.9464   1.9806   2.0053
  2.0626   2.1024   2.1331   2.1899   2.2336   2.3036   2.3334   2.3548
  2.3866   2.4029   2.4275   2.4432   2.5012   2.5509   2.5746   2.6360
  2.7085   2.7761   2.8372   2.8883   2.9267   2.9582   2.9910   3.0387
  3.1563   3.1682   3.1797   3.2202   3.2786   3.3078   3.3480   3.3926
  3.4446   3.4615   3.5342   3.5453   3.5983   3.6101   3.6509   3.7062
  3.7105   3.7666   3.8210   3.8234   3.8664   3.8681   3.8967   3.9173
  3.9313   4.0155   4.0465   4.0750   4.0855   4.1454   4.1579   4.1838
  4.2392   4.2559   4.3199   4.3361   4.4177   4.7384   4.8299   5.1170
  5.1373   5.1499   5.1601   5.1706   5.1849   5.1878   5.1979   5.2174
  5.2451   5.2620   5.2663   5.2756   5.2787   5.2868   5.2995   5.3078
  5.3096   5.3154   5.3665   5.4072   5.4156   5.4450   5.4747   5.5065
  5.5341   5.5547   5.5720   5.5944   5.6161   5.6488   5.6947   5.7141
  5.7523   5.8345   5.9024   5.9603   6.0260   6.0836   6.1049   6.1335
  6.3775   6.3918   6.5878   6.7013   6.7249   6.9034   6.9576   6.9990
  7.0188   7.0381   7.0605   7.0766   7.1011   7.1157   7.1382   7.1687
  7.2107   7.2573   7.2904   7.3543   7.3592   7.3992   7.4497   7.5006
  7.5502   7.6038   7.6118   7.6314   7.6838   7.7935   7.8260   7.8641
  7.9229   8.0043  24.6769  25.1053  50.5231  50.5639  50.5789  50.6533
 50.7529
 
 Beta MOs
 -- Occupied --
-19.3574 -19.3523 -19.3145 -19.3075 -19.2792 -10.4675 -10.4535  -1.2160
 -1.1845  -1.1324  -1.1081  -0.9859  -0.8183  -0.6731  -0.6719  -0.6285
 -0.5843  -0.5503  -0.5454  -0.5251  -0.5106  -0.4511  -0.4406  -0.4088
 -0.4047  -0.3826  -0.3606  -0.3169
 -- Virtual --
 -0.0209   0.0355   0.0537   0.0557   0.0717   0.0854   0.0898   0.1048
  0.1155   0.1301   0.1333   0.1475   0.1524   0.1725   0.2203   0.2350
  0.2385   0.2439   0.2536   0.2587   0.2751   0.2906   0.2910   0.3049
  0.3153   0.3194   0.3271   0.3341   0.3403   0.3551   0.3582   0.3642
  0.3724   0.3787   0.3920   0.4005   0.4123   0.4181   0.4340   0.4499
  0.4740   0.5188   0.5513   0.5756   0.6007   0.6212   0.6394   0.6618
  0.6814   0.7149   0.7279   0.7458   0.7716   0.7994   0.8454   0.8535
  0.8696   0.8831   0.9205   0.9726   0.9891   1.0181   1.0361   1.0592
  1.0865   1.1122   1.1227   1.1545   1.1574   1.1676   1.1769   1.1965
  1.2104   1.2109   1.2285   1.2461   1.2550   1.2698   1.2873   1.3113
  1.3501   1.3613   1.3825   1.4064   1.4263   1.4372   1.4990   1.5068
  1.5333   1.5809   1.5956   1.6370   1.6807   1.6941   1.7175   1.7276
  1.7552   1.7896   1.8020   1.8232   1.8989   1.9399   1.9520   1.9825
  2.0138   2.0737   2.1116   2.1370   2.1923   2.2387   2.3070   2.3395
  2.3585   2.3952   2.4060   2.4316   2.4487   2.5084   2.5554   2.5765
  2.6451   2.7110   2.7797   2.8395   2.8916   2.9307   2.9605   2.9944
  3.0411   3.1621   3.1725   3.1969   3.2216   3.2860   3.3130   3.3523
  3.3987   3.4492   3.4711   3.5414   3.5546   3.6043   3.6133   3.6562
  3.7203   3.7244   3.7730   3.8277   3.8287   3.8665   3.8719   3.9048
  3.9279   3.9378   4.0203   4.0472   4.0708   4.0863   4.1455   4.1590
  4.1905   4.2418   4.2587   4.3233   4.3471   4.4263   4.7435   4.8406
  5.1283   5.1446   5.1750   5.1835   5.1904   5.2014   5.2034   5.2116
  5.2229   5.2593   5.2718   5.2771   5.2795   5.2838   5.3005   5.3074
  5.3175   5.3221   5.3314   5.3946   5.4216   5.4446   5.4526   5.4793
  5.5092   5.5409   5.5686   5.5775   5.5975   5.6206   5.6528   5.6976
  5.7219   5.7678   5.8407   5.9058   5.9663   6.0306   6.0923   6.1180
  6.1351   6.3832   6.3924   6.5957   6.7053   6.7272   6.9591   6.9699
  7.0027   7.0314   7.0453   7.0693   7.0972   7.1063   7.1364   7.1741
  7.1784   7.2180   7.2599   7.2951   7.3563   7.3612   7.4041   7.4619
  7.5171   7.5585   7.6156   7.6322   7.6471   7.7228   7.7951   7.8308
  7.8673   7.9297   8.0079  24.6823  25.1056  50.5345  50.5646  50.5799
 50.6541  50.7532
 --------------------------------------------------------------
 
          Ground-State Mulliken Net Atomic Charges

     Atom                 Charge (a.u.)    Spin (a.u.)
  --------------------------------------------------------
      1 O                    -0.392889       0.025691
      2 C                    -0.134029       0.316375
      3 O                    -0.408801       0.002267
      4 C                     0.410105      -0.015649
      5 O                    -0.543163       0.013263
      6 O                    -0.562195       0.005418
      7 H                     0.355938      -0.001671
      8 H                     0.351133       0.016358
      9 H                     0.273912      -0.017509
     10 O                    -0.714729       0.653571
     11 H                     0.364719       0.001886
  --------------------------------------------------------
  Sum of atomic charges =    -1.000000
  Sum of spin   charges =     1.000000

 -----------------------------------------------------------------
                    Cartesian Multipole Moments
 -----------------------------------------------------------------
    Charge (ESU x 10^10)
                -4.8032
    Dipole Moment (Debye)
         X      -9.7121      Y      -1.7492      Z      -2.0880
       Tot      10.0869
    Quadrupole Moments (Debye-Ang)
        XX     -55.2877     XY      -5.5950     YY     -51.7097
        XZ      -3.6734     YZ      -7.5407     ZZ     -58.8563
    Octopole Moments (Debye-Ang^2)
       XXX    -124.7842    XXY     -15.7952    XYY     -54.0605
       YYY     -64.3304    XXZ     -23.2516    XYZ     -17.1360
       YYZ     -34.2789    XZZ     -39.3564    YZZ     -28.3355
       ZZZ     -92.5708
    Hexadecapole Moments (Debye-Ang^3)
      XXXX    -574.6858   XXXY     -54.2748   XXYY    -139.1959
      XYYY     -83.8036   YYYY    -329.6315   XXXZ     -41.9582
      XXYZ     -37.5262   XYYZ     -44.1071   YYYZ    -111.5587
      XXZZ    -156.9423   XYZZ     -41.0874   YYZZ    -138.4854
      XZZZ     -71.3093   YZZZ    -109.2841   ZZZZ    -373.0715
 -----------------------------------------------------------------
 Calculating analytic gradient of the SCF energy
 Gradient of CDS energy
            1           2           3           4           5           6
    1   0.0019820  -0.0036683   0.0014670   0.0045500  -0.0041400   0.0001750
    2  -0.0015807  -0.0006437   0.0022808   0.0000426  -0.0015191   0.0011176
    3   0.0024649  -0.0006102  -0.0015626  -0.0003460  -0.0012461   0.0010212
            7           8           9          10          11
    1  -0.0003999  -0.0003701   0.0001857  -0.0001444   0.0003630
    2   0.0002935  -0.0003411   0.0001867   0.0000804   0.0000830
    3  -0.0001218   0.0000516   0.0001245   0.0000122   0.0002124
 Gradient of SCF Energy
            1           2           3           4           5           6
    1   0.0025717   0.0206756  -0.0081381  -0.0374537   0.0025836   0.0084092
    2  -0.0060950   0.0085654  -0.0092841  -0.0416750   0.0373368   0.0329690
    3  -0.0196552   0.0035253   0.0067494  -0.0290477   0.0281040   0.0286134
            7           8           9          10          11
    1  -0.0101373  -0.0040826  -0.0129763   0.0096528   0.0288951
    2   0.0048970   0.0000015   0.0095341  -0.0263716  -0.0098780
    3   0.0104890  -0.0026932   0.0024731  -0.0336659   0.0051078
 Max gradient component =       4.168E-02
 RMS gradient           =       1.962E-02
 Computing fast CPCM-SWIG gradient
 Updating gradient with PCM contributions...
 -- total gradient after adding PCM contribution --
---------------------------------------------------
  Atom         X              Y              Z     
---------------------------------------------------
   1       0.009641      -0.012354      -0.012515
   2       0.011416      -0.021932      -0.021414
   3       0.004858       0.007560       0.009972
   4      -0.063096      -0.012542      -0.001109
   5       0.003659       0.055108       0.044458
   6       0.010822       0.007404       0.006870
   7      -0.016698       0.012209       0.013738
   8      -0.010357      -0.012374      -0.014480
   9      -0.010507       0.034331       0.024285
  10       0.001805      -0.058461      -0.063167
  11       0.058456       0.001053       0.013362
---------------------------------------------------
 Number of fixed atoms: 0
 Gradient time:  CPU 84.52 s  wall 7.05 s
 ----------------------------------------------------------------
             Standard Nuclear Orientation (Angstroms)
    I     Atom           X                Y                Z
 ----------------------------------------------------------------
    1      O      -0.8830247000     1.0690563000    -0.2833168000
    2      C      -0.0643048000     0.4858447000     0.6971505000
    3      O      -0.7508723000    -0.5472826000     1.3581975000
    4      C       1.1876969000    -0.0532654000     0.0533649000
    5      O       2.4070601000     0.4068181000     0.4067364000
    6      O       1.1033302000    -0.9184384000    -0.8040392000
    7      H      -1.5933885000     1.5585038000     0.2055143000
    8      H      -1.1573745000    -1.1261802000     0.6609745000
    9      H       0.3218659000     1.4369544000     1.5673464000
   10      O       1.5706511000     1.7733809000     1.7923166000
   11      H       2.4938360000     1.1525155000     1.3311010000
 ----------------------------------------------------------------
 Nuclear Repulsion Energy =         322.60082302 hartrees
 There are       29 alpha and       28 beta electrons
 Discretize the solute cavity surface with Lebedev spheres
	Using 110 Lebedev grid points for each H atom
	Using 194 Lebedev grid points for other atoms
	Atomic van der Waals radii will be scaled by 1.20
 Remove points where switching function is < 1.0e-08
 Keep 952 surface tesserae and discard 846 interior tesserae
 Molecular Surface Area = 112.476 Angst**2

                       Distance Matrix (Angstroms)
             O (  1)   C (  2)   O (  3)   C (  4)   O (  5)   O (  6)
   C (  2)  1.404192
   O (  3)  2.307506  1.405600
   C (  4)  2.379254  1.507517  2.388450
   O (  5)  3.426279  2.489624  3.433384  1.350331
   O (  6)  2.857778  2.364097  2.872471  1.220977  2.218557
   H (  7)  0.991530  1.931425  2.544179  3.217978  4.167788  3.798254
   H (  8)  2.405414  1.948008  0.993220  2.649471  3.888433  2.701890
   H (  9)  2.238764  1.345726  2.265327  2.294027  2.599275  3.432496
   O ( 10)  3.290114  2.351642  3.311104  2.550930  2.118232  3.768998
   H ( 11)  3.743861  2.718534  3.663083  2.189182  1.190817  3.283471
             H (  7)   H (  8)   H (  9)   O ( 10)
   H (  8)  2.757731
   H (  9)  2.353202  3.095048
   O ( 10)  3.546161  4.138782  1.312730
   H ( 11)  4.258776  4.355785  2.203218  1.204352
 
 Requested basis set is 6-311++G(2df,2p)
 There are 80 shells and 278 basis functions
 A cutoff of  1.0D-11 yielded   2997 shell pairs
 There are     36493 function pairs (     46170 Cartesian)
 Smallest overlap matrix eigenvalue = 5.39E-05
 Guess MOs from SCF MO coefficient file

 -----------------------------------------------------------------------
  General SCF calculation program by
  Eric Jon Sundstrom, Paul Horn, Yuezhi Mao, Dmitri Zuev, Alec White,
  David Stuck, Shaama M.S., Shane Yost, Joonho Lee, David Small,
  Daniel Levine, Susi Lehtola, Hugh Burton, Evgeny Epifanovsky,
  Bang C. Huynh
 -----------------------------------------------------------------------
 Exchange:     0.1500 Hartree-Fock + 1.0000 wB97M-V + LR-HF
 Correlation:  1.0000 wB97M-V
 Using SG-2 standard quadrature grid
 Nonlocal Correlation:  VV10 with C = 0.0100 and b = 6.00 and scale = 1.00000
 Grid used for NLC:  SG-1 standard quadrature
 
 Citation of the SMD model:
 Marenich, A.V.; Cramer, C.J.; Truhlar, D.G.
 J. Phys. Chem. B 2009, 113, 6378-6396.
 iSolventCode=           1
 Solvent: water                                                           
 
 vradii
            1           2           3           4           5           6
    1   1.5200000   1.8500000   1.5200000   1.8500000   1.5200000   1.5200000
            7           8           9          10          11
    1   1.2000000   1.2000000   1.2000000   1.5200000   1.2000000
 -------------------------------------------------------
 OpenMP BLAS3 based DFT computing Module                
 Release: version 1.0, May 2013, Q-Chem Inc. Pittsburgh 
 -------------------------------------------------------
 A unrestricted SCF calculation will be
 performed using Roothaan-Hall, DIIS, GDM
 SCF converges when RMS gradient is below 1.0e-06
 ---------------------------------------
  Cycle       Energy         DIIS error
 ---------------------------------------
    1    -454.6673714099      3.33e-04  Roothaan Step
 ---------------------------------------
  Cycle       Energy         DIIS error
 ---------------------------------------
    1    -454.7855274085      3.69e-04  
    2    -454.7914344540      3.30e-04  Done DIIS. Switching to GDM
 ---------------------------------------
  Cycle       Energy        RMS Gradient
 ---------------------------------------
    1    -454.7914344540      1.43e-02   Normal BFGS step
    2    -454.7908341482      1.69e-02  Line search: overstep
    3    -454.7941704089      3.48e-03   Normal BFGS step
    4    -454.7943776146      1.75e-03   Normal BFGS step
    5    -454.7944170516      1.54e-03   Normal BFGS step
    6    -454.7944265928      1.40e-03   Normal BFGS step
    7    -454.7944325273      1.06e-03   Normal BFGS step
    8    -454.7944371811      7.91e-04   Normal BFGS step
    9    -454.7944395297      3.08e-04   Normal BFGS step
   10    -454.7944405119      1.87e-04   Normal BFGS step
   11    -454.7944411054      1.35e-04   Normal BFGS step
   12    -454.7944413012      9.11e-05   Normal BFGS step
   13    -454.7944413288      7.58e-05   Normal BFGS step
   14    -454.7944413453      6.21e-05   Normal BFGS step
   15    -454.7944413578      3.53e-05   Normal BFGS step
   16    -454.7944413634      1.95e-05   Normal BFGS step
   17    -454.7944413663      1.01e-05   Normal BFGS step
   18    -454.7944413666      3.40e-06   Normal BFGS step
   19    -454.7944413667      7.66e-07  Convergence criterion met
 ---------------------------------------
 SCF time:   CPU 756.45s  wall 50.00s 
<S^2> =          0.757548903
(3)  G-ENP(liq) elect-nuc-pol free energy of system     -454.794441367 a.u.
(4)  G-CDS(liq) cavity-dispersion-solvent structure 
     free energy                                                3.7555 kcal/mol
(6)  G-S(liq) free energy of system                     -454.788456639 a.u.
 SCF   energy in the final basis set =     -454.7884566392
 Total energy in the final basis set =     -454.7884566392
 
 --------------------------------------------------------------
 
                    Orbital Energies (a.u.)
 --------------------------------------------------------------
 
 Alpha MOs
 -- Occupied --
-19.3583 -19.3529 -19.3146 -19.3075 -19.2975 -10.4674 -10.4600  -1.2185
 -1.1861  -1.1348  -1.1133  -1.0269  -0.8258  -0.6817  -0.6757  -0.6333
 -0.5989  -0.5525  -0.5511  -0.5289  -0.5182  -0.4794  -0.4519  -0.4207
 -0.4140  -0.3909  -0.3763  -0.3438  -0.3224
 -- Virtual --
  0.0331   0.0533   0.0547   0.0705   0.0849   0.0896   0.1036   0.1153
  0.1298   0.1328   0.1466   0.1531   0.1709   0.2197   0.2316   0.2386
  0.2422   0.2519   0.2567   0.2746   0.2856   0.2895   0.3049   0.3135
  0.3185   0.3248   0.3323   0.3399   0.3541   0.3562   0.3634   0.3715
  0.3746   0.3906   0.3966   0.4069   0.4122   0.4307   0.4493   0.4719
  0.5164   0.5502   0.5722   0.5988   0.6163   0.6370   0.6589   0.6802
  0.7093   0.7230   0.7438   0.7700   0.7978   0.8444   0.8522   0.8661
  0.8771   0.9182   0.9705   0.9848   1.0153   1.0291   1.0569   1.0842
  1.1101   1.1208   1.1479   1.1554   1.1641   1.1747   1.1880   1.2070
  1.2097   1.2238   1.2384   1.2489   1.2684   1.2799   1.3031   1.3450
  1.3573   1.3786   1.4029   1.4211   1.4310   1.4980   1.5004   1.5313
  1.5756   1.5909   1.6320   1.6757   1.6892   1.6989   1.7235   1.7526
  1.7798   1.7963   1.8152   1.8973   1.9369   1.9464   1.9806   2.0053
  2.0625   2.1023   2.1330   2.1898   2.2333   2.3035   2.3333   2.3544
  2.3865   2.4022   2.4273   2.4429   2.5010   2.5509   2.5746   2.6359
  2.7084   2.7761   2.8374   2.8887   2.9265   2.9580   2.9908   3.0386
  3.1562   3.1681   3.1797   3.2202   3.2785   3.3074   3.3479   3.3921
  3.4445   3.4613   3.5341   3.5454   3.5982   3.6100   3.6508   3.7061
  3.7108   3.7665   3.8211   3.8235   3.8664   3.8680   3.8965   3.9170
  3.9309   4.0155   4.0465   4.0749   4.0856   4.1458   4.1579   4.1841
  4.2402   4.2558   4.3207   4.3362   4.4176   4.7385   4.8298   5.1169
  5.1372   5.1498   5.1600   5.1704   5.1849   5.1877   5.1979   5.2172
  5.2451   5.2620   5.2662   5.2756   5.2786   5.2868   5.2994   5.3078
  5.3095   5.3152   5.3664   5.4071   5.4154   5.4451   5.4746   5.5067
  5.5342   5.5548   5.5735   5.5949   5.6163   5.6488   5.6949   5.7139
  5.7523   5.8341   5.9026   5.9600   6.0258   6.0824   6.1038   6.1328
  6.3765   6.3915   6.5877   6.7003   6.7239   6.9032   6.9576   6.9992
  7.0188   7.0382   7.0606   7.0767   7.1010   7.1159   7.1416   7.1718
  7.2107   7.2572   7.2904   7.3542   7.3591   7.3990   7.4496   7.5005
  7.5500   7.6037   7.6113   7.6312   7.6835   7.7935   7.8256   7.8638
  7.9228   8.0042  24.6748  25.1052  50.5230  50.5639  50.5790  50.6532
 50.7528
 
 Beta MOs
 -- Occupied --
-19.3572 -19.3523 -19.3145 -19.3076 -19.2793 -10.4676 -10.4536  -1.2159
 -1.1845  -1.1324  -1.1081  -0.9859  -0.8184  -0.6731  -0.6719  -0.6285
 -0.5843  -0.5503  -0.5454  -0.5251  -0.5106  -0.4511  -0.4406  -0.4088
 -0.4047  -0.3827  -0.3607  -0.3170
 -- Virtual --
 -0.0210   0.0356   0.0537   0.0557   0.0717   0.0854   0.0898   0.1048
  0.1155   0.1301   0.1333   0.1475   0.1524   0.1725   0.2202   0.2350
  0.2387   0.2439   0.2537   0.2587   0.2751   0.2905   0.2910   0.3049
  0.3153   0.3194   0.3271   0.3341   0.3402   0.3551   0.3582   0.3642
  0.3723   0.3785   0.3920   0.4004   0.4123   0.4180   0.4340   0.4499
  0.4740   0.5187   0.5512   0.5760   0.6007   0.6213   0.6393   0.6618
  0.6814   0.7149   0.7279   0.7458   0.7716   0.7994   0.8454   0.8536
  0.8695   0.8831   0.9205   0.9727   0.9891   1.0180   1.0360   1.0593
  1.0862   1.1123   1.1227   1.1545   1.1574   1.1675   1.1769   1.1964
  1.2103   1.2109   1.2286   1.2461   1.2549   1.2698   1.2872   1.3113
  1.3501   1.3612   1.3824   1.4064   1.4263   1.4371   1.4999   1.5065
  1.5335   1.5807   1.5956   1.6370   1.6806   1.6942   1.7175   1.7276
  1.7549   1.7895   1.8019   1.8231   1.8991   1.9397   1.9519   1.9826
  2.0138   2.0736   2.1116   2.1369   2.1923   2.2384   2.3069   2.3394
  2.3581   2.3951   2.4053   2.4314   2.4484   2.5082   2.5553   2.5764
  2.6451   2.7109   2.7796   2.8398   2.8919   2.9305   2.9603   2.9942
  3.0410   3.1620   3.1724   3.1969   3.2216   3.2858   3.3127   3.3522
  3.3982   3.4491   3.4709   3.5413   3.5546   3.6042   3.6132   3.6561
  3.7204   3.7245   3.7729   3.8278   3.8288   3.8665   3.8719   3.9045
  3.9277   3.9374   4.0203   4.0472   4.0707   4.0865   4.1460   4.1590
  4.1908   4.2428   4.2587   4.3241   4.3471   4.4262   4.7435   4.8405
  5.1282   5.1445   5.1749   5.1834   5.1904   5.2013   5.2034   5.2115
  5.2227   5.2593   5.2718   5.2770   5.2795   5.2838   5.3005   5.3073
  5.3174   5.3219   5.3313   5.3946   5.4215   5.4445   5.4526   5.4792
  5.5094   5.5411   5.5692   5.5784   5.5980   5.6208   5.6528   5.6978
  5.7218   5.7677   5.8403   5.9060   5.9659   6.0304   6.0907   6.1174
  6.1344   6.3821   6.3921   6.5956   6.7044   6.7260   6.9590   6.9699
  7.0029   7.0314   7.0454   7.0695   7.0971   7.1062   7.1403   7.1751
  7.1802   7.2180   7.2598   7.2950   7.3563   7.3612   7.4039   7.4618
  7.5170   7.5582   7.6152   7.6320   7.6470   7.7226   7.7951   7.8304
  7.8670   7.9296   8.0079  24.6802  25.1055  50.5345  50.5647  50.5800
 50.6540  50.7531
 --------------------------------------------------------------
 
          Ground-State Mulliken Net Atomic Charges

     Atom                 Charge (a.u.)    Spin (a.u.)
  --------------------------------------------------------
      1 O                    -0.393263       0.025529
      2 C                    -0.134408       0.315977
      3 O                    -0.408651       0.002265
      4 C                     0.410272      -0.015619
      5 O                    -0.543091       0.013328
      6 O                    -0.562034       0.005413
      7 H                     0.355495      -0.001679
      8 H                     0.351163       0.016316
      9 H                     0.273980      -0.017547
     10 O                    -0.714181       0.654170
     11 H                     0.364716       0.001847
  --------------------------------------------------------
  Sum of atomic charges =    -1.000000
  Sum of spin   charges =     1.000000

 -----------------------------------------------------------------
                    Cartesian Multipole Moments
 -----------------------------------------------------------------
    Charge (ESU x 10^10)
                -4.8032
    Dipole Moment (Debye)
         X      -9.6974      Y      -1.7490      Z      -2.0813
       Tot      10.0713
    Quadrupole Moments (Debye-Ang)
        XX     -55.2884     XY      -5.5773     YY     -51.7028
        XZ      -3.6682     YZ      -7.5282     ZZ     -58.8427
    Octopole Moments (Debye-Ang^2)
       XXX    -124.6973    XXY     -15.7942    XYY     -54.0173
       YYY     -64.3093    XXZ     -23.2300    XYZ     -17.1205
       YYZ     -34.2506    XZZ     -39.3202    YZZ     -28.3111
       ZZZ     -92.5312
    Hexadecapole Moments (Debye-Ang^3)
      XXXX    -574.7395   XXXY     -54.1864   XXYY    -139.1911
      XYYY     -83.7038   YYYY    -329.5550   XXXZ     -41.9438
      XXYZ     -37.4889   XYYZ     -44.0741   YYYZ    -111.4852
      XXZZ    -156.9184   XYZZ     -41.0287   YYZZ    -138.4224
      XZZZ     -71.2692   YZZZ    -109.2055   ZZZZ    -372.9634
 -----------------------------------------------------------------
 Calculating analytic gradient of the SCF energy
 Gradient of CDS energy
            1           2           3           4           5           6
    1   0.0018404  -0.0035252   0.0014667   0.0045500  -0.0041400   0.0001747
    2  -0.0014777  -0.0007479   0.0022808   0.0000427  -0.0015191   0.0011177
    3   0.0022896  -0.0004334  -0.0015628  -0.0003465  -0.0012461   0.0010211
            7           8           9          10          11
    1  -0.0004006  -0.0003702   0.0001857  -0.0001444   0.0003630
    2   0.0002944  -0.0003410   0.0001865   0.0000804   0.0000830
    3  -0.0001225   0.0000513   0.0001247   0.0000122   0.0002124
 Gradient of SCF Energy
            1           2           3           4           5           6
    1   0.0011193   0.0213031  -0.0082083  -0.0374266   0.0025969   0.0084025
    2  -0.0052075   0.0082729  -0.0092924  -0.0417033   0.0373283   0.0329663
    3  -0.0195681   0.0038946   0.0067379  -0.0289410   0.0280781   0.0285980
            7           8           9          10          11
    1  -0.0092948  -0.0040773  -0.0129000   0.0095972   0.0288880
    2   0.0043443  -0.0000007   0.0095543  -0.0263823  -0.0098799
    3   0.0099093  -0.0026787   0.0025272  -0.0336700   0.0051126
 Max gradient component =       4.170E-02
 RMS gradient           =       1.959E-02
 Computing fast CPCM-SWIG gradient
 Updating gradient with PCM contributions...
 -- total gradient after adding PCM contribution --
---------------------------------------------------
  Atom         X              Y              Z     
---------------------------------------------------
   1       0.008132      -0.011460      -0.012439
   2       0.012053      -0.022263      -0.021054
   3       0.004785       0.007564       0.009969
   4      -0.063004      -0.012585      -0.000980
   5       0.003706       0.055088       0.044420
   6       0.010818       0.007407       0.006857
   7      -0.015878       0.011674       0.013149
   8      -0.010364      -0.012375      -0.014481
   9      -0.010417       0.034352       0.024360
  10       0.001743      -0.058447      -0.063158
  11       0.058426       0.001045       0.013358
---------------------------------------------------
 Number of fixed atoms: 0
 Gradient time:  CPU 85.52 s  wall 7.20 s
 ----------------------------------------------------------------
             Standard Nuclear Orientation (Angstroms)
    I     Atom           X                Y                Z
 ----------------------------------------------------------------
    1      O      -0.8820247000     1.0700563000    -0.2833168000
    2      C      -0.0643048000     0.4858447000     0.6971505000
    3      O      -0.7508723000    -0.5472826000     1.3581975000
    4      C       1.1876969000    -0.0532654000     0.0533649000
    5      O       2.4070601000     0.4068181000     0.4067364000
    6      O       1.1033302000    -0.9184384000    -0.8040392000
    7      H      -1.5933885000     1.5585038000     0.2055143000
    8      H      -1.1573745000    -1.1261802000     0.6609745000
    9      H       0.3218659000     1.4369544000     1.5673464000
   10      O       1.5706511000     1.7733809000     1.7923166000
   11      H       2.4938360000     1.1525155000     1.3311010000
 ----------------------------------------------------------------
 Nuclear Repulsion Energy =         322.60504070 hartrees
 There are       29 alpha and       28 beta electrons
 Discretize the solute cavity surface with Lebedev spheres
	Using 110 Lebedev grid points for each H atom
	Using 194 Lebedev grid points for other atoms
	Atomic van der Waals radii will be scaled by 1.20
 Remove points where switching function is < 1.0e-08
 Keep 952 surface tesserae and discard 846 interior tesserae
 Molecular Surface Area = 112.476 Angst**2

                       Distance Matrix (Angstroms)
             O (  1)   C (  2)   O (  3)   C (  4)   O (  5)   O (  6)
   C (  2)  1.404025
   O (  3)  2.308150  1.405600
   C (  4)  2.378856  1.507517  2.388450
   O (  5)  3.425513  2.489624  3.433384  1.350331
   O (  6)  2.857778  2.364097  2.872471  1.220977  2.218557
   H (  7)  0.991754  1.931425  2.544179  3.217978  4.167788  3.798254
   H (  8)  2.406441  1.948008  0.993220  2.649471  3.888433  2.701890
   H (  9)  2.238062  1.345726  2.265327  2.294027  2.599275  3.432496
   O ( 10)  3.289155  2.351642  3.311104  2.550930  2.118232  3.768998
   H ( 11)  3.742937  2.718534  3.663083  2.189182  1.190817  3.283471
             H (  7)   H (  8)   H (  9)   O ( 10)
   H (  8)  2.757731
   H (  9)  2.353202  3.095048
   O ( 10)  3.546161  4.138782  1.312730
   H ( 11)  4.258776  4.355785  2.203218  1.204352
 
 Requested basis set is 6-311++G(2df,2p)
 There are 80 shells and 278 basis functions
 A cutoff of  1.0D-11 yielded   2997 shell pairs
 There are     36493 function pairs (     46170 Cartesian)
 Smallest overlap matrix eigenvalue = 5.39E-05
 Guess MOs from SCF MO coefficient file

 -----------------------------------------------------------------------
  General SCF calculation program by
  Eric Jon Sundstrom, Paul Horn, Yuezhi Mao, Dmitri Zuev, Alec White,
  David Stuck, Shaama M.S., Shane Yost, Joonho Lee, David Small,
  Daniel Levine, Susi Lehtola, Hugh Burton, Evgeny Epifanovsky,
  Bang C. Huynh
 -----------------------------------------------------------------------
 Exchange:     0.1500 Hartree-Fock + 1.0000 wB97M-V + LR-HF
 Correlation:  1.0000 wB97M-V
 Using SG-2 standard quadrature grid
 Nonlocal Correlation:  VV10 with C = 0.0100 and b = 6.00 and scale = 1.00000
 Grid used for NLC:  SG-1 standard quadrature
 
 Citation of the SMD model:
 Marenich, A.V.; Cramer, C.J.; Truhlar, D.G.
 J. Phys. Chem. B 2009, 113, 6378-6396.
 iSolventCode=           1
 Solvent: water                                                           
 
 vradii
            1           2           3           4           5           6
    1   1.5200000   1.8500000   1.5200000   1.8500000   1.5200000   1.5200000
            7           8           9          10          11
    1   1.2000000   1.2000000   1.2000000   1.5200000   1.2000000
 -------------------------------------------------------
 OpenMP BLAS3 based DFT computing Module                
 Release: version 1.0, May 2013, Q-Chem Inc. Pittsburgh 
 -------------------------------------------------------
 A unrestricted SCF calculation will be
 performed using Roothaan-Hall, DIIS, GDM
 SCF converges when RMS gradient is below 1.0e-06
 ---------------------------------------
  Cycle       Energy         DIIS error
 ---------------------------------------
    1    -454.6674044502      3.32e-04  Roothaan Step
 ---------------------------------------
  Cycle       Energy         DIIS error
 ---------------------------------------
    1    -454.7855384841      3.69e-04  
    2    -454.7914420117      3.30e-04  Done DIIS. Switching to GDM
 ---------------------------------------
  Cycle       Energy        RMS Gradient
 ---------------------------------------
    1    -454.7914420117      1.43e-02   Normal BFGS step
    2    -454.7908457996      1.70e-02  Line search: overstep
    3    -454.7941747846      3.56e-03   Normal BFGS step
    4    -454.7943824324      1.83e-03   Normal BFGS step
    5    -454.7944224418      1.60e-03   Normal BFGS step
    6    -454.7944322951      1.45e-03   Normal BFGS step
    7    -454.7944386208      1.10e-03   Normal BFGS step
    8    -454.7944436722      8.04e-04   Normal BFGS step
    9    -454.7944461198      3.18e-04   Normal BFGS step
   10    -454.7944471669      1.91e-04   Normal BFGS step
   11    -454.7944477829      1.36e-04   Normal BFGS step
   12    -454.7944479783      9.32e-05   Normal BFGS step
   13    -454.7944480070      7.72e-05   Normal BFGS step
   14    -454.7944480240      6.33e-05   Normal BFGS step
   15    -454.7944480370      3.56e-05   Normal BFGS step
   16    -454.7944480428      1.97e-05   Normal BFGS step
   17    -454.7944480458      1.00e-05   Normal BFGS step
   18    -454.7944480461      3.39e-06   Normal BFGS step
   19    -454.7944480462      7.73e-07  Convergence criterion met
 ---------------------------------------
 SCF time:   CPU 755.55s  wall 50.00s 
<S^2> =          0.757553229
(3)  G-ENP(liq) elect-nuc-pol free energy of system     -454.794448046 a.u.
(4)  G-CDS(liq) cavity-dispersion-solvent structure 
     free energy                                                3.7559 kcal/mol
(6)  G-S(liq) free energy of system                     -454.788462631 a.u.
 SCF   energy in the final basis set =     -454.7884626307
 Total energy in the final basis set =     -454.7884626307
 
 --------------------------------------------------------------
 
                    Orbital Energies (a.u.)
 --------------------------------------------------------------
 
 Alpha MOs
 -- Occupied --
-19.3584 -19.3530 -19.3146 -19.3075 -19.2974 -10.4674 -10.4600  -1.2185
 -1.1860  -1.1349  -1.1133  -1.0269  -0.8258  -0.6818  -0.6757  -0.6333
 -0.5989  -0.5526  -0.5511  -0.5289  -0.5182  -0.4794  -0.4519  -0.4208
 -0.4140  -0.3909  -0.3762  -0.3438  -0.3224
 -- Virtual --
  0.0331   0.0533   0.0547   0.0705   0.0849   0.0896   0.1036   0.1153
  0.1298   0.1328   0.1466   0.1531   0.1709   0.2197   0.2316   0.2385
  0.2422   0.2519   0.2567   0.2746   0.2856   0.2895   0.3049   0.3135
  0.3185   0.3249   0.3323   0.3399   0.3541   0.3562   0.3634   0.3715
  0.3746   0.3906   0.3966   0.4069   0.4122   0.4307   0.4493   0.4719
  0.5164   0.5502   0.5721   0.5988   0.6164   0.6371   0.6589   0.6803
  0.7093   0.7230   0.7438   0.7699   0.7978   0.8443   0.8522   0.8661
  0.8771   0.9182   0.9705   0.9848   1.0153   1.0292   1.0568   1.0844
  1.1100   1.1208   1.1480   1.1553   1.1641   1.1746   1.1880   1.2071
  1.2097   1.2238   1.2383   1.2490   1.2684   1.2799   1.3031   1.3451
  1.3574   1.3785   1.4029   1.4210   1.4310   1.4978   1.5004   1.5313
  1.5756   1.5909   1.6320   1.6756   1.6891   1.6989   1.7235   1.7528
  1.7800   1.7964   1.8151   1.8970   1.9369   1.9465   1.9805   2.0053
  2.0625   2.1022   2.1330   2.1896   2.2335   2.3034   2.3333   2.3545
  2.3865   2.4024   2.4272   2.4430   2.5011   2.5509   2.5746   2.6359
  2.7085   2.7761   2.8373   2.8884   2.9267   2.9580   2.9909   3.0387
  3.1561   3.1680   3.1796   3.2202   3.2786   3.3074   3.3479   3.3923
  3.4444   3.4613   3.5341   3.5454   3.5982   3.6100   3.6509   3.7060
  3.7106   3.7666   3.8209   3.8235   3.8664   3.8681   3.8965   3.9170
  3.9309   4.0155   4.0465   4.0749   4.0856   4.1457   4.1579   4.1839
  4.2401   4.2558   4.3205   4.3361   4.4177   4.7385   4.8298   5.1170
  5.1373   5.1499   5.1601   5.1705   5.1850   5.1877   5.1978   5.2173
  5.2451   5.2620   5.2662   5.2756   5.2786   5.2868   5.2994   5.3078
  5.3094   5.3152   5.3665   5.4071   5.4154   5.4452   5.4747   5.5065
  5.5342   5.5548   5.5730   5.5948   5.6162   5.6487   5.6949   5.7140
  5.7522   5.8337   5.9022   5.9602   6.0259   6.0828   6.1043   6.1330
  6.3766   6.3916   6.5877   6.7003   6.7240   6.9033   6.9576   6.9992
  7.0188   7.0381   7.0606   7.0766   7.1010   7.1159   7.1411   7.1711
  7.2107   7.2571   7.2903   7.3540   7.3591   7.3991   7.4496   7.5006
  7.5500   7.6037   7.6114   7.6313   7.6836   7.7935   7.8256   7.8639
  7.9228   8.0042  24.6750  25.1052  50.5230  50.5638  50.5789  50.6532
 50.7528
 
 Beta MOs
 -- Occupied --
-19.3573 -19.3523 -19.3145 -19.3075 -19.2793 -10.4676 -10.4536  -1.2159
 -1.1845  -1.1324  -1.1081  -0.9859  -0.8184  -0.6731  -0.6719  -0.6285
 -0.5843  -0.5503  -0.5454  -0.5251  -0.5106  -0.4511  -0.4406  -0.4088
 -0.4047  -0.3827  -0.3606  -0.3169
 -- Virtual --
 -0.0210   0.0356   0.0537   0.0557   0.0717   0.0854   0.0898   0.1048
  0.1155   0.1301   0.1333   0.1475   0.1524   0.1725   0.2203   0.2350
  0.2387   0.2439   0.2536   0.2587   0.2751   0.2905   0.2910   0.3049
  0.3153   0.3194   0.3271   0.3341   0.3402   0.3551   0.3582   0.3642
  0.3723   0.3786   0.3920   0.4004   0.4123   0.4180   0.4340   0.4499
  0.4740   0.5187   0.5512   0.5759   0.6006   0.6214   0.6393   0.6618
  0.6815   0.7149   0.7279   0.7458   0.7715   0.7994   0.8453   0.8536
  0.8695   0.8831   0.9206   0.9727   0.9891   1.0181   1.0361   1.0593
  1.0864   1.1122   1.1227   1.1545   1.1574   1.1675   1.1768   1.1965
  1.2104   1.2109   1.2286   1.2461   1.2549   1.2698   1.2872   1.3112
  1.3501   1.3613   1.3824   1.4065   1.4263   1.4371   1.4996   1.5066
  1.5336   1.5807   1.5956   1.6370   1.6807   1.6941   1.7175   1.7276
  1.7551   1.7896   1.8020   1.8231   1.8989   1.9397   1.9521   1.9824
  2.0138   2.0736   2.1115   2.1368   2.1920   2.2386   2.3069   2.3395
  2.3582   2.3951   2.4055   2.4313   2.4485   2.5083   2.5554   2.5764
  2.6451   2.7110   2.7796   2.8397   2.8917   2.9307   2.9603   2.9943
  3.0411   3.1620   3.1724   3.1968   3.2215   3.2859   3.3128   3.3523
  3.3983   3.4491   3.4709   3.5413   3.5546   3.6042   3.6133   3.6562
  3.7203   3.7243   3.7730   3.8276   3.8288   3.8665   3.8719   3.9045
  3.9277   3.9375   4.0203   4.0472   4.0707   4.0864   4.1459   4.1590
  4.1906   4.2428   4.2586   4.3239   4.3471   4.4262   4.7436   4.8405
  5.1282   5.1446   5.1750   5.1834   5.1904   5.2013   5.2034   5.2115
  5.2228   5.2593   5.2718   5.2770   5.2795   5.2838   5.3005   5.3073
  5.3174   5.3219   5.3313   5.3946   5.4215   5.4446   5.4527   5.4793
  5.5091   5.5410   5.5690   5.5781   5.5979   5.6207   5.6528   5.6977
  5.7218   5.7676   5.8400   5.9056   5.9661   6.0305   6.0912   6.1177
  6.1346   6.3823   6.3923   6.5956   6.7044   6.7261   6.9590   6.9699
  7.0028   7.0314   7.0454   7.0694   7.0971   7.1062   7.1398   7.1749
  7.1798   7.2180   7.2598   7.2949   7.3561   7.3612   7.4040   7.4618
  7.5171   7.5582   7.6153   7.6320   7.6470   7.7226   7.7951   7.8304
  7.8671   7.9296   8.0079  24.6805  25.1055  50.5345  50.5645  50.5800
 50.6540  50.7531
 --------------------------------------------------------------
 
          Ground-State Mulliken Net Atomic Charges

     Atom                 Charge (a.u.)    Spin (a.u.)
  --------------------------------------------------------
      1 O                    -0.393096       0.025617
      2 C                    -0.134244       0.316261
      3 O                    -0.408557       0.002258
      4 C                     0.410120      -0.015644
      5 O                    -0.543088       0.013282
      6 O                    -0.562050       0.005422
      7 H                     0.355560      -0.001682
      8 H                     0.351161       0.016341
      9 H                     0.273983      -0.017540
     10 O                    -0.714501       0.653816
     11 H                     0.364711       0.001868
  --------------------------------------------------------
  Sum of atomic charges =    -1.000000
  Sum of spin   charges =     1.000000

 -----------------------------------------------------------------
                    Cartesian Multipole Moments
 -----------------------------------------------------------------
    Charge (ESU x 10^10)
                -4.8032
    Dipole Moment (Debye)
         X      -9.7046      Y      -1.7538      Z      -2.0838
       Tot      10.0795
    Quadrupole Moments (Debye-Ang)
        XX     -55.2872     XY      -5.5830     YY     -51.7134
        XZ      -3.6727     YZ      -7.5352     ZZ     -58.8482
    Octopole Moments (Debye-Ang^2)
       XXX    -124.7403    XXY     -15.8050    XYY     -54.0340
       YYY     -64.3547    XXZ     -23.2402    XYZ     -17.1298
       YYZ     -34.2634    XZZ     -39.3412    YZZ     -28.3340
       ZZZ     -92.5488
    Hexadecapole Moments (Debye-Ang^3)
      XXXX    -574.6999   XXXY     -54.2128   XXYY    -139.2112
      XYYY     -83.7303   YYYY    -329.6937   XXXZ     -41.9566
      XXYZ     -37.5079   XYYZ     -44.0960   YYYZ    -111.5203
      XXZZ    -156.9308   XYZZ     -41.0553   YYZZ    -138.4689
      XZZZ     -71.3000   YZZZ    -109.2497   ZZZZ    -373.0144
 -----------------------------------------------------------------
 Calculating analytic gradient of the SCF energy
 Gradient of CDS energy
            1           2           3           4           5           6
    1   0.0018602  -0.0035451   0.0014669   0.0045499  -0.0041400   0.0001748
    2  -0.0014948  -0.0007308   0.0022808   0.0000427  -0.0015191   0.0011178
    3   0.0023160  -0.0004597  -0.0015627  -0.0003464  -0.0012461   0.0010212
            7           8           9          10          11
    1  -0.0004006  -0.0003703   0.0001856  -0.0001444   0.0003630
    2   0.0002941  -0.0003410   0.0001869   0.0000804   0.0000830
    3  -0.0001224   0.0000513   0.0001243   0.0000122   0.0002124
 Gradient of SCF Energy
            1           2           3           4           5           6
    1   0.0014200   0.0211146  -0.0081502  -0.0374400   0.0025957   0.0084157
    2  -0.0052302   0.0082705  -0.0093431  -0.0417075   0.0373390   0.0329692
    3  -0.0196281   0.0038473   0.0068248  -0.0289751   0.0280897   0.0285990
            7           8           9          10          11
    1  -0.0094459  -0.0040831  -0.0129495   0.0096289   0.0288939
    2   0.0044071   0.0000060   0.0095415  -0.0263719  -0.0098804
    3   0.0099994  -0.0026927   0.0024976  -0.0336711   0.0051091
 Max gradient component =       4.171E-02
 RMS gradient           =       1.959E-02
 Computing fast CPCM-SWIG gradient
 Updating gradient with PCM contributions...
 -- total gradient after adding PCM contribution --
---------------------------------------------------
  Atom         X              Y              Z     
---------------------------------------------------
   1       0.008440      -0.011453      -0.012507
   2       0.011865      -0.022271      -0.021108
   3       0.004842       0.007493       0.010068
   4      -0.063027      -0.012580      -0.001015
   5       0.003688       0.055103       0.044440
   6       0.010822       0.007407       0.006859
   7      -0.016022       0.011722       0.013239
   8      -0.010357      -0.012363      -0.014482
   9      -0.010479       0.034348       0.024309
  10       0.001784      -0.058454      -0.063161
  11       0.058444       0.001048       0.013359
---------------------------------------------------
 Number of fixed atoms: 0
 Gradient time:  CPU 84.41 s  wall 7.05 s
 ----------------------------------------------------------------
             Standard Nuclear Orientation (Angstroms)
    I     Atom           X                Y                Z
 ----------------------------------------------------------------
    1      O      -0.8820247000     1.0680563000    -0.2833168000
    2      C      -0.0643048000     0.4858447000     0.6971505000
    3      O      -0.7508723000    -0.5472826000     1.3581975000
    4      C       1.1876969000    -0.0532654000     0.0533649000
    5      O       2.4070601000     0.4068181000     0.4067364000
    6      O       1.1033302000    -0.9184384000    -0.8040392000
    7      H      -1.5933885000     1.5585038000     0.2055143000
    8      H      -1.1573745000    -1.1261802000     0.6609745000
    9      H       0.3218659000     1.4369544000     1.5673464000
   10      O       1.5706511000     1.7733809000     1.7923166000
   11      H       2.4938360000     1.1525155000     1.3311010000
 ----------------------------------------------------------------
 Nuclear Repulsion Energy =         322.63125419 hartrees
 There are       29 alpha and       28 beta electrons
 Discretize the solute cavity surface with Lebedev spheres
	Using 110 Lebedev grid points for each H atom
	Using 194 Lebedev grid points for other atoms
	Atomic van der Waals radii will be scaled by 1.20
 Remove points where switching function is < 1.0e-08
 Keep 951 surface tesserae and discard 847 interior tesserae
 Molecular Surface Area = 112.474 Angst**2

                       Distance Matrix (Angstroms)
             O (  1)   C (  2)   O (  3)   C (  4)   O (  5)   O (  6)
   C (  2)  1.403194
   O (  3)  2.306749  1.405600
   C (  4)  2.377912  1.507517  2.388450
   O (  5)  3.425126  2.489624  3.433384  1.350331
   O (  6)  2.856387  2.364097  2.872471  1.220977  2.218557
   H (  7)  0.992740  1.931425  2.544179  3.217978  4.167788  3.798254
   H (  8)  2.404616  1.948008  0.993220  2.649471  3.888433  2.701890
   H (  9)  2.238391  1.345726  2.265327  2.294027  2.599275  3.432496
   O ( 10)  3.289583  2.351642  3.311104  2.550930  2.118232  3.768998
   H ( 11)  3.742982  2.718534  3.663083  2.189182  1.190817  3.283471
             H (  7)   H (  8)   H (  9)   O ( 10)
   H (  8)  2.757731
   H (  9)  2.353202  3.095048
   O ( 10)  3.546161  4.138782  1.312730
   H ( 11)  4.258776  4.355785  2.203218  1.204352
 
 Requested basis set is 6-311++G(2df,2p)
 There are 80 shells and 278 basis functions
 A cutoff of  1.0D-11 yielded   2997 shell pairs
 There are     36493 function pairs (     46170 Cartesian)
 Smallest overlap matrix eigenvalue = 5.39E-05
 Guess MOs from SCF MO coefficient file

 -----------------------------------------------------------------------
  General SCF calculation program by
  Eric Jon Sundstrom, Paul Horn, Yuezhi Mao, Dmitri Zuev, Alec White,
  David Stuck, Shaama M.S., Shane Yost, Joonho Lee, David Small,
  Daniel Levine, Susi Lehtola, Hugh Burton, Evgeny Epifanovsky,
  Bang C. Huynh
 -----------------------------------------------------------------------
 Exchange:     0.1500 Hartree-Fock + 1.0000 wB97M-V + LR-HF
 Correlation:  1.0000 wB97M-V
 Using SG-2 standard quadrature grid
 Nonlocal Correlation:  VV10 with C = 0.0100 and b = 6.00 and scale = 1.00000
 Grid used for NLC:  SG-1 standard quadrature
 
 Citation of the SMD model:
 Marenich, A.V.; Cramer, C.J.; Truhlar, D.G.
 J. Phys. Chem. B 2009, 113, 6378-6396.
 iSolventCode=           1
 Solvent: water                                                           
 
 vradii
            1           2           3           4           5           6
    1   1.5200000   1.8500000   1.5200000   1.8500000   1.5200000   1.5200000
            7           8           9          10          11
    1   1.2000000   1.2000000   1.2000000   1.5200000   1.2000000
 -------------------------------------------------------
 OpenMP BLAS3 based DFT computing Module                
 Release: version 1.0, May 2013, Q-Chem Inc. Pittsburgh 
 -------------------------------------------------------
 A unrestricted SCF calculation will be
 performed using Roothaan-Hall, DIIS, GDM
 SCF converges when RMS gradient is below 1.0e-06
 ---------------------------------------
  Cycle       Energy         DIIS error
 ---------------------------------------
    1    -454.6673281113      3.32e-04  Roothaan Step
 ---------------------------------------
  Cycle       Energy         DIIS error
 ---------------------------------------
    1    -454.7854921922      3.69e-04  
    2    -454.7913950234      3.30e-04  Done DIIS. Switching to GDM
 ---------------------------------------
  Cycle       Energy        RMS Gradient
 ---------------------------------------
    1    -454.7913950234      1.43e-02   Normal BFGS step
    2    -454.7907945918      1.70e-02  Line search: overstep
    3    -454.7941366198      3.51e-03   Normal BFGS step
    4    -454.7943440993      1.79e-03   Normal BFGS step
    5    -454.7943838601      1.57e-03   Normal BFGS step
    6    -454.7943935846      1.43e-03   Normal BFGS step
    7    -454.7943997066      1.08e-03   Normal BFGS step
    8    -454.7944045455      7.98e-04   Normal BFGS step
    9    -454.7944069390      3.13e-04   Normal BFGS step
   10    -454.7944079540      1.90e-04   Normal BFGS step
   11    -454.7944085581      1.36e-04   Normal BFGS step
   12    -454.7944087538      9.22e-05   Normal BFGS step
   13    -454.7944087823      7.67e-05   Normal BFGS step
   14    -454.7944087992      6.31e-05   Normal BFGS step
   15    -454.7944088120      3.59e-05   Normal BFGS step
   16    -454.7944088178      1.95e-05   Normal BFGS step
   17    -454.7944088208      1.02e-05   Normal BFGS step
   18    -454.7944088211      3.46e-06   Normal BFGS step
   19    -454.7944088212      7.92e-07  Convergence criterion met
 ---------------------------------------
 SCF time:   CPU 759.00s  wall 50.00s 
<S^2> =          0.757550810
(3)  G-ENP(liq) elect-nuc-pol free energy of system     -454.794408821 a.u.
(4)  G-CDS(liq) cavity-dispersion-solvent structure 
     free energy                                                3.7595 kcal/mol
(6)  G-S(liq) free energy of system                     -454.788417624 a.u.
 SCF   energy in the final basis set =     -454.7884176238
 Total energy in the final basis set =     -454.7884176238
 
 --------------------------------------------------------------
 
                    Orbital Energies (a.u.)
 --------------------------------------------------------------
 
 Alpha MOs
 -- Occupied --
-19.3584 -19.3529 -19.3146 -19.3075 -19.2974 -10.4674 -10.4599  -1.2186
 -1.1861  -1.1348  -1.1133  -1.0269  -0.8257  -0.6818  -0.6757  -0.6332
 -0.5989  -0.5525  -0.5511  -0.5289  -0.5182  -0.4794  -0.4519  -0.4207
 -0.4140  -0.3908  -0.3762  -0.3438  -0.3224
 -- Virtual --
  0.0331   0.0533   0.0547   0.0705   0.0849   0.0896   0.1036   0.1154
  0.1298   0.1328   0.1466   0.1530   0.1709   0.2197   0.2316   0.2384
  0.2422   0.2518   0.2567   0.2746   0.2857   0.2896   0.3049   0.3135
  0.3185   0.3249   0.3323   0.3399   0.3541   0.3562   0.3635   0.3716
  0.3747   0.3906   0.3967   0.4070   0.4123   0.4308   0.4493   0.4719
  0.5165   0.5503   0.5719   0.5989   0.6161   0.6371   0.6590   0.6801
  0.7093   0.7230   0.7438   0.7701   0.7977   0.8445   0.8521   0.8662
  0.8771   0.9182   0.9705   0.9848   1.0153   1.0291   1.0569   1.0843
  1.1101   1.1208   1.1480   1.1554   1.1642   1.1748   1.1880   1.2071
  1.2096   1.2238   1.2385   1.2490   1.2684   1.2799   1.3031   1.3449
[...]
  5.5515   5.5674   5.6021   5.6197   5.6266   5.6340   5.6706   5.6817
  5.7347   5.8090   5.8609   5.9969   6.0252   6.0694   6.2065   6.3223
  6.4706   6.4843   6.7409   6.8706   6.9111   6.9350   6.9791   7.0037
  7.0261   7.0547   7.0794   7.1018   7.1293   7.1486   7.1782   7.2506
  7.2590   7.2990   7.3345   7.3392   7.3495   7.3784   7.4424   7.4829
  7.5112   7.5531   7.6163   7.6509   7.7124   7.7649   7.8163   7.8238
  7.8617   7.9253  24.7613  25.2011  50.4706  50.5760  50.6173  50.7091
 50.7275
 
 Beta MOs
 -- Occupied --
-19.3534 -19.3477 -19.3471 -19.3009 -19.2972 -10.4520 -10.4513  -1.2158
 -1.1746  -1.1435  -1.0946  -1.0665  -0.8118  -0.6858  -0.6468  -0.6111
 -0.5896  -0.5513  -0.5395  -0.5214  -0.5173  -0.4912  -0.4264  -0.4158
 -0.4118  -0.3819  -0.3740  -0.3667
 -- Virtual --
 -0.0674   0.0335   0.0558   0.0583   0.0707   0.0903   0.1039   0.1098
  0.1121   0.1279   0.1300   0.1501   0.1630   0.1780   0.2350   0.2370
  0.2408   0.2421   0.2493   0.2659   0.2732   0.2794   0.2959   0.3122
  0.3159   0.3220   0.3299   0.3340   0.3377   0.3488   0.3523   0.3572
  0.3711   0.3733   0.3894   0.4001   0.4161   0.4204   0.4257   0.4435
  0.4758   0.5550   0.5775   0.5862   0.6039   0.6139   0.6294   0.6604
  0.6903   0.6923   0.7071   0.7269   0.7699   0.7880   0.8237   0.8415
  0.8591   0.8880   0.8919   0.9655   0.9783   1.0122   1.0442   1.0606
  1.0848   1.1110   1.1150   1.1229   1.1297   1.1470   1.1547   1.1721
  1.1887   1.2104   1.2119   1.2242   1.2508   1.2588   1.2820   1.2873
  1.3210   1.3736   1.3925   1.3987   1.4340   1.4650   1.4839   1.5153
  1.5261   1.5839   1.5952   1.6169   1.6491   1.6629   1.7171   1.7220
  1.7527   1.8113   1.8255   1.8482   1.8717   1.9072   1.9280   1.9516
  2.0179   2.0415   2.1049   2.1341   2.1638   2.2225   2.2674   2.3004
  2.3544   2.3715   2.4023   2.4515   2.4672   2.5032   2.5202   2.5819
  2.6125   2.7748   2.7997   2.8149   2.8494   2.8658   2.9344   2.9662
  3.0068   3.1340   3.1842   3.2168   3.2639   3.3469   3.3612   3.3946
  3.4074   3.4437   3.4978   3.5426   3.5858   3.6217   3.6322   3.6525
  3.7231   3.7414   3.7649   3.7896   3.8165   3.8517   3.8657   3.9328
  3.9427   3.9797   4.0308   4.0912   4.1387   4.1809   4.2156   4.2564
  4.2728   4.2975   4.3255   4.3590   4.3948   4.4532   4.7603   5.0885
  5.1385   5.1482   5.1712   5.1809   5.1901   5.2020   5.2144   5.2270
  5.2349   5.2414   5.2478   5.2629   5.2727   5.2964   5.3024   5.3081
  5.3397   5.3578   5.3778   5.3932   5.3974   5.4230   5.4355   5.4763
  5.5302   5.5531   5.5692   5.6039   5.6220   5.6402   5.6451   5.6799
  5.7160   5.7358   5.8119   5.8619   5.9999   6.0269   6.0710   6.2084
  6.3231   6.4722   6.4882   6.7443   6.8881   6.9409   6.9854   6.9930
  7.0253   7.0515   7.0600   7.0858   7.1277   7.1415   7.1711   7.2298
  7.2549   7.2630   7.3096   7.3374   7.3510   7.3674   7.3955   7.4551
  7.4868   7.5157   7.6042   7.6211   7.6602   7.7166   7.7667   7.8202
  7.8268   7.8625   7.9281  24.7647  25.2013  50.4846  50.5770  50.6183
 50.7093  50.7277
 --------------------------------------------------------------
 
          Ground-State Mulliken Net Atomic Charges

     Atom                 Charge (a.u.)    Spin (a.u.)
  --------------------------------------------------------
      1 O                    -0.383000       0.031277
      2 C                    -0.166410       0.193136
      3 O                    -0.417549       0.031542
      4 C                     0.446876      -0.006079
      5 O                    -0.629919       0.004148
      6 O                    -0.639937       0.007121
      7 H                     0.349937      -0.000503
      8 H                     0.313659       0.004846
      9 H                     0.277648      -0.015081
     10 O                    -0.463115       0.760457
     11 H                     0.311810      -0.010864
  --------------------------------------------------------
  Sum of atomic charges =    -1.000000
  Sum of spin   charges =     1.000000

 -----------------------------------------------------------------
                    Cartesian Multipole Moments
 -----------------------------------------------------------------
    Charge (ESU x 10^10)
                -4.8032
    Dipole Moment (Debye)
         X      -7.4677      Y       0.4572      Z      -0.0993
       Tot       7.4824
    Quadrupole Moments (Debye-Ang)
        XX     -56.9114     XY      -2.7662     YY     -50.8909
        XZ       1.1053     YZ      -4.0545     ZZ     -54.6399
    Octopole Moments (Debye-Ang^2)
       XXX    -103.9910    XXY      -6.8987    XYY     -47.1360
       YYY     -40.2429    XXZ     -15.1143    XYZ      -9.5591
       YYZ     -22.5255    XZZ     -36.9547    YZZ     -28.3443
       ZZZ     -86.1200
    Hexadecapole Moments (Debye-Ang^3)
      XXXX    -498.2559   XXXY     -40.3138   XXYY    -129.4403
      XYYY     -44.4535   YYYY    -388.3096   XXXZ      -4.3331
      XXYZ     -23.4077   XYYZ     -22.7045   YYYZ    -100.7556
      XXZZ    -146.8484   XYZZ     -34.2161   YYZZ    -143.4266
      XZZZ     -59.6090   YZZZ    -114.1901   ZZZZ    -375.7223
 -----------------------------------------------------------------
 Calculating analytic gradient of the SCF energy
 Gradient of CDS energy
            1           2           3           4           5           6
    1   0.0017769  -0.0059307   0.0038150   0.0019442  -0.0014725   0.0002389
    2  -0.0031418  -0.0006908   0.0039179  -0.0013673  -0.0010214   0.0018935
    3   0.0027721  -0.0004726  -0.0017522  -0.0013036   0.0002979   0.0003282
            7           8           9          10          11
    1  -0.0003254  -0.0002438   0.0001498  -0.0002773   0.0003248
    2   0.0003875  -0.0003230   0.0001155   0.0000045   0.0002253
    3  -0.0000787   0.0000782  -0.0000894   0.0001682   0.0000518
 Gradient of SCF Energy
            1           2           3           4           5           6
    1  -0.0088178   0.0206915  -0.0008076   0.0249618  -0.0232004   0.0016964
    2   0.0094895   0.0235907  -0.0242715  -0.0241715  -0.0106077   0.0242365
    3  -0.0047074   0.0367674  -0.0067361  -0.0071696  -0.0028548   0.0042844
            7           8           9          10          11
    1   0.0097610  -0.0075473  -0.0179910   0.0164209  -0.0151675
    2  -0.0083892   0.0266272  -0.0183669  -0.0041593   0.0060222
    3  -0.0026896   0.0094450  -0.0304353  -0.0196667   0.0237627
 Max gradient component =       3.677E-02
 RMS gradient           =       1.724E-02
 Computing fast CPCM-SWIG gradient
 Updating gradient with PCM contributions...
 -- total gradient after adding PCM contribution --
---------------------------------------------------
  Atom         X              Y              Z     
---------------------------------------------------
   1       0.000030      -0.000019       0.000003
   2       0.000011       0.000028      -0.000015
   3       0.000005       0.000044       0.000018
   4       0.000127       0.000048      -0.000022
   5      -0.000109      -0.000103       0.000036
   6      -0.000019      -0.000003       0.000049
   7      -0.000004       0.000009      -0.000022
   8      -0.000017       0.000002       0.000029
   9       0.000014      -0.000012      -0.000017
  10      -0.000025      -0.000007      -0.000053
  11      -0.000012       0.000013      -0.000006
---------------------------------------------------
 Number of fixed atoms: 0
 Gradient time:  CPU 91.29 s  wall 7.67 s
 Geometry Optimization Parameters
   NAtoms,    NIC,     NZ,  NCons,   NDum,   NFix, NCnnct, MaxDiis
       11      68       0       0       0       0       0       0

 Cartesian Hessian Update
 Hessian updated using Powell/Murtagh-Sargent update
  Mixing factors:     0.973467 Powell                      0.026533 Murtagh-Sargent


** GEOMETRY OPTIMIZATION IN DELOCALIZED INTERNAL COORDINATES **
   Searching for a Transition State

   Optimization Cycle: 117

                       Coordinates (Angstroms)
     ATOM                X               Y               Z
      1  O        -0.5898693698    1.4364167686   -0.2011324283
      2  C        -0.0505459724    0.4558973035    0.6364534286
      3  O        -0.9992020981   -0.4709441896    1.0550590018
      4  C         1.1382211719   -0.2198854210   -0.0797845773
      5  O         2.1150602176    0.5155082449   -0.3422678855
      6  O         1.0091565412   -1.4439638257   -0.3063138284
      7  H        -1.2923185257    1.8935755434    0.2782478755
      8  H        -0.6832252495   -1.3229325128    0.7021992984
      9  H         0.3900654810    0.9778650496    1.5657085859
     10  O         1.5169367837    1.7843143470    2.2297602170
     11  H         2.0821964203    1.6320557921    1.4474164122
   Point Group: c1    Number of degrees of freedom:    27


   Energy is   -454.870420332

 Hessian updated using Powell/Murtagh-Sargent update
  Mixing factors:     0.990099 Powell                      0.009901 Murtagh-Sargent

 27 Hessian modes will be used to form the next step
  Hessian Eigenvalues:
    -0.145273    0.000708    0.002679    0.007320    0.013368    0.017797
     0.018067    0.050634    0.053814    0.062744    0.072757    0.092991
     0.132010    0.138377    0.159030    0.188336    0.203698    0.212461
     0.249307    0.305523    0.405957    0.412670    0.428206    0.433695
     0.437243    0.510622    0.813832

 Transition state search - taking P-RFO step
 Searching for Lamda that Maximizes Along the Lowest mode
 Value Taken    Lamda =   0.00000001
 Searching for Lamda that Minimizes Along All other modes
 Value Taken    Lamda =  -0.00000014
 Step Taken.  Stepsize is  0.005939

                             Maximum     Tolerance    Cnvgd?
         Gradient           0.000083      0.000300     YES
         Displacement       0.003398      0.001200      NO
         Energy change      0.000000      0.000001     YES


                       Distance Matrix (Angstroms)
             O (  1)   C (  2)   O (  3)   C (  4)   O (  5)   O (  6)
   C (  2)  1.397798
   O (  3)  2.320258  1.390760
   C (  4)  2.396739  1.543647  2.432998
   O (  5)  2.860880  2.377246  3.553061  1.250566
   O (  6)  3.296140  2.370918  2.614117  1.251536  2.250299
   H (  7)  0.965523  1.933191  2.506054  3.240745  3.727511  4.096055
   H (  8)  2.904950  1.889138  0.974800  2.268453  3.507303  1.973804
   H (  9)  2.071779  1.153301  2.071201  2.168407  2.613380  3.122979
   O ( 10)  3.235569  2.600062  3.577299  3.081272  2.929667  4.136580
   H ( 11)  3.145779  2.567022  3.751209  2.579364  2.109675  3.699849
             H (  7)   H (  8)   H (  9)   O ( 10)
   H (  8)  3.301008
   H (  9)  2.307920  2.681654
   O ( 10)  3.422317  4.102333  1.536608
   H ( 11)  3.580880  4.115199  1.818039  0.977120
 
 Final energy is   -454.870420331888     


 ******************************
 **  OPTIMIZATION CONVERGED  **
 ******************************

                       Coordinates (Angstroms)
     ATOM                X               Y               Z
      1  O        -0.5898693698    1.4364167686   -0.2011324283
      2  C        -0.0505459724    0.4558973035    0.6364534286
      3  O        -0.9992020981   -0.4709441896    1.0550590018
      4  C         1.1382211719   -0.2198854210   -0.0797845773
      5  O         2.1150602176    0.5155082449   -0.3422678855
      6  O         1.0091565412   -1.4439638257   -0.3063138284
      7  H        -1.2923185257    1.8935755434    0.2782478755
      8  H        -0.6832252495   -1.3229325128    0.7021992984
      9  H         0.3900654810    0.9778650496    1.5657085859
     10  O         1.5169367837    1.7843143470    2.2297602170
     11  H         2.0821964203    1.6320557921    1.4474164122

Z-matrix Print:
$molecule
-1 2
C 
O  1 1.250566
O  1 1.251536 2 128.149075
C  1 1.543647 2 116.199037 3 178.789084 0
H  4 1.153301 1 106.127458 2 -53.054573 0
O  4 1.390760 1 111.913310 2 -171.415555 0
H  6 0.974800 4 104.620173 1 -4.913923 0
O  4 1.397798 1 109.038108 2 63.315604 0
H  8 0.965523 4 108.381052 1 -176.167626 0
O  5 1.536608 4 149.985802 1 38.702617 0
H  10 0.977120 5 89.796581 4 -10.671000 0
$end

 
 --------------------------------------------------------------
 
                    Orbital Energies (a.u.)
 --------------------------------------------------------------
 
 Alpha MOs
 -- Occupied --
-19.3680 -19.3544 -19.3483 -19.3011 -19.2973 -10.4562 -10.4514  -1.2185
 -1.1754  -1.1461  -1.1195  -1.0935  -0.8194  -0.6924  -0.6520  -0.6239
 -0.5956  -0.5703  -0.5420  -0.5258  -0.5208  -0.4992  -0.4894  -0.4434
 -0.4229  -0.3960  -0.3830  -0.3728  -0.3581
 -- Virtual --
  0.0325   0.0556   0.0574   0.0699   0.0895   0.1033   0.1094   0.1106
  0.1271   0.1295   0.1492   0.1619   0.1767   0.2331   0.2350   0.2373
  0.2411   0.2476   0.2640   0.2682   0.2786   0.2950   0.3116   0.3150
  0.3197   0.3293   0.3336   0.3368   0.3472   0.3501   0.3555   0.3680
  0.3702   0.3886   0.3930   0.4098   0.4165   0.4237   0.4410   0.4741
  0.5542   0.5734   0.5791   0.6015   0.6121   0.6264   0.6557   0.6875
  0.6904   0.7039   0.7264   0.7689   0.7870   0.8229   0.8391   0.8577
  0.8871   0.8910   0.9646   0.9748   1.0078   1.0427   1.0587   1.0786
  1.1083   1.1135   1.1209   1.1281   1.1440   1.1532   1.1677   1.1768
  1.1906   1.2096   1.2149   1.2469   1.2561   1.2792   1.2857   1.3202
  1.3674   1.3895   1.3968   1.4283   1.4620   1.4793   1.5123   1.5243
  1.5692   1.5905   1.6035   1.6442   1.6562   1.7105   1.7184   1.7495
  1.8012   1.8169   1.8390   1.8685   1.8992   1.9247   1.9468   2.0159
  2.0367   2.1029   2.1301   2.1488   2.2138   2.2651   2.2946   2.3478
  2.3658   2.3989   2.4436   2.4657   2.5010   2.5196   2.5810   2.6096
  2.7690   2.7916   2.8101   2.8520   2.8628   2.9327   2.9575   3.0061
  3.1300   3.1823   3.2152   3.2614   3.3410   3.3580   3.3909   3.4048
  3.4416   3.4939   3.5381   3.5787   3.6203   3.6287   3.6476   3.7173
  3.7376   3.7575   3.7855   3.8122   3.8477   3.8627   3.9245   3.9382
  3.9744   4.0224   4.0879   4.1362   4.1813   4.2129   4.2517   4.2718
  4.2958   4.3203   4.3579   4.4047   4.4651   4.7571   5.0752   5.0920
  5.1107   5.1623   5.1719   5.1797   5.1822   5.1990   5.2093   5.2176
  5.2264   5.2383   5.2413   5.2605   5.2847   5.2927   5.3015   5.3150
  5.3348   5.3639   5.3711   5.3888   5.4075   5.4328   5.4736   5.5287
  5.5515   5.5674   5.6021   5.6197   5.6266   5.6340   5.6706   5.6817
  5.7347   5.8090   5.8609   5.9969   6.0252   6.0694   6.2065   6.3223
  6.4706   6.4843   6.7409   6.8706   6.9111   6.9350   6.9791   7.0037
  7.0261   7.0547   7.0794   7.1018   7.1293   7.1486   7.1782   7.2506
  7.2590   7.2990   7.3345   7.3392   7.3495   7.3784   7.4424   7.4829
  7.5112   7.5531   7.6163   7.6509   7.7124   7.7649   7.8163   7.8238
  7.8617   7.9253  24.7613  25.2011  50.4706  50.5760  50.6173  50.7091
 50.7275
 
 Beta MOs
 -- Occupied --
-19.3534 -19.3477 -19.3471 -19.3009 -19.2972 -10.4520 -10.4513  -1.2158
 -1.1746  -1.1435  -1.0946  -1.0665  -0.8118  -0.6858  -0.6468  -0.6111
 -0.5896  -0.5513  -0.5395  -0.5214  -0.5173  -0.4912  -0.4264  -0.4158
 -0.4118  -0.3819  -0.3740  -0.3667
 -- Virtual --
 -0.0674   0.0335   0.0558   0.0583   0.0707   0.0903   0.1039   0.1098
  0.1121   0.1279   0.1300   0.1501   0.1630   0.1780   0.2350   0.2370
  0.2408   0.2421   0.2493   0.2659   0.2732   0.2794   0.2959   0.3122
  0.3159   0.3220   0.3299   0.3340   0.3377   0.3488   0.3523   0.3572
  0.3711   0.3733   0.3894   0.4001   0.4161   0.4204   0.4257   0.4435
  0.4758   0.5550   0.5775   0.5862   0.6039   0.6139   0.6294   0.6604
  0.6903   0.6923   0.7071   0.7269   0.7699   0.7880   0.8237   0.8415
  0.8591   0.8880   0.8919   0.9655   0.9783   1.0122   1.0442   1.0606
  1.0848   1.1110   1.1150   1.1229   1.1297   1.1470   1.1547   1.1721
  1.1887   1.2104   1.2119   1.2242   1.2508   1.2588   1.2820   1.2873
  1.3210   1.3736   1.3925   1.3987   1.4340   1.4650   1.4839   1.5153
  1.5261   1.5839   1.5952   1.6169   1.6491   1.6629   1.7171   1.7220
  1.7527   1.8113   1.8255   1.8482   1.8717   1.9072   1.9280   1.9516
  2.0179   2.0415   2.1049   2.1341   2.1638   2.2225   2.2674   2.3004
  2.3544   2.3715   2.4023   2.4515   2.4672   2.5032   2.5202   2.5819
  2.6125   2.7748   2.7997   2.8149   2.8494   2.8658   2.9344   2.9662
  3.0068   3.1340   3.1842   3.2168   3.2639   3.3469   3.3612   3.3946
  3.4074   3.4437   3.4978   3.5426   3.5858   3.6217   3.6322   3.6525
  3.7231   3.7414   3.7649   3.7896   3.8165   3.8517   3.8657   3.9328
  3.9427   3.9797   4.0308   4.0912   4.1387   4.1809   4.2156   4.2564
  4.2728   4.2975   4.3255   4.3590   4.3948   4.4532   4.7603   5.0885
  5.1385   5.1482   5.1712   5.1809   5.1901   5.2020   5.2144   5.2270
  5.2349   5.2414   5.2478   5.2629   5.2727   5.2964   5.3024   5.3081
  5.3397   5.3578   5.3778   5.3932   5.3974   5.4230   5.4355   5.4763
  5.5302   5.5531   5.5692   5.6039   5.6220   5.6402   5.6451   5.6799
  5.7160   5.7358   5.8119   5.8619   5.9999   6.0269   6.0710   6.2084
  6.3231   6.4722   6.4882   6.7443   6.8881   6.9409   6.9854   6.9930
  7.0253   7.0515   7.0600   7.0858   7.1277   7.1415   7.1711   7.2298
  7.2549   7.2630   7.3096   7.3374   7.3510   7.3674   7.3955   7.4551
  7.4868   7.5157   7.6042   7.6211   7.6602   7.7166   7.7667   7.8202
  7.8268   7.8625   7.9281  24.7647  25.2013  50.4846  50.5770  50.6183
 50.7093  50.7277
 --------------------------------------------------------------
 
          Ground-State Mulliken Net Atomic Charges

     Atom                 Charge (a.u.)    Spin (a.u.)
  --------------------------------------------------------
      1 O                    -0.383000       0.031277
      2 C                    -0.166410       0.193136
      3 O                    -0.417549       0.031542
      4 C                     0.446876      -0.006079
      5 O                    -0.629919       0.004148
      6 O                    -0.639937       0.007121
      7 H                     0.349937      -0.000503
      8 H                     0.313659       0.004846
      9 H                     0.277648      -0.015081
     10 O                    -0.463115       0.760457
     11 H                     0.311810      -0.010864
  --------------------------------------------------------
  Sum of atomic charges =    -1.000000
  Sum of spin   charges =     1.000000

 -----------------------------------------------------------------
                    Cartesian Multipole Moments
 -----------------------------------------------------------------
    Charge (ESU x 10^10)
                -4.8032
    Dipole Moment (Debye)
         X      -7.4677      Y       0.4572      Z      -0.0993
       Tot       7.4824
    Quadrupole Moments (Debye-Ang)
        XX     -56.9114     XY      -2.7662     YY     -50.8909
        XZ       1.1053     YZ      -4.0545     ZZ     -54.6399
    Octopole Moments (Debye-Ang^2)
       XXX    -103.9910    XXY      -6.8987    XYY     -47.1360
       YYY     -40.2429    XXZ     -15.1143    XYZ      -9.5591
       YYZ     -22.5255    XZZ     -36.9547    YZZ     -28.3443
       ZZZ     -86.1200
    Hexadecapole Moments (Debye-Ang^3)
      XXXX    -498.2559   XXXY     -40.3138   XXYY    -129.4403
      XYYY     -44.4535   YYYY    -388.3096   XXXZ      -4.3331
      XXYZ     -23.4077   XYYZ     -22.7045   YYYZ    -100.7556
      XXZZ    -146.8484   XYZZ     -34.2161   YYZZ    -143.4266
      XZZZ     -59.6090   YZZZ    -114.1901   ZZZZ    -375.7223
 -----------------------------------------------------------------
 Total job time:  7405.89s(wall), 108739.57s(cpu) 
 Mon Jul 17 15:29:31 2023

        *************************************************************
        *                                                           *
        *  Thank you very much for using Q-Chem.  Have a nice day.  *
        *                                                           *
        *************************************************************


