
Running Job 1 of 1 Q_in.in
qchem Q_in.in_220213.0 /scratch/ari.fischer/qChem1787767.hpc-mn1/qchem220213/ 0
/usr/local/qchem-5.4.1/exe/qcprog.exe_s Q_in.in_220213.0 /scratch/ari.fischer/qChem1787767.hpc-mn1/qchem220213/
                  Welcome to Q-Chem
     A Quantum Leap Into The Future Of Chemistry


 Q-Chem 5.4, Q-Chem, Inc., Pleasanton, CA (2021)

 License issued to: Nanyang Technological University (site)

 E. Epifanovsky,  A. T. B. Gilbert,  Xintian Feng,  Joonho Lee,  Yuezhi Mao,  
 N. Mardirossian,  P. Pokhilko,  A. White,  M. Wormit,  M. P. Coons,  
 A. L. Dempwolff,  Zhengting Gan,  D. Hait,  P. R. Horn,  L. D. Jacobson,  
 I. Kaliman,  J. Kussmann,  A. W. Lange,  Ka Un Lao,  D. S. Levine,  Jie Liu,  
 S. C. McKenzie,  A. F. Morrison,  K. Nanda,  F. Plasser,  D. R. Rehn,  
 M. L. Vidal,  Zhi-Qiang You,  Ying Zhu,  B. Alam,  B. Albrecht,  
 A. Aldossary,  E. Alguire,  J. H. Andersen,  D. Barton,  K. Begam,  A. Behn,  
 Y. A. Bernard,  E. J. Berquist,  H. Burton,  A. Carreras,  K. Carter-Fenk,  
 R. Chakraborty,  A. D. Chien,  K. D. Closser,  V. Cofer-Shabica,  
 S. Dasgupta,  Jia Deng,  M. de Wergifosse,  M. Diedenhofen,  Hainam Do,  
 S. Ehlert,  Po-Tung Fang,  S. Fatehi,  Qingguo Feng,  T. Friedhoff,  
 J. Gayvert,  Qinghui Ge,  G. Gidofalvi,  M. Goldey,  J. Gomes,  
 C. Gonzalez-Espinoza,  S. Gulania,  A. Gunina,  M. W. D. Hanson-Heine,  
 P. H. P. Harbach,  A. W. Hauser,  M. F. Herbst,  M. Hernandez Vera,  
 M. Hodecker,  Z. C. Holden,  S. Houck,  Xunkun Huang,  Kerwin Hui,  
 B. C. Huynh,  M. Ivanov,  Hyunjun Ji,  Hanjie Jiang,  B. Kaduk,  S. Kaehler,  
 K. Khistyaev,  Jaehoon Kim,  P. Klunzinger,  Z. Koczor-Benda,  
 Joong Hoon Koh,  D. Kosenkov,  L. Koulias,  T. Kowalczyk,  C. M. Krauter,  
 K. Kue,  A. Kunitsa,  T. Kus,  A. Landau,  K. V. Lawler,  D. Lefrancois,  
 S. Lehtola,  Rain Li,  Yi-Pei Li,  Jiashu Liang,  M. Liebenthal,  
 Hung-Hsuan Lin,  You-Sheng Lin,  Fenglai Liu,  Kuan-Yu Liu,  
 M. Loipersberger,  A. Luenser,  A. Manjanath,  P. Manohar,  E. Mansoor,  
 S. F. Manzer,  Shan-Ping Mao,  A. V. Marenich,  T. Markovich,  S. Mason,  
 S. A. Maurer,  P. F. McLaughlin,  M. F. S. J. Menger,  J.-M. Mewes,  
 S. A. Mewes,  P. Morgante,  J. W. Mullinax,  K. J. Oosterbaan,  G. Paran,  
 Alexander C. Paul,  Suranjan K. Paul,  F. Pavosevic,  Zheng Pei,  S. Prager,  
 E. I. Proynov,  E. Ramos,  B. Rana,  A. E. Rask,  A. Rettig,  R. M. Richard,  
 F. Rob,  E. Rossomme,  T. Scheele,  M. Scheurer,  M. Schneider,  
 N. Sergueev,  S. M. Sharada,  W. Skomorowski,  D. W. Small,  C. J. Stein,  
 Yu-Chuan Su,  E. J. Sundstrom,  Zhen Tao,  J. Thirman,  T. Tsuchimochi,  
 N. M. Tubman,  S. P. Veccham,  O. Vydrov,  J. Wenzel,  J. Witte,  A. Yamada,  
 Kun Yao,  S. Yeganeh,  S. R. Yost,  A. Zech,  Igor Ying Zhang,  Xing Zhang,  
 Yu Zhang,  D. Zuev,  A. Aspuru-Guzik,  A. T. Bell,  N. A. Besley,  
 K. B. Bravaya,  B. R. Brooks,  D. Casanova,  Jeng-Da Chai,  S. Coriani,  
 C. J. Cramer,  A. E. DePrince, III,  R. A. DiStasio Jr.,  A. Dreuw,  
 B. D. Dunietz,  T. R. Furlani,  W. A. Goddard III,  S. Grimme,  
 S. Hammes-Schiffer,  T. Head-Gordon,  W. J. Hehre,  Chao-Ping Hsu,  
 T.-C. Jagau,  Yousung Jung,  A. Klamt,  Jing Kong,  D. S. Lambrecht,  
 WanZhen Liang,  N. J. Mayhall,  C. W. McCurdy,  J. B. Neaton,  
 C. Ochsenfeld,  J. A. Parkhill,  R. Peverati,  V. A. Rassolov,  Yihan Shao,  
 L. V. Slipchenko,  T. Stauch,  R. P. Steele,  J. E. Subotnik,  
 A. J. W. Thom,  A. Tkatchenko,  D. G. Truhlar,  T. Van Voorhis,  
 T. A. Wesolowski,  K. B. Whaley,  H. L. Woodcock III,  P. M. Zimmerman,  
 S. Faraji,  P. M. W. Gill,  M. Head-Gordon,  J. M. Herbert,  A. I. Krylov

 Additional authors for Version 5.4.1: 
 S. Kotaru,  Shaozhi Li,  Xiangyuan Li,  F. Matz,  A. Molle,  Haisheng Ren,  
 Yingli Su,  Hung-Yi Tsai,  C. Utku,  Fang Wang

 Contributors to earlier versions of Q-Chem not listed above: 
 R. D. Adamson,  B. Austin,  R. Baer,  J. Baker,  G. J. O. Beran,  
 K. Brandhorst,  S. T. Brown,  E. F. C. Byrd,  A. K. Chakraborty,  
 G. K. L. Chan,  Chun-Min Chang,  Yunqing Chen,  C.-L. Cheng,  
 Siu Hung Chien,  D. M. Chipman,  D. L. Crittenden,  H. Dachsel,  
 R. J. Doerksen,  A. D. Dutoi,  R. G. Edgar,  J. Fosso-Tande,  
 L. Fusti-Molnar,  D. Ghosh,  A. Ghysels,  A. Golubeva-Zadorozhnaya,  
 J. Gonthier,  M. S. Gordon,  S. R. Gwaltney,  G. Hawkins,  J. E. Herr,  
 A. Heyden,  S. Hirata,  E. G. Hohenstein,  G. Kedziora,  F. J. Keil,  
 C. Kelley,  Jihan Kim,  R. A. King,  R. Z. Khaliullin,  P. P. Korambath,  
 W. Kurlancheek,  A. Laurent,  A. M. Lee,  M. S. Lee,  S. V. Levchenko,  
 Ching Yeh Lin,  D. Liotard,  E. Livshits,  R. C. Lochan,  I. Lotan,  
 L. A. Martinez-Martinez,  P. E. Maslen,  N. Nair,  D. P. O'Neill,  
 D. Neuhauser,  E. Neuscamman,  C. M. Oana,  R. Olivares-Amaya,  R. Olson,  
 T. M. Perrine,  B. Peters,  P. A. Pieniazek,  A. Prociuk,  Y. M. Rhee,  
 J. Ritchie,  M. A. Rohrdanz,  E. Rosta,  N. J. Russ,  H. F. Schaefer III,  
 M. W. Schmidt,  N. E. Schultz,  S. Sharma,  N. Shenvi,  C. D. Sherrill,  
 A. C. Simmonett,  A. Sodt,  T. Stein,  D. Stuck,  K. S. Thanthiriwatte,  
 V. Vanovschi,  L. Vogt,  Tao Wang,  A. Warshel,  M. A. Watson,  
 C. F. Williams,  Q. Wu,  X. Xu,  Jun Yang,  W. Zhang,  Yan Zhao

 Please cite Q-Chem as follows:
 Y. Shao et al., Mol. Phys. 113, 184-215 (2015)
 DOI: 10.1080/00268976.2014.952696

 Q-Chem 5.4.1 for Intel X86 EM64T Linux

 Parts of Q-Chem use Armadillo 9.800.1 (Horizon Scraper).
 http://arma.sourceforge.net/

 Q-Chem begins on Fri Sep 29 11:17:13 2023  

 Host: 
0

     Scratch files written to /scratch/ari.fischer/qChem1787767.hpc-mn1/qchem220213//
 Aug1521 |scratch|qcdevops|jenkins|workspace|build_RNUM 8249   
 Processing $rem in /usr/local/qchem-5.4.1/config/preferences:
 Processing $rem in /home/ari.fischer/.qchemrc:
 Symmetry turned off for PCM/SM12/SMD calculation


!!********************************************.
!!******************Warning*******************.
!!Desired Analytical derivatives not available.
!!Finite difference job might take a long time.
!!********************************************.
!!********************************************.


 2-order derivative to be evaluated numerically with 1-order analytical derivatives

 Checking the input file for inconsistencies... 	...done.

--------------------------------------------------------------
User input:
--------------------------------------------------------------
$molecule
-1 1
C        -0.9037440051    1.7901608924   -0.1570074679
O        -0.7708866412    1.6705390708    1.0804676203
O        -0.9102248658    3.0865070037   -0.6633885253
H        -0.8042113805    3.6847683268    0.0862451204
O        -1.0325666075    0.8993703064   -1.0196253475
$end

$rem
BASIS = 6-311++G(2df,2p)
GUI = 2
JOB_TYPE = Frequency
METHOD = wB97M-V
SOLVENT_METHOD = SMD
SCF_ALGORITHM = DIIS_GDM
MAX_SCF_CYCLES = 400
SCF_CONVERGENCE = 7
THRESH = 12
$end
--------------------------------------------------------------
 ----------------------------------------------------------------
             Standard Nuclear Orientation (Angstroms)
    I     Atom           X                Y                Z
 ----------------------------------------------------------------
    1      C      -0.9037440051     1.7901608924    -0.1570074679
    2      O      -0.7708866412     1.6705390708     1.0804676203
    3      O      -0.9102248658     3.0865070037    -0.6633885253
    4      H      -0.8042113805     3.6847683268     0.0862451204
    5      O      -1.0325666075     0.8993703064    -1.0196253475
 ----------------------------------------------------------------
 Nuclear Repulsion Energy =         113.62426040 hartrees
 There are       16 alpha and       16 beta electrons
 Requested basis set is 6-311++G(2df,2p)
 There are 38 shells and 146 basis functions

 Total QAlloc Memory Limit 288000 MB
 Mega-Array Size       188 MB
 MEM_STATIC part       192 MB
 
 Citation of the SMD model:
 Marenich, A.V.; Cramer, C.J.; Truhlar, D.G.
 J. Phys. Chem. B 2009, 113, 6378-6396.
 iSolventCode=           1
 Solvent: water                                                           
 
 vradii
            1           2           3           4           5
    1   1.8500000   1.5200000   1.5200000   1.2000000   1.5200000
 Changing PCM_VDW_RADII to SMD_RADIUS
 Discretize the solute cavity surface with Lebedev spheres
	Using 110 Lebedev grid points for each H atom
	Using 194 Lebedev grid points for other atoms
	Atomic van der Waals radii will be scaled by 1.20
 Remove points where switching function is < 1.0e-08
 Keep 545 surface tesserae and discard 341 interior tesserae
 Molecular Surface Area = 68.875 Angst**2

                       Distance Matrix (Angstroms)
             C (  1)   O (  2)   O (  3)   H (  4)
   O (  2)  1.250322
   O (  3)  1.391753  2.250648
   H (  4)  1.912751  2.246488  0.964938
   O (  5)  1.246681  2.252458  2.219333  3.005584
 
 A cutoff of  1.0D-12 yielded    731 shell pairs
 There are     10962 function pairs (     14228 Cartesian)
 Smallest overlap matrix eigenvalue = 7.86E-04
 Guess from superposition of atomic densities
 Warning:  Energy on first SCF cycle will be non-variational
 SAD guess density has 31.000000 electrons

 -----------------------------------------------------------------------
  General SCF calculation program by
  Eric Jon Sundstrom, Paul Horn, Yuezhi Mao, Dmitri Zuev, Alec White,
  David Stuck, Shaama M.S., Shane Yost, Joonho Lee, David Small,
  Daniel Levine, Susi Lehtola, Hugh Burton, Evgeny Epifanovsky,
  Bang C. Huynh
 -----------------------------------------------------------------------
 Exchange:     0.1500 Hartree-Fock + 1.0000 wB97M-V + LR-HF
 Correlation:  1.0000 wB97M-V
 Using SG-2 standard quadrature grid
 Nonlocal Correlation:  VV10 with C = 0.0100 and b = 6.00 and scale = 1.00000
 Grid used for NLC:  SG-1 standard quadrature
 using 8 threads for integral computing
 -------------------------------------------------------
 OpenMP Integral computing Module                
 Release: version 1.0, May 2013, Q-Chem Inc. Pittsburgh 
 -------------------------------------------------------
 
 Citation of the SMD model:
 Marenich, A.V.; Cramer, C.J.; Truhlar, D.G.
 J. Phys. Chem. B 2009, 113, 6378-6396.
 iSolventCode=           1
 Solvent: water                                                           
 
 vradii
            1           2           3           4           5
    1   1.8500000   1.5200000   1.5200000   1.2000000   1.5200000
 -------------------------------------------------------
 OpenMP BLAS3 based DFT computing Module                
 Release: version 1.0, May 2013, Q-Chem Inc. Pittsburgh 
 -------------------------------------------------------
 A restricted SCF calculation will be
 performed using DIIS, GDM
 SCF converges when RMS gradient is below 1.0e-07
 ---------------------------------------
  Cycle       Energy         DIIS error
 ---------------------------------------
    1    -264.8961091029      4.20e-02  
    2    -264.4246468566      9.52e-03  Done DIIS. Switching to GDM
 ---------------------------------------
  Cycle       Energy        RMS Gradient
 ---------------------------------------
    1    -264.4246468566      1.78e-01   Descent step
    2    -264.5972252590      3.33e-02   Normal BFGS step
    3    -264.6060302154      1.13e-02   Normal BFGS step
    4    -264.6064373703      6.05e-03   Normal BFGS step
    5    -264.6068418043      5.02e-04   Normal BFGS step
    6    -264.6068466864      3.34e-04   Normal BFGS step
    7    -264.6068481684      7.84e-05   Normal BFGS step
    8    -264.6068482137      2.55e-05   Normal BFGS step
    9    -264.6068482168      8.57e-06   Normal BFGS step
   10    -264.6068482170      7.62e-06   Normal BFGS step
   11    -264.6068482172      5.91e-07   Normal BFGS step
   12    -264.6068482172      1.62e-07   Normal BFGS step
   13    -264.6068482172      2.12e-08  Convergence criterion met
 ---------------------------------------
 SCF time:   CPU 83.57s  wall 11.00s 
(3)  G-ENP(liq) elect-nuc-pol free energy of system     -264.606848217 a.u.
(4)  G-CDS(liq) cavity-dispersion-solvent structure 
     free energy                                                4.1290 kcal/mol
(6)  G-S(liq) free energy of system                     -264.600268185 a.u.
 SCF   energy in the final basis set =     -264.6002681854
 Total energy in the final basis set =     -264.6002681854
 
 --------------------------------------------------------------
 
                    Orbital Energies (a.u.)
 --------------------------------------------------------------
 
 Alpha MOs
 -- Occupied --
-19.3479 -19.2868 -19.2858 -10.4833  -1.2204  -1.1176  -1.0910  -0.6964
 -0.5910  -0.5638  -0.5584  -0.5026  -0.4188  -0.3985  -0.3775  -0.3589
 -- Virtual --
  0.0396   0.0770   0.0875   0.0889   0.1221   0.1630   0.2070   0.2181
  0.2348   0.2457   0.2498   0.2717   0.2952   0.3144   0.3157   0.3305
  0.3392   0.3647   0.3881   0.4121   0.5448   0.5803   0.6430   0.6678
  0.7590   0.7652   0.7715   0.8369   0.8482   0.9025   1.0172   1.0647
  1.0789   1.1007   1.1280   1.1401   1.1466   1.1920   1.2192   1.2296
  1.2349   1.4343   1.4788   1.5607   1.6237   1.6335   1.6350   1.6683
  1.7374   1.7666   1.8413   1.9183   1.9654   1.9717   2.2086   2.2847
  2.2991   2.3436   2.4965   2.5188   2.6732   2.7706   2.8624   2.8941
  3.0836   3.1524   3.2282   3.2445   3.3889   3.4586   3.4915   3.5525
  3.6128   3.6203   3.6915   3.7369   3.7820   3.9838   4.1027   4.1507
  4.3091   5.1093   5.1397   5.1714   5.1798   5.1923   5.2056   5.2083
  5.2179   5.2522   5.2532   5.2889   5.3150   5.3907   5.4640   5.4823
  5.4926   5.5669   5.6484   5.6607   5.6880   5.9189   5.9928   6.1945
  6.3225   6.4870   6.4933   6.9205   6.9384   6.9730   6.9806   7.0375
  7.0487   7.1497   7.2286   7.2691   7.3106   7.3371   7.4278   7.4569
  7.6770   7.7477   7.7767   7.7860   7.8402   7.8799  25.2598  50.5520
 50.6877  50.7069
 --------------------------------------------------------------
 
          Ground-State Mulliken Net Atomic Charges

     Atom                 Charge (a.u.)
  ----------------------------------------
      1 C                     0.531761
      2 O                    -0.706631
      3 O                    -0.468433
      4 H                     0.340684
      5 O                    -0.697381
  ----------------------------------------
  Sum of atomic charges =    -1.000000

 -----------------------------------------------------------------
                    Cartesian Multipole Moments
 -----------------------------------------------------------------
    Charge (ESU x 10^10)
                -4.8032
    Dipole Moment (Debye)
         X       4.5617      Y      -4.6994      Z       1.4308
       Tot       6.7038
    Quadrupole Moments (Debye-Ang)
        XX     -28.6595     XY       4.7063     YY     -27.1389
        XZ      -2.4296     YZ       3.0213     ZZ     -34.8633
    Octopole Moments (Debye-Ang^2)
       XXX      70.0176    XXY     -50.3039    XYY      26.7385
       YYY    -121.9232    XXZ       7.6799    XYZ      -4.2434
       YYZ      18.2135    XZZ      31.4574    YZZ     -62.5360
       ZZZ      14.0814
    Hexadecapole Moments (Debye-Ang^3)
      XXXX    -147.7826   XXXY     126.1448   XXYY    -137.8208
      XYYY     118.3889   YYYY    -519.6578   XXXZ     -21.8788
      XXYZ      13.4919   XYYZ     -20.4704   YYYZ      82.0402
      XXZZ     -55.2424   XYZZ      55.3615   YYZZ    -161.8393
      XZZZ     -19.5582   YZZZ      24.2677   ZZZZ    -143.1272
 -----------------------------------------------------------------
 Calculating analytic gradient of the SCF energy
 Gradient of CDS energy
            1           2           3           4           5
    1  -0.0000258  -0.0002075   0.0000158   0.0000240   0.0001935
    2   0.0026780   0.0003929  -0.0052578   0.0004982   0.0016887
    3  -0.0011724  -0.0020036   0.0019572   0.0000438   0.0011750
 Gradient of SCF Energy
            1           2           3           4           5
    1   0.0004716  -0.0034898   0.0016912  -0.0024600   0.0037869
    2  -0.0217442   0.0014539   0.0028572  -0.0123738   0.0298069
    3   0.0127539  -0.0324217   0.0138488  -0.0179291   0.0237482
 Max gradient component =       3.242E-02
 RMS gradient           =       1.602E-02
 Computing fast CPCM-SWIG gradient
 Updating gradient with PCM contributions...
 -- total gradient after adding PCM contribution --
---------------------------------------------------
  Atom         X              Y              Z     
---------------------------------------------------
   1      -0.000006      -0.000015      -0.000009
   2       0.000041      -0.000008      -0.000017
   3       0.000001       0.000003       0.000030
   4       0.000060      -0.000007      -0.000003
   5      -0.000096       0.000027      -0.000001
---------------------------------------------------
 Number of fixed atoms: 0
 Gradient time:  CPU 16.69 s  wall 2.43 s
 ######################################################
 ######################################################
 # Starting finite difference calculation for IDERIV  #
 Finite diff step size:  1.88973e-03 a.u.
 ----------------------------------------------------------------
             Standard Nuclear Orientation (Angstroms)
    I     Atom           X                Y                Z
 ----------------------------------------------------------------
    1      C      -0.9027440051     1.7901608924    -0.1570074679
    2      O      -0.7708866412     1.6705390708     1.0804676203
    3      O      -0.9102248658     3.0865070037    -0.6633885253
    4      H      -0.8042113805     3.6847683268     0.0862451204
    5      O      -1.0325666075     0.8993703064    -1.0196253475
 ----------------------------------------------------------------
 Nuclear Repulsion Energy =         113.62426466 hartrees
 There are       16 alpha and       16 beta electrons
 Discretize the solute cavity surface with Lebedev spheres
	Using 110 Lebedev grid points for each H atom
	Using 194 Lebedev grid points for other atoms
	Atomic van der Waals radii will be scaled by 1.20
 Remove points where switching function is < 1.0e-08
 Keep 544 surface tesserae and discard 342 interior tesserae
 Molecular Surface Area = 68.874 Angst**2

                       Distance Matrix (Angstroms)
             C (  1)   O (  2)   O (  3)   H (  4)
   O (  2)  1.250216
   O (  3)  1.391758  2.250648
   H (  4)  1.912699  2.246488  0.964938
   O (  5)  1.246784  2.252458  2.219333  3.005584
 
 Requested basis set is 6-311++G(2df,2p)
 There are 38 shells and 146 basis functions
 A cutoff of  1.0D-12 yielded    731 shell pairs
 There are     10962 function pairs (     14228 Cartesian)
 Smallest overlap matrix eigenvalue = 7.86E-04
 Guess MOs from SCF MO coefficient file

 -----------------------------------------------------------------------
  General SCF calculation program by
  Eric Jon Sundstrom, Paul Horn, Yuezhi Mao, Dmitri Zuev, Alec White,
  David Stuck, Shaama M.S., Shane Yost, Joonho Lee, David Small,
  Daniel Levine, Susi Lehtola, Hugh Burton, Evgeny Epifanovsky,
  Bang C. Huynh
 -----------------------------------------------------------------------
 Exchange:     0.1500 Hartree-Fock + 1.0000 wB97M-V + LR-HF
 Correlation:  1.0000 wB97M-V
 Using SG-2 standard quadrature grid
 Nonlocal Correlation:  VV10 with C = 0.0100 and b = 6.00 and scale = 1.00000
 Grid used for NLC:  SG-1 standard quadrature
 
 Citation of the SMD model:
 Marenich, A.V.; Cramer, C.J.; Truhlar, D.G.
 J. Phys. Chem. B 2009, 113, 6378-6396.
 iSolventCode=           1
 Solvent: water                                                           
 
 vradii
            1           2           3           4           5
    1   1.8500000   1.5200000   1.5200000   1.2000000   1.5200000
 -------------------------------------------------------
 OpenMP BLAS3 based DFT computing Module                
 Release: version 1.0, May 2013, Q-Chem Inc. Pittsburgh 
 -------------------------------------------------------
 A restricted SCF calculation will be
 performed using Roothaan-Hall, DIIS, GDM
 SCF converges when RMS gradient is below 1.0e-07
 ---------------------------------------
  Cycle       Energy         DIIS error
 ---------------------------------------
    1    -264.4795190070      1.01e-03  Roothaan Step
 ---------------------------------------
  Cycle       Energy         DIIS error
 ---------------------------------------
    1    -264.6008206250      1.17e-03  
    2    -264.6047801370      1.08e-03  Done DIIS. Switching to GDM
 ---------------------------------------
  Cycle       Energy        RMS Gradient
 ---------------------------------------
    1    -264.6047801370      1.72e-02   Normal BFGS step
    2    -264.6045055751      1.74e-02  Line search: overstep
    3    -264.6067030970      3.33e-03   Normal BFGS step
    4    -264.6068253454      1.06e-03   Normal BFGS step
    5    -264.6068432077      7.94e-04   Normal BFGS step
    6    -264.6068471579      2.70e-04   Normal BFGS step
    7    -264.6068476057      1.02e-04   Normal BFGS step
    8    -264.6068477057      3.83e-05   Normal BFGS step
    9    -264.6068477131      2.52e-05   Normal BFGS step
   10    -264.6068477178      3.33e-06   Normal BFGS step
   11    -264.6068477179      1.44e-06   Normal BFGS step
   12    -264.6068477179      3.17e-07   Normal BFGS step
   13    -264.6068477179      7.06e-08  Convergence criterion met
 ---------------------------------------
 SCF time:   CPU 90.29s  wall 11.00s 
(3)  G-ENP(liq) elect-nuc-pol free energy of system     -264.606847718 a.u.
(4)  G-CDS(liq) cavity-dispersion-solvent structure 
     free energy                                                4.1290 kcal/mol
(6)  G-S(liq) free energy of system                     -264.600267741 a.u.
 SCF   energy in the final basis set =     -264.6002677411
 Total energy in the final basis set =     -264.6002677411
 
 --------------------------------------------------------------
 
                    Orbital Energies (a.u.)
 --------------------------------------------------------------
 
 Alpha MOs
 -- Occupied --
-19.3479 -19.2869 -19.2857 -10.4833  -1.2204  -1.1176  -1.0911  -0.6964
 -0.5910  -0.5638  -0.5584  -0.5026  -0.4188  -0.3985  -0.3775  -0.3589
 -- Virtual --
  0.0396   0.0770   0.0875   0.0889   0.1221   0.1630   0.2070   0.2181
  0.2348   0.2457   0.2498   0.2717   0.2952   0.3144   0.3157   0.3305
  0.3392   0.3647   0.3881   0.4121   0.5448   0.5803   0.6430   0.6678
  0.7590   0.7652   0.7715   0.8369   0.8482   0.9026   1.0172   1.0647
  1.0789   1.1007   1.1280   1.1401   1.1466   1.1920   1.2192   1.2296
  1.2349   1.4344   1.4788   1.5607   1.6237   1.6335   1.6349   1.6683
  1.7374   1.7666   1.8414   1.9183   1.9654   1.9717   2.2086   2.2847
  2.2991   2.3436   2.4965   2.5188   2.6733   2.7706   2.8624   2.8940
  3.0836   3.1524   3.2283   3.2445   3.3889   3.4586   3.4915   3.5525
  3.6128   3.6203   3.6915   3.7369   3.7820   3.9837   4.1027   4.1507
  4.3091   5.1093   5.1397   5.1714   5.1798   5.1923   5.2056   5.2083
  5.2179   5.2522   5.2532   5.2889   5.3150   5.3907   5.4640   5.4823
  5.4926   5.5669   5.6484   5.6606   5.6880   5.9189   5.9929   6.1945
  6.3225   6.4870   6.4933   6.9205   6.9384   6.9730   6.9806   7.0375
  7.0487   7.1497   7.2287   7.2691   7.3106   7.3371   7.4278   7.4568
  7.6771   7.7477   7.7767   7.7859   7.8401   7.8799  25.2598  50.5520
 50.6877  50.7069
 --------------------------------------------------------------
 
          Ground-State Mulliken Net Atomic Charges

     Atom                 Charge (a.u.)
  ----------------------------------------
      1 C                     0.531756
      2 O                    -0.706466
      3 O                    -0.468418
      4 H                     0.340670
      5 O                    -0.697542
  ----------------------------------------
  Sum of atomic charges =    -1.000000

 -----------------------------------------------------------------
                    Cartesian Multipole Moments
 -----------------------------------------------------------------
    Charge (ESU x 10^10)
                -4.8032
    Dipole Moment (Debye)
         X       4.5642      Y      -4.6988      Z       1.4324
       Tot       6.7054
    Quadrupole Moments (Debye-Ang)
        XX     -28.6640     XY       4.7103     YY     -27.1375
        XZ      -2.4316     YZ       3.0233     ZZ     -34.8631
    Octopole Moments (Debye-Ang^2)
       XXX      70.0092    XXY     -50.3113    XYY      26.7376
       YYY    -121.9191    XXZ       7.6829    XYZ      -4.2464
       YYZ      18.2172    XZZ      31.4489    YZZ     -62.5344
       ZZZ      14.0873
    Hexadecapole Moments (Debye-Ang^3)
      XXXX    -147.7376   XXXY     126.1294   XXYY    -137.8195
      XYYY     118.3551   YYYY    -519.6462   XXXZ     -21.8813
      XXYZ      13.4968   XYYZ     -20.4727   YYYZ      82.0479
      XXZZ     -55.2273   XYZZ      55.3465   YYZZ    -161.8351
      XZZZ     -19.5622   YZZZ      24.2754   ZZZZ    -143.1264
 -----------------------------------------------------------------
 Calculating analytic gradient of the SCF energy
 Gradient of CDS energy
            1           2           3           4           5
    1  -0.0000324  -0.0002057   0.0000195   0.0000235   0.0001950
    2   0.0026762   0.0003927  -0.0052574   0.0004982   0.0016903
    3  -0.0011759  -0.0020014   0.0019570   0.0000438   0.0011765
 Gradient of SCF Energy
            1           2           3           4           5
    1   0.0007448  -0.0035891   0.0016039  -0.0024509   0.0036914
    2  -0.0216852   0.0014619   0.0028607  -0.0123809   0.0297434
    3   0.0129061  -0.0325067   0.0138394  -0.0179240   0.0236853
 Max gradient component =       3.251E-02
 RMS gradient           =       1.602E-02
 Computing fast CPCM-SWIG gradient
 Updating gradient with PCM contributions...
 -- total gradient after adding PCM contribution --
---------------------------------------------------
  Atom         X              Y              Z     
---------------------------------------------------
   1       0.000476       0.000035       0.000114
   2      -0.000134      -0.000003      -0.000084
   3      -0.000124       0.000008       0.000020
   4       0.000055      -0.000017       0.000001
   5      -0.000273      -0.000023      -0.000050
---------------------------------------------------
 Number of fixed atoms: 0
 Gradient time:  CPU 16.13 s  wall 2.27 s
 ----------------------------------------------------------------
             Standard Nuclear Orientation (Angstroms)
    I     Atom           X                Y                Z
 ----------------------------------------------------------------
    1      C      -0.9047440051     1.7901608924    -0.1570074679
    2      O      -0.7708866412     1.6705390708     1.0804676203
    3      O      -0.9102248658     3.0865070037    -0.6633885253
    4      H      -0.8042113805     3.6847683268     0.0862451204
    5      O      -1.0325666075     0.8993703064    -1.0196253475
 ----------------------------------------------------------------
 Nuclear Repulsion Energy =         113.62422103 hartrees
 There are       16 alpha and       16 beta electrons
 Discretize the solute cavity surface with Lebedev spheres
	Using 110 Lebedev grid points for each H atom
	Using 194 Lebedev grid points for other atoms
	Atomic van der Waals radii will be scaled by 1.20
 Remove points where switching function is < 1.0e-08
 Keep 545 surface tesserae and discard 341 interior tesserae
 Molecular Surface Area = 68.876 Angst**2

                       Distance Matrix (Angstroms)
             C (  1)   O (  2)   O (  3)   H (  4)
   O (  2)  1.250429
   O (  3)  1.391749  2.250648
   H (  4)  1.912803  2.246488  0.964938
   O (  5)  1.246578  2.252458  2.219333  3.005584
 
 Requested basis set is 6-311++G(2df,2p)
 There are 38 shells and 146 basis functions
 A cutoff of  1.0D-12 yielded    731 shell pairs
 There are     10962 function pairs (     14228 Cartesian)
 Smallest overlap matrix eigenvalue = 7.86E-04
 Guess MOs from SCF MO coefficient file

 -----------------------------------------------------------------------
  General SCF calculation program by
  Eric Jon Sundstrom, Paul Horn, Yuezhi Mao, Dmitri Zuev, Alec White,
  David Stuck, Shaama M.S., Shane Yost, Joonho Lee, David Small,
  Daniel Levine, Susi Lehtola, Hugh Burton, Evgeny Epifanovsky,
  Bang C. Huynh
 -----------------------------------------------------------------------
 Exchange:     0.1500 Hartree-Fock + 1.0000 wB97M-V + LR-HF
 Correlation:  1.0000 wB97M-V
 Using SG-2 standard quadrature grid
 Nonlocal Correlation:  VV10 with C = 0.0100 and b = 6.00 and scale = 1.00000
 Grid used for NLC:  SG-1 standard quadrature
 
 Citation of the SMD model:
 Marenich, A.V.; Cramer, C.J.; Truhlar, D.G.
 J. Phys. Chem. B 2009, 113, 6378-6396.
 iSolventCode=           1
 Solvent: water                                                           
 
 vradii
            1           2           3           4           5
    1   1.8500000   1.5200000   1.5200000   1.2000000   1.5200000
 -------------------------------------------------------
 OpenMP BLAS3 based DFT computing Module                
 Release: version 1.0, May 2013, Q-Chem Inc. Pittsburgh 
 -------------------------------------------------------
 A restricted SCF calculation will be
 performed using Roothaan-Hall, DIIS, GDM
 SCF converges when RMS gradient is below 1.0e-07
 ---------------------------------------
  Cycle       Energy         DIIS error
 ---------------------------------------
    1    -264.4795178643      1.01e-03  Roothaan Step
 ---------------------------------------
  Cycle       Energy         DIIS error
 ---------------------------------------
    1    -264.6008250613      1.17e-03  
    2    -264.6047853887      1.08e-03  Done DIIS. Switching to GDM
 ---------------------------------------
  Cycle       Energy        RMS Gradient
 ---------------------------------------
    1    -264.6047853887      1.72e-02   Normal BFGS step
    2    -264.6045144432      1.74e-02  Line search: overstep
    3    -264.6067034104      3.34e-03   Normal BFGS step
    4    -264.6068254864      1.06e-03   Normal BFGS step
    5    -264.6068433068      7.85e-04   Normal BFGS step
    6    -264.6068472346      2.69e-04   Normal BFGS step
    7    -264.6068476804      1.02e-04   Normal BFGS step
    8    -264.6068477798      3.82e-05   Normal BFGS step
    9    -264.6068477872      2.52e-05   Normal BFGS step
   10    -264.6068477918      3.28e-06   Normal BFGS step
   11    -264.6068477919      1.42e-06   Normal BFGS step
   12    -264.6068477919      3.16e-07   Normal BFGS step
   13    -264.6068477919      7.03e-08  Convergence criterion met
 ---------------------------------------
 SCF time:   CPU 90.70s  wall 12.00s 
(3)  G-ENP(liq) elect-nuc-pol free energy of system     -264.606847792 a.u.
(4)  G-CDS(liq) cavity-dispersion-solvent structure 
     free energy                                                4.1291 kcal/mol
(6)  G-S(liq) free energy of system                     -264.600267717 a.u.
 SCF   energy in the final basis set =     -264.6002677175
 Total energy in the final basis set =     -264.6002677175
 
 --------------------------------------------------------------
 
                    Orbital Energies (a.u.)
 --------------------------------------------------------------
 
 Alpha MOs
 -- Occupied --
-19.3479 -19.2868 -19.2858 -10.4833  -1.2204  -1.1176  -1.0910  -0.6964
 -0.5910  -0.5638  -0.5584  -0.5026  -0.4188  -0.3985  -0.3775  -0.3589
 -- Virtual --
  0.0396   0.0770   0.0875   0.0889   0.1221   0.1630   0.2070   0.2181
  0.2347   0.2457   0.2498   0.2717   0.2952   0.3144   0.3157   0.3305
  0.3392   0.3647   0.3881   0.4121   0.5448   0.5803   0.6430   0.6678
  0.7590   0.7652   0.7715   0.8369   0.8482   0.9025   1.0171   1.0647
  1.0789   1.1007   1.1280   1.1401   1.1466   1.1920   1.2192   1.2296
  1.2349   1.4343   1.4788   1.5607   1.6237   1.6335   1.6350   1.6683
  1.7374   1.7666   1.8413   1.9183   1.9654   1.9717   2.2086   2.2847
  2.2991   2.3436   2.4965   2.5187   2.6732   2.7706   2.8624   2.8941
  3.0836   3.1524   3.2282   3.2445   3.3889   3.4586   3.4915   3.5525
  3.6129   3.6203   3.6915   3.7369   3.7820   3.9838   4.1026   4.1507
  4.3091   5.1093   5.1397   5.1714   5.1798   5.1923   5.2056   5.2083
  5.2179   5.2521   5.2532   5.2890   5.3149   5.3907   5.4640   5.4823
  5.4926   5.5669   5.6484   5.6607   5.6880   5.9189   5.9928   6.1945
  6.3225   6.4869   6.4934   6.9205   6.9384   6.9730   6.9806   7.0375
  7.0487   7.1497   7.2286   7.2691   7.3106   7.3371   7.4278   7.4569
  7.6770   7.7477   7.7766   7.7860   7.8402   7.8799  25.2598  50.5520
 50.6877  50.7069
 --------------------------------------------------------------
 
          Ground-State Mulliken Net Atomic Charges

     Atom                 Charge (a.u.)
  ----------------------------------------
      1 C                     0.531765
      2 O                    -0.706796
      3 O                    -0.468446
      4 H                     0.340697
      5 O                    -0.697220
  ----------------------------------------
  Sum of atomic charges =    -1.000000

 -----------------------------------------------------------------
                    Cartesian Multipole Moments
 -----------------------------------------------------------------
    Charge (ESU x 10^10)
                -4.8032
    Dipole Moment (Debye)
         X       4.5592      Y      -4.7000      Z       1.4292
       Tot       6.7022
    Quadrupole Moments (Debye-Ang)
        XX     -28.6550     XY       4.7024     YY     -27.1403
        XZ      -2.4277     YZ       3.0194     ZZ     -34.8635
    Octopole Moments (Debye-Ang^2)
       XXX      70.0260    XXY     -50.2965    XYY      26.7395
       YYY    -121.9273    XXZ       7.6768    XYZ      -4.2404
       YYZ      18.2097    XZZ      31.4659    YZZ     -62.5376
       ZZZ      14.0754
    Hexadecapole Moments (Debye-Ang^3)
      XXXX    -147.8275   XXXY     126.1603   XXYY    -137.8221
      XYYY     118.4229   YYYY    -519.6695   XXXZ     -21.8762
      XXYZ      13.4870   XYYZ     -20.4682   YYYZ      82.0325
      XXZZ     -55.2576   XYZZ      55.3764   YYZZ    -161.8435
      XZZZ     -19.5543   YZZZ      24.2600   ZZZZ    -143.1280
 -----------------------------------------------------------------
 Calculating analytic gradient of the SCF energy
 Gradient of CDS energy
            1           2           3           4           5
    1  -0.0000193  -0.0002093   0.0000121   0.0000244   0.0001921
    2   0.0026798   0.0003931  -0.0052581   0.0004981   0.0016871
    3  -0.0011689  -0.0020058   0.0019573   0.0000438   0.0011735
 Gradient of SCF Energy
            1           2           3           4           5
    1   0.0001985  -0.0033903   0.0017786  -0.0024691   0.0038823
    2  -0.0218029   0.0014458   0.0028539  -0.0123667   0.0298700
    3   0.0126016  -0.0323363   0.0138582  -0.0179343   0.0238108
 Max gradient component =       3.234E-02
 RMS gradient           =       1.602E-02
 Computing fast CPCM-SWIG gradient
 Updating gradient with PCM contributions...
 -- total gradient after adding PCM contribution --
---------------------------------------------------
  Atom         X              Y              Z     
---------------------------------------------------
   1      -0.000489      -0.000064      -0.000133
   2       0.000216      -0.000014       0.000051
   3       0.000126      -0.000001       0.000040
   4       0.000065       0.000003      -0.000007
   5       0.000082       0.000076       0.000048
---------------------------------------------------
 Number of fixed atoms: 0
 Gradient time:  CPU 16.33 s  wall 2.29 s
 ----------------------------------------------------------------
             Standard Nuclear Orientation (Angstroms)
    I     Atom           X                Y                Z
 ----------------------------------------------------------------
    1      C      -0.9037440051     1.7911608924    -0.1570074679
    2      O      -0.7708866412     1.6705390708     1.0804676203
    3      O      -0.9102248658     3.0865070037    -0.6633885253
    4      H      -0.8042113805     3.6847683268     0.0862451204
    5      O      -1.0325666075     0.8993703064    -1.0196253475
 ----------------------------------------------------------------
 Nuclear Repulsion Energy =         113.62410764 hartrees
 There are       16 alpha and       16 beta electrons
 Discretize the solute cavity surface with Lebedev spheres
	Using 110 Lebedev grid points for each H atom
	Using 194 Lebedev grid points for other atoms
	Atomic van der Waals radii will be scaled by 1.20
 Remove points where switching function is < 1.0e-08
 Keep 545 surface tesserae and discard 341 interior tesserae
 Molecular Surface Area = 68.874 Angst**2

                       Distance Matrix (Angstroms)
             C (  1)   O (  2)   O (  3)   H (  4)
   O (  2)  1.250418
   O (  3)  1.390822  2.250648
   H (  4)  1.911760  2.246488  0.964938
   O (  5)  1.247395  2.252458  2.219333  3.005584
 
 Requested basis set is 6-311++G(2df,2p)
 There are 38 shells and 146 basis functions
 A cutoff of  1.0D-12 yielded    731 shell pairs
 There are     10962 function pairs (     14228 Cartesian)
 Smallest overlap matrix eigenvalue = 7.86E-04
 Guess MOs from SCF MO coefficient file

 -----------------------------------------------------------------------
  General SCF calculation program by
  Eric Jon Sundstrom, Paul Horn, Yuezhi Mao, Dmitri Zuev, Alec White,
  David Stuck, Shaama M.S., Shane Yost, Joonho Lee, David Small,
  Daniel Levine, Susi Lehtola, Hugh Burton, Evgeny Epifanovsky,
  Bang C. Huynh
 -----------------------------------------------------------------------
 Exchange:     0.1500 Hartree-Fock + 1.0000 wB97M-V + LR-HF
 Correlation:  1.0000 wB97M-V
 Using SG-2 standard quadrature grid
 Nonlocal Correlation:  VV10 with C = 0.0100 and b = 6.00 and scale = 1.00000
 Grid used for NLC:  SG-1 standard quadrature
 
 Citation of the SMD model:
 Marenich, A.V.; Cramer, C.J.; Truhlar, D.G.
 J. Phys. Chem. B 2009, 113, 6378-6396.
 iSolventCode=           1
 Solvent: water                                                           
 
 vradii
            1           2           3           4           5
    1   1.8500000   1.5200000   1.5200000   1.2000000   1.5200000
 -------------------------------------------------------
 OpenMP BLAS3 based DFT computing Module                
 Release: version 1.0, May 2013, Q-Chem Inc. Pittsburgh 
 -------------------------------------------------------
 A restricted SCF calculation will be
 performed using Roothaan-Hall, DIIS, GDM
 SCF converges when RMS gradient is below 1.0e-07
 ---------------------------------------
  Cycle       Energy         DIIS error
 ---------------------------------------
    1    -264.4794848510      1.01e-03  Roothaan Step
 ---------------------------------------
  Cycle       Energy         DIIS error
 ---------------------------------------
    1    -264.6007925643      1.18e-03  
    2    -264.6047584795      1.09e-03  Done DIIS. Switching to GDM
 ---------------------------------------
  Cycle       Energy        RMS Gradient
 ---------------------------------------
    1    -264.6047584795      1.73e-02   Normal BFGS step
    2    -264.6044720282      1.76e-02  Line search: overstep
    3    -264.6067064913      3.35e-03   Normal BFGS step
    4    -264.6068297800      1.06e-03   Normal BFGS step
    5    -264.6068477857      8.02e-04   Normal BFGS step
    6    -264.6068517720      2.71e-04   Normal BFGS step
    7    -264.6068522235      1.03e-04   Normal BFGS step
    8    -264.6068523250      3.85e-05   Normal BFGS step
    9    -264.6068523326      2.54e-05   Normal BFGS step
   10    -264.6068523372      3.40e-06   Normal BFGS step
   11    -264.6068523374      1.46e-06   Normal BFGS step
   12    -264.6068523374      3.20e-07   Normal BFGS step
   13    -264.6068523374      7.17e-08  Convergence criterion met
 ---------------------------------------
 SCF time:   CPU 90.41s  wall 12.00s 
(3)  G-ENP(liq) elect-nuc-pol free energy of system     -264.606852337 a.u.
(4)  G-CDS(liq) cavity-dispersion-solvent structure 
     free energy                                                4.1322 kcal/mol
(6)  G-S(liq) free energy of system                     -264.600267189 a.u.
 SCF   energy in the final basis set =     -264.6002671892
 Total energy in the final basis set =     -264.6002671892
 
 --------------------------------------------------------------
 
                    Orbital Energies (a.u.)
 --------------------------------------------------------------
 
 Alpha MOs
 -- Occupied --
-19.3482 -19.2868 -19.2856 -10.4834  -1.2206  -1.1176  -1.0908  -0.6967
 -0.5910  -0.5638  -0.5584  -0.5025  -0.4189  -0.3985  -0.3774  -0.3588
 -- Virtual --
  0.0396   0.0770   0.0875   0.0889   0.1222   0.1630   0.2070   0.2181
  0.2347   0.2457   0.2498   0.2717   0.2952   0.3145   0.3157   0.3305
  0.3391   0.3647   0.3881   0.4125   0.5449   0.5800   0.6427   0.6678
  0.7591   0.7650   0.7712   0.8370   0.8484   0.9026   1.0171   1.0648
  1.0789   1.1007   1.1282   1.1400   1.1467   1.1920   1.2190   1.2296
  1.2349   1.4343   1.4785   1.5609   1.6236   1.6335   1.6350   1.6680
  1.7374   1.7667   1.8411   1.9182   1.9654   1.9715   2.2089   2.2843
  2.2989   2.3441   2.4960   2.5191   2.6734   2.7707   2.8624   2.8941
  3.0839   3.1524   3.2285   3.2447   3.3893   3.4585   3.4919   3.5527
  3.6123   3.6194   3.6920   3.7378   3.7820   3.9832   4.1019   4.1504
  4.3090   5.1092   5.1397   5.1714   5.1799   5.1922   5.2056   5.2083
  5.2179   5.2521   5.2533   5.2887   5.3149   5.3905   5.4638   5.4822
  5.4923   5.5671   5.6481   5.6601   5.6883   5.9208   5.9930   6.1938
  6.3217   6.4869   6.4906   6.9205   6.9384   6.9729   6.9808   7.0374
  7.0486   7.1496   7.2288   7.2694   7.3106   7.3374   7.4274   7.4565
  7.6773   7.7479   7.7762   7.7856   7.8398   7.8796  25.2597  50.5521
 50.6869  50.7066
 --------------------------------------------------------------
 
          Ground-State Mulliken Net Atomic Charges

     Atom                 Charge (a.u.)
  ----------------------------------------
      1 C                     0.531702
      2 O                    -0.706692
      3 O                    -0.467380
      4 H                     0.340770
      5 O                    -0.698399
  ----------------------------------------
  Sum of atomic charges =    -1.000000

 -----------------------------------------------------------------
                    Cartesian Multipole Moments
 -----------------------------------------------------------------
    Charge (ESU x 10^10)
                -4.8032
    Dipole Moment (Debye)
         X       4.5623      Y      -4.6848      Z       1.4321
       Tot       6.6943
    Quadrupole Moments (Debye-Ang)
        XX     -28.6614     XY       4.6936     YY     -27.0799
        XZ      -2.4316     YZ       3.0131     ZZ     -34.8679
    Octopole Moments (Debye-Ang^2)
       XXX      70.0229    XXY     -50.2886    XYY      26.6855
       YYY    -121.7202    XXZ       7.6840    XYZ      -4.2374
       YYZ      18.1768    XZZ      31.4627    YZZ     -62.5356
       ZZZ      14.0902
    Hexadecapole Moments (Debye-Ang^3)
      XXXX    -147.7967   XXXY     126.1249   XXYY    -137.7514
      XYYY     118.2052   YYYY    -518.9621   XXXZ     -21.8884
      XXYZ      13.4827   XYYZ     -20.4403   YYYZ      81.9025
      XXZZ     -55.2527   XYZZ      55.3622   YYZZ    -161.8176
      XZZZ     -19.5693   YZZZ      24.2536   ZZZZ    -143.1581
 -----------------------------------------------------------------
 Calculating analytic gradient of the SCF energy
 Gradient of CDS energy
            1           2           3           4           5
    1  -0.0000276  -0.0002077   0.0000161   0.0000240   0.0001951
    2   0.0027354   0.0003948  -0.0053277   0.0004970   0.0017004
    3  -0.0012102  -0.0020057   0.0019856   0.0000444   0.0011859
 Gradient of SCF Energy
            1           2           3           4           5
    1   0.0005311  -0.0034796   0.0016857  -0.0024595   0.0037223
    2  -0.0206600   0.0013314   0.0024852  -0.0124178   0.0292612
    3   0.0130140  -0.0323190   0.0138950  -0.0179061   0.0233161
 Max gradient component =       3.232E-02
 RMS gradient           =       1.581E-02
 Computing fast CPCM-SWIG gradient
 Updating gradient with PCM contributions...
 -- total gradient after adding PCM contribution --
---------------------------------------------------
  Atom         X              Y              Z     
---------------------------------------------------
   1       0.000043       0.001068       0.000207
   2       0.000050      -0.000193       0.000078
   3      -0.000002      -0.000302       0.000063
   4       0.000058      -0.000073       0.000006
   5      -0.000149      -0.000500      -0.000354
---------------------------------------------------
 Number of fixed atoms: 0
 Gradient time:  CPU 16.32 s  wall 2.29 s
 ----------------------------------------------------------------
             Standard Nuclear Orientation (Angstroms)
    I     Atom           X                Y                Z
 ----------------------------------------------------------------
    1      C      -0.9037440051     1.7891608924    -0.1570074679
    2      O      -0.7708866412     1.6705390708     1.0804676203
    3      O      -0.9102248658     3.0865070037    -0.6633885253
    4      H      -0.8042113805     3.6847683268     0.0862451204
    5      O      -1.0325666075     0.8993703064    -1.0196253475
 ----------------------------------------------------------------
 Nuclear Repulsion Energy =         113.62442348 hartrees
 There are       16 alpha and       16 beta electrons
 Discretize the solute cavity surface with Lebedev spheres
	Using 110 Lebedev grid points for each H atom
	Using 194 Lebedev grid points for other atoms
	Atomic van der Waals radii will be scaled by 1.20
 Remove points where switching function is < 1.0e-08
 Keep 545 surface tesserae and discard 341 interior tesserae
 Molecular Surface Area = 68.876 Angst**2

                       Distance Matrix (Angstroms)
             C (  1)   O (  2)   O (  3)   H (  4)
   O (  2)  1.250227
   O (  3)  1.392685  2.250648
   H (  4)  1.913741  2.246488  0.964938
   O (  5)  1.245966  2.252458  2.219333  3.005584
 
 Requested basis set is 6-311++G(2df,2p)
 There are 38 shells and 146 basis functions
 A cutoff of  1.0D-12 yielded    731 shell pairs
 There are     10962 function pairs (     14228 Cartesian)
 Smallest overlap matrix eigenvalue = 7.86E-04
 Guess MOs from SCF MO coefficient file

 -----------------------------------------------------------------------
  General SCF calculation program by
  Eric Jon Sundstrom, Paul Horn, Yuezhi Mao, Dmitri Zuev, Alec White,
  David Stuck, Shaama M.S., Shane Yost, Joonho Lee, David Small,
  Daniel Levine, Susi Lehtola, Hugh Burton, Evgeny Epifanovsky,
  Bang C. Huynh
 -----------------------------------------------------------------------
 Exchange:     0.1500 Hartree-Fock + 1.0000 wB97M-V + LR-HF
 Correlation:  1.0000 wB97M-V
 Using SG-2 standard quadrature grid
 Nonlocal Correlation:  VV10 with C = 0.0100 and b = 6.00 and scale = 1.00000
 Grid used for NLC:  SG-1 standard quadrature
 
 Citation of the SMD model:
 Marenich, A.V.; Cramer, C.J.; Truhlar, D.G.
 J. Phys. Chem. B 2009, 113, 6378-6396.
 iSolventCode=           1
 Solvent: water                                                           
 
 vradii
            1           2           3           4           5
    1   1.8500000   1.5200000   1.5200000   1.2000000   1.5200000
 -------------------------------------------------------
 OpenMP BLAS3 based DFT computing Module                
 Release: version 1.0, May 2013, Q-Chem Inc. Pittsburgh 
 -------------------------------------------------------
 A restricted SCF calculation will be
 performed using Roothaan-Hall, DIIS, GDM
 SCF converges when RMS gradient is below 1.0e-07
 ---------------------------------------
  Cycle       Energy         DIIS error
 ---------------------------------------
    1    -264.4794984865      1.02e-03  Roothaan Step
 ---------------------------------------
  Cycle       Energy         DIIS error
 ---------------------------------------
    1    -264.6008564560      1.17e-03  
    2    -264.6048140427      1.07e-03  Done DIIS. Switching to GDM
 ---------------------------------------
  Cycle       Energy        RMS Gradient
 ---------------------------------------
    1    -264.6048140427      1.71e-02   Normal BFGS step
    2    -264.6045581660      1.71e-02  Line search: overstep
    3    -264.6066993441      3.31e-03   Normal BFGS step
    4    -264.6068200934      1.05e-03   Normal BFGS step
    5    -264.6068377245      7.75e-04   Normal BFGS step
    6    -264.6068416102      2.67e-04   Normal BFGS step
    7    -264.6068420517      1.00e-04   Normal BFGS step
    8    -264.6068421493      3.79e-05   Normal BFGS step
    9    -264.6068421565      2.49e-05   Normal BFGS step
   10    -264.6068421610      3.20e-06   Normal BFGS step
   11    -264.6068421612      1.39e-06   Normal BFGS step
   12    -264.6068421612      3.14e-07   Normal BFGS step
   13    -264.6068421612      6.87e-08  Convergence criterion met
 ---------------------------------------
 SCF time:   CPU 90.91s  wall 12.00s 
(3)  G-ENP(liq) elect-nuc-pol free energy of system     -264.606842161 a.u.
(4)  G-CDS(liq) cavity-dispersion-solvent structure 
     free energy                                                4.1259 kcal/mol
(6)  G-S(liq) free energy of system                     -264.600267129 a.u.
 SCF   energy in the final basis set =     -264.6002671289
 Total energy in the final basis set =     -264.6002671289
 
 --------------------------------------------------------------
 
                    Orbital Energies (a.u.)
 --------------------------------------------------------------
 
 Alpha MOs
 -- Occupied --
-19.3477 -19.2868 -19.2859 -10.4833  -1.2203  -1.1175  -1.0913  -0.6961
 -0.5910  -0.5637  -0.5584  -0.5027  -0.4188  -0.3984  -0.3776  -0.3590
 -- Virtual --
  0.0396   0.0769   0.0875   0.0889   0.1221   0.1631   0.2070   0.2182
  0.2348   0.2457   0.2498   0.2717   0.2952   0.3144   0.3156   0.3305
  0.3392   0.3647   0.3880   0.4118   0.5447   0.5806   0.6434   0.6678
  0.7589   0.7654   0.7717   0.8368   0.8479   0.9025   1.0172   1.0645
  1.0789   1.1007   1.1277   1.1402   1.1466   1.1920   1.2194   1.2296
  1.2348   1.4343   1.4791   1.5605   1.6239   1.6334   1.6350   1.6687
  1.7373   1.7665   1.8415   1.9185   1.9654   1.9718   2.2083   2.2851
  2.2993   2.3431   2.4970   2.5185   2.6731   2.7705   2.8625   2.8940
  3.0833   3.1524   3.2279   3.2443   3.3885   3.4587   3.4910   3.5522
  3.6134   3.6212   3.6911   3.7360   3.7820   3.9843   4.1034   4.1510
  4.3092   5.1094   5.1396   5.1713   5.1797   5.1923   5.2056   5.2083
  5.2179   5.2522   5.2531   5.2892   5.3151   5.3908   5.4641   5.4824
  5.4929   5.5668   5.6487   5.6612   5.6877   5.9171   5.9927   6.1951
  6.3232   6.4872   6.4959   6.9204   6.9384   6.9730   6.9804   7.0376
  7.0488   7.1498   7.2284   7.2689   7.3105   7.3368   7.4282   7.4572
  7.6768   7.7475   7.7771   7.7864   7.8405   7.8803  25.2599  50.5519
 50.6885  50.7073
 --------------------------------------------------------------
 
          Ground-State Mulliken Net Atomic Charges

     Atom                 Charge (a.u.)
  ----------------------------------------
      1 C                     0.531820
      2 O                    -0.706569
      3 O                    -0.469485
      4 H                     0.340597
      5 O                    -0.696362
  ----------------------------------------
  Sum of atomic charges =    -1.000000

 -----------------------------------------------------------------
                    Cartesian Multipole Moments
 -----------------------------------------------------------------
    Charge (ESU x 10^10)
                -4.8032
    Dipole Moment (Debye)
         X       4.5611      Y      -4.7140      Z       1.4295
       Tot       6.7133
    Quadrupole Moments (Debye-Ang)
        XX     -28.6576     XY       4.7191     YY     -27.1980
        XZ      -2.4277     YZ       3.0295     ZZ     -34.8587
    Octopole Moments (Debye-Ang^2)
       XXX      70.0123    XXY     -50.3193    XYY      26.7915
       YYY    -122.1263    XXZ       7.6757    XYZ      -4.2494
       YYZ      18.2502    XZZ      31.4521    YZZ     -62.5365
       ZZZ      14.0725
    Hexadecapole Moments (Debye-Ang^3)
      XXXX    -147.7685   XXXY     126.1649   XXYY    -137.8902
      XYYY     118.5728   YYYY    -520.3540   XXXZ     -21.8691
      XXYZ      13.5011   XYYZ     -20.5005   YYYZ      82.1779
      XXZZ     -55.2321   XYZZ      55.3608   YYZZ    -161.8611
      XZZZ     -19.5472   YZZZ      24.2818   ZZZZ    -143.0963
 -----------------------------------------------------------------
 Calculating analytic gradient of the SCF energy
 Gradient of CDS energy
            1           2           3           4           5
    1  -0.0000241  -0.0002073   0.0000154   0.0000239   0.0001920
    2   0.0026116   0.0003910  -0.0051789   0.0004993   0.0016770
    3  -0.0011313  -0.0020015   0.0019253   0.0000432   0.0011642
 Gradient of SCF Energy
            1           2           3           4           5
    1   0.0004117  -0.0034998   0.0016967  -0.0024606   0.0038520
    2  -0.0228355   0.0015760   0.0032354  -0.0123300   0.0303541
    3   0.0124930  -0.0325237   0.0138001  -0.0179522   0.0241828
 Max gradient component =       3.252E-02
 RMS gradient           =       1.624E-02
 Computing fast CPCM-SWIG gradient
 Updating gradient with PCM contributions...
 -- total gradient after adding PCM contribution --
---------------------------------------------------
  Atom         X              Y              Z     
---------------------------------------------------
   1      -0.000056      -0.001105      -0.000226
   2       0.000032       0.000176      -0.000111
   3       0.000004       0.000315      -0.000005
   4       0.000061       0.000058      -0.000013
   5      -0.000041       0.000556       0.000354
---------------------------------------------------
 Number of fixed atoms: 0
 Gradient time:  CPU 16.62 s  wall 2.43 s
 ----------------------------------------------------------------
             Standard Nuclear Orientation (Angstroms)
    I     Atom           X                Y                Z
 ----------------------------------------------------------------
    1      C      -0.9037440051     1.7901608924    -0.1560074679
    2      O      -0.7708866412     1.6705390708     1.0804676203
    3      O      -0.9102248658     3.0865070037    -0.6633885253
    4      H      -0.8042113805     3.6847683268     0.0862451204
    5      O      -1.0325666075     0.8993703064    -1.0196253475
 ----------------------------------------------------------------
 Nuclear Repulsion Energy =         113.62438468 hartrees
 There are       16 alpha and       16 beta electrons
 Discretize the solute cavity surface with Lebedev spheres
	Using 110 Lebedev grid points for each H atom
	Using 194 Lebedev grid points for other atoms
	Atomic van der Waals radii will be scaled by 1.20
 Remove points where switching function is < 1.0e-08
 Keep 545 surface tesserae and discard 341 interior tesserae
 Molecular Surface Area = 68.874 Angst**2

                       Distance Matrix (Angstroms)
             C (  1)   O (  2)   O (  3)   H (  4)
   O (  2)  1.249332
   O (  3)  1.392117  2.250648
   H (  4)  1.912624  2.246488  0.964938
   O (  5)  1.247373  2.252458  2.219333  3.005584
 
 Requested basis set is 6-311++G(2df,2p)
 There are 38 shells and 146 basis functions
 A cutoff of  1.0D-12 yielded    731 shell pairs
 There are     10962 function pairs (     14228 Cartesian)
 Smallest overlap matrix eigenvalue = 7.85E-04
 Guess MOs from SCF MO coefficient file

 -----------------------------------------------------------------------
  General SCF calculation program by
  Eric Jon Sundstrom, Paul Horn, Yuezhi Mao, Dmitri Zuev, Alec White,
  David Stuck, Shaama M.S., Shane Yost, Joonho Lee, David Small,
  Daniel Levine, Susi Lehtola, Hugh Burton, Evgeny Epifanovsky,
  Bang C. Huynh
 -----------------------------------------------------------------------
 Exchange:     0.1500 Hartree-Fock + 1.0000 wB97M-V + LR-HF
 Correlation:  1.0000 wB97M-V
 Using SG-2 standard quadrature grid
 Nonlocal Correlation:  VV10 with C = 0.0100 and b = 6.00 and scale = 1.00000
 Grid used for NLC:  SG-1 standard quadrature
 
 Citation of the SMD model:
 Marenich, A.V.; Cramer, C.J.; Truhlar, D.G.
 J. Phys. Chem. B 2009, 113, 6378-6396.
 iSolventCode=           1
 Solvent: water                                                           
 
 vradii
            1           2           3           4           5
    1   1.8500000   1.5200000   1.5200000   1.2000000   1.5200000
 -------------------------------------------------------
 OpenMP BLAS3 based DFT computing Module                
 Release: version 1.0, May 2013, Q-Chem Inc. Pittsburgh 
 -------------------------------------------------------
 A restricted SCF calculation will be
 performed using Roothaan-Hall, DIIS, GDM
 SCF converges when RMS gradient is below 1.0e-07
 ---------------------------------------
  Cycle       Energy         DIIS error
 ---------------------------------------
    1    -264.4795638063      1.01e-03  Roothaan Step
 ---------------------------------------
  Cycle       Energy         DIIS error
 ---------------------------------------
    1    -264.6008053633      1.18e-03  
    2    -264.6047581276      1.09e-03  Done DIIS. Switching to GDM
 ---------------------------------------
  Cycle       Energy        RMS Gradient
 ---------------------------------------
    1    -264.6047581276      1.73e-02   Normal BFGS step
    2    -264.6044709748      1.73e-02  Line search: overstep
    3    -264.6066990566      3.30e-03   Normal BFGS step
    4    -264.6068219603      1.06e-03   Normal BFGS step
    5    -264.6068399825      8.22e-04   Normal BFGS step
    6    -264.6068440109      2.72e-04   Normal BFGS step
    7    -264.6068444655      1.02e-04   Normal BFGS step
    8    -264.6068445675      3.86e-05   Normal BFGS step
    9    -264.6068445751      2.54e-05   Normal BFGS step
   10    -264.6068445798      3.49e-06   Normal BFGS step
   11    -264.6068445799      1.50e-06   Normal BFGS step
   12    -264.6068445799      3.19e-07   Normal BFGS step
   13    -264.6068445799      7.18e-08  Convergence criterion met
 ---------------------------------------
 SCF time:   CPU 90.10s  wall 11.00s 
(3)  G-ENP(liq) elect-nuc-pol free energy of system     -264.606844580 a.u.
(4)  G-CDS(liq) cavity-dispersion-solvent structure 
     free energy                                                4.1276 kcal/mol
(6)  G-S(liq) free energy of system                     -264.600266787 a.u.
 SCF   energy in the final basis set =     -264.6002667865
 Total energy in the final basis set =     -264.6002667865
 
 --------------------------------------------------------------
 
                    Orbital Energies (a.u.)
 --------------------------------------------------------------
 
 Alpha MOs
 -- Occupied --
-19.3479 -19.2870 -19.2856 -10.4833  -1.2204  -1.1175  -1.0912  -0.6962
 -0.5910  -0.5638  -0.5584  -0.5026  -0.4188  -0.3985  -0.3775  -0.3590
 -- Virtual --
  0.0396   0.0770   0.0874   0.0889   0.1222   0.1631   0.2070   0.2182
  0.2348   0.2457   0.2498   0.2717   0.2952   0.3144   0.3157   0.3305
  0.3392   0.3647   0.3881   0.4120   0.5447   0.5804   0.6431   0.6678
  0.7590   0.7652   0.7715   0.8368   0.8480   0.9027   1.0173   1.0646
  1.0789   1.1006   1.1279   1.1400   1.1467   1.1921   1.2192   1.2297
  1.2349   1.4344   1.4788   1.5607   1.6237   1.6335   1.6348   1.6685
  1.7374   1.7665   1.8415   1.9183   1.9654   1.9718   2.2085   2.2848
  2.2991   2.3434   2.4965   2.5189   2.6736   2.7703   2.8624   2.8939
  3.0837   3.1524   3.2283   3.2443   3.3887   3.4587   3.4914   3.5525
  3.6128   3.6206   3.6914   3.7365   3.7820   3.9836   4.1035   4.1505
  4.3089   5.1093   5.1397   5.1713   5.1798   5.1923   5.2056   5.2084
  5.2179   5.2522   5.2532   5.2889   5.3155   5.3907   5.4641   5.4823
  5.4927   5.5667   5.6484   5.6606   5.6880   5.9182   5.9931   6.1946
  6.3227   6.4871   6.4943   6.9204   6.9382   6.9730   6.9805   7.0375
  7.0488   7.1497   7.2291   7.2690   7.3105   7.3370   7.4279   7.4567
  7.6775   7.7475   7.7769   7.7857   7.8401   7.8798  25.2598  50.5519
 50.6880  50.7070
 --------------------------------------------------------------
 
          Ground-State Mulliken Net Atomic Charges

     Atom                 Charge (a.u.)
  ----------------------------------------
      1 C                     0.531700
      2 O                    -0.705102
      3 O                    -0.468661
      4 H                     0.340541
      5 O                    -0.698478
  ----------------------------------------
  Sum of atomic charges =    -1.000000

 -----------------------------------------------------------------
                    Cartesian Multipole Moments
 -----------------------------------------------------------------
    Charge (ESU x 10^10)
                -4.8032
    Dipole Moment (Debye)
         X       4.5633      Y      -4.6983      Z       1.4473
       Tot       6.7076
    Quadrupole Moments (Debye-Ang)
        XX     -28.6621     XY       4.7074     YY     -27.1430
        XZ      -2.4441     YZ       3.0460     ZZ     -34.8607
    Octopole Moments (Debye-Ang^2)
       XXX      70.0255    XXY     -50.3042    XYY      26.7461
       YYY    -121.9539    XXZ       7.7018    XYZ      -4.2647
       YYZ      18.2592    XZZ      31.4570    YZZ     -62.5274
       ZZZ      14.1064
    Hexadecapole Moments (Debye-Ang^3)
      XXXX    -147.8022   XXXY     126.1489   XXYY    -137.8300
      XYYY     118.4249   YYYY    -519.8251   XXXZ     -21.9139
      XXYZ      13.5224   XYYZ     -20.5093   YYYZ      82.1278
      XXZZ     -55.2395   XYZZ      55.3566   YYZZ    -161.8163
      XZZZ     -19.5798   YZZZ      24.3008   ZZZZ    -143.1033
 -----------------------------------------------------------------
 Calculating analytic gradient of the SCF energy
 Gradient of CDS energy
            1           2           3           4           5
    1  -0.0000294  -0.0002053   0.0000157   0.0000240   0.0001950
    2   0.0026378   0.0003908  -0.0052270   0.0004988   0.0016996
    3  -0.0011965  -0.0019815   0.0019488   0.0000431   0.0011861
 Gradient of SCF Energy
            1           2           3           4           5
    1   0.0006216  -0.0035753   0.0016854  -0.0024575   0.0037257
    2  -0.0215061   0.0015423   0.0029880  -0.0124191   0.0293949
    3   0.0142909  -0.0333196   0.0136633  -0.0178823   0.0232477
 Max gradient component =       3.332E-02
 RMS gradient           =       1.610E-02
 Computing fast CPCM-SWIG gradient
 Updating gradient with PCM contributions...
 -- total gradient after adding PCM contribution --
---------------------------------------------------
  Atom         X              Y              Z     
---------------------------------------------------
   1       0.000117       0.000199       0.001491
   2      -0.000028       0.000053      -0.000828
   3      -0.000006       0.000111      -0.000198
   4       0.000061      -0.000074       0.000021
   5      -0.000144      -0.000290      -0.000485
---------------------------------------------------
 Number of fixed atoms: 0
 Gradient time:  CPU 16.17 s  wall 2.27 s
 ----------------------------------------------------------------
             Standard Nuclear Orientation (Angstroms)
    I     Atom           X                Y                Z
 ----------------------------------------------------------------
    1      C      -0.9037440051     1.7901608924    -0.1580074679
    2      O      -0.7708866412     1.6705390708     1.0804676203
    3      O      -0.9102248658     3.0865070037    -0.6633885253
    4      H      -0.8042113805     3.6847683268     0.0862451204
    5      O      -1.0325666075     0.8993703064    -1.0196253475
 ----------------------------------------------------------------
 Nuclear Repulsion Energy =         113.62416092 hartrees
 There are       16 alpha and       16 beta electrons
 Discretize the solute cavity surface with Lebedev spheres
	Using 110 Lebedev grid points for each H atom
	Using 194 Lebedev grid points for other atoms
	Atomic van der Waals radii will be scaled by 1.20
 Remove points where switching function is < 1.0e-08
 Keep 545 surface tesserae and discard 341 interior tesserae
 Molecular Surface Area = 68.876 Angst**2

                       Distance Matrix (Angstroms)
             C (  1)   O (  2)   O (  3)   H (  4)
   O (  2)  1.251312
   O (  3)  1.391390  2.250648
   H (  4)  1.912878  2.246488  0.964938
   O (  5)  1.245989  2.252458  2.219333  3.005584
 
 Requested basis set is 6-311++G(2df,2p)
 There are 38 shells and 146 basis functions
 A cutoff of  1.0D-12 yielded    731 shell pairs
 There are     10962 function pairs (     14228 Cartesian)
 Smallest overlap matrix eigenvalue = 7.86E-04
 Guess MOs from SCF MO coefficient file

 -----------------------------------------------------------------------
  General SCF calculation program by
  Eric Jon Sundstrom, Paul Horn, Yuezhi Mao, Dmitri Zuev, Alec White,
  David Stuck, Shaama M.S., Shane Yost, Joonho Lee, David Small,
  Daniel Levine, Susi Lehtola, Hugh Burton, Evgeny Epifanovsky,
  Bang C. Huynh
 -----------------------------------------------------------------------
 Exchange:     0.1500 Hartree-Fock + 1.0000 wB97M-V + LR-HF
 Correlation:  1.0000 wB97M-V
 Using SG-2 standard quadrature grid
 Nonlocal Correlation:  VV10 with C = 0.0100 and b = 6.00 and scale = 1.00000
 Grid used for NLC:  SG-1 standard quadrature
 
 Citation of the SMD model:
 Marenich, A.V.; Cramer, C.J.; Truhlar, D.G.
 J. Phys. Chem. B 2009, 113, 6378-6396.
 iSolventCode=           1
 Solvent: water                                                           
 
 vradii
            1           2           3           4           5
    1   1.8500000   1.5200000   1.5200000   1.2000000   1.5200000
 -------------------------------------------------------
 OpenMP BLAS3 based DFT computing Module                
 Release: version 1.0, May 2013, Q-Chem Inc. Pittsburgh 
 -------------------------------------------------------
 A restricted SCF calculation will be
 performed using Roothaan-Hall, DIIS, GDM
 SCF converges when RMS gradient is below 1.0e-07
 ---------------------------------------
  Cycle       Energy         DIIS error
 ---------------------------------------
    1    -264.4795218075      1.01e-03  Roothaan Step
 ---------------------------------------
  Cycle       Energy         DIIS error
 ---------------------------------------
    1    -264.6008320116      1.17e-03  
    2    -264.6047976937      1.08e-03  Done DIIS. Switching to GDM
 ---------------------------------------
  Cycle       Energy        RMS Gradient
 ---------------------------------------
    1    -264.6047976937      1.72e-02   Normal BFGS step
    2    -264.6045373368      1.77e-02  Line search: overstep
    3    -264.6067051397      3.40e-03   Normal BFGS step
    4    -264.6068268905      1.05e-03   Normal BFGS step
    5    -264.6068445900      7.48e-04   Normal BFGS step
    6    -264.6068484323      2.66e-04   Normal BFGS step
    7    -264.6068488702      1.01e-04   Normal BFGS step
    8    -264.6068489674      3.77e-05   Normal BFGS step
    9    -264.6068489744      2.49e-05   Normal BFGS step
   10    -264.6068489790      3.07e-06   Normal BFGS step
   11    -264.6068489791      1.33e-06   Normal BFGS step
   12    -264.6068489791      3.11e-07   Normal BFGS step
   13    -264.6068489791      6.92e-08  Convergence criterion met
 ---------------------------------------
 SCF time:   CPU 91.54s  wall 11.00s 
(3)  G-ENP(liq) elect-nuc-pol free energy of system     -264.606848979 a.u.
(4)  G-CDS(liq) cavity-dispersion-solvent structure 
     free energy                                                4.1304 kcal/mol
(6)  G-S(liq) free energy of system                     -264.600266755 a.u.
 SCF   energy in the final basis set =     -264.6002667551
 Total energy in the final basis set =     -264.6002667551
 
 --------------------------------------------------------------
 
                    Orbital Energies (a.u.)
 --------------------------------------------------------------
 
 Alpha MOs
 -- Occupied --
-19.3480 -19.2867 -19.2859 -10.4833  -1.2205  -1.1177  -1.0909  -0.6966
 -0.5910  -0.5638  -0.5584  -0.5025  -0.4189  -0.3985  -0.3775  -0.3589
 -- Virtual --
  0.0396   0.0769   0.0875   0.0889   0.1221   0.1630   0.2071   0.2181
  0.2347   0.2457   0.2498   0.2717   0.2952   0.3145   0.3156   0.3305
  0.3391   0.3648   0.3881   0.4123   0.5449   0.5801   0.6430   0.6678
  0.7590   0.7652   0.7715   0.8369   0.8483   0.9024   1.0170   1.0647
  1.0790   1.1008   1.1280   1.1402   1.1466   1.1920   1.2192   1.2295
  1.2348   1.4343   1.4788   1.5607   1.6237   1.6334   1.6351   1.6682
  1.7374   1.7667   1.8412   1.9184   1.9654   1.9716   2.2087   2.2846
  2.2991   2.3438   2.4965   2.5186   2.6729   2.7709   2.8624   2.8942
  3.0834   3.1524   3.2282   3.2447   3.3891   3.4586   3.4915   3.5525
  3.6128   3.6200   3.6917   3.7372   3.7821   3.9840   4.1018   4.1509
  4.3093   5.1093   5.1397   5.1714   5.1798   5.1923   5.2057   5.2083
  5.2179   5.2522   5.2532   5.2890   5.3144   5.3906   5.4638   5.4823
  5.4926   5.5672   5.6484   5.6607   5.6881   5.9196   5.9926   6.1943
  6.3222   6.4870   6.4923   6.9205   6.9386   6.9730   6.9807   7.0375
  7.0486   7.1497   7.2282   7.2693   7.3107   7.3372   7.4277   7.4570
  7.6766   7.7479   7.7764   7.7862   7.8402   7.8800  25.2598  50.5521
 50.6874  50.7069
 --------------------------------------------------------------
 
          Ground-State Mulliken Net Atomic Charges

     Atom                 Charge (a.u.)
  ----------------------------------------
      1 C                     0.531822
      2 O                    -0.708159
      3 O                    -0.468205
      4 H                     0.340826
      5 O                    -0.696285
  ----------------------------------------
  Sum of atomic charges =    -1.000000

 -----------------------------------------------------------------
                    Cartesian Multipole Moments
 -----------------------------------------------------------------
    Charge (ESU x 10^10)
                -4.8032
    Dipole Moment (Debye)
         X       4.5601      Y      -4.7005      Z       1.4143
       Tot       6.7000
    Quadrupole Moments (Debye-Ang)
        XX     -28.6569     XY       4.7053     YY     -27.1349
        XZ      -2.4152     YZ       2.9967     ZZ     -34.8659
    Octopole Moments (Debye-Ang^2)
       XXX      70.0097    XXY     -50.3036    XYY      26.7310
       YYY    -121.8926    XXZ       7.6579    XYZ      -4.2221
       YYZ      18.1678    XZZ      31.4578    YZZ     -62.5446
       ZZZ      14.0563
    Hexadecapole Moments (Debye-Ang^3)
      XXXX    -147.7631   XXXY     126.1409   XXYY    -137.8117
      XYYY     118.3531   YYYY    -519.4910   XXXZ     -21.8437
      XXYZ      13.4615   XYYZ     -20.4316   YYYZ      81.9527
      XXZZ     -55.2454   XYZZ      55.3664   YYZZ    -161.8622
      XZZZ     -19.5367   YZZZ      24.2347   ZZZZ    -143.1511
 -----------------------------------------------------------------
 Calculating analytic gradient of the SCF energy
 Gradient of CDS energy
            1           2           3           4           5
    1  -0.0000223  -0.0002097   0.0000160   0.0000240   0.0001920
    2   0.0027167   0.0003951  -0.0052871   0.0004975   0.0016778
    3  -0.0011476  -0.0020259   0.0019650   0.0000445   0.0011640
 Gradient of SCF Energy
            1           2           3           4           5
    1   0.0003221  -0.0034051   0.0016971  -0.0024625   0.0038485
    2  -0.0219866   0.0013662   0.0027274  -0.0123285   0.0302214
    3   0.0112220  -0.0315305   0.0140340  -0.0179760   0.0242505
 Max gradient component =       3.153E-02
 RMS gradient           =       1.596E-02
 Computing fast CPCM-SWIG gradient
 Updating gradient with PCM contributions...
 -- total gradient after adding PCM contribution --
---------------------------------------------------
  Atom         X              Y              Z     
---------------------------------------------------
   1      -0.000129      -0.000233      -0.001504
   2       0.000109      -0.000069       0.000787
   3       0.000009      -0.000103       0.000258
   4       0.000059       0.000059      -0.000028
   5      -0.000047       0.000346       0.000486
---------------------------------------------------
 Number of fixed atoms: 0
 Gradient time:  CPU 16.89 s  wall 2.39 s
 ----------------------------------------------------------------
             Standard Nuclear Orientation (Angstroms)
    I     Atom           X                Y                Z
 ----------------------------------------------------------------
    1      C      -0.9037440051     1.7901608924    -0.1570074679
    2      O      -0.7698866412     1.6705390708     1.0804676203
    3      O      -0.9102248658     3.0865070037    -0.6633885253
    4      H      -0.8042113805     3.6847683268     0.0862451204
    5      O      -1.0325666075     0.8993703064    -1.0196253475
 ----------------------------------------------------------------
 Nuclear Repulsion Energy =         113.62132269 hartrees
 There are       16 alpha and       16 beta electrons
 Discretize the solute cavity surface with Lebedev spheres
	Using 110 Lebedev grid points for each H atom
	Using 194 Lebedev grid points for other atoms
	Atomic van der Waals radii will be scaled by 1.20
 Remove points where switching function is < 1.0e-08
 Keep 545 surface tesserae and discard 341 interior tesserae
 Molecular Surface Area = 68.876 Angst**2

                       Distance Matrix (Angstroms)
             C (  1)   O (  2)   O (  3)   H (  4)
   O (  2)  1.250429
   O (  3)  1.391753  2.250710
   H (  4)  1.912751  2.246503  0.964938
   O (  5)  1.246681  2.252575  2.219333  3.005584
 
 Requested basis set is 6-311++G(2df,2p)
 There are 38 shells and 146 basis functions
 A cutoff of  1.0D-12 yielded    731 shell pairs
 There are     10962 function pairs (     14228 Cartesian)
 Smallest overlap matrix eigenvalue = 7.86E-04
 Guess MOs from SCF MO coefficient file

 -----------------------------------------------------------------------
  General SCF calculation program by
  Eric Jon Sundstrom, Paul Horn, Yuezhi Mao, Dmitri Zuev, Alec White,
  David Stuck, Shaama M.S., Shane Yost, Joonho Lee, David Small,
  Daniel Levine, Susi Lehtola, Hugh Burton, Evgeny Epifanovsky,
  Bang C. Huynh
 -----------------------------------------------------------------------
 Exchange:     0.1500 Hartree-Fock + 1.0000 wB97M-V + LR-HF
 Correlation:  1.0000 wB97M-V
 Using SG-2 standard quadrature grid
 Nonlocal Correlation:  VV10 with C = 0.0100 and b = 6.00 and scale = 1.00000
 Grid used for NLC:  SG-1 standard quadrature
 
 Citation of the SMD model:
 Marenich, A.V.; Cramer, C.J.; Truhlar, D.G.
 J. Phys. Chem. B 2009, 113, 6378-6396.
 iSolventCode=           1
 Solvent: water                                                           
 
 vradii
            1           2           3           4           5
    1   1.8500000   1.5200000   1.5200000   1.2000000   1.5200000
 -------------------------------------------------------
 OpenMP BLAS3 based DFT computing Module                
 Release: version 1.0, May 2013, Q-Chem Inc. Pittsburgh 
 -------------------------------------------------------
 A restricted SCF calculation will be
 performed using Roothaan-Hall, DIIS, GDM
 SCF converges when RMS gradient is below 1.0e-07
 ---------------------------------------
  Cycle       Energy         DIIS error
 ---------------------------------------
    1    -264.4795178387      1.02e-03  Roothaan Step
 ---------------------------------------
  Cycle       Energy         DIIS error
 ---------------------------------------
    1    -264.6008225486      1.17e-03  
    2    -264.6047778260      1.08e-03  Done DIIS. Switching to GDM
 ---------------------------------------
  Cycle       Energy        RMS Gradient
 ---------------------------------------
    1    -264.6047778260      1.72e-02   Normal BFGS step
    2    -264.6045006038      1.74e-02  Line search: overstep
    3    -264.6067029852      3.32e-03   Normal BFGS step
    4    -264.6068252655      1.06e-03   Normal BFGS step
    5    -264.6068431527      8.00e-04   Normal BFGS step
    6    -264.6068471137      2.70e-04   Normal BFGS step
    7    -264.6068475633      1.02e-04   Normal BFGS step
    8    -264.6068476636      3.83e-05   Normal BFGS step
    9    -264.6068476711      2.53e-05   Normal BFGS step
   10    -264.6068476757      3.39e-06   Normal BFGS step
   11    -264.6068476759      1.46e-06   Normal BFGS step
   12    -264.6068476759      3.18e-07   Normal BFGS step
   13    -264.6068476759      7.09e-08  Convergence criterion met
 ---------------------------------------
 SCF time:   CPU 90.88s  wall 12.00s 
(3)  G-ENP(liq) elect-nuc-pol free energy of system     -264.606847676 a.u.
(4)  G-CDS(liq) cavity-dispersion-solvent structure 
     free energy                                                4.1288 kcal/mol
(6)  G-S(liq) free energy of system                     -264.600268038 a.u.
 SCF   energy in the final basis set =     -264.6002680380
 Total energy in the final basis set =     -264.6002680380
 
 --------------------------------------------------------------
 
                    Orbital Energies (a.u.)
 --------------------------------------------------------------
 
 Alpha MOs
 -- Occupied --
-19.3480 -19.2868 -19.2858 -10.4833  -1.2204  -1.1176  -1.0910  -0.6964
 -0.5910  -0.5638  -0.5584  -0.5026  -0.4188  -0.3985  -0.3775  -0.3589
 -- Virtual --
  0.0396   0.0770   0.0875   0.0889   0.1221   0.1630   0.2070   0.2181
  0.2347   0.2457   0.2498   0.2717   0.2952   0.3144   0.3157   0.3305
  0.3392   0.3647   0.3881   0.4121   0.5448   0.5803   0.6430   0.6678
  0.7590   0.7652   0.7714   0.8369   0.8482   0.9025   1.0171   1.0646
  1.0789   1.1007   1.1280   1.1401   1.1466   1.1920   1.2192   1.2296
  1.2349   1.4343   1.4788   1.5607   1.6237   1.6335   1.6349   1.6683
  1.7373   1.7665   1.8413   1.9183   1.9653   1.9716   2.2085   2.2847
  2.2991   2.3436   2.4965   2.5187   2.6732   2.7706   2.8624   2.8940
  3.0836   3.1524   3.2283   3.2445   3.3889   3.4585   3.4914   3.5525
  3.6128   3.6202   3.6915   3.7369   3.7820   3.9837   4.1026   4.1507
  4.3091   5.1093   5.1397   5.1714   5.1798   5.1923   5.2056   5.2083
  5.2179   5.2521   5.2532   5.2889   5.3149   5.3906   5.4639   5.4823
  5.4926   5.5669   5.6484   5.6606   5.6879   5.9188   5.9927   6.1944
  6.3223   6.4869   6.4931   6.9204   6.9383   6.9730   6.9806   7.0375
  7.0487   7.1496   7.2284   7.2691   7.3106   7.3371   7.4278   7.4568
  7.6770   7.7476   7.7766   7.7859   7.8401   7.8798  25.2596  50.5520
 50.6876  50.7069
 --------------------------------------------------------------
 
          Ground-State Mulliken Net Atomic Charges

     Atom                 Charge (a.u.)
  ----------------------------------------
      1 C                     0.531733
      2 O                    -0.706708
      3 O                    -0.468402
      4 H                     0.340688
      5 O                    -0.697310
  ----------------------------------------
[...]
      XYYY     118.3690   YYYY    -519.5629   XXXZ     -21.9183
      XXYZ      13.5108   XYYZ     -20.4892   YYYZ      82.0799
      XXZZ     -55.2645   XYZZ      55.3648   YYZZ    -161.8412
      XZZZ     -19.6033   YZZZ      24.3206   ZZZZ    -143.2174
 -----------------------------------------------------------------
 Calculating analytic gradient of the SCF energy
 Gradient of CDS energy
            1           2           3           4           5
    1  -0.0000273  -0.0002075   0.0000158   0.0000240   0.0001951
    2   0.0026672   0.0003929  -0.0052575   0.0004982   0.0016993
    3  -0.0011835  -0.0020036   0.0019567   0.0000438   0.0011866
 Gradient of SCF Energy
            1           2           3           4           5
    1   0.0005326  -0.0034718   0.0016910  -0.0024584   0.0037065
    2  -0.0213334   0.0015187   0.0028754  -0.0123744   0.0293138
    3   0.0132464  -0.0323198   0.0138204  -0.0179198   0.0231728
 Max gradient component =       3.232E-02
 RMS gradient           =       1.588E-02
 Computing fast CPCM-SWIG gradient
 Updating gradient with PCM contributions...
 -- total gradient after adding PCM contribution --
---------------------------------------------------
  Atom         X              Y              Z     
---------------------------------------------------
   1       0.000043       0.000338       0.000475
   2       0.000075       0.000092       0.000198
   3       0.000003       0.000040       0.000003
   4       0.000060      -0.000013      -0.000009
   5      -0.000181      -0.000456      -0.000666
---------------------------------------------------
 Number of fixed atoms: 0
 Gradient time:  CPU 16.40 s  wall 2.30 s
Dipole drv :
gprntSymmMtrx error report: 
 Final Hessian.
            1           2           3           4           5           6
    1   0.2554479   0.0262325   0.0653030  -0.0925750   0.0029373  -0.0358405
    2   0.0262325   0.5748338   0.1143855   0.0049180  -0.0977950   0.0499740
    3   0.0653030   0.1143855   0.7922475  -0.0363072   0.0324699  -0.4274128
    4  -0.0925750   0.0049180  -0.0363072   0.0392742  -0.0025299   0.0608620
    5   0.0029373  -0.0977950   0.0324699  -0.0025299   0.1123829  -0.0523357
    6  -0.0358405   0.0499740  -0.4274128   0.0608620  -0.0523357   0.5993257
    7  -0.0662717  -0.0017448  -0.0040097   0.0262580   0.0054186  -0.0067331
    8   0.0024469  -0.1630658   0.0568306   0.0043966  -0.0357378   0.0609392
    9  -0.0054327   0.0179092  -0.1206694  -0.0063927   0.0704302  -0.0549608
   10  -0.0028188  -0.0008116   0.0006162  -0.0016763   0.0006718  -0.0003537
   11  -0.0053104  -0.0346394  -0.0353335   0.0000124   0.0088299  -0.0035411
   12   0.0020977   0.0050596   0.0127654  -0.0000952   0.0022995  -0.0033920
   13  -0.0937825  -0.0285942  -0.0256023   0.0287191  -0.0064978  -0.0179347
   14  -0.0263063  -0.2793342  -0.1683522  -0.0067972   0.0123200  -0.0550365
   15  -0.0261275  -0.1873282  -0.2569306  -0.0180669  -0.0528639  -0.1135602
            7           8           9          10          11          12
    1  -0.0662717   0.0024469  -0.0054327  -0.0028188  -0.0053104   0.0020977
    2  -0.0017448  -0.1630658   0.0179092  -0.0008116  -0.0346394   0.0050596
    3  -0.0040097   0.0568306  -0.1206694   0.0006162  -0.0353335   0.0127654
    4   0.0262580   0.0043966  -0.0063927  -0.0016763   0.0000124  -0.0000952
    5   0.0054186  -0.0357378   0.0704302   0.0006718   0.0088299   0.0022995
    6  -0.0067331   0.0609392  -0.0549608  -0.0003537  -0.0035411  -0.0033920
    7   0.0364307   0.0347559   0.0576962  -0.0150751  -0.0293120  -0.0457758
    8   0.0347559   0.5105303   0.1459095  -0.0349490  -0.2085497  -0.2445763
    9   0.0576962   0.1459095   0.4986061  -0.0438978  -0.1941295  -0.3375940
   10  -0.0150751  -0.0349490  -0.0438978   0.0144179   0.0347657   0.0437298
   11  -0.0293120  -0.2085497  -0.1941295   0.0347657   0.2419139   0.2299711
   12  -0.0457758  -0.2445763  -0.3375940   0.0437298   0.2299711   0.3250849
   13   0.0186582  -0.0066504  -0.0019730   0.0051522  -0.0001556   0.0000435
   14  -0.0091176  -0.1031765  -0.0401196   0.0003230  -0.0075547   0.0072462
   15  -0.0011775  -0.0191029   0.0146180  -0.0000946   0.0030330   0.0031357
           13          14          15
    1  -0.0937825  -0.0263063  -0.0261275
    2  -0.0285942  -0.2793342  -0.1873282
    3  -0.0256023  -0.1683522  -0.2569306
    4   0.0287191  -0.0067972  -0.0180669
    5  -0.0064978   0.0123200  -0.0528639
    6  -0.0179347  -0.0550365  -0.1135602
    7   0.0186582  -0.0091176  -0.0011775
    8  -0.0066504  -0.1031765  -0.0191029
    9  -0.0019730  -0.0401196   0.0146180
   10   0.0051522   0.0003230  -0.0000946
   11  -0.0001556  -0.0075547   0.0030330
   12   0.0000435   0.0072462   0.0031357
   13   0.0412530   0.0418981   0.0454664
   14   0.0418981   0.3777455   0.2562621
   15   0.0454664   0.2562621   0.3527370
 ----------------------------------------------------------------
             Standard Nuclear Orientation (Angstroms)
    I     Atom           X                Y                Z
 ----------------------------------------------------------------
    1      C      -0.9037440051     1.7901608924    -0.1570074679
    2      O      -0.7708866412     1.6705390708     1.0804676203
    3      O      -0.9102248658     3.0865070037    -0.6633885253
    4      H      -0.8042113805     3.6847683268     0.0862451204
    5      O      -1.0325666075     0.8993703064    -1.0196253475
 ----------------------------------------------------------------
 Nuclear Repulsion Energy =         113.62426040 hartrees
 There are       16 alpha and       16 beta electrons
 old dipole drv.
            1           2           3           4           5           6
    1   0.5140957   0.1266985   0.3376864  -0.6973567  -0.0006734  -0.1797291
    2   0.1204295   3.0357644   0.2366889  -0.0107084  -1.0320351   0.0198772
    3   0.3357871   0.2633276   3.4296002  -0.1760784   0.1137457  -2.2973766
            7           8           9          10          11          12
    1  -0.5501859  -0.0090553  -0.0066274   0.4375083  -0.0014566  -0.0152463
    2  -0.0103499  -1.8360687   0.3499701  -0.0015170   0.4136016  -0.0045227
    3  -0.0060736   0.3602062  -0.7314563  -0.0156730  -0.0032467   0.2977778
           13          14          15
    1  -0.7040623  -0.1155131  -0.1360838
    2  -0.0978542  -1.5812596  -0.6020139
    3  -0.1379620  -0.7340334  -1.6985449
 New transposed dipole drv.
            1           2           3
    1   0.5140957   0.1204295   0.3357871
    2   0.1266985   3.0357644   0.2633276
    3   0.3376864   0.2366889   3.4296002
    4  -0.6973567  -0.0107084  -0.1760784
    5  -0.0006734  -1.0320351   0.1137457
    6  -0.1797291   0.0198772  -2.2973766
    7  -0.5501859  -0.0103499  -0.0060736
    8  -0.0090553  -1.8360687   0.3602062
    9  -0.0066274   0.3499701  -0.7314563
   10   0.4375083  -0.0015170  -0.0156730
   11  -0.0014566   0.4136016  -0.0032467
   12  -0.0152463  -0.0045227   0.2977778
   13  -0.7040623  -0.0978542  -0.1379620
   14  -0.1155131  -1.5812596  -0.7340334
   15  -0.1360838  -0.6020139  -1.6985449
FINAL TENSOR RESULT:
Order 2, Length 15
    Atom      X          Y          Z
     1 Order 1, Length 15
    Atom      X          Y          Z
     1    2.554478672748496e-01   2.623248437219393e-02   6.530298169329142e-02
     2   -9.257501391435946e-02   2.937252434203679e-03  -3.584050918737062e-02
     3   -6.627172061850051e-02   2.446948434156737e-03  -5.432679960648849e-03
     4   -2.818752676772529e-03  -5.310434653261330e-03   2.097673105375537e-03
     5   -9.378245339481403e-02  -2.630625569435040e-02  -2.612745143668198e-02

Order 1, Length 15
    Atom      X          Y          Z
     1    2.623248437219393e-02   5.748338143983240e-01   1.143854607875551e-01
     2    4.918041550246910e-03  -9.779497901612091e-02   4.997400750563657e-02
     3   -1.744771751230202e-03  -1.630658468625032e-01   1.790923905807540e-02
     4   -8.115536067233146e-04  -3.463940361455480e-02   5.059577690665783e-03
     5   -2.859419721902512e-02  -2.793341642255260e-01  -1.873282159965083e-01

Order 1, Length 15
    Atom      X          Y          Z
     1    6.530298169329142e-02   1.143854607875551e-01   7.922474568220801e-01
     2   -3.630718792993033e-02   3.246987852309875e-02  -4.274127747648734e-01
     3   -4.009713765434933e-03   5.683057215614253e-02  -1.206693886838648e-01
     4    6.162200236704822e-04  -3.533348182521311e-02   1.276539034489696e-02
     5   -2.560229748235546e-02  -1.683522088675861e-01  -2.569306058812827e-01


     2 Order 1, Length 15
    Atom      X          Y          Z
     1   -9.257501391435946e-02   4.918041550246910e-03  -3.630718792993033e-02
     2    3.927420114955792e-02  -2.529878765941131e-03   6.086201452723003e-02
     3    2.625796451759699e-02   4.396581782230978e-03  -6.392709425086116e-03
     4   -1.676280967892267e-03   1.244053608926299e-05  -9.520939052628412e-05
     5    2.871914917037900e-02  -6.797194731952738e-03  -1.806690990882400e-02

Order 1, Length 15
    Atom      X          Y          Z
     1    2.937252434203679e-03  -9.779497901612091e-02   3.246987852309875e-02
     2   -2.529878765941131e-03   1.123828973614168e-01  -5.233565586226216e-02
     3    5.418601861502833e-03  -3.573778185369975e-02   7.043024086316670e-02
     4    6.717942935485239e-04   8.829924143243049e-03   2.299456909283159e-03
     5   -6.497770850828849e-03   1.231996783438264e-02  -5.286394058301622e-02

Order 1, Length 15
    Atom      X          Y          Z
     1   -3.584050918737062e-02   4.997400750563657e-02  -4.274127747648734e-01
     2    6.086201452723003e-02  -5.233565586226216e-02   5.993257060605188e-01
     3   -6.733147077632964e-03   6.093919243476659e-02  -5.496080965027266e-02
     4   -3.536604892966115e-04  -3.541142204351636e-03  -3.391979243789581e-03
     5   -1.793469249618638e-02  -5.503649488612322e-02  -1.135601697394640e-01


     3 Order 1, Length 15
    Atom      X          Y          Z
     1   -6.627172061850051e-02  -1.744771751230202e-03  -4.009713765434933e-03
     2    2.625796451759699e-02   5.418601861502833e-03  -6.733147077632964e-03
     3    3.643068677635651e-02   3.475585032511914e-02   5.769615915201517e-02
     4   -1.507510143880544e-02  -2.931204537531673e-02  -4.577577878662580e-02
     5    1.865820612227572e-02  -9.117639495991620e-03  -1.177517986064434e-03

Order 1, Length 15
    Atom      X          Y          Z
     1    2.446948434156737e-03  -1.630658468625032e-01   5.683057215614253e-02
     2    4.396581782230978e-03  -3.573778185369975e-02   6.093919243476659e-02
     3    3.475585032511914e-02   5.105303264989075e-01   1.459094548429072e-01
     4   -3.494896358048370e-02  -2.085497321327393e-01  -2.445763486019648e-01
     5   -6.650418133177227e-03  -1.031765294702322e-01  -1.910289361912438e-02

Order 1, Length 15
    Atom      X          Y          Z
     1   -5.432679960648849e-03   1.790923905807540e-02  -1.206693886838648e-01
     2   -6.392709425086116e-03   7.043024086316670e-02  -5.496080965027266e-02
     3    5.769615915201517e-02   1.459094548429072e-01   4.986061252238304e-01
     4   -4.389781570938538e-02  -1.941295108883397e-01  -3.375939683928084e-01
     5   -1.972965945206314e-03  -4.011959698489188e-02   1.461804500655325e-02


     4 Order 1, Length 15
    Atom      X          Y          Z
     1   -2.818752676772529e-03  -8.115536067233146e-04   6.162200236704822e-04
     2   -1.676280967892267e-03   6.717942935485239e-04  -3.536604892966115e-04
     3   -1.507510143880544e-02  -3.494896358048370e-02  -4.389781570938538e-02
     4    1.441794915831131e-02   3.476568693306997e-02   4.372981012147319e-02
     5    5.152175720540554e-03   3.230375011829571e-04  -9.456479621921320e-05

Order 1, Length 15
    Atom      X          Y          Z
     1   -5.310434653261330e-03  -3.463940361455480e-02  -3.533348182521311e-02
     2    1.244053608926299e-05   8.829924143243049e-03  -3.541142204351636e-03
     3   -2.931204537531673e-02  -2.085497321327393e-01  -1.941295108883397e-01
     4    3.476568693306997e-02   2.419139408076445e-01   2.299711315756292e-01
     5   -1.556485246981880e-04  -7.554702222984946e-03   3.032979204516850e-03

Order 1, Length 15
    Atom      X          Y          Z
     1    2.097673105375537e-03   5.059577690665783e-03   1.276539034489696e-02
     2   -9.520939052628412e-05   2.299456909283159e-03  -3.391979243789581e-03
     3   -4.577577878662580e-02  -2.445763486019648e-01  -3.375939683928084e-01
     4    4.372981012147319e-02   2.299711315756292e-01   3.250848748403661e-01
     5    4.351046157376263e-05   7.246164555720176e-03   3.135666892013508e-03


     5 Order 1, Length 15
    Atom      X          Y          Z
     1   -9.378245339481403e-02  -2.859419721902512e-02  -2.560229748235546e-02
     2    2.871914917037900e-02  -6.497770850828849e-03  -1.793469249618638e-02
     3    1.865820612227572e-02  -6.650418133177227e-03  -1.972965945206314e-03
     4    5.152175720540554e-03  -1.556485246981880e-04   4.351046157376263e-05
     5    4.125295060009064e-02   4.189805241446370e-02   4.546644265015527e-02

Order 1, Length 15
    Atom      X          Y          Z
     1   -2.630625569435040e-02  -2.793341642255260e-01  -1.683522088675861e-01
     2   -6.797194731952738e-03   1.231996783438264e-02  -5.503649488612322e-02
     3   -9.117639495991620e-03  -1.031765294702322e-01  -4.011959698489188e-02
     4    3.230375011829571e-04  -7.554702222984946e-03   7.246164555720176e-03
     5    4.189805241446370e-02   3.777455158002931e-01   2.562621342396908e-01

Order 1, Length 15
    Atom      X          Y          Z
     1   -2.612745143668198e-02  -1.873282159965083e-01  -2.569306058812827e-01
     2   -1.806690990882400e-02  -5.286394058301622e-02  -1.135601697394640e-01
     3   -1.177517986064434e-03  -1.910289361912438e-02   1.461804500655325e-02
     4   -9.456479621921320e-05   3.032979204516850e-03   3.135666892013508e-03
     5    4.546644265015527e-02   2.562621342396908e-01   3.527370252555905e-01




 # Finishing finite difference calculation for IDERIV #
 ######################################################
 ######################################################
 Requested basis set is 6-311++G(2df,2p)
 There are 38 shells and 146 basis functions
 **********************************************************************
 **                                                                  **
 **                       VIBRATIONAL ANALYSIS                       **
 **                       --------------------                       **
 **                                                                  **
 **        VIBRATIONAL FREQUENCIES (CM**-1) AND NORMAL MODES         **
 **     FORCE CONSTANTS (mDYN/ANGSTROM) AND REDUCED MASSES (AMU)     **
 **                  INFRARED INTENSITIES (KM/MOL)                   **
 **                                                                  **
 **********************************************************************
 

 Mode:                 1                      2                      3
 Frequency:       488.46                 570.90                 661.00
 Force Cnst:      0.1557                 0.9371                 3.3805
 Red. Mass:       1.1074                 4.8800                13.1318
 IR Active:          YES                    YES                    YES
 IR Intens:      191.126                 29.148                 23.199
 Raman Active:       YES                    YES                    YES
               X      Y      Z        X      Y      Z        X      Y      Z
 C         -0.005 -0.001 -0.004   -0.022 -0.071 -0.177   -0.005  0.242 -0.121
 O         -0.019  0.006 -0.001   -0.007  0.242 -0.163   -0.042 -0.422 -0.240
 O         -0.070  0.005  0.013    0.040  0.094  0.266    0.006  0.479 -0.117
 H          0.991 -0.053 -0.091   -0.033 -0.460  0.720    0.009  0.411 -0.051
 O          0.032 -0.006 -0.004   -0.014 -0.254 -0.015    0.040 -0.265  0.450
 TransDip   0.439 -0.026 -0.048   -0.024 -0.170  0.019   -0.000  0.146 -0.049

 Mode:                 4                      5                      6
 Frequency:       824.91                 993.03                1209.49
 Force Cnst:      5.0126                 7.4618                 1.1426
 Red. Mass:      12.5026                12.8430                 1.3257
 IR Active:          YES                    YES                    YES
 IR Intens:       52.793                241.233                291.058
 Raman Active:       YES                    YES                    YES
               X      Y      Z        X      Y      Z        X      Y      Z
 C          0.906 -0.037 -0.101   -0.002 -0.459  0.163    0.004  0.028  0.030
 O         -0.245  0.009  0.027    0.044  0.032  0.381   -0.004  0.021 -0.041
 O         -0.182  0.009  0.020   -0.000  0.527 -0.187    0.010 -0.024  0.101
 H         -0.104  0.009  0.009    0.012  0.378 -0.061   -0.025  0.804 -0.576
 O         -0.246  0.009  0.028   -0.043 -0.238 -0.312   -0.007 -0.068 -0.047
 TransDip   0.231 -0.013 -0.027   -0.000 -0.471  0.161    0.031  0.541  0.073

 Mode:                 7                      8                      9
 Frequency:      1329.09                1617.22                3814.29
 Force Cnst:     12.7421                11.7723                 9.1341
 Red. Mass:      12.2429                 7.6397                 1.0656
 IR Active:          YES                    YES                    YES
 IR Intens:      704.338               1555.497                137.796
 Raman Active:       YES                    YES                    YES
               X      Y      Z        X      Y      Z        X      Y      Z
 C         -0.007  0.656 -0.307    0.078  0.264  0.606   -0.000 -0.002 -0.002
 O          0.046 -0.091  0.448   -0.024  0.003 -0.218   -0.000  0.001 -0.001
 O         -0.003 -0.084  0.005   -0.008  0.003 -0.076   -0.007 -0.040 -0.047
 H          0.005 -0.273  0.189    0.021 -0.534  0.392    0.109  0.631  0.765
 O         -0.038 -0.300 -0.234   -0.027 -0.170 -0.186    0.000  0.001  0.001
 TransDip  -0.012  0.767 -0.366    0.147  0.389  1.193    0.037  0.295  0.230

 STANDARD THERMODYNAMIC QUANTITIES AT   298.15 K  AND     1.00 ATM

   This Molecule has  0 Imaginary Frequencies
   Zero point vibrational energy:       16.452 kcal/mol

   Atom    1 Element C  Has Mass   12.00000
   Atom    2 Element O  Has Mass   15.99491
   Atom    3 Element O  Has Mass   15.99491
   Atom    4 Element H  Has Mass    1.00783
   Atom    5 Element O  Has Mass   15.99491
   Molecular Mass:    60.992560 amu
   Principal axes and moments of inertia in amu*Bohr^2:
                             1           2           3
    Eigenvalues --      146.26935   152.94191   299.21125
          X               0.05279     0.10353     0.99322
          Y               0.98904    -0.14279    -0.03768
          Z               0.13792     0.98432    -0.10993
   Rotational Symmetry Number is   1
   The Molecule is an Asymmetric Top
   Translational Enthalpy:        0.889 kcal/mol
   Rotational Enthalpy:           0.889 kcal/mol
   Vibrational Enthalpy:         16.877 kcal/mol
   gas constant (RT):             0.592 kcal/mol
   Translational Entropy:        38.244  cal/mol.K
   Rotational Entropy:           23.419  cal/mol.K
   Vibrational Entropy:           1.901  cal/mol.K

   Total Enthalpy:               19.247 kcal/mol
   Total Entropy:                63.564  cal/mol.K
 Total job time:  443.94s(wall), 3415.35s(cpu) 
 Fri Sep 29 11:24:37 2023

        *************************************************************
        *                                                           *
        *  Thank you very much for using Q-Chem.  Have a nice day.  *
        *                                                           *
        *************************************************************


