
Running Job 1 of 1 Q_in.in
qchem Q_in.in_35814.0 /scratch/ari.fischer/qChem1912865.hpc-mn1/qchem35814/ 0
/usr/local/qchem-5.4.1/exe/qcprog.exe_s Q_in.in_35814.0 /scratch/ari.fischer/qChem1912865.hpc-mn1/qchem35814/
                  Welcome to Q-Chem
     A Quantum Leap Into The Future Of Chemistry


 Q-Chem 5.4, Q-Chem, Inc., Pleasanton, CA (2021)

 License issued to: Nanyang Technological University (site)

 E. Epifanovsky,  A. T. B. Gilbert,  Xintian Feng,  Joonho Lee,  Yuezhi Mao,  
 N. Mardirossian,  P. Pokhilko,  A. White,  M. Wormit,  M. P. Coons,  
 A. L. Dempwolff,  Zhengting Gan,  D. Hait,  P. R. Horn,  L. D. Jacobson,  
 I. Kaliman,  J. Kussmann,  A. W. Lange,  Ka Un Lao,  D. S. Levine,  Jie Liu,  
 S. C. McKenzie,  A. F. Morrison,  K. Nanda,  F. Plasser,  D. R. Rehn,  
 M. L. Vidal,  Zhi-Qiang You,  Ying Zhu,  B. Alam,  B. Albrecht,  
 A. Aldossary,  E. Alguire,  J. H. Andersen,  D. Barton,  K. Begam,  A. Behn,  
 Y. A. Bernard,  E. J. Berquist,  H. Burton,  A. Carreras,  K. Carter-Fenk,  
 R. Chakraborty,  A. D. Chien,  K. D. Closser,  V. Cofer-Shabica,  
 S. Dasgupta,  Jia Deng,  M. de Wergifosse,  M. Diedenhofen,  Hainam Do,  
 S. Ehlert,  Po-Tung Fang,  S. Fatehi,  Qingguo Feng,  T. Friedhoff,  
 J. Gayvert,  Qinghui Ge,  G. Gidofalvi,  M. Goldey,  J. Gomes,  
 C. Gonzalez-Espinoza,  S. Gulania,  A. Gunina,  M. W. D. Hanson-Heine,  
 P. H. P. Harbach,  A. W. Hauser,  M. F. Herbst,  M. Hernandez Vera,  
 M. Hodecker,  Z. C. Holden,  S. Houck,  Xunkun Huang,  Kerwin Hui,  
 B. C. Huynh,  M. Ivanov,  Hyunjun Ji,  Hanjie Jiang,  B. Kaduk,  S. Kaehler,  
 K. Khistyaev,  Jaehoon Kim,  P. Klunzinger,  Z. Koczor-Benda,  
 Joong Hoon Koh,  D. Kosenkov,  L. Koulias,  T. Kowalczyk,  C. M. Krauter,  
 K. Kue,  A. Kunitsa,  T. Kus,  A. Landau,  K. V. Lawler,  D. Lefrancois,  
 S. Lehtola,  Rain Li,  Yi-Pei Li,  Jiashu Liang,  M. Liebenthal,  
 Hung-Hsuan Lin,  You-Sheng Lin,  Fenglai Liu,  Kuan-Yu Liu,  
 M. Loipersberger,  A. Luenser,  A. Manjanath,  P. Manohar,  E. Mansoor,  
 S. F. Manzer,  Shan-Ping Mao,  A. V. Marenich,  T. Markovich,  S. Mason,  
 S. A. Maurer,  P. F. McLaughlin,  M. F. S. J. Menger,  J.-M. Mewes,  
 S. A. Mewes,  P. Morgante,  J. W. Mullinax,  K. J. Oosterbaan,  G. Paran,  
 Alexander C. Paul,  Suranjan K. Paul,  F. Pavosevic,  Zheng Pei,  S. Prager,  
 E. I. Proynov,  E. Ramos,  B. Rana,  A. E. Rask,  A. Rettig,  R. M. Richard,  
 F. Rob,  E. Rossomme,  T. Scheele,  M. Scheurer,  M. Schneider,  
 N. Sergueev,  S. M. Sharada,  W. Skomorowski,  D. W. Small,  C. J. Stein,  
 Yu-Chuan Su,  E. J. Sundstrom,  Zhen Tao,  J. Thirman,  T. Tsuchimochi,  
 N. M. Tubman,  S. P. Veccham,  O. Vydrov,  J. Wenzel,  J. Witte,  A. Yamada,  
 Kun Yao,  S. Yeganeh,  S. R. Yost,  A. Zech,  Igor Ying Zhang,  Xing Zhang,  
 Yu Zhang,  D. Zuev,  A. Aspuru-Guzik,  A. T. Bell,  N. A. Besley,  
 K. B. Bravaya,  B. R. Brooks,  D. Casanova,  Jeng-Da Chai,  S. Coriani,  
 C. J. Cramer,  A. E. DePrince, III,  R. A. DiStasio Jr.,  A. Dreuw,  
 B. D. Dunietz,  T. R. Furlani,  W. A. Goddard III,  S. Grimme,  
 S. Hammes-Schiffer,  T. Head-Gordon,  W. J. Hehre,  Chao-Ping Hsu,  
 T.-C. Jagau,  Yousung Jung,  A. Klamt,  Jing Kong,  D. S. Lambrecht,  
 WanZhen Liang,  N. J. Mayhall,  C. W. McCurdy,  J. B. Neaton,  
 C. Ochsenfeld,  J. A. Parkhill,  R. Peverati,  V. A. Rassolov,  Yihan Shao,  
 L. V. Slipchenko,  T. Stauch,  R. P. Steele,  J. E. Subotnik,  
 A. J. W. Thom,  A. Tkatchenko,  D. G. Truhlar,  T. Van Voorhis,  
 T. A. Wesolowski,  K. B. Whaley,  H. L. Woodcock III,  P. M. Zimmerman,  
 S. Faraji,  P. M. W. Gill,  M. Head-Gordon,  J. M. Herbert,  A. I. Krylov

 Additional authors for Version 5.4.1: 
 S. Kotaru,  Shaozhi Li,  Xiangyuan Li,  F. Matz,  A. Molle,  Haisheng Ren,  
 Yingli Su,  Hung-Yi Tsai,  C. Utku,  Fang Wang

 Contributors to earlier versions of Q-Chem not listed above: 
 R. D. Adamson,  B. Austin,  R. Baer,  J. Baker,  G. J. O. Beran,  
 K. Brandhorst,  S. T. Brown,  E. F. C. Byrd,  A. K. Chakraborty,  
 G. K. L. Chan,  Chun-Min Chang,  Yunqing Chen,  C.-L. Cheng,  
 Siu Hung Chien,  D. M. Chipman,  D. L. Crittenden,  H. Dachsel,  
 R. J. Doerksen,  A. D. Dutoi,  R. G. Edgar,  J. Fosso-Tande,  
 L. Fusti-Molnar,  D. Ghosh,  A. Ghysels,  A. Golubeva-Zadorozhnaya,  
 J. Gonthier,  M. S. Gordon,  S. R. Gwaltney,  G. Hawkins,  J. E. Herr,  
 A. Heyden,  S. Hirata,  E. G. Hohenstein,  G. Kedziora,  F. J. Keil,  
 C. Kelley,  Jihan Kim,  R. A. King,  R. Z. Khaliullin,  P. P. Korambath,  
 W. Kurlancheek,  A. Laurent,  A. M. Lee,  M. S. Lee,  S. V. Levchenko,  
 Ching Yeh Lin,  D. Liotard,  E. Livshits,  R. C. Lochan,  I. Lotan,  
 L. A. Martinez-Martinez,  P. E. Maslen,  N. Nair,  D. P. O'Neill,  
 D. Neuhauser,  E. Neuscamman,  C. M. Oana,  R. Olivares-Amaya,  R. Olson,  
 T. M. Perrine,  B. Peters,  P. A. Pieniazek,  A. Prociuk,  Y. M. Rhee,  
 J. Ritchie,  M. A. Rohrdanz,  E. Rosta,  N. J. Russ,  H. F. Schaefer III,  
 M. W. Schmidt,  N. E. Schultz,  S. Sharma,  N. Shenvi,  C. D. Sherrill,  
 A. C. Simmonett,  A. Sodt,  T. Stein,  D. Stuck,  K. S. Thanthiriwatte,  
 V. Vanovschi,  L. Vogt,  Tao Wang,  A. Warshel,  M. A. Watson,  
 C. F. Williams,  Q. Wu,  X. Xu,  Jun Yang,  W. Zhang,  Yan Zhao

 Please cite Q-Chem as follows:
 Y. Shao et al., Mol. Phys. 113, 184-215 (2015)
 DOI: 10.1080/00268976.2014.952696

 Q-Chem 5.4.1 for Intel X86 EM64T Linux

 Parts of Q-Chem use Armadillo 9.800.1 (Horizon Scraper).
 http://arma.sourceforge.net/

 Q-Chem begins on Mon Feb  5 12:38:29 2024  

 Host: 
0

     Scratch files written to /scratch/ari.fischer/qChem1912865.hpc-mn1/qchem35814//
 Aug1521 |scratch|qcdevops|jenkins|workspace|build_RNUM 8249   
 Processing $rem in /usr/local/qchem-5.4.1/config/preferences:
 Processing $rem in /home/ari.fischer/.qchemrc:
 Symmetry turned off for PCM/SM12/SMD calculation

 Checking the input file for inconsistencies... 	...done.

--------------------------------------------------------------
User input:
--------------------------------------------------------------
$molecule
0 1
O        -0.6678554955    1.1020238419    0.2612852811
C        -0.3656352537   -0.2442880346    0.5330946241
O        -1.0087321239   -1.1308296264   -0.3381898993
C         1.1413976584   -0.4349469172    0.3500214906
O         1.8712152688    0.6730078684    0.4158507821
O         1.6501434675   -1.5191886229    0.2019956850
H        -1.3958858049    1.3819609322    0.8267715306
H        -1.8915177107   -1.3065397044    0.0066128236
H         1.2716528173    1.4364649447    0.4903475041
H        -0.6024757234   -0.4811881816    1.5723379780
$end

$rem
BASIS = def2-TZVPPD
JOB_TYPE = SP
METHOD = wB97M-V
SCF_ALGORITHM = DIIS_GDM
MAX_SCF_CYCLES = 400
SCF_CONVERGENCE = 7
THRESH = 12
Solvent_method = SMD
$end
--------------------------------------------------------------
 ----------------------------------------------------------------
             Standard Nuclear Orientation (Angstroms)
    I     Atom           X                Y                Z
 ----------------------------------------------------------------
    1      O      -0.6678554955     1.1020238419     0.2612852811
    2      C      -0.3656352537    -0.2442880346     0.5330946241
    3      O      -1.0087321239    -1.1308296264    -0.3381898993
    4      C       1.1413976584    -0.4349469172     0.3500214906
    5      O       1.8712152688     0.6730078684     0.4158507821
    6      O       1.6501434675    -1.5191886229     0.2019956850
    7      H      -1.3958858049     1.3819609322     0.8267715306
    8      H      -1.8915177107    -1.3065397044     0.0066128236
    9      H       1.2716528173     1.4364649447     0.4903475041
   10      H      -0.6024757234    -0.4811881816     1.5723379780
 ----------------------------------------------------------------
 Nuclear Repulsion Energy =         252.32741783 hartrees
 There are       24 alpha and       24 beta electrons
 Requested basis set is def2-TZVPPD
 There are 110 shells and 302 basis functions

 Total QAlloc Memory Limit 288000 MB
 Mega-Array Size       188 MB
 MEM_STATIC part       192 MB
 
 Citation of the SMD model:
 Marenich, A.V.; Cramer, C.J.; Truhlar, D.G.
 J. Phys. Chem. B 2009, 113, 6378-6396.
 iSolventCode=           1
 Solvent: water                                                           
 
 vradii
            1           2           3           4           5           6
    1   1.5200000   1.8500000   1.5200000   1.8500000   1.5200000   1.5200000
            7           8           9          10
    1   1.2000000   1.2000000   1.2000000   1.2000000
 Changing PCM_VDW_RADII to SMD_RADIUS
 Discretize the solute cavity surface with Lebedev spheres
	Using 110 Lebedev grid points for each H atom
	Using 194 Lebedev grid points for other atoms
	Atomic van der Waals radii will be scaled by 1.20
 Remove points where switching function is < 1.0e-08
 Keep 850 surface tesserae and discard 754 interior tesserae
 Molecular Surface Area = 100.712 Angst**2

                       Distance Matrix (Angstroms)
             O (  1)   C (  2)   O (  3)   C (  4)   O (  5)   O (  6)
   C (  2)  1.406333
   O (  3)  2.336921  1.399524
   C (  4)  2.375616  1.530038  2.362403
   O (  5)  2.579695  2.420471  3.480877  1.328357
   O (  6)  3.499627  2.407979  2.740847  1.206778  2.213669
   H (  7)  0.963415  1.947395  2.796630  3.156937  3.368296  4.252682
   H (  8)  2.713556  1.932325  0.963885  3.174300  4.271328  3.553415
   H (  9)  1.981417  2.346800  3.532369  1.881181  0.973597  2.993708
   H ( 10)  2.056622  1.091898  2.058445  2.130092  2.964587  2.833651
             H (  7)   H (  8)   H (  9)
   H (  8)  2.854181
   H (  9)  2.689222  4.214703
   H ( 10)  2.157937  2.189596  2.891445
 
 A cutoff of  1.0D-12 yielded   5856 shell pairs
 There are     44622 function pairs (     57222 Cartesian)
 Smallest overlap matrix eigenvalue = 1.03E-05

 Scale SEOQF with 1.000000e-01/1.000000e-01/1.000000e-01

 Standard Electronic Orientation quadrupole field applied
 Nucleus-field energy     =     0.0000000053 hartrees
 Guess from superposition of atomic densities
 Warning:  Energy on first SCF cycle will be non-variational
 SAD guess density has 48.000000 electrons

 -----------------------------------------------------------------------
  General SCF calculation program by
  Eric Jon Sundstrom, Paul Horn, Yuezhi Mao, Dmitri Zuev, Alec White,
  David Stuck, Shaama M.S., Shane Yost, Joonho Lee, David Small,
  Daniel Levine, Susi Lehtola, Hugh Burton, Evgeny Epifanovsky,
  Bang C. Huynh
 -----------------------------------------------------------------------
 Exchange:     0.1500 Hartree-Fock + 1.0000 wB97M-V + LR-HF
 Correlation:  1.0000 wB97M-V
 Using SG-2 standard quadrature grid
 Nonlocal Correlation:  VV10 with C = 0.0100 and b = 6.00 and scale = 1.00000
 Grid used for NLC:  SG-1 standard quadrature
 
 Citation of the SMD model:
 Marenich, A.V.; Cramer, C.J.; Truhlar, D.G.
 J. Phys. Chem. B 2009, 113, 6378-6396.
 iSolventCode=           1
 Solvent: water                                                           
 
 vradii
            1           2           3           4           5           6
    1   1.5200000   1.8500000   1.5200000   1.8500000   1.5200000   1.5200000
            7           8           9          10
    1   1.2000000   1.2000000   1.2000000   1.2000000
 using 4 threads for integral computing
 -------------------------------------------------------
 OpenMP Integral computing Module                
 Release: version 1.0, May 2013, Q-Chem Inc. Pittsburgh 
 -------------------------------------------------------
 -------------------------------------------------------
 OpenMP BLAS3 based DFT computing Module                
 Release: version 1.0, May 2013, Q-Chem Inc. Pittsburgh 
 -------------------------------------------------------
 A restricted SCF calculation will be
 performed using DIIS, GDM
 SCF converges when RMS gradient is below 1.0e-07
 ---------------------------------------
  Cycle       Energy         DIIS error
 ---------------------------------------
    1    -380.7362714379      2.73e-02  
    2    -379.4325014078      4.50e-03  Done DIIS. Switching to GDM
 ---------------------------------------
  Cycle       Energy        RMS Gradient
 ---------------------------------------
    1    -379.4325014078      9.40e-02   Descent step
    2    -379.5888035598      3.21e-02   Normal BFGS step
    3    -379.6045773997      1.10e-02   Normal BFGS step
    4    -379.6053446490      7.61e-03   Normal BFGS step
    5    -379.6062354144      4.02e-04   Normal BFGS step
    6    -379.6062437010      3.15e-04   Normal BFGS step
    7    -379.6062454583      1.16e-04   Normal BFGS step
    8    -379.6062457717      2.28e-05   Normal BFGS step
    9    -379.6062457992      1.16e-05   Normal BFGS step
   10    -379.6062458018      4.59e-06   Normal BFGS step
   11    -379.6062458022      9.33e-07   Normal BFGS step
   12    -379.6062458022      4.72e-07   Normal BFGS step
   13    -379.6062458023      1.35e-07   Normal BFGS step
   14    -379.6062458023      8.61e-08  Convergence criterion met
 ---------------------------------------
 SCF time:   CPU 656.77s  wall 165.00s 
(3)  G-ENP(liq) elect-nuc-pol free energy of system     -379.606245802 a.u.
(4)  G-CDS(liq) cavity-dispersion-solvent structure 
     free energy                                                4.3442 kcal/mol
(6)  G-S(liq) free energy of system                     -379.599322839 a.u.
 SCF   energy in the final basis set =     -379.5993228387
 Total energy in the final basis set =     -379.5993228387
 
 --------------------------------------------------------------
 
                    Orbital Energies (a.u.)
 --------------------------------------------------------------
 
 Alpha MOs
 -- Occupied --
-19.3869 -19.3584 -19.3535 -19.3365 -10.4927 -10.4661  -1.2560  -1.2061
 -1.1712  -1.1437  -0.8482  -0.7372  -0.6737  -0.6594  -0.6577  -0.5838
 -0.5627  -0.5280  -0.5160  -0.4910  -0.4443  -0.4308  -0.4260  -0.3980
 -- Virtual --
  0.0327   0.0549   0.0584   0.0670   0.0828   0.0874   0.1028   0.1085
  0.1093   0.1108   0.1420   0.1434   0.1516   0.1577   0.1748   0.1877
  0.1964   0.2124   0.2302   0.2412   0.2478   0.2566   0.2630   0.2689
  0.2915   0.2961   0.3071   0.3149   0.3187   0.3291   0.3331   0.3498
  0.3568   0.3683   0.3689   0.3797   0.3849   0.3930   0.3980   0.4059
  0.4141   0.4255   0.4262   0.4374   0.4584   0.4675   0.4730   0.4743
  0.4855   0.5077   0.5188   0.5332   0.5412   0.5541   0.5779   0.5794
  0.5911   0.5995   0.6087   0.6156   0.6255   0.6405   0.6576   0.6625
  0.6748   0.6805   0.6901   0.6976   0.7166   0.7346   0.7436   0.7493
  0.7582   0.7712   0.7910   0.7926   0.8146   0.8325   0.8464   0.8653
  0.8868   0.8974   0.9153   0.9322   0.9546   0.9757   0.9887   1.0055
  1.0160   1.0307   1.0537   1.0715   1.0978   1.1143   1.1338   1.1454
  1.1753   1.2008   1.2127   1.2177   1.2335   1.2520   1.2567   1.2899
  1.3219   1.3413   1.3576   1.3719   1.3777   1.4259   1.4438   1.4764
  1.4845   1.5181   1.5335   1.5834   1.6166   1.6547   1.6885   1.7292
  1.8270   1.8464   1.8545   1.8833   1.8874   1.9292   1.9491   1.9747
  2.0568   2.1209   2.1403   2.1825   2.2012   2.2350   2.2524   2.2876
  2.3125   2.3295   2.3645   2.3830   2.3957   2.4227   2.4314   2.4768
  2.4905   2.5877   2.7052   2.7399   2.7905   2.8472   2.9027   2.9153
  2.9309   2.9607   2.9832   2.9892   3.0300   3.0488   3.1406   3.1745
  3.2046   3.2416   3.2528   3.2666   3.2820   3.3035   3.3106   3.3351
  3.3829   3.3919   3.4101   3.4345   3.4747   3.4774   3.5104   3.5232
  3.5432   3.5761   3.5789   3.5912   3.6292   3.6406   3.6600   3.6876
  3.7160   3.7426   3.7709   3.8226   3.8662   3.9186   3.9539   3.9650
  3.9944   4.0163   4.0724   4.1039   4.1384   4.1575   4.2105   4.2161
  4.2617   4.2880   4.3058   4.3384   4.3710   4.4409   4.4785   4.4922
  4.5936   4.6311   4.7160   4.7215   4.8133   4.8324   4.9097   4.9546
  4.9915   5.0065   5.0396   5.1349   5.1676   5.2085   5.2795   5.2827
  5.3254   5.4433   5.4935   5.5745   5.6177   5.6787   5.7176   5.7467
  5.8461   5.8687   5.9220   5.9924   6.0669   6.1788   6.2548   6.2852
  6.3272   6.5074   6.5186   6.5982   6.6480   6.6604   6.6882   6.7256
  6.7532   6.7613   6.7721   6.8419   6.8609   6.8752   6.8935   6.9103
  6.9853   7.0216   7.0541   7.0892   7.1712   7.1952   7.2607   7.2978
  7.3688   7.4340   7.5140   7.5286   7.5349   7.7299   7.7521   7.8065
 23.4457  23.8239  44.6517  44.6904  44.7709  44.8635
 --------------------------------------------------------------
 
          Ground-State Mulliken Net Atomic Charges

     Atom                 Charge (a.u.)
  ----------------------------------------
      1 O                    -0.496993
      2 C                     0.561960
      3 O                    -0.460365
      4 C                     0.397826
      5 O                    -0.400534
      6 O                    -0.668646
      7 H                     0.216847
      8 H                     0.210715
      9 H                     0.289651
     10 H                     0.349539
  ----------------------------------------
  Sum of atomic charges =     0.000000

 -----------------------------------------------------------------
                    Cartesian Multipole Moments
 -----------------------------------------------------------------
    Charge (ESU x 10^10)
                 0.0000
    Dipole Moment (Debye)
         X      -6.2810      Y       4.1555      Z       4.1180
       Tot       8.5835
    Quadrupole Moments (Debye-Ang)
        XX     -36.1155     XY       6.3668     YY     -38.0861
        XZ      -4.8837     YZ       1.0386     ZZ     -32.0624
    Octopole Moments (Debye-Ang^2)
       XXX     -79.1494    XXY      14.4023    XYY     -26.0585
       YYY      44.2932    XXZ      -5.2034    XYZ      -0.1852
       YYZ      -3.7178    XZZ     -15.2240    YZZ       9.9318
       ZZZ     -21.3725
    Hexadecapole Moments (Debye-Ang^3)
      XXXX    -376.7583   XXXY      40.6946   XXYY     -96.8164
      XYYY      40.9173   YYYY    -246.9822   XXXZ     -36.6330
      XXYZ       2.5251   XYYZ     -13.6272   YYYZ      -0.4236
      XXZZ     -69.1537   XYZZ       3.2692   YYZZ     -49.1993
      XZZZ     -27.2801   YZZZ      -8.4109   ZZZZ     -63.8600
 -----------------------------------------------------------------
 Total job time:  166.20s(wall), 659.27s(cpu) 
 Mon Feb  5 12:41:15 2024

        *************************************************************
        *                                                           *
        *  Thank you very much for using Q-Chem.  Have a nice day.  *
        *                                                           *
        *************************************************************


