
Running Job 1 of 2 Q_in.in
qchem Q_in.in_256074.0 /scratch/ari.fischer/qChem1647372.hpc-mn1/qchem256074/ 0
/usr/local/qchem-5.4.1/exe/qcprog.exe_s Q_in.in_256074.0 /scratch/ari.fischer/qChem1647372.hpc-mn1/qchem256074/
                  Welcome to Q-Chem
     A Quantum Leap Into The Future Of Chemistry


 Q-Chem 5.4, Q-Chem, Inc., Pleasanton, CA (2021)

 License issued to: Nanyang Technological University (site)

 E. Epifanovsky,  A. T. B. Gilbert,  Xintian Feng,  Joonho Lee,  Yuezhi Mao,  
 N. Mardirossian,  P. Pokhilko,  A. White,  M. Wormit,  M. P. Coons,  
 A. L. Dempwolff,  Zhengting Gan,  D. Hait,  P. R. Horn,  L. D. Jacobson,  
 I. Kaliman,  J. Kussmann,  A. W. Lange,  Ka Un Lao,  D. S. Levine,  Jie Liu,  
 S. C. McKenzie,  A. F. Morrison,  K. Nanda,  F. Plasser,  D. R. Rehn,  
 M. L. Vidal,  Zhi-Qiang You,  Ying Zhu,  B. Alam,  B. Albrecht,  
 A. Aldossary,  E. Alguire,  J. H. Andersen,  D. Barton,  K. Begam,  A. Behn,  
 Y. A. Bernard,  E. J. Berquist,  H. Burton,  A. Carreras,  K. Carter-Fenk,  
 R. Chakraborty,  A. D. Chien,  K. D. Closser,  V. Cofer-Shabica,  
 S. Dasgupta,  Jia Deng,  M. de Wergifosse,  M. Diedenhofen,  Hainam Do,  
 S. Ehlert,  Po-Tung Fang,  S. Fatehi,  Qingguo Feng,  T. Friedhoff,  
 J. Gayvert,  Qinghui Ge,  G. Gidofalvi,  M. Goldey,  J. Gomes,  
 C. Gonzalez-Espinoza,  S. Gulania,  A. Gunina,  M. W. D. Hanson-Heine,  
 P. H. P. Harbach,  A. W. Hauser,  M. F. Herbst,  M. Hernandez Vera,  
 M. Hodecker,  Z. C. Holden,  S. Houck,  Xunkun Huang,  Kerwin Hui,  
 B. C. Huynh,  M. Ivanov,  Hyunjun Ji,  Hanjie Jiang,  B. Kaduk,  S. Kaehler,  
 K. Khistyaev,  Jaehoon Kim,  P. Klunzinger,  Z. Koczor-Benda,  
 Joong Hoon Koh,  D. Kosenkov,  L. Koulias,  T. Kowalczyk,  C. M. Krauter,  
 K. Kue,  A. Kunitsa,  T. Kus,  A. Landau,  K. V. Lawler,  D. Lefrancois,  
 S. Lehtola,  Rain Li,  Yi-Pei Li,  Jiashu Liang,  M. Liebenthal,  
 Hung-Hsuan Lin,  You-Sheng Lin,  Fenglai Liu,  Kuan-Yu Liu,  
 M. Loipersberger,  A. Luenser,  A. Manjanath,  P. Manohar,  E. Mansoor,  
 S. F. Manzer,  Shan-Ping Mao,  A. V. Marenich,  T. Markovich,  S. Mason,  
 S. A. Maurer,  P. F. McLaughlin,  M. F. S. J. Menger,  J.-M. Mewes,  
 S. A. Mewes,  P. Morgante,  J. W. Mullinax,  K. J. Oosterbaan,  G. Paran,  
 Alexander C. Paul,  Suranjan K. Paul,  F. Pavosevic,  Zheng Pei,  S. Prager,  
 E. I. Proynov,  E. Ramos,  B. Rana,  A. E. Rask,  A. Rettig,  R. M. Richard,  
 F. Rob,  E. Rossomme,  T. Scheele,  M. Scheurer,  M. Schneider,  
 N. Sergueev,  S. M. Sharada,  W. Skomorowski,  D. W. Small,  C. J. Stein,  
 Yu-Chuan Su,  E. J. Sundstrom,  Zhen Tao,  J. Thirman,  T. Tsuchimochi,  
 N. M. Tubman,  S. P. Veccham,  O. Vydrov,  J. Wenzel,  J. Witte,  A. Yamada,  
 Kun Yao,  S. Yeganeh,  S. R. Yost,  A. Zech,  Igor Ying Zhang,  Xing Zhang,  
 Yu Zhang,  D. Zuev,  A. Aspuru-Guzik,  A. T. Bell,  N. A. Besley,  
 K. B. Bravaya,  B. R. Brooks,  D. Casanova,  Jeng-Da Chai,  S. Coriani,  
 C. J. Cramer,  A. E. DePrince, III,  R. A. DiStasio Jr.,  A. Dreuw,  
 B. D. Dunietz,  T. R. Furlani,  W. A. Goddard III,  S. Grimme,  
 S. Hammes-Schiffer,  T. Head-Gordon,  W. J. Hehre,  Chao-Ping Hsu,  
 T.-C. Jagau,  Yousung Jung,  A. Klamt,  Jing Kong,  D. S. Lambrecht,  
 WanZhen Liang,  N. J. Mayhall,  C. W. McCurdy,  J. B. Neaton,  
 C. Ochsenfeld,  J. A. Parkhill,  R. Peverati,  V. A. Rassolov,  Yihan Shao,  
 L. V. Slipchenko,  T. Stauch,  R. P. Steele,  J. E. Subotnik,  
 A. J. W. Thom,  A. Tkatchenko,  D. G. Truhlar,  T. Van Voorhis,  
 T. A. Wesolowski,  K. B. Whaley,  H. L. Woodcock III,  P. M. Zimmerman,  
 S. Faraji,  P. M. W. Gill,  M. Head-Gordon,  J. M. Herbert,  A. I. Krylov

 Additional authors for Version 5.4.1: 
 S. Kotaru,  Shaozhi Li,  Xiangyuan Li,  F. Matz,  A. Molle,  Haisheng Ren,  
 Yingli Su,  Hung-Yi Tsai,  C. Utku,  Fang Wang

 Contributors to earlier versions of Q-Chem not listed above: 
 R. D. Adamson,  B. Austin,  R. Baer,  J. Baker,  G. J. O. Beran,  
 K. Brandhorst,  S. T. Brown,  E. F. C. Byrd,  A. K. Chakraborty,  
 G. K. L. Chan,  Chun-Min Chang,  Yunqing Chen,  C.-L. Cheng,  
 Siu Hung Chien,  D. M. Chipman,  D. L. Crittenden,  H. Dachsel,  
 R. J. Doerksen,  A. D. Dutoi,  R. G. Edgar,  J. Fosso-Tande,  
 L. Fusti-Molnar,  D. Ghosh,  A. Ghysels,  A. Golubeva-Zadorozhnaya,  
 J. Gonthier,  M. S. Gordon,  S. R. Gwaltney,  G. Hawkins,  J. E. Herr,  
 A. Heyden,  S. Hirata,  E. G. Hohenstein,  G. Kedziora,  F. J. Keil,  
 C. Kelley,  Jihan Kim,  R. A. King,  R. Z. Khaliullin,  P. P. Korambath,  
 W. Kurlancheek,  A. Laurent,  A. M. Lee,  M. S. Lee,  S. V. Levchenko,  
 Ching Yeh Lin,  D. Liotard,  E. Livshits,  R. C. Lochan,  I. Lotan,  
 L. A. Martinez-Martinez,  P. E. Maslen,  N. Nair,  D. P. O'Neill,  
 D. Neuhauser,  E. Neuscamman,  C. M. Oana,  R. Olivares-Amaya,  R. Olson,  
 T. M. Perrine,  B. Peters,  P. A. Pieniazek,  A. Prociuk,  Y. M. Rhee,  
 J. Ritchie,  M. A. Rohrdanz,  E. Rosta,  N. J. Russ,  H. F. Schaefer III,  
 M. W. Schmidt,  N. E. Schultz,  S. Sharma,  N. Shenvi,  C. D. Sherrill,  
 A. C. Simmonett,  A. Sodt,  T. Stein,  D. Stuck,  K. S. Thanthiriwatte,  
 V. Vanovschi,  L. Vogt,  Tao Wang,  A. Warshel,  M. A. Watson,  
 C. F. Williams,  Q. Wu,  X. Xu,  Jun Yang,  W. Zhang,  Yan Zhao

 Please cite Q-Chem as follows:
 Y. Shao et al., Mol. Phys. 113, 184-215 (2015)
 DOI: 10.1080/00268976.2014.952696

 Q-Chem 5.4.1 for Intel X86 EM64T Linux

 Parts of Q-Chem use Armadillo 9.800.1 (Horizon Scraper).
 http://arma.sourceforge.net/

 Q-Chem begins on Tue Jul 25 21:01:35 2023  

 Host: 
0

     Scratch files written to /scratch/ari.fischer/qChem1647372.hpc-mn1/qchem256074//
 Aug1521 |scratch|qcdevops|jenkins|workspace|build_RNUM 8249   
 Processing $rem in /usr/local/qchem-5.4.1/config/preferences:
 Processing $rem in /home/ari.fischer/.qchemrc:
 Symmetry turned off for PCM/SM12/SMD calculation


!!********************************************.
!!******************Warning*******************.
!!Desired Analytical derivatives not available.
!!Finite difference job might take a long time.
!!********************************************.
!!********************************************.


 2-order derivative to be evaluated numerically with 1-order analytical derivatives

 Checking the input file for inconsistencies... 	...done.

--------------------------------------------------------------
User input:
--------------------------------------------------------------
$molecule
0 2
H         0.9949125964   -0.2747980045   -0.5238965483
O         0.5641584545    0.1829249315    0.2143091671
O        -0.7834916298   -0.1575927451    0.0736512841
H        -1.1135005784    0.4095156323   -0.7359600382
O        -1.6722188213    1.5031128363   -1.3322003106
H        -1.3466972213    2.2559545495   -0.8101570541
$end

$rem
BASIS = 6-311++G(2df,2p)
GUI = 2
JOB_TYPE = Frequency
METHOD = wB97M-V
SOLVENT_METHOD = SMD
SCF_ALGORITHM = DIIS_GDM
MAX_SCF_CYCLES = 400
SCF_CONVERGENCE = 7
THRESH = 12
UNRESTRICTED = 1
SYMMETRY_IGNORE = 1
$end

--------------------------------------------------------------
 ----------------------------------------------------------------
             Standard Nuclear Orientation (Angstroms)
    I     Atom           X                Y                Z
 ----------------------------------------------------------------
    1      H       0.9949125964    -0.2747980045    -0.5238965483
    2      O       0.5641584545     0.1829249315     0.2143091671
    3      O      -0.7834916298    -0.1575927451     0.0736512841
    4      H      -1.1135005784     0.4095156323    -0.7359600382
    5      O      -1.6722188213     1.5031128363    -1.3322003106
    6      H      -1.3466972213     2.2559545495    -0.8101570541
 ----------------------------------------------------------------
 Nuclear Repulsion Energy =          75.14767097 hartrees
 There are       14 alpha and       13 beta electrons
 Requested basis set is 6-311++G(2df,2p)
 There are 42 shells and 132 basis functions

 Total QAlloc Memory Limit 288000 MB
 Mega-Array Size       188 MB
 MEM_STATIC part       192 MB
 
 Citation of the SMD model:
 Marenich, A.V.; Cramer, C.J.; Truhlar, D.G.
 J. Phys. Chem. B 2009, 113, 6378-6396.
 iSolventCode=           1
 Solvent: water                                                           
 
 vradii
            1           2           3           4           5           6
    1   1.2000000   1.5200000   1.5200000   1.2000000   1.5200000   1.2000000
 Changing PCM_VDW_RADII to SMD_RADIUS
 Discretize the solute cavity surface with Lebedev spheres
	Using 110 Lebedev grid points for each H atom
	Using 194 Lebedev grid points for other atoms
	Atomic van der Waals radii will be scaled by 1.20
 Remove points where switching function is < 1.0e-08
 Keep 590 surface tesserae and discard 322 interior tesserae
 Molecular Surface Area = 71.311 Angst**2

                       Distance Matrix (Angstroms)
             H (  1)   O (  2)   O (  3)   H (  4)   O (  5)
   O (  2)  0.969540
   O (  3)  1.879766  1.397103
   H (  4)  2.226805  1.941364  1.042108
   O (  5)  3.305739  3.022577  2.350361  1.365146
   H (  6)  3.459738  2.999725  2.631260  1.862585  0.972247
 
 A cutoff of  1.0D-12 yielded    875 shell pairs
 There are      8737 function pairs (     10882 Cartesian)
 Smallest overlap matrix eigenvalue = 8.76E-04
 Guess from superposition of atomic densities
 Warning:  Energy on first SCF cycle will be non-variational
 SAD guess density has 27.000000 electrons

 -----------------------------------------------------------------------
  General SCF calculation program by
  Eric Jon Sundstrom, Paul Horn, Yuezhi Mao, Dmitri Zuev, Alec White,
  David Stuck, Shaama M.S., Shane Yost, Joonho Lee, David Small,
  Daniel Levine, Susi Lehtola, Hugh Burton, Evgeny Epifanovsky,
  Bang C. Huynh
 -----------------------------------------------------------------------
 Exchange:     0.1500 Hartree-Fock + 1.0000 wB97M-V + LR-HF
 Correlation:  1.0000 wB97M-V
 Using SG-2 standard quadrature grid
 Nonlocal Correlation:  VV10 with C = 0.0100 and b = 6.00 and scale = 1.00000
 Grid used for NLC:  SG-1 standard quadrature
 using 8 threads for integral computing
 -------------------------------------------------------
 OpenMP Integral computing Module                
 Release: version 1.0, May 2013, Q-Chem Inc. Pittsburgh 
 -------------------------------------------------------
 
 Citation of the SMD model:
 Marenich, A.V.; Cramer, C.J.; Truhlar, D.G.
 J. Phys. Chem. B 2009, 113, 6378-6396.
 iSolventCode=           1
 Solvent: water                                                           
 
 vradii
            1           2           3           4           5           6
    1   1.2000000   1.5200000   1.5200000   1.2000000   1.5200000   1.2000000
 -------------------------------------------------------
 OpenMP BLAS3 based DFT computing Module                
 Release: version 1.0, May 2013, Q-Chem Inc. Pittsburgh 
 -------------------------------------------------------
 A unrestricted SCF calculation will be
 performed using DIIS, GDM
 SCF converges when RMS gradient is below 1.0e-07
 ---------------------------------------
  Cycle       Energy         DIIS error
 ---------------------------------------
    1    -227.2325852084      1.72e-02  
    2    -227.1869557507      4.01e-03  Done DIIS. Switching to GDM
 ---------------------------------------
  Cycle       Energy        RMS Gradient
 ---------------------------------------
    1    -227.1869557507      3.63e-01   Descent step
    2    -227.2865880946      7.20e-02   Normal BFGS step
    3    -227.3055978190      3.63e-02   Normal BFGS step
    4    -227.3079918582      2.36e-02   Normal BFGS step
    5    -227.3096831804      1.14e-02   Normal BFGS step
    6    -227.3111280595      7.00e-03   Normal BFGS step
    7    -227.3120942142      1.12e-02   Normal BFGS step
    8    -227.3125962584      5.85e-03   Normal BFGS step
    9    -227.3127496171      3.19e-03   Normal BFGS step
   10    -227.3127793766      2.50e-03   Normal BFGS step
   11    -227.3128034344      1.49e-03   Normal BFGS step
   12    -227.3128107403      1.37e-03   Normal BFGS step
   13    -227.3128184761      1.10e-03   Normal BFGS step
   14    -227.3128271011      1.22e-03   Normal BFGS step
   15    -227.3128359849      1.17e-03   Normal BFGS step
   16    -227.3128423642      8.34e-04   Normal BFGS step
   17    -227.3128451021      4.15e-04   Normal BFGS step
   18    -227.3128458088      1.71e-04   Normal BFGS step
   19    -227.3128459830      1.06e-04   Normal BFGS step
   20    -227.3128460329      5.37e-05   Normal BFGS step
   21    -227.3128460464      1.59e-05   Normal BFGS step
   22    -227.3128460486      4.16e-06   Normal BFGS step
   23    -227.3128460488      2.62e-06   Normal BFGS step
   24    -227.3128460489      2.05e-06   Normal BFGS step
   25    -227.3128460489      2.76e-07   Normal BFGS step
   26    -227.3128460489      1.43e-07   Normal BFGS step
   27    -227.3128460489      7.12e-08  Convergence criterion met
 ---------------------------------------
 SCF time:   CPU 167.82s  wall 21.00s 
<S^2> =          0.757987224
(3)  G-ENP(liq) elect-nuc-pol free energy of system     -227.312846049 a.u.
(4)  G-CDS(liq) cavity-dispersion-solvent structure 
     free energy                                                1.5115 kcal/mol
(6)  G-S(liq) free energy of system                     -227.310437390 a.u.
 SCF   energy in the final basis set =     -227.3104373896
 Total energy in the final basis set =     -227.3104373896
 
 --------------------------------------------------------------
 
                    Orbital Energies (a.u.)
 --------------------------------------------------------------
 
 Alpha MOs
 -- Occupied --
-19.4167 -19.4107 -19.3928  -1.2881  -1.1482  -1.0252  -0.6994  -0.6232
 -0.5896  -0.5700  -0.5078  -0.4667  -0.4353  -0.4088
 -- Virtual --
  0.0318   0.0506   0.0661   0.1392   0.1665   0.1930   0.2079   0.2152
  0.2222   0.2263   0.2460   0.2566   0.2783   0.2865   0.2971   0.3139
  0.3672   0.3725   0.4186   0.5739   0.6022   0.6348   0.7506   0.7782
  0.8181   0.8332   0.8599   0.9370   0.9668   0.9917   1.0435   1.0750
  1.0969   1.1194   1.1513   1.1750   1.1953   1.3970   1.4199   1.4541
  1.5254   1.5361   1.5583   1.6096   1.6359   1.7876   1.8407   1.8678
  1.9377   1.9714   2.0906   2.2228   2.2417   2.3082   2.3520   2.4755
  2.5130   2.6388   2.7529   2.7870   2.9043   3.6826   3.7084   3.7725
  3.7881   3.8684   3.9247   4.1013   4.1938   4.2217   4.6206   4.6366
  4.7013   4.8318   4.9574   5.0301   5.0569   5.0691   5.0929   5.1201
  5.1299   5.1564   5.2318   5.2684   5.2810   5.3030   5.3373   5.4070
  5.4609   5.5446   5.6065   5.6460   5.6868   5.7541   6.1480   6.1599
  6.8189   6.8765   6.8883   6.9149   6.9492   6.9645   6.9885   7.0729
  7.1494   7.1821   7.2025   7.3329   7.3556   7.4344   7.5476   7.6052
  7.6954   7.8707   8.0237  50.3820  50.4230  50.4556
 
 Beta MOs
 -- Occupied --
-19.4090 -19.4088 -19.3735  -1.2784  -1.1002  -1.0103  -0.6833  -0.5996
 -0.5665  -0.5597  -0.4467  -0.4254  -0.3976
 -- Virtual --
 -0.1073   0.0330   0.0519   0.0678   0.1440   0.1700   0.1970   0.2093
  0.2190   0.2249   0.2307   0.2483   0.2580   0.2795   0.2882   0.3006
  0.3171   0.3687   0.3874   0.4216   0.5829   0.6047   0.6418   0.7588
  0.7803   0.8199   0.8344   0.8663   0.9413   0.9701   0.9993   1.0475
  1.0785   1.1238   1.1284   1.1593   1.1820   1.2049   1.4011   1.4328
  1.4668   1.5390   1.5473   1.5738   1.6166   1.6455   1.8074   1.8583
  1.8794   1.9584   1.9765   2.1073   2.2267   2.2475   2.3179   2.3569
  2.4866   2.5240   2.6473   2.7719   2.7924   2.8974   3.6857   3.7172
  3.7792   3.7866   3.8660   3.9242   4.1054   4.2004   4.2262   4.6245
  4.6467   4.7062   4.8406   4.9670   5.0830   5.1107   5.1147   5.1445
  5.1469   5.1487   5.1906   5.2394   5.2910   5.3214   5.3283   5.3554
  5.4210   5.4775   5.5648   5.6264   5.6660   5.7134   5.7805   6.1515
  6.1744   6.8702   6.8936   6.9331   6.9546   6.9724   6.9922   7.0276
  7.1101   7.1885   7.2085   7.2273   7.3442   7.3863   7.4650   7.5560
  7.6509   7.7521   7.8850   8.0311  50.3892  50.4280  50.4644
 --------------------------------------------------------------
 
          Ground-State Mulliken Net Atomic Charges

     Atom                 Charge (a.u.)    Spin (a.u.)
  --------------------------------------------------------
      1 H                     0.340871      -0.001515
      2 O                    -0.286398       0.059213
      3 O                    -0.306452       0.248585
      4 H                     0.381803      -0.041443
      5 O                    -0.477000       0.748547
      6 H                     0.347177      -0.013388
  --------------------------------------------------------
  Sum of atomic charges =     0.000000
  Sum of spin   charges =     1.000000

 -----------------------------------------------------------------
                    Cartesian Multipole Moments
 -----------------------------------------------------------------
    Charge (ESU x 10^10)
                 0.0000
    Dipole Moment (Debye)
         X       1.8894      Y       0.8797      Z      -1.4056
       Tot       2.5138
    Quadrupole Moments (Debye-Ang)
        XX     -20.2797     XY      -1.8575     YY     -13.3701
        XZ      -3.0313     YZ       0.8666     ZZ     -20.3822
    Octopole Moments (Debye-Ang^2)
       XXX      46.4258    XXY     -13.2223    XYY       6.6046
       YYY     -12.9970    XXZ       9.8211    XYZ      -1.6718
       YYZ       5.0054    XZZ      16.3024    YZZ     -13.0300
       ZZZ      24.6323
    Hexadecapole Moments (Debye-Ang^3)
      XXXX    -176.5631   XXXY      55.8659   XXYY     -42.6719
      XYYY      24.6228   YYYY     -63.2624   XXXZ     -55.1587
      XXYZ      19.1083   XYYZ     -13.3971   YYYZ      26.6428
      XXZZ     -47.8338   XYZZ      19.5980   YYZZ     -33.4224
      XZZZ     -49.0065   YZZZ      42.6807   ZZZZ     -90.4185
 -----------------------------------------------------------------
 Calculating analytic gradient of the SCF energy
 Gradient of CDS energy
            1           2           3           4           5           6
    1   0.0004009  -0.0002707   0.0000868  -0.0001475  -0.0000675  -0.0000021
    2  -0.0001709   0.0000131   0.0000855  -0.0002566  -0.0001440   0.0004728
    3  -0.0002319   0.0002035   0.0002543  -0.0002774  -0.0000434   0.0000949
 Gradient of SCF Energy
            1           2           3           4           5           6
    1   0.0072408  -0.0056536  -0.0016437   0.0030429  -0.0087484   0.0057620
    2  -0.0067122   0.0076686  -0.0050554   0.0022419  -0.0093854   0.0112425
    3  -0.0141839   0.0149161   0.0058837  -0.0042777  -0.0092225   0.0068844
 Max gradient component =       1.492E-02
 RMS gradient           =       8.042E-03
 Computing fast CPCM-SWIG gradient
 Updating gradient with PCM contributions...
 -- total gradient after adding PCM contribution --
---------------------------------------------------
  Atom         X              Y              Z     
---------------------------------------------------
   1      -0.000018      -0.000016      -0.000033
   2       0.000002       0.000009      -0.000031
   3       0.000007       0.000112      -0.000034
   4      -0.000000      -0.000034       0.000070
   5       0.000019      -0.000078       0.000072
   6      -0.000010       0.000006      -0.000044
---------------------------------------------------
 Number of fixed atoms: 0
 Gradient time:  CPU 14.37 s  wall 2.17 s
 ######################################################
 ######################################################
 # Starting finite difference calculation for IDERIV  #
 Finite diff step size:  1.88973e-03 a.u.
 ----------------------------------------------------------------
             Standard Nuclear Orientation (Angstroms)
    I     Atom           X                Y                Z
 ----------------------------------------------------------------
    1      H       0.9959125964    -0.2747980045    -0.5238965483
    2      O       0.5641584545     0.1829249315     0.2143091671
    3      O      -0.7834916298    -0.1575927451     0.0736512841
    4      H      -1.1135005784     0.4095156323    -0.7359600382
    5      O      -1.6722188213     1.5031128363    -1.3322003106
    6      H      -1.3466972213     2.2559545495    -0.8101570541
 ----------------------------------------------------------------
 Nuclear Repulsion Energy =          75.14409277 hartrees
 There are       14 alpha and       13 beta electrons
 Discretize the solute cavity surface with Lebedev spheres
	Using 110 Lebedev grid points for each H atom
	Using 194 Lebedev grid points for other atoms
	Atomic van der Waals radii will be scaled by 1.20
 Remove points where switching function is < 1.0e-08
 Keep 590 surface tesserae and discard 322 interior tesserae
 Molecular Surface Area = 71.316 Angst**2

                       Distance Matrix (Angstroms)
             H (  1)   O (  2)   O (  3)   H (  4)   O (  5)
   O (  2)  0.969984
   O (  3)  1.880713  1.397103
   H (  4)  2.227752  1.941364  1.042108
   O (  5)  3.306546  3.022577  2.350361  1.365146
   H (  6)  3.460415  2.999725  2.631260  1.862585  0.972247
 
 Requested basis set is 6-311++G(2df,2p)
 There are 42 shells and 132 basis functions
 A cutoff of  1.0D-12 yielded    875 shell pairs
 There are      8737 function pairs (     10882 Cartesian)
 Smallest overlap matrix eigenvalue = 8.76E-04
 Guess MOs from SCF MO coefficient file

 -----------------------------------------------------------------------
  General SCF calculation program by
  Eric Jon Sundstrom, Paul Horn, Yuezhi Mao, Dmitri Zuev, Alec White,
  David Stuck, Shaama M.S., Shane Yost, Joonho Lee, David Small,
  Daniel Levine, Susi Lehtola, Hugh Burton, Evgeny Epifanovsky,
  Bang C. Huynh
 -----------------------------------------------------------------------
 Exchange:     0.1500 Hartree-Fock + 1.0000 wB97M-V + LR-HF
 Correlation:  1.0000 wB97M-V
 Using SG-2 standard quadrature grid
 Nonlocal Correlation:  VV10 with C = 0.0100 and b = 6.00 and scale = 1.00000
 Grid used for NLC:  SG-1 standard quadrature
 
 Citation of the SMD model:
 Marenich, A.V.; Cramer, C.J.; Truhlar, D.G.
 J. Phys. Chem. B 2009, 113, 6378-6396.
 iSolventCode=           1
 Solvent: water                                                           
 
 vradii
            1           2           3           4           5           6
    1   1.2000000   1.5200000   1.5200000   1.2000000   1.5200000   1.2000000
 -------------------------------------------------------
 OpenMP BLAS3 based DFT computing Module                
 Release: version 1.0, May 2013, Q-Chem Inc. Pittsburgh 
 -------------------------------------------------------
 A unrestricted SCF calculation will be
 performed using Roothaan-Hall, DIIS, GDM
 SCF converges when RMS gradient is below 1.0e-07
 ---------------------------------------
  Cycle       Energy         DIIS error
 ---------------------------------------
    1    -227.2893823927      4.86e-04  Roothaan Step
 ---------------------------------------
  Cycle       Energy         DIIS error
 ---------------------------------------
    1    -227.3096234935      5.01e-04  
    2    -227.3123929413      2.57e-04  Done DIIS. Switching to GDM
 ---------------------------------------
  Cycle       Energy        RMS Gradient
 ---------------------------------------
    1    -227.3123929413      4.99e-03   Normal BFGS step
    2    -227.3126032059      4.92e-03   Normal BFGS step
    3    -227.3128346767      6.42e-04   Normal BFGS step
    4    -227.3128373748      1.04e-03   Normal BFGS step
    5    -227.3128458507      3.67e-04   Normal BFGS step
    6    -227.3128461411      2.28e-04   Normal BFGS step
    7    -227.3128463555      2.35e-04   Normal BFGS step
    8    -227.3128464666      7.68e-05   Normal BFGS step
    9    -227.3128465290      6.89e-05   Normal BFGS step
   10    -227.3128465500      3.48e-05   Normal BFGS step
   11    -227.3128465549      2.45e-05   Normal BFGS step
   12    -227.3128465574      1.91e-05   Normal BFGS step
   13    -227.3128465587      1.84e-05   Normal BFGS step
   14    -227.3128465609      1.81e-05   Normal BFGS step
   15    -227.3128465632      1.49e-05   Normal BFGS step
   16    -227.3128465651      1.23e-05   Normal BFGS step
   17    -227.3128465658      6.08e-06   Normal BFGS step
   18    -227.3128465660      1.85e-06   Normal BFGS step
   19    -227.3128465660      6.81e-07   Normal BFGS step
   20    -227.3128465660      3.92e-07   Normal BFGS step
   21    -227.3128465660      2.51e-07   Normal BFGS step
   22    -227.3128465660      1.24e-07   Normal BFGS step
   23    -227.3128465660      3.63e-08  Convergence criterion met
 ---------------------------------------
 SCF time:   CPU 147.20s  wall 19.00s 
<S^2> =          0.757987629
(3)  G-ENP(liq) elect-nuc-pol free energy of system     -227.312846566 a.u.
(4)  G-CDS(liq) cavity-dispersion-solvent structure 
     free energy                                                1.5119 kcal/mol
(6)  G-S(liq) free energy of system                     -227.310437149 a.u.
 SCF   energy in the final basis set =     -227.3104371493
 Total energy in the final basis set =     -227.3104371493
 
 --------------------------------------------------------------
 
                    Orbital Energies (a.u.)
 --------------------------------------------------------------
 
 Alpha MOs
 -- Occupied --
-19.4167 -19.4107 -19.3928  -1.2881  -1.1482  -1.0251  -0.6994  -0.6232
 -0.5895  -0.5700  -0.5078  -0.4666  -0.4353  -0.4088
 -- Virtual --
  0.0318   0.0506   0.0661   0.1391   0.1665   0.1930   0.2079   0.2152
  0.2222   0.2264   0.2460   0.2566   0.2784   0.2865   0.2970   0.3139
  0.3672   0.3725   0.4186   0.5739   0.6020   0.6348   0.7506   0.7783
  0.8181   0.8331   0.8598   0.9371   0.9670   0.9917   1.0435   1.0750
  1.0969   1.1194   1.1513   1.1750   1.1953   1.3969   1.4199   1.4540
  1.5254   1.5360   1.5583   1.6094   1.6357   1.7876   1.8407   1.8677
  1.9376   1.9714   2.0906   2.2229   2.2417   2.3082   2.3521   2.4754
  2.5131   2.6387   2.7529   2.7867   2.9043   3.6825   3.7084   3.7725
  3.7880   3.8684   3.9246   4.1011   4.1935   4.2211   4.6206   4.6367
  4.7013   4.8319   4.9574   5.0301   5.0569   5.0691   5.0929   5.1200
  5.1299   5.1564   5.2315   5.2683   5.2810   5.3028   5.3372   5.4068
  5.4606   5.5441   5.6064   5.6457   5.6865   5.7535   6.1483   6.1599
  6.8189   6.8765   6.8883   6.9148   6.9491   6.9644   6.9884   7.0729
  7.1493   7.1820   7.2006   7.3328   7.3555   7.4343   7.5479   7.6053
  7.6954   7.8705   8.0235  50.3820  50.4227  50.4555
 
 Beta MOs
 -- Occupied --
-19.4090 -19.4088 -19.3735  -1.2783  -1.1002  -1.0102  -0.6833  -0.5996
 -0.5665  -0.5597  -0.4466  -0.4253  -0.3975
 -- Virtual --
 -0.1073   0.0330   0.0519   0.0678   0.1440   0.1700   0.1970   0.2093
  0.2190   0.2249   0.2307   0.2483   0.2580   0.2795   0.2882   0.3005
  0.3171   0.3687   0.3874   0.4216   0.5829   0.6045   0.6419   0.7587
  0.7804   0.8200   0.8344   0.8662   0.9414   0.9703   0.9993   1.0475
  1.0785   1.1238   1.1284   1.1594   1.1820   1.2049   1.4010   1.4328
  1.4667   1.5389   1.5473   1.5738   1.6164   1.6454   1.8073   1.8582
  1.8793   1.9584   1.9766   2.1073   2.2268   2.2475   2.3179   2.3570
  2.4865   2.5241   2.6472   2.7719   2.7922   2.8974   3.6857   3.7172
  3.7792   3.7865   3.8660   3.9241   4.1052   4.2000   4.2257   4.6245
  4.6468   4.7062   4.8407   4.9670   5.0830   5.1107   5.1147   5.1445
  5.1469   5.1487   5.1905   5.2391   5.2909   5.3214   5.3282   5.3553
  5.4207   5.4772   5.5643   5.6264   5.6657   5.7129   5.7801   6.1518
  6.1743   6.8702   6.8936   6.9330   6.9544   6.9723   6.9921   7.0275
  7.1101   7.1879   7.2071   7.2271   7.3441   7.3861   7.4650   7.5564
  7.6510   7.7521   7.8849   8.0309  50.3891  50.4277  50.4643
 --------------------------------------------------------------
 
          Ground-State Mulliken Net Atomic Charges

     Atom                 Charge (a.u.)    Spin (a.u.)
  --------------------------------------------------------
      1 H                     0.341027      -0.001516
      2 O                    -0.286588       0.059237
      3 O                    -0.306373       0.248594
      4 H                     0.381784      -0.041445
      5 O                    -0.477020       0.748517
      6 H                     0.347170      -0.013387
  --------------------------------------------------------
  Sum of atomic charges =    -0.000000
  Sum of spin   charges =     1.000000

 -----------------------------------------------------------------
                    Cartesian Multipole Moments
 -----------------------------------------------------------------
    Charge (ESU x 10^10)
                -0.0000
    Dipole Moment (Debye)
         X       1.8912      Y       0.8793      Z      -1.4055
       Tot       2.5150
    Quadrupole Moments (Debye-Ang)
        XX     -20.2759     XY      -1.8579     YY     -13.3711
        XZ      -3.0330     YZ       0.8666     ZZ     -20.3834
    Octopole Moments (Debye-Ang^2)
       XXX      46.4306    XXY     -13.2241    XYY       6.6044
       YYY     -12.9979    XXZ       9.8194    XYZ      -1.6719
       YYZ       5.0060    XZZ      16.3025    YZZ     -13.0308
       ZZZ      24.6332
    Hexadecapole Moments (Debye-Ang^3)
      XXXX    -176.5607   XXXY      55.8652   XXYY     -42.6736
      XYYY      24.6242   YYYY     -63.2653   XXXZ     -55.1631
      XXYZ      19.1096   XYYZ     -13.3978   YYYZ      26.6437
      XXZZ     -47.8346   XYZZ      19.5988   YYZZ     -33.4242
      XZZZ     -49.0075   YZZZ      42.6817   ZZZZ     -90.4226
 -----------------------------------------------------------------
 Calculating analytic gradient of the SCF energy
 Gradient of CDS energy
            1           2           3           4           5           6
    1   0.0004008  -0.0002706   0.0000868  -0.0001474  -0.0000675  -0.0000021
    2  -0.0001706   0.0000130   0.0000854  -0.0002567  -0.0001440   0.0004728
    3  -0.0002317   0.0002034   0.0002543  -0.0002775  -0.0000434   0.0000949
 Gradient of SCF Energy
            1           2           3           4           5           6
    1   0.0075524  -0.0058809  -0.0017293   0.0030445  -0.0087476   0.0057609
    2  -0.0068704   0.0077999  -0.0050275   0.0022394  -0.0093833   0.0112420
    3  -0.0144627   0.0151370   0.0059317  -0.0042680  -0.0092208   0.0068829
 Max gradient component =       1.514E-02
 RMS gradient           =       8.132E-03
 Computing fast CPCM-SWIG gradient
 Updating gradient with PCM contributions...
 -- total gradient after adding PCM contribution --
---------------------------------------------------
  Atom         X              Y              Z     
---------------------------------------------------
   1       0.000272      -0.000174      -0.000314
   2      -0.000207       0.000141       0.000193
   3      -0.000074       0.000138       0.000018
   4       0.000002      -0.000035       0.000075
   5       0.000018      -0.000076       0.000072
   6      -0.000010       0.000007      -0.000044
---------------------------------------------------
 Number of fixed atoms: 0
 Gradient time:  CPU 13.69 s  wall 1.90 s
 ----------------------------------------------------------------
             Standard Nuclear Orientation (Angstroms)
    I     Atom           X                Y                Z
 ----------------------------------------------------------------
    1      H       0.9939125964    -0.2747980045    -0.5238965483
    2      O       0.5641584545     0.1829249315     0.2143091671
    3      O      -0.7834916298    -0.1575927451     0.0736512841
    4      H      -1.1135005784     0.4095156323    -0.7359600382
    5      O      -1.6722188213     1.5031128363    -1.3322003106
    6      H      -1.3466972213     2.2559545495    -0.8101570541
 ----------------------------------------------------------------
 Nuclear Repulsion Energy =          75.15124854 hartrees
 There are       14 alpha and       13 beta electrons
 Discretize the solute cavity surface with Lebedev spheres
	Using 110 Lebedev grid points for each H atom
	Using 194 Lebedev grid points for other atoms
	Atomic van der Waals radii will be scaled by 1.20
 Remove points where switching function is < 1.0e-08
 Keep 590 surface tesserae and discard 322 interior tesserae
 Molecular Surface Area = 71.306 Angst**2

                       Distance Matrix (Angstroms)
             H (  1)   O (  2)   O (  3)   H (  4)   O (  5)
   O (  2)  0.969096
   O (  3)  1.878820  1.397103
   H (  4)  2.225859  1.941364  1.042108
   O (  5)  3.304932  3.022577  2.350361  1.365146
   H (  6)  3.459062  2.999725  2.631260  1.862585  0.972247
 
 Requested basis set is 6-311++G(2df,2p)
 There are 42 shells and 132 basis functions
 A cutoff of  1.0D-12 yielded    875 shell pairs
 There are      8737 function pairs (     10882 Cartesian)
 Smallest overlap matrix eigenvalue = 8.76E-04
 Guess MOs from SCF MO coefficient file

 -----------------------------------------------------------------------
  General SCF calculation program by
  Eric Jon Sundstrom, Paul Horn, Yuezhi Mao, Dmitri Zuev, Alec White,
  David Stuck, Shaama M.S., Shane Yost, Joonho Lee, David Small,
  Daniel Levine, Susi Lehtola, Hugh Burton, Evgeny Epifanovsky,
  Bang C. Huynh
 -----------------------------------------------------------------------
 Exchange:     0.1500 Hartree-Fock + 1.0000 wB97M-V + LR-HF
 Correlation:  1.0000 wB97M-V
 Using SG-2 standard quadrature grid
 Nonlocal Correlation:  VV10 with C = 0.0100 and b = 6.00 and scale = 1.00000
 Grid used for NLC:  SG-1 standard quadrature
 
 Citation of the SMD model:
 Marenich, A.V.; Cramer, C.J.; Truhlar, D.G.
 J. Phys. Chem. B 2009, 113, 6378-6396.
 iSolventCode=           1
 Solvent: water                                                           
 
 vradii
            1           2           3           4           5           6
    1   1.2000000   1.5200000   1.5200000   1.2000000   1.5200000   1.2000000
 -------------------------------------------------------
 OpenMP BLAS3 based DFT computing Module                
 Release: version 1.0, May 2013, Q-Chem Inc. Pittsburgh 
 -------------------------------------------------------
 A unrestricted SCF calculation will be
 performed using Roothaan-Hall, DIIS, GDM
 SCF converges when RMS gradient is below 1.0e-07
 ---------------------------------------
  Cycle       Energy         DIIS error
 ---------------------------------------
    1    -227.2893873770      4.87e-04  Roothaan Step
 ---------------------------------------
  Cycle       Energy         DIIS error
 ---------------------------------------
    1    -227.3096206671      5.01e-04  
    2    -227.3123915374      2.57e-04  Done DIIS. Switching to GDM
 ---------------------------------------
  Cycle       Energy        RMS Gradient
 ---------------------------------------
    1    -227.3123915374      4.97e-03   Normal BFGS step
    2    -227.3125990292      5.03e-03   Normal BFGS step
    3    -227.3128327184      6.44e-04   Normal BFGS step
    4    -227.3128354966      1.02e-03   Normal BFGS step
    5    -227.3128442615      3.63e-04   Normal BFGS step
    6    -227.3128445559      2.36e-04   Normal BFGS step
    7    -227.3128447741      2.35e-04   Normal BFGS step
    8    -227.3128448801      7.67e-05   Normal BFGS step
    9    -227.3128449436      7.02e-05   Normal BFGS step
   10    -227.3128449652      3.55e-05   Normal BFGS step
   11    -227.3128449705      2.68e-05   Normal BFGS step
   12    -227.3128449735      2.10e-05   Normal BFGS step
   13    -227.3128449752      2.05e-05   Normal BFGS step
   14    -227.3128449778      2.03e-05   Normal BFGS step
   15    -227.3128449806      1.67e-05   Normal BFGS step
   16    -227.3128449828      1.25e-05   Normal BFGS step
   17    -227.3128449836      5.98e-06   Normal BFGS step
   18    -227.3128449838      2.06e-06   Normal BFGS step
   19    -227.3128449838      7.90e-07   Normal BFGS step
   20    -227.3128449838      4.45e-07   Normal BFGS step
   21    -227.3128449838      3.07e-07   Normal BFGS step
   22    -227.3128449838      1.42e-07   Normal BFGS step
   23    -227.3128449838      3.82e-08  Convergence criterion met
 ---------------------------------------
 SCF time:   CPU 149.35s  wall 19.00s 
<S^2> =          0.757986815
(3)  G-ENP(liq) elect-nuc-pol free energy of system     -227.312844984 a.u.
(4)  G-CDS(liq) cavity-dispersion-solvent structure 
     free energy                                                1.5110 kcal/mol
(6)  G-S(liq) free energy of system                     -227.310437082 a.u.
 SCF   energy in the final basis set =     -227.3104370823
 Total energy in the final basis set =     -227.3104370823
 
 --------------------------------------------------------------
 
                    Orbital Energies (a.u.)
 --------------------------------------------------------------
 
 Alpha MOs
 -- Occupied --
-19.4167 -19.4107 -19.3928  -1.2882  -1.1482  -1.0253  -0.6994  -0.6233
 -0.5896  -0.5701  -0.5078  -0.4667  -0.4354  -0.4089
 -- Virtual --
  0.0318   0.0506   0.0661   0.1392   0.1665   0.1930   0.2079   0.2153
  0.2222   0.2263   0.2460   0.2566   0.2783   0.2865   0.2971   0.3139
  0.3672   0.3725   0.4185   0.5739   0.6025   0.6348   0.7506   0.7781
  0.8181   0.8332   0.8600   0.9370   0.9666   0.9917   1.0435   1.0749
  1.0969   1.1194   1.1513   1.1750   1.1953   1.3972   1.4199   1.4542
  1.5254   1.5362   1.5583   1.6098   1.6360   1.7877   1.8408   1.8679
  1.9377   1.9714   2.0906   2.2227   2.2417   2.3082   2.3519   2.4756
  2.5130   2.6389   2.7529   2.7873   2.9043   3.6826   3.7084   3.7725
  3.7883   3.8685   3.9248   4.1015   4.1940   4.2224   4.6206   4.6365
  4.7012   4.8317   4.9574   5.0301   5.0569   5.0691   5.0930   5.1201
  5.1299   5.1564   5.2321   5.2684   5.2810   5.3031   5.3374   5.4072
  5.4613   5.5450   5.6065   5.6462   5.6871   5.7548   6.1476   6.1599
  6.8189   6.8765   6.8883   6.9151   6.9492   6.9647   6.9886   7.0730
  7.1495   7.1822   7.2044   7.3331   7.3558   7.4344   7.5474   7.6051
  7.6954   7.8708   8.0239  50.3821  50.4232  50.4557
 
 Beta MOs
 -- Occupied --
-19.4090 -19.4088 -19.3735  -1.2784  -1.1003  -1.0103  -0.6833  -0.5997
 -0.5665  -0.5597  -0.4467  -0.4254  -0.3976
 -- Virtual --
 -0.1073   0.0330   0.0519   0.0678   0.1441   0.1699   0.1970   0.2094
  0.2190   0.2249   0.2307   0.2483   0.2580   0.2795   0.2882   0.3006
  0.3171   0.3687   0.3874   0.4216   0.5829   0.6050   0.6418   0.7588
  0.7803   0.8199   0.8345   0.8664   0.9412   0.9700   0.9993   1.0475
  1.0784   1.1238   1.1284   1.1593   1.1820   1.2049   1.4013   1.4328
  1.4670   1.5391   1.5473   1.5739   1.6168   1.6456   1.8074   1.8583
  1.8795   1.9584   1.9765   2.1073   2.2266   2.2476   2.3179   2.3568
  2.4867   2.5240   2.6474   2.7720   2.7927   2.8975   3.6857   3.7172
  3.7793   3.7867   3.8661   3.9243   4.1056   4.2008   4.2267   4.6245
  4.6466   4.7061   4.8405   4.9670   5.0830   5.1107   5.1147   5.1446
  5.1469   5.1487   5.1906   5.2397   5.2911   5.3215   5.3284   5.3555
  5.4212   5.4778   5.5654   5.6264   5.6663   5.7138   5.7809   6.1511
  6.1744   6.8702   6.8935   6.9331   6.9548   6.9725   6.9922   7.0276
  7.1102   7.1891   7.2098   7.2276   7.3444   7.3864   7.4651   7.5557
  7.6509   7.7521   7.8852   8.0313  50.3892  50.4282  50.4645
 --------------------------------------------------------------
 
          Ground-State Mulliken Net Atomic Charges

     Atom                 Charge (a.u.)    Spin (a.u.)
  --------------------------------------------------------
      1 H                     0.340716      -0.001514
      2 O                    -0.286209       0.059189
      3 O                    -0.306532       0.248575
      4 H                     0.381822      -0.041440
      5 O                    -0.476980       0.748578
      6 H                     0.347183      -0.013388
  --------------------------------------------------------
  Sum of atomic charges =    -0.000000
  Sum of spin   charges =     1.000000

 -----------------------------------------------------------------
                    Cartesian Multipole Moments
 -----------------------------------------------------------------
    Charge (ESU x 10^10)
                 0.0000
    Dipole Moment (Debye)
         X       1.8875      Y       0.8802      Z      -1.4057
       Tot       2.5126
    Quadrupole Moments (Debye-Ang)
        XX     -20.2835     XY      -1.8571     YY     -13.3691
        XZ      -3.0296     YZ       0.8665     ZZ     -20.3810
    Octopole Moments (Debye-Ang^2)
       XXX      46.4209    XXY     -13.2205    XYY       6.6047
       YYY     -12.9961    XXZ       9.8228    XYZ      -1.6717
       YYZ       5.0047    XZZ      16.3022    YZZ     -13.0292
       ZZZ      24.6314
    Hexadecapole Moments (Debye-Ang^3)
      XXXX    -176.5655   XXXY      55.8666   XXYY     -42.6701
      XYYY      24.6214   YYYY     -63.2595   XXXZ     -55.1543
      XXYZ      19.1070   XYYZ     -13.3964   YYYZ      26.6419
      XXZZ     -47.8330   XYZZ      19.5973   YYZZ     -33.4206
      XZZZ     -49.0055   YZZZ      42.6796   ZZZZ     -90.4144
 -----------------------------------------------------------------
 Calculating analytic gradient of the SCF energy
 Gradient of CDS energy
            1           2           3           4           5           6
    1   0.0004010  -0.0002707   0.0000868  -0.0001476  -0.0000675  -0.0000021
    2  -0.0001711   0.0000132   0.0000856  -0.0002566  -0.0001440   0.0004728
    3  -0.0002321   0.0002036   0.0002542  -0.0002773  -0.0000434   0.0000949
 Gradient of SCF Energy
            1           2           3           4           5           6
    1   0.0069292  -0.0054266  -0.0015579   0.0030413  -0.0087491   0.0057631
    2  -0.0065534   0.0075369  -0.0050833   0.0022445  -0.0093876   0.0112430
    3  -0.0139044   0.0146946   0.0058355  -0.0042875  -0.0092240   0.0068858
 Max gradient component =       1.469E-02
 RMS gradient           =       7.952E-03
 Computing fast CPCM-SWIG gradient
 Updating gradient with PCM contributions...
 -- total gradient after adding PCM contribution --
---------------------------------------------------
  Atom         X              Y              Z     
---------------------------------------------------
   1      -0.000308       0.000142       0.000249
   2       0.000211      -0.000123      -0.000256
   3       0.000088       0.000087      -0.000086
   4      -0.000002      -0.000032       0.000064
   5       0.000021      -0.000079       0.000073
   6      -0.000010       0.000005      -0.000044
---------------------------------------------------
 Number of fixed atoms: 0
 Gradient time:  CPU 13.64 s  wall 1.90 s
 ----------------------------------------------------------------
             Standard Nuclear Orientation (Angstroms)
    I     Atom           X                Y                Z
 ----------------------------------------------------------------
    1      H       0.9949125964    -0.2737980045    -0.5238965483
    2      O       0.5641584545     0.1829249315     0.2143091671
    3      O      -0.7834916298    -0.1575927451     0.0736512841
    4      H      -1.1135005784     0.4095156323    -0.7359600382
    5      O      -1.6722188213     1.5031128363    -1.3322003106
    6      H      -1.3466972213     2.2559545495    -0.8101570541
 ----------------------------------------------------------------
 Nuclear Repulsion Energy =          75.15014421 hartrees
 There are       14 alpha and       13 beta electrons
 Discretize the solute cavity surface with Lebedev spheres
	Using 110 Lebedev grid points for each H atom
	Using 194 Lebedev grid points for other atoms
	Atomic van der Waals radii will be scaled by 1.20
 Remove points where switching function is < 1.0e-08
 Keep 590 surface tesserae and discard 322 interior tesserae
 Molecular Surface Area = 71.308 Angst**2

                       Distance Matrix (Angstroms)
             H (  1)   O (  2)   O (  3)   H (  4)   O (  5)
   O (  2)  0.969068
   O (  3)  1.879704  1.397103
   H (  4)  2.226498  1.941364  1.042108
   O (  5)  3.305202  3.022577  2.350361  1.365146
   H (  6)  3.459007  2.999725  2.631260  1.862585  0.972247
 
 Requested basis set is 6-311++G(2df,2p)
 There are 42 shells and 132 basis functions
 A cutoff of  1.0D-12 yielded    875 shell pairs
 There are      8737 function pairs (     10882 Cartesian)
 Smallest overlap matrix eigenvalue = 8.76E-04
 Guess MOs from SCF MO coefficient file

 -----------------------------------------------------------------------
  General SCF calculation program by
  Eric Jon Sundstrom, Paul Horn, Yuezhi Mao, Dmitri Zuev, Alec White,
  David Stuck, Shaama M.S., Shane Yost, Joonho Lee, David Small,
  Daniel Levine, Susi Lehtola, Hugh Burton, Evgeny Epifanovsky,
  Bang C. Huynh
 -----------------------------------------------------------------------
 Exchange:     0.1500 Hartree-Fock + 1.0000 wB97M-V + LR-HF
 Correlation:  1.0000 wB97M-V
 Using SG-2 standard quadrature grid
 Nonlocal Correlation:  VV10 with C = 0.0100 and b = 6.00 and scale = 1.00000
 Grid used for NLC:  SG-1 standard quadrature
 
 Citation of the SMD model:
 Marenich, A.V.; Cramer, C.J.; Truhlar, D.G.
 J. Phys. Chem. B 2009, 113, 6378-6396.
 iSolventCode=           1
 Solvent: water                                                           
 
 vradii
            1           2           3           4           5           6
    1   1.2000000   1.5200000   1.5200000   1.2000000   1.5200000   1.2000000
 -------------------------------------------------------
 OpenMP BLAS3 based DFT computing Module                
 Release: version 1.0, May 2013, Q-Chem Inc. Pittsburgh 
 -------------------------------------------------------
 A unrestricted SCF calculation will be
 performed using Roothaan-Hall, DIIS, GDM
 SCF converges when RMS gradient is below 1.0e-07
 ---------------------------------------
  Cycle       Energy         DIIS error
 ---------------------------------------
    1    -227.2893879853      4.87e-04  Roothaan Step
 ---------------------------------------
  Cycle       Energy         DIIS error
 ---------------------------------------
    1    -227.3096227697      5.01e-04  
    2    -227.3123924034      2.56e-04  Done DIIS. Switching to GDM
 ---------------------------------------
  Cycle       Energy        RMS Gradient
 ---------------------------------------
    1    -227.3123924034      4.98e-03   Normal BFGS step
    2    -227.3126016362      4.96e-03   Normal BFGS step
    3    -227.3128335338      6.42e-04   Normal BFGS step
    4    -227.3128362496      1.03e-03   Normal BFGS step
    5    -227.3128448197      3.64e-04   Normal BFGS step
    6    -227.3128451099      2.30e-04   Normal BFGS step
    7    -227.3128453238      2.35e-04   Normal BFGS step
    8    -227.3128454323      7.66e-05   Normal BFGS step
    9    -227.3128454948      6.92e-05   Normal BFGS step
   10    -227.3128455162      3.49e-05   Normal BFGS step
   11    -227.3128455213      2.61e-05   Normal BFGS step
   12    -227.3128455241      2.03e-05   Normal BFGS step
   13    -227.3128455256      1.98e-05   Normal BFGS step
   14    -227.3128455281      1.96e-05   Normal BFGS step
   15    -227.3128455307      1.60e-05   Normal BFGS step
   16    -227.3128455328      1.23e-05   Normal BFGS step
   17    -227.3128455336      5.94e-06   Normal BFGS step
   18    -227.3128455337      1.98e-06   Normal BFGS step
   19    -227.3128455338      7.57e-07   Normal BFGS step
   20    -227.3128455338      4.29e-07   Normal BFGS step
   21    -227.3128455338      2.93e-07   Normal BFGS step
   22    -227.3128455338      1.37e-07   Normal BFGS step
   23    -227.3128455338      3.68e-08  Convergence criterion met
 ---------------------------------------
 SCF time:   CPU 147.03s  wall 19.00s 
<S^2> =          0.757987229
(3)  G-ENP(liq) elect-nuc-pol free energy of system     -227.312845534 a.u.
(4)  G-CDS(liq) cavity-dispersion-solvent structure 
     free energy                                                1.5113 kcal/mol
(6)  G-S(liq) free energy of system                     -227.310437197 a.u.
 SCF   energy in the final basis set =     -227.3104371972
 Total energy in the final basis set =     -227.3104371972
 
 --------------------------------------------------------------
 
                    Orbital Energies (a.u.)
 --------------------------------------------------------------
 
 Alpha MOs
 -- Occupied --
-19.4167 -19.4106 -19.3928  -1.2882  -1.1482  -1.0253  -0.6995  -0.6232
 -0.5896  -0.5700  -0.5078  -0.4667  -0.4354  -0.4088
 -- Virtual --
  0.0318   0.0506   0.0661   0.1392   0.1665   0.1930   0.2079   0.2153
  0.2222   0.2263   0.2460   0.2566   0.2784   0.2865   0.2971   0.3139
  0.3672   0.3725   0.4185   0.5740   0.6025   0.6348   0.7506   0.7782
  0.8181   0.8333   0.8600   0.9370   0.9667   0.9917   1.0435   1.0750
  1.0969   1.1194   1.1513   1.1750   1.1953   1.3972   1.4199   1.4542
  1.5254   1.5360   1.5583   1.6096   1.6359   1.7878   1.8407   1.8678
  1.9377   1.9714   2.0906   2.2228   2.2416   2.3082   2.3519   2.4754
  2.5130   2.6390   2.7529   2.7873   2.9043   3.6826   3.7084   3.7725
  3.7881   3.8685   3.9249   4.1013   4.1940   4.2224   4.6206   4.6366
  4.7014   4.8320   4.9574   5.0301   5.0569   5.0692   5.0929   5.1200
  5.1299   5.1565   5.2320   5.2683   5.2810   5.3029   5.3374   5.4072
  5.4611   5.5450   5.6065   5.6464   5.6870   5.7543   6.1483   6.1599
  6.8189   6.8765   6.8883   6.9149   6.9492   6.9646   6.9885   7.0730
  7.1495   7.1822   7.2044   7.3329   7.3557   7.4344   7.5479   7.6052
  7.6955   7.8706   8.0238  50.3820  50.4232  50.4557
 
 Beta MOs
 -- Occupied --
-19.4089 -19.4088 -19.3735  -1.2784  -1.1003  -1.0104  -0.6834  -0.5996
 -0.5665  -0.5597  -0.4467  -0.4254  -0.3975
 -- Virtual --
 -0.1073   0.0330   0.0519   0.0678   0.1440   0.1700   0.1970   0.2094
  0.2190   0.2249   0.2307   0.2483   0.2580   0.2795   0.2882   0.3006
  0.3171   0.3687   0.3874   0.4215   0.5830   0.6050   0.6418   0.7588
  0.7803   0.8200   0.8345   0.8664   0.9413   0.9700   0.9994   1.0475
  1.0785   1.1238   1.1284   1.1594   1.1819   1.2049   1.4013   1.4329
  1.4669   1.5389   1.5473   1.5739   1.6166   1.6456   1.8075   1.8583
  1.8794   1.9584   1.9765   2.1074   2.2267   2.2475   2.3179   2.3568
  2.4866   2.5240   2.6475   2.7720   2.7927   2.8974   3.6858   3.7172
  3.7792   3.7865   3.8661   3.9243   4.1055   4.2008   4.2268   4.6245
  4.6467   4.7063   4.8408   4.9670   5.0830   5.1107   5.1147   5.1445
  5.1469   5.1487   5.1906   5.2396   5.2909   5.3214   5.3282   5.3555
  5.4212   5.4776   5.5654   5.6264   5.6665   5.7135   5.7806   6.1518
  6.1744   6.8702   6.8936   6.9331   6.9546   6.9725   6.9922   7.0276
  7.1102   7.1891   7.2098   7.2276   7.3441   7.3863   7.4650   7.5563
  7.6510   7.7521   7.8850   8.0311  50.3892  50.4282  50.4644
 --------------------------------------------------------------
 
          Ground-State Mulliken Net Atomic Charges

     Atom                 Charge (a.u.)    Spin (a.u.)
  --------------------------------------------------------
      1 H                     0.340724      -0.001513
      2 O                    -0.286310       0.059209
      3 O                    -0.306380       0.248576
      4 H                     0.381775      -0.041435
      5 O                    -0.476989       0.748553
      6 H                     0.347180      -0.013388
  --------------------------------------------------------
  Sum of atomic charges =    -0.000000
  Sum of spin   charges =     1.000000

 -----------------------------------------------------------------
                    Cartesian Multipole Moments
 -----------------------------------------------------------------
    Charge (ESU x 10^10)
                 0.0000
    Dipole Moment (Debye)
         X       1.8891      Y       0.8817      Z      -1.4061
       Tot       2.5146
    Quadrupole Moments (Debye-Ang)
        XX     -20.2788     XY      -1.8553     YY     -13.3714
        XZ      -3.0318     YZ       0.8648     ZZ     -20.3814
    Octopole Moments (Debye-Ang^2)
       XXX      46.4264    XXY     -13.2205    XYY       6.6034
       YYY     -12.9979    XXZ       9.8207    XYZ      -1.6733
       YYZ       5.0056    XZZ      16.3026    YZZ     -13.0294
       ZZZ      24.6314
    Hexadecapole Moments (Debye-Ang^3)
      XXXX    -176.5598   XXXY      55.8680   XXYY     -42.6733
      XYYY      24.6226   YYYY     -63.2618   XXXZ     -55.1606
      XXYZ      19.1074   XYYZ     -13.3969   YYYZ      26.6423
      XXZZ     -47.8331   XYZZ      19.5983   YYZZ     -33.4221
      XZZZ     -49.0068   YZZZ      42.6796   ZZZZ     -90.4155
 -----------------------------------------------------------------
 Calculating analytic gradient of the SCF energy
 Gradient of CDS energy
            1           2           3           4           5           6
    1   0.0004011  -0.0002709   0.0000868  -0.0001476  -0.0000675  -0.0000021
    2  -0.0001706   0.0000130   0.0000854  -0.0002566  -0.0001440   0.0004728
    3  -0.0002320   0.0002036   0.0002542  -0.0002774  -0.0000434   0.0000949
 Gradient of SCF Energy
            1           2           3           4           5           6
    1   0.0070862  -0.0054678  -0.0016751   0.0030440  -0.0087514   0.0057641
    2  -0.0064614   0.0074041  -0.0050423   0.0022438  -0.0093874   0.0112433
    3  -0.0138348   0.0145436   0.0059134  -0.0042812  -0.0092274   0.0068864
 Max gradient component =       1.454E-02
 RMS gradient           =       7.931E-03
 Computing fast CPCM-SWIG gradient
 Updating gradient with PCM contributions...
 -- total gradient after adding PCM contribution --
---------------------------------------------------
  Atom         X              Y              Z     
---------------------------------------------------
   1      -0.000176       0.000220       0.000321
   2       0.000191      -0.000239      -0.000410
   3      -0.000025       0.000127      -0.000006
   4       0.000000      -0.000034       0.000068
   5       0.000020      -0.000078       0.000070
   6      -0.000010       0.000005      -0.000043
---------------------------------------------------
 Number of fixed atoms: 0
 Gradient time:  CPU 13.84 s  wall 2.02 s
 ----------------------------------------------------------------
             Standard Nuclear Orientation (Angstroms)
    I     Atom           X                Y                Z
 ----------------------------------------------------------------
    1      H       0.9949125964    -0.2757980045    -0.5238965483
    2      O       0.5641584545     0.1829249315     0.2143091671
    3      O      -0.7834916298    -0.1575927451     0.0736512841
    4      H      -1.1135005784     0.4095156323    -0.7359600382
    5      O      -1.6722188213     1.5031128363    -1.3322003106
    6      H      -1.3466972213     2.2559545495    -0.8101570541
 ----------------------------------------------------------------
 Nuclear Repulsion Energy =          75.14519551 hartrees
 There are       14 alpha and       13 beta electrons
 Discretize the solute cavity surface with Lebedev spheres
	Using 110 Lebedev grid points for each H atom
	Using 194 Lebedev grid points for other atoms
	Atomic van der Waals radii will be scaled by 1.20
 Remove points where switching function is < 1.0e-08
 Keep 590 surface tesserae and discard 322 interior tesserae
 Molecular Surface Area = 71.314 Angst**2

                       Distance Matrix (Angstroms)
             H (  1)   O (  2)   O (  3)   H (  4)   O (  5)
   O (  2)  0.970012
   O (  3)  1.879829  1.397103
   H (  4)  2.227113  1.941364  1.042108
   O (  5)  3.306277  3.022577  2.350361  1.365146
   H (  6)  3.460470  2.999725  2.631260  1.862585  0.972247
 
 Requested basis set is 6-311++G(2df,2p)
 There are 42 shells and 132 basis functions
 A cutoff of  1.0D-12 yielded    875 shell pairs
 There are      8737 function pairs (     10882 Cartesian)
 Smallest overlap matrix eigenvalue = 8.76E-04
 Guess MOs from SCF MO coefficient file

 -----------------------------------------------------------------------
  General SCF calculation program by
  Eric Jon Sundstrom, Paul Horn, Yuezhi Mao, Dmitri Zuev, Alec White,
  David Stuck, Shaama M.S., Shane Yost, Joonho Lee, David Small,
  Daniel Levine, Susi Lehtola, Hugh Burton, Evgeny Epifanovsky,
  Bang C. Huynh
 -----------------------------------------------------------------------
 Exchange:     0.1500 Hartree-Fock + 1.0000 wB97M-V + LR-HF
 Correlation:  1.0000 wB97M-V
 Using SG-2 standard quadrature grid
 Nonlocal Correlation:  VV10 with C = 0.0100 and b = 6.00 and scale = 1.00000
 Grid used for NLC:  SG-1 standard quadrature
 
 Citation of the SMD model:
 Marenich, A.V.; Cramer, C.J.; Truhlar, D.G.
 J. Phys. Chem. B 2009, 113, 6378-6396.
 iSolventCode=           1
 Solvent: water                                                           
 
 vradii
            1           2           3           4           5           6
    1   1.2000000   1.5200000   1.5200000   1.2000000   1.5200000   1.2000000
 -------------------------------------------------------
 OpenMP BLAS3 based DFT computing Module                
 Release: version 1.0, May 2013, Q-Chem Inc. Pittsburgh 
 -------------------------------------------------------
 A unrestricted SCF calculation will be
 performed using Roothaan-Hall, DIIS, GDM
 SCF converges when RMS gradient is below 1.0e-07
 ---------------------------------------
  Cycle       Energy         DIIS error
 ---------------------------------------
    1    -227.2893834651      4.86e-04  Roothaan Step
 ---------------------------------------
  Cycle       Energy         DIIS error
 ---------------------------------------
    1    -227.3096254056      5.01e-04  
    2    -227.3123931246      2.56e-04  Done DIIS. Switching to GDM
 ---------------------------------------
  Cycle       Energy        RMS Gradient
 ---------------------------------------
    1    -227.3123931246      4.99e-03   Normal BFGS step
    2    -227.3126039003      4.88e-03   Normal BFGS step
    3    -227.3128343096      6.43e-04   Normal BFGS step
    4    -227.3128369980      1.04e-03   Normal BFGS step
    5    -227.3128453923      3.73e-04   Normal BFGS step
    6    -227.3128456866      2.30e-04   Normal BFGS step
    7    -227.3128459072      2.36e-04   Normal BFGS step
    8    -227.3128460217      7.80e-05   Normal BFGS step
    9    -227.3128460848      6.93e-05   Normal BFGS step
   10    -227.3128461054      3.48e-05   Normal BFGS step
   11    -227.3128461100      2.23e-05   Normal BFGS step
   12    -227.3128461122      1.75e-05   Normal BFGS step
   13    -227.3128461133      1.64e-05   Normal BFGS step
   14    -227.3128461150      1.62e-05   Normal BFGS step
   15    -227.3128461169      1.35e-05   Normal BFGS step
   16    -227.3128461185      1.21e-05   Normal BFGS step
   17    -227.3128461192      6.30e-06   Normal BFGS step
   18    -227.3128461193      1.66e-06   Normal BFGS step
   19    -227.3128461193      5.88e-07   Normal BFGS step
   20    -227.3128461193      3.31e-07   Normal BFGS step
   21    -227.3128461193      1.91e-07   Normal BFGS step
   22    -227.3128461193      1.03e-07   Normal BFGS step
   23    -227.3128461193      3.44e-08  Convergence criterion met
 ---------------------------------------
 SCF time:   CPU 147.53s  wall 19.00s 
<S^2> =          0.757987214
(3)  G-ENP(liq) elect-nuc-pol free energy of system     -227.312846119 a.u.
(4)  G-CDS(liq) cavity-dispersion-solvent structure 
     free energy                                                1.5117 kcal/mol
(6)  G-S(liq) free energy of system                     -227.310437137 a.u.
 SCF   energy in the final basis set =     -227.3104371370
 Total energy in the final basis set =     -227.3104371370
 
 --------------------------------------------------------------
 
                    Orbital Energies (a.u.)
 --------------------------------------------------------------
 
 Alpha MOs
 -- Occupied --
-19.4167 -19.4107 -19.3928  -1.2881  -1.1482  -1.0251  -0.6993  -0.6232
 -0.5895  -0.5700  -0.5078  -0.4666  -0.4353  -0.4089
 -- Virtual --
  0.0318   0.0506   0.0661   0.1392   0.1665   0.1930   0.2079   0.2152
  0.2222   0.2263   0.2460   0.2566   0.2783   0.2865   0.2971   0.3139
  0.3672   0.3725   0.4186   0.5739   0.6020   0.6348   0.7506   0.7782
  0.8181   0.8331   0.8598   0.9370   0.9669   0.9917   1.0435   1.0750
  1.0969   1.1194   1.1513   1.1751   1.1952   1.3968   1.4199   1.4540
  1.5254   1.5362   1.5582   1.6095   1.6358   1.7875   1.8407   1.8678
  1.9377   1.9714   2.0905   2.2228   2.2418   2.3082   2.3521   2.4755
  2.5130   2.6387   2.7529   2.7867   2.9043   3.6825   3.7084   3.7725
  3.7882   3.8684   3.9246   4.1012   4.1935   4.2210   4.6206   4.6366
  4.7011   4.8316   4.9574   5.0301   5.0569   5.0691   5.0930   5.1201
  5.1299   5.1564   5.2316   5.2684   5.2810   5.3030   5.3373   5.4068
  5.4608   5.5441   5.6065   5.6456   5.6866   5.7539   6.1477   6.1598
  6.8189   6.8765   6.8883   6.9149   6.9491   6.9645   6.9885   7.0729
  7.1493   7.1819   7.2006   7.3330   7.3556   7.4344   7.5474   7.6052
  7.6954   7.8707   8.0237  50.3820  50.4228  50.4556
 
 Beta MOs
 -- Occupied --
-19.4090 -19.4088 -19.3735  -1.2783  -1.1002  -1.0102  -0.6832  -0.5996
 -0.5665  -0.5597  -0.4466  -0.4253  -0.3976
 -- Virtual --
 -0.1073   0.0330   0.0519   0.0678   0.1440   0.1700   0.1970   0.2093
  0.2190   0.2249   0.2307   0.2483   0.2580   0.2795   0.2882   0.3006
  0.3171   0.3687   0.3874   0.4216   0.5829   0.6045   0.6419   0.7588
  0.7803   0.8199   0.8343   0.8662   0.9413   0.9702   0.9993   1.0475
  1.0784   1.1238   1.1284   1.1593   1.1820   1.2049   1.4009   1.4328
  1.4668   1.5391   1.5473   1.5738   1.6165   1.6455   1.8072   1.8583
  1.8794   1.9584   1.9766   2.1073   2.2267   2.2476   2.3179   2.3570
  2.4867   2.5240   2.6472   2.7719   2.7922   2.8975   3.6856   3.7171
  3.7792   3.7866   3.8660   3.9240   4.1053   4.2000   4.2256   4.6244
  4.6467   4.7060   4.8405   4.9670   5.0830   5.1107   5.1146   5.1446
  5.1469   5.1487   5.1905   5.2392   5.2911   5.3214   5.3283   5.3553
  5.4208   5.4774   5.5643   5.6264   5.6655   5.7132   5.7803   6.1512
  6.1744   6.8702   6.8935   6.9331   6.9546   6.9723   6.9921   7.0276
  7.1101   7.1879   7.2071   7.2271   7.3443   7.3862   7.4650   7.5558
  7.6509   7.7521   7.8851   8.0311  50.3892  50.4278  50.4644
 --------------------------------------------------------------
 
          Ground-State Mulliken Net Atomic Charges

     Atom                 Charge (a.u.)    Spin (a.u.)
  --------------------------------------------------------
      1 H                     0.341018      -0.001517
      2 O                    -0.286487       0.059217
      3 O                    -0.306525       0.248594
      4 H                     0.381831      -0.041450
      5 O                    -0.477011       0.748543
      6 H                     0.347174      -0.013387
  --------------------------------------------------------
  Sum of atomic charges =     0.000000
  Sum of spin   charges =     1.000000

 -----------------------------------------------------------------
                    Cartesian Multipole Moments
 -----------------------------------------------------------------
    Charge (ESU x 10^10)
                 0.0000
    Dipole Moment (Debye)
         X       1.8896      Y       0.8777      Z      -1.4052
       Tot       2.5131
    Quadrupole Moments (Debye-Ang)
        XX     -20.2806     XY      -1.8597     YY     -13.3688
        XZ      -3.0308     YZ       0.8683     ZZ     -20.3830
    Octopole Moments (Debye-Ang^2)
       XXX      46.4251    XXY     -13.2241    XYY       6.6058
       YYY     -12.9961    XXZ       9.8215    XYZ      -1.6703
       YYZ       5.0052    XZZ      16.3021    YZZ     -13.0306
       ZZZ      24.6332
    Hexadecapole Moments (Debye-Ang^3)
      XXXX    -176.5664   XXXY      55.8638   XXYY     -42.6705
      XYYY      24.6230   YYYY     -63.2629   XXXZ     -55.1568
      XXYZ      19.1091   XYYZ     -13.3973   YYYZ      26.6432
      XXZZ     -47.8345   XYZZ      19.5978   YYZZ     -33.4228
      XZZZ     -49.0062   YZZZ      42.6817   ZZZZ     -90.4215
 -----------------------------------------------------------------
 Calculating analytic gradient of the SCF energy
 Gradient of CDS energy
            1           2           3           4           5           6
    1   0.0004007  -0.0002705   0.0000868  -0.0001475  -0.0000675  -0.0000021
    2  -0.0001711   0.0000132   0.0000856  -0.0002566  -0.0001440   0.0004728
    3  -0.0002318   0.0002034   0.0002543  -0.0002775  -0.0000434   0.0000949
 Gradient of SCF Energy
            1           2           3           4           5           6
    1   0.0073949  -0.0058389  -0.0016123   0.0030418  -0.0087453   0.0057599
    2  -0.0069632   0.0079335  -0.0050686   0.0022401  -0.0093835   0.0112417
    3  -0.0145321   0.0152876   0.0058540  -0.0042744  -0.0092175   0.0068823
 Max gradient component =       1.529E-02
 RMS gradient           =       8.153E-03
 Computing fast CPCM-SWIG gradient
 Updating gradient with PCM contributions...
 -- total gradient after adding PCM contribution --
---------------------------------------------------
  Atom         X              Y              Z     
---------------------------------------------------
   1       0.000140      -0.000252      -0.000386
   2      -0.000187       0.000258       0.000347
   3       0.000039       0.000098      -0.000062
   4      -0.000000      -0.000033       0.000071
   5       0.000019      -0.000077       0.000075
   6      -0.000010       0.000007      -0.000045
---------------------------------------------------
 Number of fixed atoms: 0
 Gradient time:  CPU 13.73 s  wall 1.91 s
 ----------------------------------------------------------------
             Standard Nuclear Orientation (Angstroms)
    I     Atom           X                Y                Z
 ----------------------------------------------------------------
    1      H       0.9949125964    -0.2747980045    -0.5228965483
    2      O       0.5641584545     0.1829249315     0.2143091671
    3      O      -0.7834916298    -0.1575927451     0.0736512841
    4      H      -1.1135005784     0.4095156323    -0.7359600382
    5      O      -1.6722188213     1.5031128363    -1.3322003106
    6      H      -1.3466972213     2.2559545495    -0.8101570541
 ----------------------------------------------------------------
 Nuclear Repulsion Energy =          75.15137372 hartrees
 There are       14 alpha and       13 beta electrons
 Discretize the solute cavity surface with Lebedev spheres
	Using 110 Lebedev grid points for each H atom
	Using 194 Lebedev grid points for other atoms
	Atomic van der Waals radii will be scaled by 1.20
 Remove points where switching function is < 1.0e-08
 Keep 590 surface tesserae and discard 322 interior tesserae
 Molecular Surface Area = 71.306 Angst**2

                       Distance Matrix (Angstroms)
             H (  1)   O (  2)   O (  3)   H (  4)   O (  5)
   O (  2)  0.968778
   O (  3)  1.879449  1.397103
   H (  4)  2.226901  1.941364  1.042108
   O (  5)  3.305984  3.022577  2.350361  1.365146
   H (  6)  3.459821  2.999725  2.631260  1.862585  0.972247
 
 Requested basis set is 6-311++G(2df,2p)
 There are 42 shells and 132 basis functions
 A cutoff of  1.0D-12 yielded    875 shell pairs
 There are      8737 function pairs (     10882 Cartesian)
 Smallest overlap matrix eigenvalue = 8.76E-04
 Guess MOs from SCF MO coefficient file

 -----------------------------------------------------------------------
  General SCF calculation program by
  Eric Jon Sundstrom, Paul Horn, Yuezhi Mao, Dmitri Zuev, Alec White,
  David Stuck, Shaama M.S., Shane Yost, Joonho Lee, David Small,
  Daniel Levine, Susi Lehtola, Hugh Burton, Evgeny Epifanovsky,
  Bang C. Huynh
 -----------------------------------------------------------------------
 Exchange:     0.1500 Hartree-Fock + 1.0000 wB97M-V + LR-HF
 Correlation:  1.0000 wB97M-V
 Using SG-2 standard quadrature grid
 Nonlocal Correlation:  VV10 with C = 0.0100 and b = 6.00 and scale = 1.00000
 Grid used for NLC:  SG-1 standard quadrature
 
 Citation of the SMD model:
 Marenich, A.V.; Cramer, C.J.; Truhlar, D.G.
 J. Phys. Chem. B 2009, 113, 6378-6396.
 iSolventCode=           1
 Solvent: water                                                           
 
 vradii
            1           2           3           4           5           6
    1   1.2000000   1.5200000   1.5200000   1.2000000   1.5200000   1.2000000
 -------------------------------------------------------
 OpenMP BLAS3 based DFT computing Module                
 Release: version 1.0, May 2013, Q-Chem Inc. Pittsburgh 
 -------------------------------------------------------
 A unrestricted SCF calculation will be
 performed using Roothaan-Hall, DIIS, GDM
 SCF converges when RMS gradient is below 1.0e-07
 ---------------------------------------
  Cycle       Energy         DIIS error
 ---------------------------------------
    1    -227.2893943179      4.87e-04  Roothaan Step
 ---------------------------------------
  Cycle       Energy         DIIS error
 ---------------------------------------
    1    -227.3096220714      5.01e-04  
    2    -227.3123918742      2.56e-04  Done DIIS. Switching to GDM
 ---------------------------------------
  Cycle       Energy        RMS Gradient
 ---------------------------------------
    1    -227.3123918742      4.96e-03   Normal BFGS step
    2    -227.3125990514      5.05e-03   Normal BFGS step
    3    -227.3128328070      6.43e-04   Normal BFGS step
    4    -227.3128356003      1.02e-03   Normal BFGS step
    5    -227.3128443894      3.71e-04   Normal BFGS step
    6    -227.3128446913      2.45e-04   Normal BFGS step
    7    -227.3128449221      2.38e-04   Normal BFGS step
    8    -227.3128450323      7.95e-05   Normal BFGS step
    9    -227.3128450983      7.12e-05   Normal BFGS step
   10    -227.3128451203      3.59e-05   Normal BFGS step
   11    -227.3128451259      2.79e-05   Normal BFGS step
   12    -227.3128451290      2.20e-05   Normal BFGS step
   13    -227.3128451310      2.19e-05   Normal BFGS step
   14    -227.3128451340      2.14e-05   Normal BFGS step
   15    -227.3128451372      1.74e-05   Normal BFGS step
   16    -227.3128451397      1.30e-05   Normal BFGS step
   17    -227.3128451405      6.12e-06   Normal BFGS step
   18    -227.3128451407      1.94e-06   Normal BFGS step
   19    -227.3128451407      7.38e-07   Normal BFGS step
   20    -227.3128451407      4.21e-07   Normal BFGS step
   21    -227.3128451407      2.77e-07   Normal BFGS step
   22    -227.3128451407      1.34e-07   Normal BFGS step
   23    -227.3128451407      3.80e-08  Convergence criterion met
 ---------------------------------------
 SCF time:   CPU 147.14s  wall 19.00s 
<S^2> =          0.757983664
(3)  G-ENP(liq) elect-nuc-pol free energy of system     -227.312845141 a.u.
(4)  G-CDS(liq) cavity-dispersion-solvent structure 
     free energy                                                1.5112 kcal/mol
(6)  G-S(liq) free energy of system                     -227.310436920 a.u.
 SCF   energy in the final basis set =     -227.3104369198
 Total energy in the final basis set =     -227.3104369198
 
 --------------------------------------------------------------
 
                    Orbital Energies (a.u.)
 --------------------------------------------------------------
 
 Alpha MOs
 -- Occupied --
-19.4167 -19.4106 -19.3928  -1.2882  -1.1482  -1.0253  -0.6995  -0.6233
 -0.5896  -0.5700  -0.5079  -0.4667  -0.4353  -0.4089
 -- Virtual --
  0.0318   0.0506   0.0661   0.1392   0.1665   0.1930   0.2080   0.2153
  0.2222   0.2264   0.2460   0.2566   0.2783   0.2865   0.2971   0.3139
  0.3672   0.3725   0.4186   0.5739   0.6027   0.6349   0.7506   0.7783
  0.8182   0.8333   0.8599   0.9369   0.9666   0.9917   1.0435   1.0749
  1.0969   1.1194   1.1513   1.1750   1.1953   1.3974   1.4198   1.4543
  1.5254   1.5361   1.5584   1.6097   1.6359   1.7877   1.8407   1.8679
  1.9377   1.9714   2.0906   2.2227   2.2417   2.3082   2.3519   2.4755
  2.5131   2.6390   2.7529   2.7875   2.9045   3.6826   3.7084   3.7725
  3.7884   3.8685   3.9247   4.1013   4.1942   4.2229   4.6207   4.6368
  4.7014   4.8318   4.9575   5.0300   5.0569   5.0691   5.0929   5.1201
  5.1299   5.1564   5.2321   5.2684   5.2811   5.3031   5.3375   5.4071
  5.4611   5.5453   5.6065   5.6467   5.6872   5.7546   6.1483   6.1600
  6.8189   6.8765   6.8883   6.9150   6.9492   6.9646   6.9886   7.0730
  7.1495   7.1823   7.2057   7.3329   7.3558   7.4344   7.5480   7.6051
  7.6954   7.8706   8.0238  50.3821  50.4233  50.4558
 
 Beta MOs
 -- Occupied --
-19.4089 -19.4088 -19.3735  -1.2784  -1.1003  -1.0104  -0.6834  -0.5997
 -0.5665  -0.5597  -0.4467  -0.4254  -0.3976
 -- Virtual --
 -0.1073   0.0330   0.0519   0.0678   0.1441   0.1700   0.1970   0.2094
  0.2190   0.2249   0.2307   0.2483   0.2580   0.2795   0.2882   0.3006
  0.3171   0.3687   0.3874   0.4216   0.5829   0.6051   0.6419   0.7587
  0.7804   0.8201   0.8345   0.8663   0.9412   0.9699   0.9993   1.0475
  1.0784   1.1238   1.1284   1.1593   1.1820   1.2049   1.4015   1.4328
  1.4670   1.5389   1.5473   1.5739   1.6167   1.6456   1.8074   1.8583
  1.8795   1.9585   1.9765   2.1073   2.2267   2.2475   2.3179   2.3567
  2.4866   2.5240   2.6475   2.7720   2.7929   2.8976   3.6857   3.7172
  3.7793   3.7868   3.8661   3.9242   4.1054   4.2010   4.2271   4.6245
  4.6469   4.7063   4.8406   4.9671   5.0830   5.1107   5.1146   5.1445
  5.1469   5.1487   5.1906   5.2397   5.2911   5.3215   5.3284   5.3555
  5.4211   5.4777   5.5657   5.6264   5.6668   5.7137   5.7808   6.1518
  6.1744   6.8702   6.8936   6.9331   6.9547   6.9725   6.9922   7.0276
  7.1102   7.1894   7.2107   7.2277   7.3442   7.3864   7.4650   7.5564
  7.6509   7.7521   7.8850   8.0312  50.3892  50.4284  50.4645
 --------------------------------------------------------------
 
          Ground-State Mulliken Net Atomic Charges

     Atom                 Charge (a.u.)    Spin (a.u.)
  --------------------------------------------------------
      1 H                     0.340626      -0.001509
      2 O                    -0.286313       0.059126
      3 O                    -0.306490       0.248455
      4 H                     0.381808      -0.041434
      5 O                    -0.476815       0.748751
      6 H                     0.347184      -0.013390
  --------------------------------------------------------
  Sum of atomic charges =     0.000000
  Sum of spin   charges =     1.000000

 -----------------------------------------------------------------
                    Cartesian Multipole Moments
 -----------------------------------------------------------------
    Charge (ESU x 10^10)
                 0.0000
    Dipole Moment (Debye)
         X       1.8878      Y       0.8809      Z      -1.4052
       Tot       2.5128
    Quadrupole Moments (Debye-Ang)
        XX     -20.2764     XY      -1.8605     YY     -13.3671
        XZ      -3.0275     YZ       0.8637     ZZ     -20.3826
    Octopole Moments (Debye-Ang^2)
       XXX      46.4215    XXY     -13.2184    XYY       6.6008
       YYY     -12.9914    XXZ       9.8187    XYZ      -1.6693
       YYZ       5.0010    XZZ      16.2963    YZZ     -13.0255
       ZZZ      24.6274
    Hexadecapole Moments (Debye-Ang^3)
      XXXX    -176.5450   XXXY      55.8554   XXYY     -42.6633
      XYYY      24.6126   YYYY     -63.2486   XXXZ     -55.1508
      XXYZ      19.1016   XYYZ     -13.3913   YYYZ      26.6346
      XXZZ     -47.8288   XYZZ      19.5923   YYZZ     -33.4146
      XZZZ     -48.9989   YZZZ      42.6719   ZZZZ     -90.4071
 -----------------------------------------------------------------
 Calculating analytic gradient of the SCF energy
 Gradient of CDS energy
            1           2           3           4           5           6
    1   0.0004011  -0.0002709   0.0000867  -0.0001473  -0.0000675  -0.0000021
    2  -0.0001710   0.0000133   0.0000855  -0.0002567  -0.0001440   0.0004728
    3  -0.0002320   0.0002037   0.0002544  -0.0002776  -0.0000434   0.0000949
 Gradient of SCF Energy
            1           2           3           4           5           6
    1   0.0069616  -0.0053596  -0.0016451   0.0030195  -0.0087369   0.0057606
    2  -0.0063580   0.0072975  -0.0050466   0.0022679  -0.0094028   0.0112421
    3  -0.0136035   0.0143140   0.0059146  -0.0042962  -0.0092140   0.0068850
 Max gradient component =       1.431E-02
 RMS gradient           =       7.864E-03
 Computing fast CPCM-SWIG gradient
 Updating gradient with PCM contributions...
 -- total gradient after adding PCM contribution --
---------------------------------------------------
  Atom         X              Y              Z     
---------------------------------------------------
   1      -0.000301       0.000339       0.000531
   2       0.000296      -0.000363      -0.000616
   3       0.000006       0.000123      -0.000003
   4      -0.000019      -0.000010       0.000050
   5       0.000028      -0.000090       0.000083
   6      -0.000011       0.000001      -0.000045
---------------------------------------------------
 Number of fixed atoms: 0
 Gradient time:  CPU 13.84 s  wall 1.94 s
 ----------------------------------------------------------------
             Standard Nuclear Orientation (Angstroms)
    I     Atom           X                Y                Z
 ----------------------------------------------------------------
    1      H       0.9949125964    -0.2747980045    -0.5248965483
    2      O       0.5641584545     0.1829249315     0.2143091671
    3      O      -0.7834916298    -0.1575927451     0.0736512841
    4      H      -1.1135005784     0.4095156323    -0.7359600382
    5      O      -1.6722188213     1.5031128363    -1.3322003106
    6      H      -1.3466972213     2.2559545495    -0.8101570541
 ----------------------------------------------------------------
 Nuclear Repulsion Energy =          75.14397105 hartrees
 There are       14 alpha and       13 beta electrons
 Discretize the solute cavity surface with Lebedev spheres
	Using 110 Lebedev grid points for each H atom
	Using 194 Lebedev grid points for other atoms
	Atomic van der Waals radii will be scaled by 1.20
 Remove points where switching function is < 1.0e-08
 Keep 590 surface tesserae and discard 322 interior tesserae
 Molecular Surface Area = 71.316 Angst**2

                       Distance Matrix (Angstroms)
             H (  1)   O (  2)   O (  3)   H (  4)   O (  5)
   O (  2)  0.970301
   O (  3)  1.880085  1.397103
   H (  4)  2.226710  1.941364  1.042108
   O (  5)  3.305495  3.022577  2.350361  1.365146
   H (  6)  3.459656  2.999725  2.631260  1.862585  0.972247
 
 Requested basis set is 6-311++G(2df,2p)
 There are 42 shells and 132 basis functions
 A cutoff of  1.0D-12 yielded    875 shell pairs
 There are      8737 function pairs (     10882 Cartesian)
 Smallest overlap matrix eigenvalue = 8.76E-04
 Guess MOs from SCF MO coefficient file

 -----------------------------------------------------------------------
  General SCF calculation program by
  Eric Jon Sundstrom, Paul Horn, Yuezhi Mao, Dmitri Zuev, Alec White,
  David Stuck, Shaama M.S., Shane Yost, Joonho Lee, David Small,
  Daniel Levine, Susi Lehtola, Hugh Burton, Evgeny Epifanovsky,
  Bang C. Huynh
 -----------------------------------------------------------------------
 Exchange:     0.1500 Hartree-Fock + 1.0000 wB97M-V + LR-HF
 Correlation:  1.0000 wB97M-V
 Using SG-2 standard quadrature grid
[...]
(6)  G-S(liq) free energy of system                     -227.319469695 a.u.
 SCF   energy in the final basis set =     -227.3194696953
 Total energy in the final basis set =     -227.3194696953
 
 --------------------------------------------------------------
 
                    Orbital Energies (a.u.)
 --------------------------------------------------------------
 
 Alpha MOs
 -- Occupied --
-19.4162 -19.3903 -19.3827  -1.2551  -1.1561  -1.0191  -0.6573  -0.6019
 -0.5985  -0.5449  -0.5314  -0.4785  -0.4141  -0.4086
 -- Virtual --
  0.0317   0.0504   0.0629   0.1357   0.1668   0.1916   0.2007   0.2113
  0.2166   0.2278   0.2435   0.2564   0.2742   0.2792   0.2843   0.3071
  0.3701   0.3831   0.4158   0.5772   0.6110   0.6494   0.7266   0.7769
  0.8039   0.8369   0.8525   0.9387   0.9586   0.9804   0.9930   1.0766
  1.0787   1.1388   1.1643   1.1906   1.2050   1.3105   1.4154   1.4332
  1.4926   1.5076   1.5494   1.5944   1.6302   1.7107   1.8097   1.8391
  1.8707   1.9354   1.9768   2.1771   2.2315   2.2596   2.2940   2.3534
  2.4426   2.6022   2.7152   2.8122   2.9156   3.6391   3.6725   3.7425
  3.8165   3.8429   3.9420   4.1731   4.2242   4.3755   4.6040   4.6928
  4.7195   4.8596   4.9788   5.0048   5.0470   5.0584   5.0754   5.1372
  5.1440   5.1488   5.1734   5.2615   5.2782   5.3450   5.3737   5.4288
  5.4351   5.5478   5.6103   5.6242   5.6466   5.7893   6.0579   6.0804
  6.7377   6.7914   6.8829   6.9148   6.9409   6.9662   6.9764   7.0271
  7.0959   7.1477   7.2296   7.3166   7.3612   7.3816   7.4798   7.5350
  7.5841   7.8259   8.0587  50.3634  50.4367  50.4582
 
 Beta MOs
 -- Occupied --
-19.3915 -19.3902 -19.3828  -1.2550  -1.0853  -1.0187  -0.6569  -0.5978
 -0.5720  -0.5441  -0.4498  -0.4134  -0.4067
 -- Virtual --
 -0.0814   0.0324   0.0515   0.0639   0.1358   0.1700   0.1954   0.2096
  0.2128   0.2217   0.2314   0.2436   0.2568   0.2742   0.2813   0.2864
  0.3076   0.3698   0.3810   0.4148   0.5827   0.6111   0.6528   0.7271
  0.7815   0.8147   0.8380   0.8535   0.9427   0.9590   0.9829   0.9950
  1.0793   1.1298   1.1404   1.1696   1.1983   1.2072   1.3205   1.4319
  1.4372   1.5207   1.5381   1.5631   1.6011   1.6342   1.7268   1.8242
  1.8773   1.8842   1.9357   1.9824   2.1829   2.2328   2.2665   2.3135
  2.3582   2.4474   2.6043   2.7319   2.8138   2.9162   3.6418   3.6937
  3.7474   3.8180   3.8432   3.9463   4.1857   4.2245   4.3787   4.6040
  4.6930   4.7203   4.8596   5.0035   5.1037   5.1083   5.1183   5.1420
  5.1581   5.1726   5.1836   5.2275   5.2631   5.3222   5.3555   5.3747
  5.4293   5.4410   5.6101   5.6177   5.6344   5.6553   5.7895   6.0581
  6.0807   6.7932   6.8417   6.9401   6.9668   6.9721   7.0041   7.0244
  7.0571   7.1279   7.1724   7.2401   7.3319   7.3699   7.3853   7.5252
  7.5358   7.5924   7.8259   8.0586  50.3802  50.4371  50.4583
 --------------------------------------------------------------
 
          Ground-State Mulliken Net Atomic Charges

     Atom                 Charge (a.u.)    Spin (a.u.)
  --------------------------------------------------------
      1 H                     0.336305       0.000101
      2 O                    -0.342900       0.000965
      3 O                    -0.398080       0.001020
      4 H                     0.367050      -0.004702
      5 O                    -0.307434       1.018104
      6 H                     0.345059      -0.015488
  --------------------------------------------------------
  Sum of atomic charges =    -0.000000
  Sum of spin   charges =     1.000000

 -----------------------------------------------------------------
                    Cartesian Multipole Moments
 -----------------------------------------------------------------
    Charge (ESU x 10^10)
                -0.0000
    Dipole Moment (Debye)
         X       0.8642      Y       1.9020      Z      -1.8338
       Tot       2.7798
    Quadrupole Moments (Debye-Ang)
        XX     -17.9022     XY      -2.8911     YY     -13.6478
        XZ      -3.1511     YZ       1.0556     ZZ     -20.6768
    Octopole Moments (Debye-Ang^2)
       XXX      39.9347    XXY     -11.9179    XYY       8.0955
       YYY     -14.2668    XXZ      11.0214    XYZ      -4.0708
       YYZ       7.7595    XZZ      18.4301    YZZ     -14.4834
       ZZZ      26.7746
    Hexadecapole Moments (Debye-Ang^3)
      XXXX    -166.9687   XXXY      57.1707   XXYY     -51.6194
      XYYY      37.0959   YYYY     -97.3127   XXXZ     -62.2082
      XXYZ      28.2841   XYYZ     -23.6628   YYYZ      43.6630
      XXZZ     -57.9675   XYZZ      28.8914   YYZZ     -46.6675
      XZZZ     -60.8000   YZZZ      55.8658   ZZZZ    -104.4722
 -----------------------------------------------------------------
 Calculating analytic gradient of the SCF energy
 Gradient of CDS energy
            1           2           3           4           5           6
    1   0.0003822  -0.0002567   0.0002099  -0.0002865  -0.0000840   0.0000352
    2  -0.0001418  -0.0000180  -0.0000210  -0.0001533  -0.0001286   0.0004627
    3  -0.0002656   0.0002381   0.0002851  -0.0001934  -0.0002006   0.0001364
 Gradient of SCF Energy
            1           2           3           4           5           6
    1   0.0046964  -0.0019057  -0.0019986   0.0008788  -0.0102931   0.0086222
    2  -0.0037264   0.0048919  -0.0056810   0.0070660  -0.0111468   0.0085962
    3  -0.0109484   0.0117420   0.0069587  -0.0069336  -0.0134044   0.0125857
 Max gradient component =       1.340E-02
 RMS gradient           =       8.237E-03
 Computing fast CPCM-SWIG gradient
 Updating gradient with PCM contributions...
 -- total gradient after adding PCM contribution --
---------------------------------------------------
  Atom         X              Y              Z     
---------------------------------------------------
   1      -0.001465       0.000891       0.000772
   2       0.000811      -0.000989      -0.000816
   3      -0.001458       0.003418      -0.001268
   4       0.001767      -0.000935       0.000021
   5      -0.000016      -0.000831       0.000621
   6       0.000360      -0.001554       0.000669
---------------------------------------------------
 Number of fixed atoms: 0
 Gradient time:  CPU 12.72 s  wall 1.80 s
rPathMan2.  file_steps = 952
 IRC --- Status = 3.  Assess initial corrector step
 IRC --- bisector search: b =  0.000000 E =     -227.319469 G.B =  -0.004442
 IRC --- bisector search: b =  0.009518 E =     -227.319470 G.B =   0.004379
 IRC --- performed gradient/energy interpolation
 IRC --- bisector search:  estimate b(min) =   4.822741260004319E-003
 ----------------------------------------------------------------
             Standard Nuclear Orientation (Angstroms)
    I     Atom           X                Y                Z
 ----------------------------------------------------------------
    1      H       1.0618687247    -0.2894492142    -0.4912995264
    2      O       0.5882442740     0.1974939549     0.1964324058
    3      O      -0.7374913591    -0.3277015153     0.0844195130
    4      H      -1.1333325687     0.2747224506    -0.5747856018
    5      O      -1.7796513886     1.7264675146    -1.4807233637
    6      H      -1.3564770625     2.3375834185    -0.8482982855
 ----------------------------------------------------------------
 Nuclear Repulsion Energy =          70.65638351 hartrees
 There are       14 alpha and       13 beta electrons
 Discretize the solute cavity surface with Lebedev spheres
	Using 110 Lebedev grid points for each H atom
	Using 194 Lebedev grid points for other atoms
	Atomic van der Waals radii will be scaled by 1.20
 Remove points where switching function is < 1.0e-08
 Keep 614 surface tesserae and discard 298 interior tesserae
 Molecular Surface Area = 75.061 Angst**2

                       Distance Matrix (Angstroms)
             H (  1)   O (  2)   O (  3)   H (  4)   O (  5)
   O (  2)  0.966648
   O (  3)  1.889606  1.430368
   H (  4)  2.268076  1.888006  0.976809
   O (  5)  3.621756  3.279869  2.784848  1.829212
   H (  6)  3.588474  3.074636  2.890822  2.092844  0.975961
 
 Applying Cartesian multipole field
    Component          Value
    ---------          -----
     (2,0,0)        1.00000E-11
     (0,2,0)        2.00000E-11
     (0,0,2)       -3.00000E-11
 Nucleus-field energy     =     0.0000000014 hartrees
 Requested basis set is 6-311++G(2df,2p)
 There are 42 shells and 132 basis functions
 A cutoff of  1.0D-12 yielded    859 shell pairs
 There are      8512 function pairs (     10567 Cartesian)
 Smallest overlap matrix eigenvalue = 1.00E-03
 Guess MOs from SCF MO coefficient file

 -----------------------------------------------------------------------
  General SCF calculation program by
  Eric Jon Sundstrom, Paul Horn, Yuezhi Mao, Dmitri Zuev, Alec White,
  David Stuck, Shaama M.S., Shane Yost, Joonho Lee, David Small,
  Daniel Levine, Susi Lehtola, Hugh Burton, Evgeny Epifanovsky,
  Bang C. Huynh
 -----------------------------------------------------------------------
 Exchange:     0.1500 Hartree-Fock + 1.0000 wB97M-V + LR-HF
 Correlation:  1.0000 wB97M-V
 Using SG-2 standard quadrature grid
 Nonlocal Correlation:  VV10 with C = 0.0100 and b = 6.00 and scale = 1.00000
 Grid used for NLC:  SG-1 standard quadrature
 
 Citation of the SMD model:
 Marenich, A.V.; Cramer, C.J.; Truhlar, D.G.
 J. Phys. Chem. B 2009, 113, 6378-6396.
 iSolventCode=           1
 Solvent: water                                                           
 
 vradii
            1           2           3           4           5           6
    1   1.2000000   1.5200000   1.5200000   1.2000000   1.5200000   1.2000000
 -------------------------------------------------------
 OpenMP BLAS3 based DFT computing Module                
 Release: version 1.0, May 2013, Q-Chem Inc. Pittsburgh 
 -------------------------------------------------------
 A unrestricted SCF calculation will be
 performed using Roothaan-Hall, DIIS, GDM
 SCF converges when RMS gradient is below 1.0e-07
 ---------------------------------------
  Cycle       Energy         DIIS error
 ---------------------------------------
    1    -227.2944626599      5.26e-04  Roothaan Step
 ---------------------------------------
  Cycle       Energy         DIIS error
 ---------------------------------------
    1    -227.3181738847      5.48e-04  
    2    -227.3213760210      2.97e-04  Done DIIS. Switching to GDM
 ---------------------------------------
  Cycle       Energy        RMS Gradient
 ---------------------------------------
    1    -227.3213760210      6.59e-03   Normal BFGS step
    2    -227.3216427215      4.10e-03   Normal BFGS step
    3    -227.3219546187      5.41e-04   Normal BFGS step
    4    -227.3219585773      7.66e-04   Normal BFGS step
    5    -227.3219629203      1.16e-04   Normal BFGS step
    6    -227.3219630121      5.23e-05   Normal BFGS step
    7    -227.3219630283      2.95e-05   Normal BFGS step
    8    -227.3219630314      9.79e-06   Normal BFGS step
    9    -227.3219630319      7.30e-06   Normal BFGS step
   10    -227.3219630321      8.15e-06   Normal BFGS step
   11    -227.3219630323      8.34e-06   Normal BFGS step
   12    -227.3219630326      7.82e-06   Normal BFGS step
   13    -227.3219630330      1.31e-05   Normal BFGS step
   14    -227.3219630336      1.65e-05   Normal BFGS step
   15    -227.3219630343      1.47e-05   Normal BFGS step
   16    -227.3219630348      7.81e-06   Normal BFGS step
   17    -227.3219630349      2.35e-06   Normal BFGS step
   18    -227.3219630350      6.34e-07   Normal BFGS step
   19    -227.3219630350      1.63e-07   Normal BFGS step
   20    -227.3219630350      6.94e-08  Convergence criterion met
 ---------------------------------------
 SCF time:   CPU 125.19s  wall 16.00s 
<S^2> =          0.752864017
(3)  G-ENP(liq) elect-nuc-pol free energy of system     -227.321963035 a.u.
(4)  G-CDS(liq) cavity-dispersion-solvent structure 
     free energy                                                1.5582 kcal/mol
(6)  G-S(liq) free energy of system                     -227.319479913 a.u.
 SCF   energy in the final basis set =     -227.3194799126
 Total energy in the final basis set =     -227.3194799126
 
 --------------------------------------------------------------
 
                    Orbital Energies (a.u.)
 --------------------------------------------------------------
 
 Alpha MOs
 -- Occupied --
-19.4163 -19.3903 -19.3828  -1.2545  -1.1562  -1.0183  -0.6565  -0.6019
 -0.5984  -0.5447  -0.5315  -0.4786  -0.4139  -0.4085
 -- Virtual --
  0.0317   0.0504   0.0629   0.1357   0.1668   0.1915   0.2007   0.2112
  0.2164   0.2277   0.2433   0.2563   0.2741   0.2792   0.2840   0.3070
  0.3701   0.3826   0.4159   0.5769   0.6100   0.6485   0.7261   0.7765
  0.8037   0.8365   0.8521   0.9388   0.9589   0.9806   0.9935   1.0766
  1.0789   1.1388   1.1643   1.1906   1.2052   1.3094   1.4150   1.4322
  1.4926   1.5075   1.5501   1.5941   1.6298   1.7104   1.8093   1.8387
  1.8706   1.9353   1.9756   2.1766   2.2309   2.2598   2.2941   2.3529
  2.4445   2.6018   2.7152   2.8114   2.9131   3.6391   3.6724   3.7421
  3.8160   3.8426   3.9419   4.1727   4.2206   4.3697   4.6037   4.6924
  4.7186   4.8596   4.9787   5.0047   5.0469   5.0583   5.0754   5.1372
  5.1437   5.1487   5.1733   5.2609   5.2779   5.3444   5.3736   5.4251
  5.4337   5.5473   5.6052   5.6226   5.6430   5.7860   6.0559   6.0779
  6.7376   6.7904   6.8827   6.9144   6.9407   6.9659   6.9759   7.0266
  7.0948   7.1428   7.2232   7.3085   7.3585   7.3812   7.4790   7.5334
  7.5834   7.8259   8.0589  50.3632  50.4356  50.4564
 
 Beta MOs
 -- Occupied --
-19.3916 -19.3903 -19.3828  -1.2544  -1.0853  -1.0179  -0.6561  -0.5976
 -0.5720  -0.5439  -0.4499  -0.4131  -0.4065
 -- Virtual --
 -0.0815   0.0324   0.0515   0.0639   0.1357   0.1699   0.1954   0.2095
  0.2127   0.2216   0.2313   0.2434   0.2567   0.2741   0.2813   0.2862
  0.3075   0.3698   0.3805   0.4149   0.5823   0.6101   0.6519   0.7267
  0.7811   0.8146   0.8376   0.8532   0.9428   0.9593   0.9832   0.9954
  1.0794   1.1298   1.1404   1.1696   1.1983   1.2074   1.3194   1.4308
  1.4368   1.5208   1.5383   1.5633   1.6008   1.6338   1.7265   1.8235
  1.8770   1.8841   1.9356   1.9812   2.1824   2.2321   2.2668   2.3138
  2.3575   2.4492   2.6039   2.7318   2.8130   2.9137   3.6417   3.6935
  3.7470   3.8175   3.8429   3.9463   4.1852   4.2209   4.3729   4.6038
  4.6926   4.7195   4.8597   5.0034   5.1036   5.1082   5.1182   5.1420
  5.1582   5.1725   5.1834   5.2270   5.2625   5.3220   5.3551   5.3746
  5.4256   5.4396   5.6051   5.6171   5.6311   5.6535   5.7862   6.0561
  6.0782   6.7921   6.8417   6.9396   6.9663   6.9718   7.0040   7.0240
  7.0565   7.1255   7.1672   7.2337   7.3275   7.3656   7.3844   7.5244
  7.5346   7.5918   7.8259   8.0589  50.3800  50.4360  50.4565
 --------------------------------------------------------------
 
          Ground-State Mulliken Net Atomic Charges

     Atom                 Charge (a.u.)    Spin (a.u.)
  --------------------------------------------------------
      1 H                     0.336758       0.000100
      2 O                    -0.343475       0.000972
      3 O                    -0.398794       0.000989
      4 H                     0.367393      -0.004709
      5 O                    -0.307062       1.018152
      6 H                     0.345180      -0.015502
  --------------------------------------------------------
  Sum of atomic charges =     0.000000
  Sum of spin   charges =     1.000000

 -----------------------------------------------------------------
                    Cartesian Multipole Moments
 -----------------------------------------------------------------
    Charge (ESU x 10^10)
                 0.0000
    Dipole Moment (Debye)
         X       0.8603      Y       1.9076      Z      -1.8407
       Tot       2.7869
    Quadrupole Moments (Debye-Ang)
        XX     -17.8986     XY      -2.9016     YY     -13.6433
        XZ      -3.1451     YZ       1.0500     ZZ     -20.6752
    Octopole Moments (Debye-Ang^2)
       XXX      39.9185    XXY     -11.9006    XYY       8.0802
       YYY     -14.2314    XXZ      10.9979    XYZ      -4.0587
       YYZ       7.7385    XZZ      18.4209    YZZ     -14.4696
       ZZZ      26.7400
    Hexadecapole Moments (Debye-Ang^3)
      XXXX    -166.9591   XXXY      57.1287   XXYY     -51.5969
      XYYY      37.0418   YYYY     -97.3042   XXXZ     -62.1856
      XXYZ      28.2666   XYYZ     -23.6393   YYYZ      43.6389
      XXZZ     -57.9567   XYZZ      28.8656   YYZZ     -46.6600
      XZZZ     -60.7805   YZZZ      55.8542   ZZZZ    -104.4893
 -----------------------------------------------------------------
 Calculating analytic gradient of the SCF energy
 Gradient of CDS energy
            1           2           3           4           5           6
    1   0.0003820  -0.0002561   0.0002091  -0.0002861  -0.0000840   0.0000351
    2  -0.0001417  -0.0000184  -0.0000209  -0.0001533  -0.0001284   0.0004628
    3  -0.0002650   0.0002375   0.0002840  -0.0001923  -0.0002005   0.0001362
 Gradient of SCF Energy
            1           2           3           4           5           6
    1   0.0053720  -0.0026650  -0.0010025   0.0000092  -0.0104080   0.0086942
    2  -0.0045982   0.0058906  -0.0075597   0.0087528  -0.0111773   0.0086918
    3  -0.0121246   0.0128941   0.0087886  -0.0086885  -0.0135615   0.0126920
 Max gradient component =       1.356E-02
 RMS gradient           =       8.888E-03
 Computing fast CPCM-SWIG gradient
 Updating gradient with PCM contributions...
 -- total gradient after adding PCM contribution --
---------------------------------------------------
  Atom         X              Y              Z     
---------------------------------------------------
   1      -0.000782       0.000015      -0.000401
   2       0.000041       0.000013       0.000335
   3      -0.000456       0.001547       0.000560
   4       0.000888       0.000753      -0.001740
   5      -0.000120      -0.000859       0.000478
   6       0.000429      -0.001470       0.000769
---------------------------------------------------
 Number of fixed atoms: 0
 Gradient time:  CPU 13.18 s  wall 1.93 s
rPathMan2.  file_steps = 952
 IRC --- Status = 4.  Checking bisector search.
 IRC --- Bisector search finished successfully.
 ------------------------------------------------------------------------
 Reaction path following.  The coordinates are cartesian              
 Step  10 E=    -227.319480 |G|=  0.003478 S_lin= 0.7889 S_tot= 0.8652
 ------------------------------------------------------------------------
  IRC -- convergence criterion reached.
 ----------------------------------------------------------------
             Standard Nuclear Orientation (Angstroms)
    I     Atom           X                Y                Z
 ----------------------------------------------------------------
    1      H       0.9949125964    -0.2747980045    -0.5238965483
    2      O       0.5641584545     0.1829249315     0.2143091671
    3      O      -0.7834916298    -0.1575927451     0.0736512841
    4      H      -1.1135005784     0.4095156323    -0.7359600382
    5      O      -1.6722188213     1.5031128363    -1.3322003106
    6      H      -1.3466972213     2.2559545495    -0.8101570541
 ----------------------------------------------------------------
 Nuclear Repulsion Energy =          75.14767097 hartrees
 There are       14 alpha and       13 beta electrons
 Here is where we should summarize the reaction path
 Total job time:  1504.76s(wall), 11674.02s(cpu) 
 Tue Jul 25 21:39:31 2023

        *************************************************************
        *                                                           *
        *  Thank you very much for using Q-Chem.  Have a nice day.  *
        *                                                           *
        *************************************************************


