
Running Job 1 of 2 Q_in.in
qchem Q_in.in_362884.0 /scratch/ari.fischer/qChem1640756.hpc-mn1/qchem362884/ 0
/usr/local/qchem-5.4.1/exe/qcprog.exe_s Q_in.in_362884.0 /scratch/ari.fischer/qChem1640756.hpc-mn1/qchem362884/
                  Welcome to Q-Chem
     A Quantum Leap Into The Future Of Chemistry


 Q-Chem 5.4, Q-Chem, Inc., Pleasanton, CA (2021)

 License issued to: Nanyang Technological University (site)

 E. Epifanovsky,  A. T. B. Gilbert,  Xintian Feng,  Joonho Lee,  Yuezhi Mao,  
 N. Mardirossian,  P. Pokhilko,  A. White,  M. Wormit,  M. P. Coons,  
 A. L. Dempwolff,  Zhengting Gan,  D. Hait,  P. R. Horn,  L. D. Jacobson,  
 I. Kaliman,  J. Kussmann,  A. W. Lange,  Ka Un Lao,  D. S. Levine,  Jie Liu,  
 S. C. McKenzie,  A. F. Morrison,  K. Nanda,  F. Plasser,  D. R. Rehn,  
 M. L. Vidal,  Zhi-Qiang You,  Ying Zhu,  B. Alam,  B. Albrecht,  
 A. Aldossary,  E. Alguire,  J. H. Andersen,  D. Barton,  K. Begam,  A. Behn,  
 Y. A. Bernard,  E. J. Berquist,  H. Burton,  A. Carreras,  K. Carter-Fenk,  
 R. Chakraborty,  A. D. Chien,  K. D. Closser,  V. Cofer-Shabica,  
 S. Dasgupta,  Jia Deng,  M. de Wergifosse,  M. Diedenhofen,  Hainam Do,  
 S. Ehlert,  Po-Tung Fang,  S. Fatehi,  Qingguo Feng,  T. Friedhoff,  
 J. Gayvert,  Qinghui Ge,  G. Gidofalvi,  M. Goldey,  J. Gomes,  
 C. Gonzalez-Espinoza,  S. Gulania,  A. Gunina,  M. W. D. Hanson-Heine,  
 P. H. P. Harbach,  A. W. Hauser,  M. F. Herbst,  M. Hernandez Vera,  
 M. Hodecker,  Z. C. Holden,  S. Houck,  Xunkun Huang,  Kerwin Hui,  
 B. C. Huynh,  M. Ivanov,  Hyunjun Ji,  Hanjie Jiang,  B. Kaduk,  S. Kaehler,  
 K. Khistyaev,  Jaehoon Kim,  P. Klunzinger,  Z. Koczor-Benda,  
 Joong Hoon Koh,  D. Kosenkov,  L. Koulias,  T. Kowalczyk,  C. M. Krauter,  
 K. Kue,  A. Kunitsa,  T. Kus,  A. Landau,  K. V. Lawler,  D. Lefrancois,  
 S. Lehtola,  Rain Li,  Yi-Pei Li,  Jiashu Liang,  M. Liebenthal,  
 Hung-Hsuan Lin,  You-Sheng Lin,  Fenglai Liu,  Kuan-Yu Liu,  
 M. Loipersberger,  A. Luenser,  A. Manjanath,  P. Manohar,  E. Mansoor,  
 S. F. Manzer,  Shan-Ping Mao,  A. V. Marenich,  T. Markovich,  S. Mason,  
 S. A. Maurer,  P. F. McLaughlin,  M. F. S. J. Menger,  J.-M. Mewes,  
 S. A. Mewes,  P. Morgante,  J. W. Mullinax,  K. J. Oosterbaan,  G. Paran,  
 Alexander C. Paul,  Suranjan K. Paul,  F. Pavosevic,  Zheng Pei,  S. Prager,  
 E. I. Proynov,  E. Ramos,  B. Rana,  A. E. Rask,  A. Rettig,  R. M. Richard,  
 F. Rob,  E. Rossomme,  T. Scheele,  M. Scheurer,  M. Schneider,  
 N. Sergueev,  S. M. Sharada,  W. Skomorowski,  D. W. Small,  C. J. Stein,  
 Yu-Chuan Su,  E. J. Sundstrom,  Zhen Tao,  J. Thirman,  T. Tsuchimochi,  
 N. M. Tubman,  S. P. Veccham,  O. Vydrov,  J. Wenzel,  J. Witte,  A. Yamada,  
 Kun Yao,  S. Yeganeh,  S. R. Yost,  A. Zech,  Igor Ying Zhang,  Xing Zhang,  
 Yu Zhang,  D. Zuev,  A. Aspuru-Guzik,  A. T. Bell,  N. A. Besley,  
 K. B. Bravaya,  B. R. Brooks,  D. Casanova,  Jeng-Da Chai,  S. Coriani,  
 C. J. Cramer,  A. E. DePrince, III,  R. A. DiStasio Jr.,  A. Dreuw,  
 B. D. Dunietz,  T. R. Furlani,  W. A. Goddard III,  S. Grimme,  
 S. Hammes-Schiffer,  T. Head-Gordon,  W. J. Hehre,  Chao-Ping Hsu,  
 T.-C. Jagau,  Yousung Jung,  A. Klamt,  Jing Kong,  D. S. Lambrecht,  
 WanZhen Liang,  N. J. Mayhall,  C. W. McCurdy,  J. B. Neaton,  
 C. Ochsenfeld,  J. A. Parkhill,  R. Peverati,  V. A. Rassolov,  Yihan Shao,  
 L. V. Slipchenko,  T. Stauch,  R. P. Steele,  J. E. Subotnik,  
 A. J. W. Thom,  A. Tkatchenko,  D. G. Truhlar,  T. Van Voorhis,  
 T. A. Wesolowski,  K. B. Whaley,  H. L. Woodcock III,  P. M. Zimmerman,  
 S. Faraji,  P. M. W. Gill,  M. Head-Gordon,  J. M. Herbert,  A. I. Krylov

 Additional authors for Version 5.4.1: 
 S. Kotaru,  Shaozhi Li,  Xiangyuan Li,  F. Matz,  A. Molle,  Haisheng Ren,  
 Yingli Su,  Hung-Yi Tsai,  C. Utku,  Fang Wang

 Contributors to earlier versions of Q-Chem not listed above: 
 R. D. Adamson,  B. Austin,  R. Baer,  J. Baker,  G. J. O. Beran,  
 K. Brandhorst,  S. T. Brown,  E. F. C. Byrd,  A. K. Chakraborty,  
 G. K. L. Chan,  Chun-Min Chang,  Yunqing Chen,  C.-L. Cheng,  
 Siu Hung Chien,  D. M. Chipman,  D. L. Crittenden,  H. Dachsel,  
 R. J. Doerksen,  A. D. Dutoi,  R. G. Edgar,  J. Fosso-Tande,  
 L. Fusti-Molnar,  D. Ghosh,  A. Ghysels,  A. Golubeva-Zadorozhnaya,  
 J. Gonthier,  M. S. Gordon,  S. R. Gwaltney,  G. Hawkins,  J. E. Herr,  
 A. Heyden,  S. Hirata,  E. G. Hohenstein,  G. Kedziora,  F. J. Keil,  
 C. Kelley,  Jihan Kim,  R. A. King,  R. Z. Khaliullin,  P. P. Korambath,  
 W. Kurlancheek,  A. Laurent,  A. M. Lee,  M. S. Lee,  S. V. Levchenko,  
 Ching Yeh Lin,  D. Liotard,  E. Livshits,  R. C. Lochan,  I. Lotan,  
 L. A. Martinez-Martinez,  P. E. Maslen,  N. Nair,  D. P. O'Neill,  
 D. Neuhauser,  E. Neuscamman,  C. M. Oana,  R. Olivares-Amaya,  R. Olson,  
 T. M. Perrine,  B. Peters,  P. A. Pieniazek,  A. Prociuk,  Y. M. Rhee,  
 J. Ritchie,  M. A. Rohrdanz,  E. Rosta,  N. J. Russ,  H. F. Schaefer III,  
 M. W. Schmidt,  N. E. Schultz,  S. Sharma,  N. Shenvi,  C. D. Sherrill,  
 A. C. Simmonett,  A. Sodt,  T. Stein,  D. Stuck,  K. S. Thanthiriwatte,  
 V. Vanovschi,  L. Vogt,  Tao Wang,  A. Warshel,  M. A. Watson,  
 C. F. Williams,  Q. Wu,  X. Xu,  Jun Yang,  W. Zhang,  Yan Zhao

 Please cite Q-Chem as follows:
 Y. Shao et al., Mol. Phys. 113, 184-215 (2015)
 DOI: 10.1080/00268976.2014.952696

 Q-Chem 5.4.1 for Intel X86 EM64T Linux

 Parts of Q-Chem use Armadillo 9.800.1 (Horizon Scraper).
 http://arma.sourceforge.net/

 Q-Chem begins on Fri Jul 21 18:14:42 2023  

 Host: 
0

     Scratch files written to /scratch/ari.fischer/qChem1640756.hpc-mn1/qchem362884//
 Aug1521 |scratch|qcdevops|jenkins|workspace|build_RNUM 8249   
 Processing $rem in /usr/local/qchem-5.4.1/config/preferences:
 Processing $rem in /home/ari.fischer/.qchemrc:
 Symmetry turned off for PCM/SM12/SMD calculation


!!********************************************.
!!******************Warning*******************.
!!Desired Analytical derivatives not available.
!!Finite difference job might take a long time.
!!********************************************.
!!********************************************.


 2-order derivative to be evaluated numerically with 1-order analytical derivatives

 Checking the input file for inconsistencies... 	...done.

--------------------------------------------------------------
User input:
--------------------------------------------------------------
$molecule
0 2
H    0.9860017   -0.6082515   -0.5134501
O    0.7113545    0.0695801    0.1191260
O   -0.7113545   -0.0695801    0.1191260
H   -1.0450972    0.7103513   -0.5919733
O   -1.3065782    1.6315673   -1.3269229
H   -1.9911635    2.1854501   -0.9201592
$end

$rem
BASIS = 6-311++G(2df,2p)
GUI = 2
JOB_TYPE = Frequency
METHOD = wB97M-V
SCF_ALGORITHM = DIIS_GDM
MAX_SCF_CYCLES = 400
SCF_CONVERGENCE = 6
THRESH = 11
SYMMETRY_IGNORE = 1
solvent_method = SMD
$end

--------------------------------------------------------------
 ----------------------------------------------------------------
             Standard Nuclear Orientation (Angstroms)
    I     Atom           X                Y                Z
 ----------------------------------------------------------------
    1      H       0.9860017000    -0.6082515000    -0.5134501000
    2      O       0.7113545000     0.0695801000     0.1191260000
    3      O      -0.7113545000    -0.0695801000     0.1191260000
    4      H      -1.0450972000     0.7103513000    -0.5919733000
    5      O      -1.3065782000     1.6315673000    -1.3269229000
    6      H      -1.9911635000     2.1854501000    -0.9201592000
 ----------------------------------------------------------------
 Nuclear Repulsion Energy =          74.94600422 hartrees
 There are       14 alpha and       13 beta electrons
 Requested basis set is 6-311++G(2df,2p)
 There are 42 shells and 132 basis functions

 Total QAlloc Memory Limit 288000 MB
 Mega-Array Size       188 MB
 MEM_STATIC part       192 MB
 
 Citation of the SMD model:
 Marenich, A.V.; Cramer, C.J.; Truhlar, D.G.
 J. Phys. Chem. B 2009, 113, 6378-6396.
 iSolventCode=           1
 Solvent: water                                                           
 
 vradii
            1           2           3           4           5           6
    1   1.2000000   1.5200000   1.5200000   1.2000000   1.5200000   1.2000000
 Changing PCM_VDW_RADII to SMD_RADIUS
 Discretize the solute cavity surface with Lebedev spheres
	Using 110 Lebedev grid points for each H atom
	Using 194 Lebedev grid points for other atoms
	Atomic van der Waals radii will be scaled by 1.20
 Remove points where switching function is < 1.0e-08
 Keep 587 surface tesserae and discard 325 interior tesserae
 Molecular Surface Area = 70.908 Angst**2

                       Distance Matrix (Angstroms)
             H (  1)   O (  2)   O (  3)   H (  4)   O (  5)
   O (  2)  0.966974
   O (  3)  1.889798  1.429499
   H (  4)  2.422858  2.000343  1.106950
   O (  5)  3.306728  2.933072  2.310682  1.207130
   H (  6)  4.102888  3.586171  2.793418  1.782881  0.970000
 
 A cutoff of  1.0D-11 yielded    864 shell pairs
 There are      8653 function pairs (     10773 Cartesian)
 Smallest overlap matrix eigenvalue = 6.85E-04
 Guess from superposition of atomic densities
 Warning:  Energy on first SCF cycle will be non-variational
 SAD guess density has 27.000000 electrons

 -----------------------------------------------------------------------
  General SCF calculation program by
  Eric Jon Sundstrom, Paul Horn, Yuezhi Mao, Dmitri Zuev, Alec White,
  David Stuck, Shaama M.S., Shane Yost, Joonho Lee, David Small,
  Daniel Levine, Susi Lehtola, Hugh Burton, Evgeny Epifanovsky,
  Bang C. Huynh
 -----------------------------------------------------------------------
 Exchange:     0.1500 Hartree-Fock + 1.0000 wB97M-V + LR-HF
 Correlation:  1.0000 wB97M-V
 Using SG-2 standard quadrature grid
 Nonlocal Correlation:  VV10 with C = 0.0100 and b = 6.00 and scale = 1.00000
 Grid used for NLC:  SG-1 standard quadrature
 using 16 threads for integral computing
 -------------------------------------------------------
 OpenMP Integral computing Module                
 Release: version 1.0, May 2013, Q-Chem Inc. Pittsburgh 
 -------------------------------------------------------
 
 Citation of the SMD model:
 Marenich, A.V.; Cramer, C.J.; Truhlar, D.G.
 J. Phys. Chem. B 2009, 113, 6378-6396.
 iSolventCode=           1
 Solvent: water                                                           
 
 vradii
            1           2           3           4           5           6
    1   1.2000000   1.5200000   1.5200000   1.2000000   1.5200000   1.2000000
 -------------------------------------------------------
 OpenMP BLAS3 based DFT computing Module                
 Release: version 1.0, May 2013, Q-Chem Inc. Pittsburgh 
 -------------------------------------------------------
 A unrestricted SCF calculation will be
 performed using DIIS, GDM
 SCF converges when RMS gradient is below 1.0e-06
 ---------------------------------------
  Cycle       Energy         DIIS error
 ---------------------------------------
    1    -227.2156663324      1.69e-02  
    2    -227.2157925268      3.67e-03  Done DIIS. Switching to GDM
 ---------------------------------------
  Cycle       Energy        RMS Gradient
 ---------------------------------------
    1    -227.2157925268      2.33e-01   Descent step
    2    -227.2963294769      5.52e-02   Normal BFGS step
    3    -227.3114944895      2.31e-02   Normal BFGS step
    4    -227.3126985613      1.50e-02   Normal BFGS step
    5    -227.3133145628      7.38e-03   Normal BFGS step
    6    -227.3137547006      5.67e-03   Normal BFGS step
    7    -227.3141080526      3.58e-03   Normal BFGS step
    8    -227.3142075412      4.29e-03   Normal BFGS step
    9    -227.3142655256      2.93e-03   Normal BFGS step
   10    -227.3142966696      1.41e-03   Normal BFGS step
   11    -227.3143110992      1.07e-03   Normal BFGS step
   12    -227.3143187822      9.60e-04   Normal BFGS step
   13    -227.3143237707      8.66e-04   Normal BFGS step
   14    -227.3143269616      4.45e-04   Normal BFGS step
   15    -227.3143281548      1.36e-04   Normal BFGS step
   16    -227.3143284139      1.00e-04   Normal BFGS step
   17    -227.3143284687      7.45e-05   Normal BFGS step
   18    -227.3143284915      5.15e-05   Normal BFGS step
   19    -227.3143285029      3.19e-05   Normal BFGS step
   20    -227.3143285084      1.64e-05   Normal BFGS step
   21    -227.3143285107      7.62e-06   Normal BFGS step
   22    -227.3143285113      2.47e-06   Normal BFGS step
   23    -227.3143285115      1.64e-06   Normal BFGS step
   24    -227.3143285115      1.10e-06   Normal BFGS step
   25    -227.3143285115      3.36e-07  Convergence criterion met
 ---------------------------------------
 SCF time:   CPU 234.04s  wall 15.00s 
<S^2> =          0.758374276
(3)  G-ENP(liq) elect-nuc-pol free energy of system     -227.314328511 a.u.
(4)  G-CDS(liq) cavity-dispersion-solvent structure 
     free energy                                                1.4952 kcal/mol
(6)  G-S(liq) free energy of system                     -227.311945793 a.u.
 SCF   energy in the final basis set =     -227.3119457931
 Total energy in the final basis set =     -227.3119457931
 
 --------------------------------------------------------------
 
                    Orbital Energies (a.u.)
 --------------------------------------------------------------
 
 Alpha MOs
 -- Occupied --
-19.4455 -19.4454 -19.3542  -1.2949  -1.1283  -1.0444  -0.7006  -0.6551
 -0.5885  -0.5614  -0.5006  -0.4551  -0.4345  -0.4295
 -- Virtual --
  0.0322   0.0440   0.0731   0.1109   0.1710   0.1884   0.1944   0.2100
  0.2221   0.2321   0.2484   0.2511   0.2675   0.2827   0.3017   0.3215
  0.3646   0.4129   0.4683   0.5935   0.5994   0.6575   0.7289   0.7665
  0.8252   0.8457   0.8522   0.9197   0.9485   0.9777   1.0598   1.0705
  1.1258   1.1284   1.1340   1.1597   1.2024   1.4000   1.4157   1.4762
  1.4955   1.5479   1.5717   1.6104   1.6682   1.7930   1.8636   1.8836
  1.9123   2.0008   2.1533   2.2104   2.2513   2.3052   2.3401   2.4980
  2.5861   2.6342   2.7256   2.8004   2.9032   3.6599   3.7328   3.7829
  3.8026   3.8558   3.8786   3.9729   4.1984   4.2245   4.5682   4.6496
  4.6666   4.8187   4.9454   5.0425   5.0725   5.0943   5.1029   5.1119
  5.1339   5.1499   5.2209   5.2501   5.3069   5.3540   5.3599   5.4620
  5.5116   5.5566   5.6151   5.6386   5.6781   5.7956   6.0251   6.0863
  6.7540   6.8200   6.8547   6.9175   6.9591   6.9836   6.9912   7.1042
  7.1807   7.1965   7.2122   7.3125   7.3694   7.4747   7.5053   7.5754
  7.8150   7.8547   8.0286  50.3676  50.3907  50.4757
 
 Beta MOs
 -- Occupied --
-19.4402 -19.4321 -19.3424  -1.2767  -1.1011  -1.0178  -0.6753  -0.6259
 -0.5756  -0.5305  -0.4425  -0.4284  -0.4149
 -- Virtual --
 -0.1196   0.0333   0.0461   0.0771   0.1183   0.1746   0.1932   0.1968
  0.2116   0.2246   0.2361   0.2508   0.2525   0.2697   0.2844   0.3046
  0.3239   0.3664   0.4166   0.4963   0.5957   0.6030   0.6634   0.7319
  0.7692   0.8270   0.8476   0.8551   0.9263   0.9527   0.9863   1.0652
  1.0753   1.1351   1.1433   1.1502   1.1674   1.2109   1.4067   1.4217
  1.4885   1.5100   1.5566   1.5815   1.6183   1.6833   1.8118   1.8713
  1.8958   1.9223   2.0162   2.1671   2.2200   2.2583   2.3166   2.3483
  2.5209   2.5892   2.6473   2.7286   2.8092   2.8952   3.6614   3.7379
  3.7766   3.8054   3.8516   3.8825   3.9823   4.2019   4.2300   4.5749
  4.6571   4.6858   4.8365   4.9607   5.0745   5.1020   5.1189   5.1302
  5.1384   5.1650   5.1867   5.2360   5.2705   5.3268   5.3742   5.3781
  5.4884   5.5439   5.5822   5.6318   5.6507   5.7003   5.8273   6.0314
  6.1144   6.7682   6.8724   6.8969   6.9327   6.9924   7.0085   7.0352
  7.1445   7.1988   7.2313   7.2486   7.3346   7.4107   7.4944   7.5205
  7.6122   7.8580   7.8965   8.0468  50.3769  50.3956  50.4843
 --------------------------------------------------------------
 
          Ground-State Mulliken Net Atomic Charges

     Atom                 Charge (a.u.)    Spin (a.u.)
  --------------------------------------------------------
      1 H                     0.353195      -0.004273
      2 O                    -0.187282       0.171425
      3 O                    -0.289650       0.432566
      4 H                     0.486355      -0.025227
      5 O                    -0.704394       0.432244
      6 H                     0.341775      -0.006735
  --------------------------------------------------------
  Sum of atomic charges =     0.000000
  Sum of spin   charges =     1.000000

 -----------------------------------------------------------------
                    Cartesian Multipole Moments
 -----------------------------------------------------------------
    Charge (ESU x 10^10)
                -0.0000
    Dipole Moment (Debye)
         X       0.4877      Y      -1.3611      Z       0.2245
       Tot       1.4631
    Quadrupole Moments (Debye-Ang)
        XX     -13.8671     XY      -5.0468     YY     -16.4355
        XZ      -2.6941     YZ       3.1826     ZZ     -22.4184
    Octopole Moments (Debye-Ang^2)
       XXX      19.6580    XXY      -2.3833    XYY      -0.0457
       YYY     -27.3685    XXZ       6.4228    XYZ       0.6995
       YYZ       9.6556    XZZ      14.6075    YZZ     -17.5044
       ZZZ      30.3641
    Hexadecapole Moments (Debye-Ang^3)
      XXXX    -101.5899   XXXY      17.5763   XXYY     -14.4535
      XYYY      15.9038   YYYY    -106.4139   XXXZ     -33.7726
      XXYZ      10.4857   XYYZ      -7.7387   YYYZ      42.3915
      XXZZ     -41.1900   XYZZ      19.4925   YYZZ     -42.6776
      XZZZ     -45.4152   YZZZ      53.9142   ZZZZ     -99.6336
 -----------------------------------------------------------------
 Calculating analytic gradient of the SCF energy
 Gradient of CDS energy
            1           2           3           4           5           6
    1   0.0003000  -0.0002522   0.0001838  -0.0002417   0.0003232  -0.0003130
    2  -0.0002685   0.0001796  -0.0000718  -0.0001068  -0.0000500   0.0003175
    3  -0.0002673   0.0001957   0.0002401  -0.0000489  -0.0002247   0.0001052
 Gradient of SCF Energy
            1           2           3           4           5           6
    1   0.0051099   0.0459168  -0.0604727   0.0149089   0.0046691  -0.0101321
    2  -0.0105704   0.0168793   0.0147716  -0.0392199   0.0079399   0.0101994
    3  -0.0063117   0.0056104  -0.0196418   0.0308768  -0.0129207   0.0023870
 Max gradient component =       6.047E-02
 RMS gradient           =       2.362E-02
 Computing fast CPCM-SWIG gradient
 Updating gradient with PCM contributions...
 -- total gradient after adding PCM contribution --
---------------------------------------------------
  Atom         X              Y              Z     
---------------------------------------------------
   1      -0.000987       0.002601       0.005411
   2       0.050822       0.003171      -0.006319
   3      -0.059792       0.016151      -0.021065
   4       0.016197      -0.037589       0.029390
   5      -0.004154       0.010260      -0.003742
   6      -0.002086       0.005406      -0.003675
---------------------------------------------------
 Number of fixed atoms: 0
 Gradient time:  CPU 20.65 s  wall 1.66 s
 ######################################################
 ######################################################
 # Starting finite difference calculation for IDERIV  #
 Finite diff step size:  1.88973e-03 a.u.
 ----------------------------------------------------------------
             Standard Nuclear Orientation (Angstroms)
    I     Atom           X                Y                Z
 ----------------------------------------------------------------
    1      H       0.9870017000    -0.6082515000    -0.5134501000
    2      O       0.7113545000     0.0695801000     0.1191260000
    3      O      -0.7113545000    -0.0695801000     0.1191260000
    4      H      -1.0450972000     0.7103513000    -0.5919733000
    5      O      -1.3065782000     1.6315673000    -1.3269229000
    6      H      -1.9911635000     2.1854501000    -0.9201592000
 ----------------------------------------------------------------
 Nuclear Repulsion Energy =          74.94328552 hartrees
 There are       14 alpha and       13 beta electrons
 Discretize the solute cavity surface with Lebedev spheres
	Using 110 Lebedev grid points for each H atom
	Using 194 Lebedev grid points for other atoms
	Atomic van der Waals radii will be scaled by 1.20
 Remove points where switching function is < 1.0e-08
 Keep 587 surface tesserae and discard 325 interior tesserae
 Molecular Surface Area = 70.912 Angst**2

                       Distance Matrix (Angstroms)
             H (  1)   O (  2)   O (  3)   H (  4)   O (  5)
   O (  2)  0.967259
   O (  3)  1.890696  1.429499
   H (  4)  2.423697  2.000343  1.106950
   O (  5)  3.307421  2.933072  2.310682  1.207130
   H (  6)  4.103614  3.586171  2.793418  1.782881  0.970000
 
 Requested basis set is 6-311++G(2df,2p)
 There are 42 shells and 132 basis functions
 A cutoff of  1.0D-11 yielded    864 shell pairs
 There are      8653 function pairs (     10773 Cartesian)
 Smallest overlap matrix eigenvalue = 6.85E-04
 Guess MOs from SCF MO coefficient file

 -----------------------------------------------------------------------
  General SCF calculation program by
  Eric Jon Sundstrom, Paul Horn, Yuezhi Mao, Dmitri Zuev, Alec White,
  David Stuck, Shaama M.S., Shane Yost, Joonho Lee, David Small,
  Daniel Levine, Susi Lehtola, Hugh Burton, Evgeny Epifanovsky,
  Bang C. Huynh
 -----------------------------------------------------------------------
 Exchange:     0.1500 Hartree-Fock + 1.0000 wB97M-V + LR-HF
 Correlation:  1.0000 wB97M-V
 Using SG-2 standard quadrature grid
 Nonlocal Correlation:  VV10 with C = 0.0100 and b = 6.00 and scale = 1.00000
 Grid used for NLC:  SG-1 standard quadrature
 
 Citation of the SMD model:
 Marenich, A.V.; Cramer, C.J.; Truhlar, D.G.
 J. Phys. Chem. B 2009, 113, 6378-6396.
 iSolventCode=           1
 Solvent: water                                                           
 
 vradii
            1           2           3           4           5           6
    1   1.2000000   1.5200000   1.5200000   1.2000000   1.5200000   1.2000000
 -------------------------------------------------------
 OpenMP BLAS3 based DFT computing Module                
 Release: version 1.0, May 2013, Q-Chem Inc. Pittsburgh 
 -------------------------------------------------------
 A unrestricted SCF calculation will be
 performed using Roothaan-Hall, DIIS, GDM
 SCF converges when RMS gradient is below 1.0e-06
 ---------------------------------------
  Cycle       Energy         DIIS error
 ---------------------------------------
    1    -227.2900437309      4.66e-04  Roothaan Step
 ---------------------------------------
  Cycle       Energy         DIIS error
 ---------------------------------------
    1    -227.3110998765      5.06e-04  
    2    -227.3132780814      4.14e-04  Done DIIS. Switching to GDM
 ---------------------------------------
  Cycle       Energy        RMS Gradient
 ---------------------------------------
    1    -227.3132780814      1.58e-02   Normal BFGS step
    2    -227.3129321611      2.62e-02  Line search: overstep
    3    -227.3142336479      3.24e-03   Normal BFGS step
    4    -227.3143048013      1.04e-03   Normal BFGS step
    5    -227.3143199983      1.21e-03   Normal BFGS step
    6    -227.3143241171      1.05e-03   Normal BFGS step
    7    -227.3143274216      3.48e-04   Normal BFGS step
    8    -227.3143299417      2.07e-04   Normal BFGS step
    9    -227.3143305887      1.37e-04   Normal BFGS step
   10    -227.3143306689      8.71e-05   Normal BFGS step
   11    -227.3143307013      7.19e-05   Normal BFGS step
   12    -227.3143307260      5.42e-05   Normal BFGS step
   13    -227.3143307440      5.35e-05   Normal BFGS step
   14    -227.3143307568      4.57e-05   Normal BFGS step
   15    -227.3143307627      1.97e-05   Normal BFGS step
   16    -227.3143307643      6.19e-06   Normal BFGS step
   17    -227.3143307645      4.64e-06   Normal BFGS step
   18    -227.3143307646      3.28e-06   Normal BFGS step
   19    -227.3143307647      1.83e-06   Normal BFGS step
   20    -227.3143307647      8.04e-07  Convergence criterion met
 ---------------------------------------
 SCF time:   CPU 194.00s  wall 13.00s 
<S^2> =          0.758373520
(3)  G-ENP(liq) elect-nuc-pol free energy of system     -227.314330765 a.u.
(4)  G-CDS(liq) cavity-dispersion-solvent structure 
     free energy                                                1.4955 kcal/mol
(6)  G-S(liq) free energy of system                     -227.311947479 a.u.
 SCF   energy in the final basis set =     -227.3119474795
 Total energy in the final basis set =     -227.3119474795
 
 --------------------------------------------------------------
 
                    Orbital Energies (a.u.)
 --------------------------------------------------------------
 
 Alpha MOs
 -- Occupied --
-19.4455 -19.4454 -19.3542  -1.2949  -1.1283  -1.0444  -0.7006  -0.6550
 -0.5885  -0.5614  -0.5005  -0.4551  -0.4345  -0.4295
 -- Virtual --
  0.0322   0.0440   0.0731   0.1109   0.1710   0.1884   0.1944   0.2100
  0.2221   0.2322   0.2484   0.2511   0.2675   0.2827   0.3017   0.3215
  0.3646   0.4128   0.4683   0.5934   0.5994   0.6575   0.7289   0.7664
  0.8252   0.8458   0.8522   0.9197   0.9486   0.9777   1.0599   1.0704
  1.1258   1.1284   1.1340   1.1597   1.2024   1.4000   1.4157   1.4762
  1.4954   1.5479   1.5718   1.6100   1.6681   1.7930   1.8636   1.8835
  1.9123   2.0008   2.1533   2.2105   2.2512   2.3052   2.3402   2.4980
  2.5861   2.6342   2.7256   2.8002   2.9030   3.6600   3.7328   3.7828
  3.8025   3.8558   3.8786   3.9728   4.1978   4.2245   4.5681   4.6497
  4.6666   4.8188   4.9454   5.0425   5.0725   5.0942   5.1029   5.1120
  5.1339   5.1498   5.2206   5.2499   5.3069   5.3538   5.3600   5.4619
  5.5116   5.5563   5.6147   5.6386   5.6774   5.7955   6.0256   6.0863
  6.7541   6.8200   6.8546   6.9173   6.9590   6.9836   6.9912   7.1041
  7.1798   7.1960   7.2122   7.3123   7.3693   7.4747   7.5057   7.5754
  7.8150   7.8547   8.0285  50.3676  50.3904  50.4757
 
 Beta MOs
 -- Occupied --
-19.4402 -19.4321 -19.3424  -1.2767  -1.1011  -1.0178  -0.6753  -0.6259
 -0.5755  -0.5305  -0.4425  -0.4284  -0.4149
 -- Virtual --
 -0.1196   0.0333   0.0461   0.0771   0.1183   0.1746   0.1932   0.1968
  0.2116   0.2246   0.2361   0.2508   0.2525   0.2697   0.2844   0.3047
  0.3240   0.3664   0.4166   0.4963   0.5956   0.6030   0.6634   0.7319
  0.7691   0.8269   0.8477   0.8552   0.9263   0.9528   0.9863   1.0652
  1.0752   1.1351   1.1434   1.1502   1.1674   1.2109   1.4067   1.4217
  1.4885   1.5100   1.5566   1.5815   1.6180   1.6832   1.8118   1.8713
  1.8957   1.9223   2.0162   2.1671   2.2201   2.2583   2.3165   2.3484
  2.5209   2.5891   2.6472   2.7285   2.8090   2.8951   3.6615   3.7379
  3.7766   3.8053   3.8517   3.8825   3.9821   4.2013   4.2300   4.5749
  4.6573   4.6858   4.8366   4.9608   5.0745   5.1019   5.1189   5.1302
  5.1384   5.1649   5.1867   5.2358   5.2703   5.3268   5.3740   5.3781
  5.4884   5.5438   5.5819   5.6314   5.6507   5.6997   5.8272   6.0318
  6.1144   6.7683   6.8724   6.8968   6.9324   6.9924   7.0085   7.0352
  7.1444   7.1976   7.2312   7.2486   7.3345   7.4106   7.4943   7.5209
  7.6122   7.8579   7.8965   8.0467  50.3769  50.3954  50.4843
 --------------------------------------------------------------
 
          Ground-State Mulliken Net Atomic Charges

     Atom                 Charge (a.u.)    Spin (a.u.)
  --------------------------------------------------------
      1 H                     0.353312      -0.004277
      2 O                    -0.187400       0.171501
      3 O                    -0.289554       0.432561
      4 H                     0.486315      -0.025226
      5 O                    -0.704445       0.432174
      6 H                     0.341771      -0.006733
  --------------------------------------------------------
  Sum of atomic charges =     0.000000
  Sum of spin   charges =     1.000000

 -----------------------------------------------------------------
                    Cartesian Multipole Moments
 -----------------------------------------------------------------
    Charge (ESU x 10^10)
                -0.0000
    Dipole Moment (Debye)
         X       0.4899      Y      -1.3618      Z       0.2248
       Tot       1.4646
    Quadrupole Moments (Debye-Ang)
        XX     -13.8633     XY      -5.0478     YY     -16.4370
        XZ      -2.6962     YZ       3.1831     ZZ     -22.4196
    Octopole Moments (Debye-Ang^2)
       XXX      19.6641    XXY      -2.3876    XYY      -0.0440
       YYY     -27.3707    XXZ       6.4215    XYZ       0.6992
       YYZ       9.6572    XZZ      14.6084    YZZ     -17.5058
       ZZZ      30.3659
    Hexadecapole Moments (Debye-Ang^3)
      XXXX    -101.5882   XXXY      17.5746   XXYY     -14.4552
      XYYY      15.9070   YYYY    -106.4206   XXXZ     -33.7784
      XXYZ      10.4891   XYYZ      -7.7413   YYYZ      42.3945
      XXZZ     -41.1914   XYZZ      19.4942   YYZZ     -42.6809
      XZZZ     -45.4177   YZZZ      53.9169   ZZZZ     -99.6385
 -----------------------------------------------------------------
 Calculating analytic gradient of the SCF energy
 Gradient of CDS energy
            1           2           3           4           5           6
    1   0.0003000  -0.0002523   0.0001838  -0.0002417   0.0003232  -0.0003130
    2  -0.0002682   0.0001795  -0.0000719  -0.0001068  -0.0000500   0.0003175
    3  -0.0002671   0.0001956   0.0002400  -0.0000489  -0.0002247   0.0001052
 Gradient of SCF Energy
            1           2           3           4           5           6
    1   0.0053215   0.0457851  -0.0605535   0.0149096   0.0046681  -0.0101308
    2  -0.0107336   0.0169899   0.0148334  -0.0392306   0.0079422   0.0101986
    3  -0.0064708   0.0057151  -0.0195977   0.0308871  -0.0129205   0.0023869
 Max gradient component =       6.055E-02
 RMS gradient           =       2.363E-02
 Computing fast CPCM-SWIG gradient
 Updating gradient with PCM contributions...
 -- total gradient after adding PCM contribution --
---------------------------------------------------
  Atom         X              Y              Z     
---------------------------------------------------
   1      -0.000798       0.002439       0.005253
   2       0.050712       0.003281      -0.006214
   3      -0.059871       0.016210      -0.021019
   4       0.016199      -0.037601       0.029399
   5      -0.004154       0.010263      -0.003744
   6      -0.002087       0.005408      -0.003675
---------------------------------------------------
 Number of fixed atoms: 0
 Gradient time:  CPU 19.62 s  wall 1.45 s
 ----------------------------------------------------------------
             Standard Nuclear Orientation (Angstroms)
    I     Atom           X                Y                Z
 ----------------------------------------------------------------
    1      H       0.9850017000    -0.6082515000    -0.5134501000
    2      O       0.7113545000     0.0695801000     0.1191260000
    3      O      -0.7113545000    -0.0695801000     0.1191260000
    4      H      -1.0450972000     0.7103513000    -0.5919733000
    5      O      -1.3065782000     1.6315673000    -1.3269229000
    6      H      -1.9911635000     2.1854501000    -0.9201592000
 ----------------------------------------------------------------
 Nuclear Repulsion Energy =          74.94872036 hartrees
 There are       14 alpha and       13 beta electrons
 Discretize the solute cavity surface with Lebedev spheres
	Using 110 Lebedev grid points for each H atom
	Using 194 Lebedev grid points for other atoms
	Atomic van der Waals radii will be scaled by 1.20
 Remove points where switching function is < 1.0e-08
 Keep 587 surface tesserae and discard 325 interior tesserae
 Molecular Surface Area = 70.904 Angst**2

                       Distance Matrix (Angstroms)
             H (  1)   O (  2)   O (  3)   H (  4)   O (  5)
   O (  2)  0.966691
   O (  3)  1.888900  1.429499
   H (  4)  2.422020  2.000343  1.106950
   O (  5)  3.306035  2.933072  2.310682  1.207130
   H (  6)  4.102163  3.586171  2.793418  1.782881  0.970000
 
 Requested basis set is 6-311++G(2df,2p)
 There are 42 shells and 132 basis functions
 A cutoff of  1.0D-11 yielded    864 shell pairs
 There are      8653 function pairs (     10773 Cartesian)
 Smallest overlap matrix eigenvalue = 6.85E-04
 Guess MOs from SCF MO coefficient file

 -----------------------------------------------------------------------
  General SCF calculation program by
  Eric Jon Sundstrom, Paul Horn, Yuezhi Mao, Dmitri Zuev, Alec White,
  David Stuck, Shaama M.S., Shane Yost, Joonho Lee, David Small,
  Daniel Levine, Susi Lehtola, Hugh Burton, Evgeny Epifanovsky,
  Bang C. Huynh
 -----------------------------------------------------------------------
 Exchange:     0.1500 Hartree-Fock + 1.0000 wB97M-V + LR-HF
 Correlation:  1.0000 wB97M-V
 Using SG-2 standard quadrature grid
 Nonlocal Correlation:  VV10 with C = 0.0100 and b = 6.00 and scale = 1.00000
 Grid used for NLC:  SG-1 standard quadrature
 
 Citation of the SMD model:
 Marenich, A.V.; Cramer, C.J.; Truhlar, D.G.
 J. Phys. Chem. B 2009, 113, 6378-6396.
 iSolventCode=           1
 Solvent: water                                                           
 
 vradii
            1           2           3           4           5           6
    1   1.2000000   1.5200000   1.5200000   1.2000000   1.5200000   1.2000000
 -------------------------------------------------------
 OpenMP BLAS3 based DFT computing Module                
 Release: version 1.0, May 2013, Q-Chem Inc. Pittsburgh 
 -------------------------------------------------------
 A unrestricted SCF calculation will be
 performed using Roothaan-Hall, DIIS, GDM
 SCF converges when RMS gradient is below 1.0e-06
 ---------------------------------------
  Cycle       Energy         DIIS error
 ---------------------------------------
    1    -227.2900446667      4.67e-04  Roothaan Step
 ---------------------------------------
  Cycle       Energy         DIIS error
 ---------------------------------------
    1    -227.3110927567      5.06e-04  
    2    -227.3132691670      4.15e-04  Done DIIS. Switching to GDM
 ---------------------------------------
  Cycle       Energy        RMS Gradient
 ---------------------------------------
    1    -227.3132691670      1.60e-02   Normal BFGS step
    2    -227.3129196306      2.64e-02  Line search: overstep
    3    -227.3142290717      3.23e-03   Normal BFGS step
    4    -227.3143002311      1.03e-03   Normal BFGS step
    5    -227.3143153201      1.22e-03   Normal BFGS step
    6    -227.3143193971      1.03e-03   Normal BFGS step
    7    -227.3143226467      3.41e-04   Normal BFGS step
    8    -227.3143250988      2.23e-04   Normal BFGS step
    9    -227.3143257323      1.36e-04   Normal BFGS step
   10    -227.3143258140      8.36e-05   Normal BFGS step
   11    -227.3143258435      6.97e-05   Normal BFGS step
   12    -227.3143258670      5.25e-05   Normal BFGS step
   13    -227.3143258830      5.05e-05   Normal BFGS step
   14    -227.3143258951      4.41e-05   Normal BFGS step
   15    -227.3143259007      1.95e-05   Normal BFGS step
   16    -227.3143259023      6.10e-06   Normal BFGS step
   17    -227.3143259025      4.61e-06   Normal BFGS step
   18    -227.3143259026      3.25e-06   Normal BFGS step
   19    -227.3143259027      1.80e-06   Normal BFGS step
   20    -227.3143259027      8.30e-07  Convergence criterion met
 ---------------------------------------
 SCF time:   CPU 194.24s  wall 12.00s 
<S^2> =          0.758375118
(3)  G-ENP(liq) elect-nuc-pol free energy of system     -227.314325903 a.u.
(4)  G-CDS(liq) cavity-dispersion-solvent structure 
     free energy                                                1.4948 kcal/mol
(6)  G-S(liq) free energy of system                     -227.311943751 a.u.
 SCF   energy in the final basis set =     -227.3119437511
 Total energy in the final basis set =     -227.3119437511
 
 --------------------------------------------------------------
 
                    Orbital Energies (a.u.)
 --------------------------------------------------------------
 
 Alpha MOs
 -- Occupied --
-19.4455 -19.4454 -19.3542  -1.2950  -1.1283  -1.0444  -0.7006  -0.6551
 -0.5886  -0.5614  -0.5006  -0.4551  -0.4345  -0.4295
 -- Virtual --
  0.0323   0.0441   0.0731   0.1109   0.1710   0.1884   0.1944   0.2100
  0.2221   0.2321   0.2484   0.2511   0.2675   0.2826   0.3017   0.3214
  0.3646   0.4129   0.4683   0.5937   0.5994   0.6575   0.7289   0.7666
  0.8252   0.8456   0.8521   0.9197   0.9485   0.9776   1.0598   1.0705
  1.1258   1.1284   1.1340   1.1598   1.2024   1.4001   1.4157   1.4762
  1.4955   1.5479   1.5717   1.6108   1.6683   1.7930   1.8636   1.8837
  1.9123   2.0008   2.1532   2.2103   2.2513   2.3053   2.3401   2.4981
  2.5862   2.6343   2.7257   2.8005   2.9033   3.6599   3.7328   3.7829
  3.8027   3.8558   3.8786   3.9731   4.1990   4.2245   4.5682   4.6495
  4.6665   4.8186   4.9453   5.0424   5.0726   5.0943   5.1029   5.1119
  5.1339   5.1499   5.2212   5.2502   5.3069   5.3542   5.3599   5.4620
  5.5116   5.5569   5.6155   5.6387   5.6789   5.7957   6.0247   6.0863
  6.7540   6.8200   6.8548   6.9178   6.9591   6.9836   6.9912   7.1042
  7.1815   7.1969   7.2122   7.3126   7.3695   7.4748   7.5049   7.5754
  7.8151   7.8548   8.0287  50.3676  50.3910  50.4757
 
 Beta MOs
 -- Occupied --
-19.4402 -19.4321 -19.3424  -1.2768  -1.1012  -1.0179  -0.6753  -0.6260
 -0.5756  -0.5306  -0.4425  -0.4284  -0.4149
 -- Virtual --
 -0.1196   0.0333   0.0462   0.0771   0.1183   0.1746   0.1932   0.1968
  0.2117   0.2246   0.2361   0.2508   0.2525   0.2697   0.2844   0.3046
  0.3239   0.3664   0.4166   0.4964   0.5958   0.6030   0.6634   0.7319
  0.7693   0.8270   0.8475   0.8551   0.9262   0.9526   0.9863   1.0652
  1.0753   1.1351   1.1433   1.1502   1.1675   1.2109   1.4068   1.4217
  1.4886   1.5100   1.5566   1.5816   1.6187   1.6834   1.8118   1.8713
  1.8959   1.9223   2.0162   2.1670   2.2199   2.2583   2.3166   2.3483
  2.5210   2.5892   2.6473   2.7286   2.8093   2.8953   3.6614   3.7379
  3.7766   3.8055   3.8516   3.8825   3.9824   4.2024   4.2300   4.5750
  4.6569   4.6858   4.8363   4.9607   5.0745   5.1020   5.1189   5.1301
  5.1384   5.1650   5.1867   5.2363   5.2706   5.3269   5.3744   5.3781
  5.4885   5.5440   5.5824   5.6323   5.6508   5.7009   5.8273   6.0310
  6.1144   6.7682   6.8724   6.8970   6.9329   6.9924   7.0085   7.0353
  7.1447   7.1999   7.2314   7.2486   7.3348   7.4108   7.4944   7.5202
  7.6122   7.8580   7.8965   8.0469  50.3769  50.3959  50.4843
 --------------------------------------------------------------
 
          Ground-State Mulliken Net Atomic Charges

     Atom                 Charge (a.u.)    Spin (a.u.)
  --------------------------------------------------------
      1 H                     0.353079      -0.004270
      2 O                    -0.187165       0.171347
      3 O                    -0.289747       0.432574
      4 H                     0.486395      -0.025229
      5 O                    -0.704342       0.432314
      6 H                     0.341780      -0.006736
  --------------------------------------------------------
  Sum of atomic charges =     0.000000
  Sum of spin   charges =     1.000000

 -----------------------------------------------------------------
                    Cartesian Multipole Moments
 -----------------------------------------------------------------
    Charge (ESU x 10^10)
                -0.0000
    Dipole Moment (Debye)
         X       0.4854      Y      -1.3603      Z       0.2242
       Tot       1.4616
    Quadrupole Moments (Debye-Ang)
        XX     -13.8708     XY      -5.0458     YY     -16.4340
        XZ      -2.6919     YZ       3.1821     ZZ     -22.4173
    Octopole Moments (Debye-Ang^2)
       XXX      19.6519    XXY      -2.3791    XYY      -0.0474
       YYY     -27.3663    XXZ       6.4242    XYZ       0.6999
       YYZ       9.6541    XZZ      14.6066    YZZ     -17.5029
       ZZZ      30.3622
    Hexadecapole Moments (Debye-Ang^3)
      XXXX    -101.5917   XXXY      17.5779   XXYY     -14.4517
      XYYY      15.9006   YYYY    -106.4072   XXXZ     -33.7667
      XXYZ      10.4824   XYYZ      -7.7361   YYYZ      42.3885
      XXZZ     -41.1885   XYZZ      19.4908   YYZZ     -42.6743
      XZZZ     -45.4128   YZZZ      53.9115   ZZZZ     -99.6287
 -----------------------------------------------------------------
 Calculating analytic gradient of the SCF energy
 Gradient of CDS energy
            1           2           3           4           5           6
    1   0.0002999  -0.0002521   0.0001837  -0.0002417   0.0003232  -0.0003130
    2  -0.0002687   0.0001797  -0.0000717  -0.0001068  -0.0000500   0.0003175
    3  -0.0002675   0.0001958   0.0002402  -0.0000489  -0.0002247   0.0001052
 Gradient of SCF Energy
            1           2           3           4           5           6
    1   0.0048987   0.0460477  -0.0603915   0.0149083   0.0046702  -0.0101334
    2  -0.0104071   0.0167689   0.0147096  -0.0392094   0.0079376   0.0102003
    3  -0.0061526   0.0055057  -0.0196859   0.0308665  -0.0129208   0.0023871
 Max gradient component =       6.039E-02
 RMS gradient           =       2.361E-02
 Computing fast CPCM-SWIG gradient
 Updating gradient with PCM contributions...
 -- total gradient after adding PCM contribution --
---------------------------------------------------
  Atom         X              Y              Z     
---------------------------------------------------
   1      -0.001175       0.002763       0.005570
   2       0.050932       0.003062      -0.006423
   3      -0.059713       0.016091      -0.021112
   4       0.016195      -0.037578       0.029382
   5      -0.004154       0.010257      -0.003740
   6      -0.002086       0.005405      -0.003676
---------------------------------------------------
 Number of fixed atoms: 0
 Gradient time:  CPU 19.73 s  wall 1.46 s
 ----------------------------------------------------------------
             Standard Nuclear Orientation (Angstroms)
    I     Atom           X                Y                Z
 ----------------------------------------------------------------
    1      H       0.9860017000    -0.6072515000    -0.5134501000
    2      O       0.7113545000     0.0695801000     0.1191260000
    3      O      -0.7113545000    -0.0695801000     0.1191260000
    4      H      -1.0450972000     0.7103513000    -0.5919733000
    5      O      -1.3065782000     1.6315673000    -1.3269229000
    6      H      -1.9911635000     2.1854501000    -0.9201592000
 ----------------------------------------------------------------
 Nuclear Repulsion Energy =          74.94984943 hartrees
 There are       14 alpha and       13 beta electrons
 Discretize the solute cavity surface with Lebedev spheres
	Using 110 Lebedev grid points for each H atom
	Using 194 Lebedev grid points for other atoms
	Atomic van der Waals radii will be scaled by 1.20
 Remove points where switching function is < 1.0e-08
 Keep 587 surface tesserae and discard 325 interior tesserae
 Molecular Surface Area = 70.904 Angst**2

                       Distance Matrix (Angstroms)
             H (  1)   O (  2)   O (  3)   H (  4)   O (  5)
   O (  2)  0.966274
   O (  3)  1.889513  1.429499
   H (  4)  2.422314  2.000343  1.106950
   O (  5)  3.306051  2.933072  2.310682  1.207130
   H (  6)  4.102208  3.586171  2.793418  1.782881  0.970000
 
 Requested basis set is 6-311++G(2df,2p)
 There are 42 shells and 132 basis functions
 A cutoff of  1.0D-11 yielded    864 shell pairs
 There are      8653 function pairs (     10773 Cartesian)
 Smallest overlap matrix eigenvalue = 6.85E-04
 Guess MOs from SCF MO coefficient file

 -----------------------------------------------------------------------
  General SCF calculation program by
  Eric Jon Sundstrom, Paul Horn, Yuezhi Mao, Dmitri Zuev, Alec White,
  David Stuck, Shaama M.S., Shane Yost, Joonho Lee, David Small,
  Daniel Levine, Susi Lehtola, Hugh Burton, Evgeny Epifanovsky,
  Bang C. Huynh
 -----------------------------------------------------------------------
 Exchange:     0.1500 Hartree-Fock + 1.0000 wB97M-V + LR-HF
 Correlation:  1.0000 wB97M-V
 Using SG-2 standard quadrature grid
 Nonlocal Correlation:  VV10 with C = 0.0100 and b = 6.00 and scale = 1.00000
 Grid used for NLC:  SG-1 standard quadrature
 
 Citation of the SMD model:
 Marenich, A.V.; Cramer, C.J.; Truhlar, D.G.
 J. Phys. Chem. B 2009, 113, 6378-6396.
 iSolventCode=           1
 Solvent: water                                                           
 
 vradii
            1           2           3           4           5           6
    1   1.2000000   1.5200000   1.5200000   1.2000000   1.5200000   1.2000000
 -------------------------------------------------------
 OpenMP BLAS3 based DFT computing Module                
 Release: version 1.0, May 2013, Q-Chem Inc. Pittsburgh 
 -------------------------------------------------------
 A unrestricted SCF calculation will be
 performed using Roothaan-Hall, DIIS, GDM
 SCF converges when RMS gradient is below 1.0e-06
 ---------------------------------------
  Cycle       Energy         DIIS error
 ---------------------------------------
    1    -227.2900507203      4.67e-04  Roothaan Step
 ---------------------------------------
  Cycle       Energy         DIIS error
 ---------------------------------------
    1    -227.3110924512      5.06e-04  
    2    -227.3132685660      4.14e-04  Done DIIS. Switching to GDM
 ---------------------------------------
  Cycle       Energy        RMS Gradient
 ---------------------------------------
    1    -227.3132685660      1.60e-02   Normal BFGS step
    2    -227.3129208478      2.63e-02  Line search: overstep
    3    -227.3142258233      3.24e-03   Normal BFGS step
    4    -227.3142969280      1.04e-03   Normal BFGS step
    5    -227.3143120246      1.21e-03   Normal BFGS step
    6    -227.3143161089      1.04e-03   Normal BFGS step
    7    -227.3143193647      3.45e-04   Normal BFGS step
    8    -227.3143218344      2.14e-04   Normal BFGS step
    9    -227.3143224675      1.36e-04   Normal BFGS step
   10    -227.3143225461      8.20e-05   Normal BFGS step
   11    -227.3143225750      6.83e-05   Normal BFGS step
   12    -227.3143225971      5.19e-05   Normal BFGS step
   13    -227.3143226126      4.95e-05   Normal BFGS step
   14    -227.3143226242      4.36e-05   Normal BFGS step
   15    -227.3143226297      1.95e-05   Normal BFGS step
   16    -227.3143226312      5.97e-06   Normal BFGS step
   17    -227.3143226315      4.52e-06   Normal BFGS step
   18    -227.3143226316      3.19e-06   Normal BFGS step
   19    -227.3143226317      1.78e-06   Normal BFGS step
   20    -227.3143226317      7.98e-07  Convergence criterion met
 ---------------------------------------
 SCF time:   CPU 196.19s  wall 12.00s 
<S^2> =          0.758376117
(3)  G-ENP(liq) elect-nuc-pol free energy of system     -227.314322632 a.u.
(4)  G-CDS(liq) cavity-dispersion-solvent structure 
     free energy                                                1.4949 kcal/mol
(6)  G-S(liq) free energy of system                     -227.311940421 a.u.
 SCF   energy in the final basis set =     -227.3119404206
 Total energy in the final basis set =     -227.3119404206
 
 --------------------------------------------------------------
 
                    Orbital Energies (a.u.)
 --------------------------------------------------------------
 
 Alpha MOs
 -- Occupied --
-19.4455 -19.4453 -19.3542  -1.2950  -1.1283  -1.0445  -0.7007  -0.6551
 -0.5885  -0.5614  -0.5006  -0.4551  -0.4345  -0.4295
 -- Virtual --
  0.0323   0.0441   0.0731   0.1109   0.1710   0.1884   0.1944   0.2101
  0.2221   0.2321   0.2484   0.2512   0.2675   0.2826   0.3017   0.3214
  0.3646   0.4129   0.4683   0.5939   0.5994   0.6575   0.7289   0.7665
  0.8253   0.8457   0.8522   0.9197   0.9484   0.9776   1.0598   1.0705
  1.1258   1.1284   1.1340   1.1598   1.2024   1.4003   1.4158   1.4761
  1.4955   1.5480   1.5718   1.6106   1.6682   1.7931   1.8636   1.8838
  1.9123   2.0007   2.1533   2.2105   2.2511   2.3052   2.3400   2.4981
  2.5862   2.6344   2.7256   2.8007   2.9033   3.6600   3.7328   3.7829
  3.8028   3.8558   3.8786   3.9730   4.1999   4.2245   4.5682   4.6498
  4.6666   4.8187   4.9455   5.0424   5.0725   5.0943   5.1028   5.1120
  5.1339   5.1499   5.2212   5.2502   5.3069   5.3540   5.3601   5.4622
  5.5118   5.5570   5.6160   5.6387   5.6787   5.7956   6.0255   6.0863
  6.7541   6.8200   6.8547   6.9176   6.9592   6.9836   6.9912   7.1043
  7.1826   7.1975   7.2123   7.3124   7.3697   7.4750   7.5054   7.5754
  7.8150   7.8547   8.0286  50.3676  50.3912  50.4757
 
 Beta MOs
 -- Occupied --
-19.4401 -19.4321 -19.3424  -1.2768  -1.1012  -1.0180  -0.6754  -0.6259
 -0.5756  -0.5306  -0.4425  -0.4284  -0.4149
 -- Virtual --
 -0.1196   0.0333   0.0462   0.0771   0.1183   0.1746   0.1932   0.1968
  0.2117   0.2247   0.2361   0.2507   0.2526   0.2697   0.2844   0.3046
  0.3239   0.3664   0.4166   0.4963   0.5961   0.6030   0.6634   0.7319
  0.7693   0.8271   0.8476   0.8551   0.9262   0.9525   0.9862   1.0652
  1.0753   1.1351   1.1433   1.1502   1.1674   1.2109   1.4070   1.4218
  1.4885   1.5101   1.5567   1.5816   1.6185   1.6833   1.8119   1.8713
  1.8959   1.9223   2.0162   2.1671   2.2201   2.2581   2.3165   2.3482
  2.5210   2.5892   2.6474   2.7286   2.8095   2.8953   3.6615   3.7379
  3.7766   3.8057   3.8516   3.8825   3.9823   4.2034   4.2300   4.5750
  4.6574   4.6858   4.8365   4.9608   5.0745   5.1020   5.1189   5.1302
  5.1384   5.1650   5.1867   5.2364   5.2706   5.3268   5.3743   5.3781
  5.4887   5.5442   5.5826   5.6326   5.6509   5.7008   5.8273   6.0317
  6.1144   6.7683   6.8724   6.8969   6.9328   6.9925   7.0085   7.0352
  7.1448   7.2015   7.2315   7.2486   7.3345   7.4109   7.4947   7.5205
  7.6122   7.8579   7.8965   8.0468  50.3769  50.3961  50.4843
 --------------------------------------------------------------
 
          Ground-State Mulliken Net Atomic Charges

     Atom                 Charge (a.u.)    Spin (a.u.)
  --------------------------------------------------------
      1 H                     0.352938      -0.004260
      2 O                    -0.187199       0.171275
      3 O                    -0.289610       0.432557
      4 H                     0.486339      -0.025235
      5 O                    -0.704251       0.432404
      6 H                     0.341782      -0.006740
  --------------------------------------------------------
  Sum of atomic charges =     0.000000
  Sum of spin   charges =     1.000000

 -----------------------------------------------------------------
                    Cartesian Multipole Moments
 -----------------------------------------------------------------
    Charge (ESU x 10^10)
                -0.0000
    Dipole Moment (Debye)
         X       0.4861      Y      -1.3579      Z       0.2231
       Tot       1.4595
    Quadrupole Moments (Debye-Ang)
        XX     -13.8652     XY      -5.0464     YY     -16.4358
        XZ      -2.6931     YZ       3.1795     ZZ     -22.4161
    Octopole Moments (Debye-Ang^2)
       XXX      19.6553    XXY      -2.3788    XYY      -0.0522
       YYY     -27.3623    XXZ       6.4195    XYZ       0.7008
       YYZ       9.6534    XZZ      14.6053    YZZ     -17.5006
       ZZZ      30.3589
    Hexadecapole Moments (Debye-Ang^3)
      XXXX    -101.5796   XXXY      17.5707   XXYY     -14.4494
      XYYY      15.8976   YYYY    -106.4012   XXXZ     -33.7689
      XXYZ      10.4803   XYYZ      -7.7322   YYYZ      42.3827
      XXZZ     -41.1845   XYZZ      19.4877   YYZZ     -42.6708
      XZZZ     -45.4099   YZZZ      53.9070   ZZZZ     -99.6223
 -----------------------------------------------------------------
 Calculating analytic gradient of the SCF energy
 Gradient of CDS energy
            1           2           3           4           5           6
    1   0.0003002  -0.0002524   0.0001838  -0.0002417   0.0003232  -0.0003130
    2  -0.0002684   0.0001796  -0.0000719  -0.0001068  -0.0000500   0.0003175
    3  -0.0002676   0.0001960   0.0002401  -0.0000489  -0.0002247   0.0001052
 Gradient of SCF Energy
            1           2           3           4           5           6
    1   0.0049491   0.0460798  -0.0604679   0.0148998   0.0046737  -0.0101346
    2  -0.0100676   0.0163598   0.0147657  -0.0391870   0.0079295   0.0101995
    3  -0.0058613   0.0051438  -0.0196120   0.0308658  -0.0129246   0.0023883
 Max gradient component =       6.047E-02
 RMS gradient           =       2.358E-02
 Computing fast CPCM-SWIG gradient
 Updating gradient with PCM contributions...
 -- total gradient after adding PCM contribution --
---------------------------------------------------
  Atom         X              Y              Z     
---------------------------------------------------
   1      -0.001149       0.003085       0.005865
   2       0.050985       0.002671      -0.006788
   3      -0.059787       0.016147      -0.021039
   4       0.016187      -0.037558       0.029381
   5      -0.004151       0.010253      -0.003744
   6      -0.002085       0.005402      -0.003675
---------------------------------------------------
 Number of fixed atoms: 0
 Gradient time:  CPU 19.48 s  wall 1.43 s
 ----------------------------------------------------------------
             Standard Nuclear Orientation (Angstroms)
    I     Atom           X                Y                Z
 ----------------------------------------------------------------
    1      H       0.9860017000    -0.6092515000    -0.5134501000
    2      O       0.7113545000     0.0695801000     0.1191260000
    3      O      -0.7113545000    -0.0695801000     0.1191260000
    4      H      -1.0450972000     0.7103513000    -0.5919733000
    5      O      -1.3065782000     1.6315673000    -1.3269229000
    6      H      -1.9911635000     2.1854501000    -0.9201592000
 ----------------------------------------------------------------
 Nuclear Repulsion Energy =          74.94216081 hartrees
 There are       14 alpha and       13 beta electrons
 Discretize the solute cavity surface with Lebedev spheres
	Using 110 Lebedev grid points for each H atom
	Using 194 Lebedev grid points for other atoms
	Atomic van der Waals radii will be scaled by 1.20
 Remove points where switching function is < 1.0e-08
 Keep 587 surface tesserae and discard 325 interior tesserae
 Molecular Surface Area = 70.913 Angst**2

                       Distance Matrix (Angstroms)
             H (  1)   O (  2)   O (  3)   H (  4)   O (  5)
   O (  2)  0.967676
   O (  3)  1.890084  1.429499
   H (  4)  2.423403  2.000343  1.106950
   O (  5)  3.307405  2.933072  2.310682  1.207130
   H (  6)  4.103569  3.586171  2.793418  1.782881  0.970000
 
 Requested basis set is 6-311++G(2df,2p)
 There are 42 shells and 132 basis functions
 A cutoff of  1.0D-11 yielded    864 shell pairs
 There are      8653 function pairs (     10773 Cartesian)
 Smallest overlap matrix eigenvalue = 6.85E-04
 Guess MOs from SCF MO coefficient file

 -----------------------------------------------------------------------
  General SCF calculation program by
  Eric Jon Sundstrom, Paul Horn, Yuezhi Mao, Dmitri Zuev, Alec White,
  David Stuck, Shaama M.S., Shane Yost, Joonho Lee, David Small,
  Daniel Levine, Susi Lehtola, Hugh Burton, Evgeny Epifanovsky,
  Bang C. Huynh
 -----------------------------------------------------------------------
 Exchange:     0.1500 Hartree-Fock + 1.0000 wB97M-V + LR-HF
 Correlation:  1.0000 wB97M-V
 Using SG-2 standard quadrature grid
 Nonlocal Correlation:  VV10 with C = 0.0100 and b = 6.00 and scale = 1.00000
 Grid used for NLC:  SG-1 standard quadrature
 
 Citation of the SMD model:
 Marenich, A.V.; Cramer, C.J.; Truhlar, D.G.
 J. Phys. Chem. B 2009, 113, 6378-6396.
 iSolventCode=           1
 Solvent: water                                                           
 
 vradii
            1           2           3           4           5           6
    1   1.2000000   1.5200000   1.5200000   1.2000000   1.5200000   1.2000000
 -------------------------------------------------------
 OpenMP BLAS3 based DFT computing Module                
 Release: version 1.0, May 2013, Q-Chem Inc. Pittsburgh 
 -------------------------------------------------------
 A unrestricted SCF calculation will be
 performed using Roothaan-Hall, DIIS, GDM
 SCF converges when RMS gradient is below 1.0e-06
 ---------------------------------------
  Cycle       Energy         DIIS error
 ---------------------------------------
    1    -227.2900488827      4.66e-04  Roothaan Step
 ---------------------------------------
  Cycle       Energy         DIIS error
 ---------------------------------------
    1    -227.3111076095      5.05e-04  
    2    -227.3132849620      4.13e-04  Done DIIS. Switching to GDM
 ---------------------------------------
  Cycle       Energy        RMS Gradient
 ---------------------------------------
    1    -227.3132849620      1.57e-02   Normal BFGS step
    2    -227.3129416790      2.60e-02  Line search: overstep
    3    -227.3142362257      3.24e-03   Normal BFGS step
    4    -227.3143072359      1.05e-03   Normal BFGS step
    5    -227.3143225006      1.20e-03   Normal BFGS step
    6    -227.3143266563      1.07e-03   Normal BFGS step
    7    -227.3143300168      3.56e-04   Normal BFGS step
    8    -227.3143326095      2.14e-04   Normal BFGS step
    9    -227.3143332804      1.39e-04   Normal BFGS step
   10    -227.3143333630      9.53e-05   Normal BFGS step
   11    -227.3143334022      7.75e-05   Normal BFGS step
   12    -227.3143334313      5.78e-05   Normal BFGS step
   13    -227.3143334538      5.97e-05   Normal BFGS step
   14    -227.3143334685      4.87e-05   Normal BFGS step
   15    -227.3143334749      1.98e-05   Normal BFGS step
   16    -227.3143334765      6.47e-06   Normal BFGS step
   17    -227.3143334767      4.80e-06   Normal BFGS step
   18    -227.3143334768      3.40e-06   Normal BFGS step
   19    -227.3143334769      1.89e-06   Normal BFGS step
   20    -227.3143334769      8.15e-07  Convergence criterion met
 ---------------------------------------
 SCF time:   CPU 193.47s  wall 12.00s 
<S^2> =          0.758372520
(3)  G-ENP(liq) elect-nuc-pol free energy of system     -227.314333477 a.u.
(4)  G-CDS(liq) cavity-dispersion-solvent structure 
     free energy                                                1.4955 kcal/mol
(6)  G-S(liq) free energy of system                     -227.311950251 a.u.
 SCF   energy in the final basis set =     -227.3119502512
 Total energy in the final basis set =     -227.3119502512
 
 --------------------------------------------------------------
 
                    Orbital Energies (a.u.)
 --------------------------------------------------------------
 
 Alpha MOs
 -- Occupied --
-19.4455 -19.4455 -19.3541  -1.2949  -1.1282  -1.0443  -0.7006  -0.6550
 -0.5885  -0.5614  -0.5005  -0.4550  -0.4345  -0.4295
 -- Virtual --
  0.0322   0.0440   0.0731   0.1109   0.1710   0.1884   0.1944   0.2099
  0.2220   0.2322   0.2484   0.2511   0.2675   0.2827   0.3017   0.3215
  0.3646   0.4128   0.4684   0.5931   0.5994   0.6575   0.7288   0.7664
  0.8251   0.8457   0.8522   0.9197   0.9487   0.9778   1.0598   1.0705
  1.1258   1.1284   1.1340   1.1597   1.2024   1.3997   1.4156   1.4763
  1.4954   1.5478   1.5716   1.6102   1.6682   1.7929   1.8636   1.8834
  1.9123   2.0008   2.1532   2.2103   2.2515   2.3052   2.3403   2.4980
  2.5861   2.6341   2.7256   2.8001   2.9030   3.6599   3.7328   3.7828
  3.8024   3.8558   3.8786   3.9729   4.1969   4.2245   4.5681   4.6494
  4.6666   4.8187   4.9453   5.0425   5.0725   5.0943   5.1029   5.1119
  5.1339   5.1499   5.2206   5.2499   5.3069   5.3541   5.3598   5.4618
  5.5114   5.5561   5.6142   5.6386   5.6776   5.7956   6.0248   6.0862
  6.7540   6.8200   6.8546   6.9174   6.9589   6.9836   6.9912   7.1040
  7.1786   7.1957   7.2121   7.3126   7.3692   7.4744   7.5052   7.5754
  7.8151   7.8548   8.0286  50.3676  50.3902  50.4757
 
 Beta MOs
 -- Occupied --
-19.4403 -19.4321 -19.3424  -1.2767  -1.1011  -1.0177  -0.6752  -0.6259
 -0.5756  -0.5305  -0.4425  -0.4283  -0.4149
 -- Virtual --
 -0.1196   0.0333   0.0461   0.0771   0.1182   0.1746   0.1932   0.1968
  0.2115   0.2246   0.2361   0.2508   0.2525   0.2697   0.2844   0.3047
  0.3240   0.3664   0.4166   0.4964   0.5953   0.6030   0.6634   0.7319
  0.7691   0.8268   0.8476   0.8551   0.9263   0.9528   0.9864   1.0652
  1.0753   1.1351   1.1434   1.1502   1.1674   1.2109   1.4064   1.4216
  1.4886   1.5100   1.5565   1.5814   1.6182   1.6833   1.8117   1.8713
  1.8956   1.9224   2.0162   2.1670   2.2199   2.2585   2.3166   2.3485
  2.5208   2.5891   2.6472   2.7286   2.8089   2.8951   3.6614   3.7379
  3.7766   3.8052   3.8517   3.8825   3.9822   4.2004   4.2300   4.5749
  4.6568   4.6858   4.8365   4.9606   5.0745   5.1020   5.1189   5.1302
  5.1383   5.1650   5.1867   5.2357   5.2703   5.3268   5.3741   5.3780
  5.4882   5.5435   5.5818   5.6310   5.6506   5.6998   5.8272   6.0311
  6.1144   6.7682   6.8723   6.8968   6.9326   6.9923   7.0085   7.0352
  7.1442   7.1961   7.2312   7.2486   7.3347   7.4105   7.4940   7.5206
  7.6122   7.8580   7.8965   8.0468  50.3769  50.3951  50.4843
 --------------------------------------------------------------
 
          Ground-State Mulliken Net Atomic Charges

     Atom                 Charge (a.u.)    Spin (a.u.)
  --------------------------------------------------------
      1 H                     0.353453      -0.004287
      2 O                    -0.187365       0.171573
      3 O                    -0.289691       0.432578
      4 H                     0.486371      -0.025220
      5 O                    -0.704536       0.432085
      6 H                     0.341768      -0.006730
  --------------------------------------------------------
  Sum of atomic charges =     0.000000
  Sum of spin   charges =     1.000000

 -----------------------------------------------------------------
                    Cartesian Multipole Moments
 -----------------------------------------------------------------
    Charge (ESU x 10^10)
                -0.0000
    Dipole Moment (Debye)
         X       0.4892      Y      -1.3642      Z       0.2259
       Tot       1.4668
    Quadrupole Moments (Debye-Ang)
        XX     -13.8689     XY      -5.0472     YY     -16.4352
        XZ      -2.6951     YZ       3.1856     ZZ     -22.4207
    Octopole Moments (Debye-Ang^2)
       XXX      19.6607    XXY      -2.3878    XYY      -0.0393
       YYY     -27.3746    XXZ       6.4262    XYZ       0.6983
       YYZ       9.6578    XZZ      14.6097    YZZ     -17.5081
       ZZZ      30.3692
    Hexadecapole Moments (Debye-Ang^3)
      XXXX    -101.6003   XXXY      17.5818   XXYY     -14.4576
      XYYY      15.9100   YYYY    -106.4266   XXXZ     -33.7762
      XXYZ      10.4912   XYYZ      -7.7451   YYYZ      42.4003
      XXZZ     -41.1954   XYZZ      19.4973   YYZZ     -42.6844
      XZZZ     -45.4206   YZZZ      53.9214   ZZZZ     -99.6449
 -----------------------------------------------------------------
 Calculating analytic gradient of the SCF energy
 Gradient of CDS energy
            1           2           3           4           5           6
    1   0.0002997  -0.0002520   0.0001838  -0.0002417   0.0003232  -0.0003130
    2  -0.0002685   0.0001796  -0.0000717  -0.0001068  -0.0000500   0.0003175
    3  -0.0002670   0.0001954   0.0002400  -0.0000489  -0.0002247   0.0001052
 Gradient of SCF Energy
            1           2           3           4           5           6
    1   0.0052697   0.0457547  -0.0604774   0.0149180   0.0046646  -0.0101296
    2  -0.0110717   0.0173976   0.0147774  -0.0392530   0.0079503   0.0101994
    3  -0.0067596   0.0060743  -0.0196714   0.0308878  -0.0129167   0.0023857
 Max gradient component =       6.048E-02
 RMS gradient           =       2.366E-02
 Computing fast CPCM-SWIG gradient
 Updating gradient with PCM contributions...
 -- total gradient after adding PCM contribution --
---------------------------------------------------
  Atom         X              Y              Z     
---------------------------------------------------
   1      -0.000825       0.002118       0.004960
   2       0.050660       0.003670      -0.005852
   3      -0.059797       0.016154      -0.021092
   4       0.016207      -0.037621       0.029399
   5      -0.004156       0.010268      -0.003740
   6      -0.002088       0.005411      -0.003676
---------------------------------------------------
 Number of fixed atoms: 0
 Gradient time:  CPU 19.48 s  wall 1.42 s
 ----------------------------------------------------------------
             Standard Nuclear Orientation (Angstroms)
    I     Atom           X                Y                Z
 ----------------------------------------------------------------
    1      H       0.9860017000    -0.6082515000    -0.5124501000
    2      O       0.7113545000     0.0695801000     0.1191260000
    3      O      -0.7113545000    -0.0695801000     0.1191260000
    4      H      -1.0450972000     0.7103513000    -0.5919733000
    5      O      -1.3065782000     1.6315673000    -1.3269229000
    6      H      -1.9911635000     2.1854501000    -0.9201592000
 ----------------------------------------------------------------
 Nuclear Repulsion Energy =          74.94926194 hartrees
 There are       14 alpha and       13 beta electrons
 Discretize the solute cavity surface with Lebedev spheres
	Using 110 Lebedev grid points for each H atom
	Using 194 Lebedev grid points for other atoms
	Atomic van der Waals radii will be scaled by 1.20
 Remove points where switching function is < 1.0e-08
 Keep 587 surface tesserae and discard 325 interior tesserae
 Molecular Surface Area = 70.904 Angst**2

                       Distance Matrix (Angstroms)
             H (  1)   O (  2)   O (  3)   H (  4)   O (  5)
   O (  2)  0.966320
   O (  3)  1.889464  1.429499
   H (  4)  2.422891  2.000343  1.106950
   O (  5)  3.306974  2.933072  2.310682  1.207130
   H (  6)  4.102988  3.586171  2.793418  1.782881  0.970000
 
 Requested basis set is 6-311++G(2df,2p)
 There are 42 shells and 132 basis functions
 A cutoff of  1.0D-11 yielded    864 shell pairs
 There are      8653 function pairs (     10773 Cartesian)
 Smallest overlap matrix eigenvalue = 6.85E-04
 Guess MOs from SCF MO coefficient file

 -----------------------------------------------------------------------
  General SCF calculation program by
  Eric Jon Sundstrom, Paul Horn, Yuezhi Mao, Dmitri Zuev, Alec White,
  David Stuck, Shaama M.S., Shane Yost, Joonho Lee, David Small,
  Daniel Levine, Susi Lehtola, Hugh Burton, Evgeny Epifanovsky,
  Bang C. Huynh
 -----------------------------------------------------------------------
 Exchange:     0.1500 Hartree-Fock + 1.0000 wB97M-V + LR-HF
 Correlation:  1.0000 wB97M-V
 Using SG-2 standard quadrature grid
 Nonlocal Correlation:  VV10 with C = 0.0100 and b = 6.00 and scale = 1.00000
 Grid used for NLC:  SG-1 standard quadrature
 
 Citation of the SMD model:
 Marenich, A.V.; Cramer, C.J.; Truhlar, D.G.
 J. Phys. Chem. B 2009, 113, 6378-6396.
 iSolventCode=           1
 Solvent: water                                                           
 
 vradii
            1           2           3           4           5           6
    1   1.2000000   1.5200000   1.5200000   1.2000000   1.5200000   1.2000000
 -------------------------------------------------------
 OpenMP BLAS3 based DFT computing Module                
 Release: version 1.0, May 2013, Q-Chem Inc. Pittsburgh 
 -------------------------------------------------------
 A unrestricted SCF calculation will be
 performed using Roothaan-Hall, DIIS, GDM
 SCF converges when RMS gradient is below 1.0e-06
 ---------------------------------------
  Cycle       Energy         DIIS error
 ---------------------------------------
    1    -227.2900353270      4.67e-04  Roothaan Step
 ---------------------------------------
  Cycle       Energy         DIIS error
 ---------------------------------------
    1    -227.3110801796      5.07e-04  
    2    -227.3132570609      4.16e-04  Done DIIS. Switching to GDM
 ---------------------------------------
  Cycle       Energy        RMS Gradient
 ---------------------------------------
    1    -227.3132570609      1.61e-02   Normal BFGS step
    2    -227.3129049990      2.65e-02  Line search: overstep
    3    -227.3142206161      3.22e-03   Normal BFGS step
    4    -227.3142918597      1.02e-03   Normal BFGS step
    5    -227.3143068853      1.22e-03   Normal BFGS step
    6    -227.3143109340      1.02e-03   Normal BFGS step
    7    -227.3143141520      3.38e-04   Normal BFGS step
    8    -227.3143165717      2.32e-04   Normal BFGS step
    9    -227.3143172054      1.36e-04   Normal BFGS step
   10    -227.3143172902      8.54e-05   Normal BFGS step
   11    -227.3143173201      7.14e-05   Normal BFGS step
   12    -227.3143173454      5.30e-05   Normal BFGS step
   13    -227.3143173619      5.18e-05   Normal BFGS step
   14    -227.3143173746      4.47e-05   Normal BFGS step
   15    -227.3143173803      1.96e-05   Normal BFGS step
   16    -227.3143173819      6.25e-06   Normal BFGS step
   17    -227.3143173821      4.71e-06   Normal BFGS step
   18    -227.3143173822      3.31e-06   Normal BFGS step
   19    -227.3143173823      1.82e-06   Normal BFGS step
   20    -227.3143173823      8.50e-07  Convergence criterion met
 ---------------------------------------
 SCF time:   CPU 194.09s  wall 13.00s 
<S^2> =          0.758375713
(3)  G-ENP(liq) elect-nuc-pol free energy of system     -227.314317382 a.u.
(4)  G-CDS(liq) cavity-dispersion-solvent structure 
     free energy                                                1.4949 kcal/mol
(6)  G-S(liq) free energy of system                     -227.311935169 a.u.
 SCF   energy in the final basis set =     -227.3119351690
 Total energy in the final basis set =     -227.3119351690
 
 --------------------------------------------------------------
 
                    Orbital Energies (a.u.)
 --------------------------------------------------------------
 
 Alpha MOs
 -- Occupied --
-19.4455 -19.4453 -19.3542  -1.2950  -1.1283  -1.0445  -0.7007  -0.6552
 -0.5885  -0.5614  -0.5006  -0.4551  -0.4345  -0.4295
 -- Virtual --
  0.0323   0.0441   0.0731   0.1109   0.1710   0.1884   0.1944   0.2101
  0.2221   0.2322   0.2484   0.2512   0.2675   0.2827   0.3017   0.3215
  0.3646   0.4128   0.4683   0.5939   0.5994   0.6575   0.7289   0.7664
  0.8253   0.8459   0.8523   0.9196   0.9485   0.9776   1.0598   1.0705
  1.1258   1.1284   1.1340   1.1598   1.2024   1.4003   1.4158   1.4762
  1.4954   1.5480   1.5718   1.6106   1.6683   1.7930   1.8636   1.8838
  1.9123   2.0008   2.1533   2.2104   2.2511   2.3052   2.3400   2.4980
  2.5862   2.6343   2.7256   2.8007   2.9033   3.6600   3.7328   3.7829
  3.8027   3.8559   3.8786   3.9729   4.1998   4.2245   4.5682   4.6497
  4.6667   4.8188   4.9454   5.0425   5.0725   5.0943   5.1029   5.1120
  5.1339   5.1499   5.2212   5.2501   5.3069   5.3543   5.3600   5.4620
  5.5118   5.5571   5.6159   5.6387   5.6787   5.7956   6.0254   6.0863
  6.7540   6.8200   6.8547   6.9177   6.9592   6.9836   6.9912   7.1043
  7.1825   7.1974   7.2123   7.3124   7.3696   7.4751   7.5053   7.5754
  7.8150   7.8547   8.0286  50.3676  50.3912  50.4757
 
 Beta MOs
 -- Occupied --
-19.4401 -19.4321 -19.3424  -1.2768  -1.1012  -1.0179  -0.6753  -0.6260
 -0.5756  -0.5305  -0.4425  -0.4284  -0.4149
 -- Virtual --
 -0.1196   0.0333   0.0461   0.0771   0.1183   0.1746   0.1932   0.1968
  0.2117   0.2246   0.2361   0.2508   0.2526   0.2697   0.2844   0.3047
  0.3240   0.3664   0.4165   0.4964   0.5961   0.6030   0.6634   0.7319
  0.7691   0.8270   0.8477   0.8553   0.9262   0.9526   0.9862   1.0652
  1.0753   1.1351   1.1433   1.1502   1.1675   1.2109   1.4071   1.4218
  1.4885   1.5100   1.5567   1.5816   1.6185   1.6834   1.8119   1.8713
  1.8960   1.9223   2.0162   2.1671   2.2201   2.2581   2.3166   2.3482
  2.5209   2.5893   2.6473   2.7286   2.8095   2.8953   3.6615   3.7379
  3.7767   3.8055   3.8517   3.8825   3.9823   4.2033   4.2300   4.5750
  4.6572   4.6859   4.8365   4.9608   5.0745   5.1020   5.1189   5.1302
  5.1384   5.1650   5.1867   5.2364   5.2705   5.3268   5.3744   5.3782
  5.4885   5.5442   5.5826   5.6325   5.6509   5.7008   5.8273   6.0317
  6.1144   6.7683   6.8724   6.8969   6.9328   6.9925   7.0085   7.0352
  7.1448   7.2013   7.2315   7.2486   7.3345   7.4109   7.4947   7.5205
  7.6122   7.8579   7.8965   8.0468  50.3769  50.3961  50.4843
 --------------------------------------------------------------
 
          Ground-State Mulliken Net Atomic Charges

     Atom                 Charge (a.u.)    Spin (a.u.)
  --------------------------------------------------------
      1 H                     0.352961      -0.004261
      2 O                    -0.187196       0.171310
      3 O                    -0.289647       0.432546
      4 H                     0.486392      -0.025230
      5 O                    -0.704301       0.432370
      6 H                     0.341791      -0.006734
  --------------------------------------------------------
  Sum of atomic charges =     0.000000
  Sum of spin   charges =     1.000000

 -----------------------------------------------------------------
                    Cartesian Multipole Moments
 -----------------------------------------------------------------
    Charge (ESU x 10^10)
                -0.0000
    Dipole Moment (Debye)
         X       0.4864      Y      -1.3602      Z       0.2258
       Tot       1.4621
    Quadrupole Moments (Debye-Ang)
        XX     -13.8654     XY      -5.0487     YY     -16.4330
        XZ      -2.6911     YZ       3.1795     ZZ     -22.4193
    Octopole Moments (Debye-Ang^2)
       XXX      19.6561    XXY      -2.3815    XYY      -0.0480
       YYY     -27.3638    XXZ       6.4229    XYZ       0.6998
       YYZ       9.6531    XZZ      14.6032    YZZ     -17.5004
       ZZZ      30.3620
    Hexadecapole Moments (Debye-Ang^3)
      XXXX    -101.5810   XXXY      17.5699   XXYY     -14.4478
      XYYY      15.8959   YYYY    -106.3996   XXXZ     -33.7689
      XXYZ      10.4814   XYYZ      -7.7343   YYYZ      42.3843
      XXZZ     -41.1887   XYZZ      19.4907   YYZZ     -42.6726
      XZZZ     -45.4117   YZZZ      53.9084   ZZZZ     -99.6264
 -----------------------------------------------------------------
 Calculating analytic gradient of the SCF energy
 Gradient of CDS energy
            1           2           3           4           5           6
    1   0.0003002  -0.0002524   0.0001837  -0.0002417   0.0003232  -0.0003130
    2  -0.0002688   0.0001798  -0.0000718  -0.0001068  -0.0000500   0.0003175
    3  -0.0002672   0.0001956   0.0002400  -0.0000489  -0.0002247   0.0001052
 Gradient of SCF Energy
            1           2           3           4           5           6
    1   0.0049529   0.0460746  -0.0604625   0.0148949   0.0046731  -0.0101330
    2  -0.0101185   0.0164138   0.0147786  -0.0392071   0.0079302   0.0102030
    3  -0.0058750   0.0051653  -0.0196242   0.0308563  -0.0129079   0.0023854
 Max gradient component =       6.046E-02
 RMS gradient           =       2.359E-02
 Computing fast CPCM-SWIG gradient
 Updating gradient with PCM contributions...
 -- total gradient after adding PCM contribution --
---------------------------------------------------
  Atom         X              Y              Z     
---------------------------------------------------
   1      -0.001145       0.003054       0.005833
   2       0.050980       0.002704      -0.006748
   3      -0.059782       0.016158      -0.021048
   4       0.016187      -0.037578       0.029368
   5      -0.004156       0.010256      -0.003727
   6      -0.002084       0.005407      -0.003678
---------------------------------------------------
 Number of fixed atoms: 0
 Gradient time:  CPU 20.57 s  wall 1.65 s
 ----------------------------------------------------------------
             Standard Nuclear Orientation (Angstroms)
    I     Atom           X                Y                Z
 ----------------------------------------------------------------
    1      H       0.9860017000    -0.6082515000    -0.5144501000
    2      O       0.7113545000     0.0695801000     0.1191260000
    3      O      -0.7113545000    -0.0695801000     0.1191260000
    4      H      -1.0450972000     0.7103513000    -0.5919733000
    5      O      -1.3065782000     1.6315673000    -1.3269229000
    6      H      -1.9911635000     2.1854501000    -0.9201592000
 ----------------------------------------------------------------
 Nuclear Repulsion Energy =          74.94274728 hartrees
 There are       14 alpha and       13 beta electrons
 Discretize the solute cavity surface with Lebedev spheres
	Using 110 Lebedev grid points for each H atom
	Using 194 Lebedev grid points for other atoms
	Atomic van der Waals radii will be scaled by 1.20
 Remove points where switching function is < 1.0e-08
 Keep 587 surface tesserae and discard 325 interior tesserae
 Molecular Surface Area = 70.913 Angst**2

                       Distance Matrix (Angstroms)
             H (  1)   O (  2)   O (  3)   H (  4)   O (  5)
   O (  2)  0.967629
   O (  3)  1.890133  1.429499
   H (  4)  2.422826  2.000343  1.106950
   O (  5)  3.306482  2.933072  2.310682  1.207130
   H (  6)  4.102789  3.586171  2.793418  1.782881  0.970000
 
 Requested basis set is 6-311++G(2df,2p)
 There are 42 shells and 132 basis functions
 A cutoff of  1.0D-11 yielded    864 shell pairs
 There are      8653 function pairs (     10773 Cartesian)
 Smallest overlap matrix eigenvalue = 6.85E-04
 Guess MOs from SCF MO coefficient file

 -----------------------------------------------------------------------
  General SCF calculation program by
  Eric Jon Sundstrom, Paul Horn, Yuezhi Mao, Dmitri Zuev, Alec White,
  David Stuck, Shaama M.S., Shane Yost, Joonho Lee, David Small,
  Daniel Levine, Susi Lehtola, Hugh Burton, Evgeny Epifanovsky,
  Bang C. Huynh
 -----------------------------------------------------------------------
 Exchange:     0.1500 Hartree-Fock + 1.0000 wB97M-V + LR-HF
 Correlation:  1.0000 wB97M-V
 Using SG-2 standard quadrature grid
 Nonlocal Correlation:  VV10 with C = 0.0100 and b = 6.00 and scale = 1.00000
 Grid used for NLC:  SG-1 standard quadrature
 
 Citation of the SMD model:
 Marenich, A.V.; Cramer, C.J.; Truhlar, D.G.
 J. Phys. Chem. B 2009, 113, 6378-6396.
 iSolventCode=           1
 Solvent: water                                                           
 
 vradii
            1           2           3           4           5           6
    1   1.2000000   1.5200000   1.5200000   1.2000000   1.5200000   1.2000000
 -------------------------------------------------------
 OpenMP BLAS3 based DFT computing Module                
 Release: version 1.0, May 2013, Q-Chem Inc. Pittsburgh 
 -------------------------------------------------------
 A unrestricted SCF calculation will be
 performed using Roothaan-Hall, DIIS, GDM
 SCF converges when RMS gradient is below 1.0e-06
 ---------------------------------------
  Cycle       Energy         DIIS error
 ---------------------------------------
    1    -227.2900546055      4.66e-04  Roothaan Step
 ---------------------------------------
  Cycle       Energy         DIIS error
[...]
 Value Taken    Lamda =  -0.00000141
 Step Taken.  Stepsize is  0.022664

                             Maximum     Tolerance    Cnvgd?
         Gradient           0.000176      0.000300     YES
         Displacement       0.018619      0.001200      NO
         Energy change     -0.000007      0.000001      NO


 New Cartesian Coordinates Obtained by Inverse Iteration

 Displacement from previous Coordinates is:  0.033747
 ----------------------------------------------------------------
             Standard Nuclear Orientation (Angstroms)
    I     Atom           X                Y                Z
 ----------------------------------------------------------------
    1      H       0.9949125964    -0.2747980045    -0.5238965483
    2      O       0.5641584545     0.1829249315     0.2143091671
    3      O      -0.7834916298    -0.1575927451     0.0736512841
    4      H      -1.1135005784     0.4095156323    -0.7359600382
    5      O      -1.6722188213     1.5031128363    -1.3322003106
    6      H      -1.3466972213     2.2559545495    -0.8101570541
 ----------------------------------------------------------------
 Nuclear Repulsion Energy =          75.14767097 hartrees
 There are       14 alpha and       13 beta electrons
 Discretize the solute cavity surface with Lebedev spheres
	Using 110 Lebedev grid points for each H atom
	Using 194 Lebedev grid points for other atoms
	Atomic van der Waals radii will be scaled by 1.20
 Remove points where switching function is < 1.0e-08
 Keep 590 surface tesserae and discard 322 interior tesserae
 Molecular Surface Area = 71.311 Angst**2
 Applying Cartesian multipole field
    Component          Value
    ---------          -----
     (2,0,0)        1.00000E-11
     (0,2,0)        2.00000E-11
     (0,0,2)       -3.00000E-11
 Nucleus-field energy     =     0.0000000012 hartrees
 Requested basis set is 6-311++G(2df,2p)
 There are 42 shells and 132 basis functions
 A cutoff of  1.0D-12 yielded    875 shell pairs
 There are      8737 function pairs (     10882 Cartesian)
 Smallest overlap matrix eigenvalue = 8.76E-04
 Guess MOs from SCF MO coefficient file

 -----------------------------------------------------------------------
  General SCF calculation program by
  Eric Jon Sundstrom, Paul Horn, Yuezhi Mao, Dmitri Zuev, Alec White,
  David Stuck, Shaama M.S., Shane Yost, Joonho Lee, David Small,
  Daniel Levine, Susi Lehtola, Hugh Burton, Evgeny Epifanovsky,
  Bang C. Huynh
 -----------------------------------------------------------------------
 Exchange:     0.1500 Hartree-Fock + 1.0000 wB97M-V + LR-HF
 Correlation:  1.0000 wB97M-V
 Using SG-2 standard quadrature grid
 Nonlocal Correlation:  VV10 with C = 0.0100 and b = 6.00 and scale = 1.00000
 Grid used for NLC:  SG-1 standard quadrature
 
 Citation of the SMD model:
 Marenich, A.V.; Cramer, C.J.; Truhlar, D.G.
 J. Phys. Chem. B 2009, 113, 6378-6396.
 iSolventCode=           1
 Solvent: water                                                           
 
 vradii
            1           2           3           4           5           6
    1   1.2000000   1.5200000   1.5200000   1.2000000   1.5200000   1.2000000
 -------------------------------------------------------
 OpenMP BLAS3 based DFT computing Module                
 Release: version 1.0, May 2013, Q-Chem Inc. Pittsburgh 
 -------------------------------------------------------
 A unrestricted SCF calculation will be
 performed using Roothaan-Hall, DIIS, GDM
 SCF converges when RMS gradient is below 1.0e-07
 ---------------------------------------
  Cycle       Energy         DIIS error
 ---------------------------------------
    1    -227.2893408279      4.93e-04  Roothaan Step
 ---------------------------------------
  Cycle       Energy         DIIS error
 ---------------------------------------
    1    -227.3096238450      5.00e-04  
    2    -227.3123967355      2.55e-04  Done DIIS. Switching to GDM
 ---------------------------------------
  Cycle       Energy        RMS Gradient
 ---------------------------------------
    1    -227.3123967355      4.91e-03   Normal BFGS step
    2    -227.3126100900      4.75e-03   Normal BFGS step
    3    -227.3128341816      6.28e-04   Normal BFGS step
    4    -227.3128369198      1.05e-03   Normal BFGS step
    5    -227.3128451122      3.77e-04   Normal BFGS step
    6    -227.3128454420      2.49e-04   Normal BFGS step
    7    -227.3128457023      2.45e-04   Normal BFGS step
    8    -227.3128458230      9.39e-05   Normal BFGS step
    9    -227.3128459044      9.57e-05   Normal BFGS step
   10    -227.3128459489      8.64e-05   Normal BFGS step
   11    -227.3128459704      7.11e-05   Normal BFGS step
   12    -227.3128459903      5.33e-05   Normal BFGS step
   13    -227.3128460069      5.89e-05   Normal BFGS step
   14    -227.3128460256      5.49e-05   Normal BFGS step
   15    -227.3128460397      3.91e-05   Normal BFGS step
   16    -227.3128460465      1.98e-05   Normal BFGS step
   17    -227.3128460482      9.06e-06   Normal BFGS step
   18    -227.3128460486      4.66e-06   Normal BFGS step
   19    -227.3128460487      2.64e-06   Normal BFGS step
   20    -227.3128460488      1.64e-06   Normal BFGS step
   21    -227.3128460488      6.40e-07   Normal BFGS step
   22    -227.3128460488      1.60e-07   Normal BFGS step
   23    -227.3128460488      4.09e-08  Convergence criterion met
 ---------------------------------------
 SCF time:   CPU 232.58s  wall 15.00s 
<S^2> =          0.757987222
(3)  G-ENP(liq) elect-nuc-pol free energy of system     -227.312846049 a.u.
(4)  G-CDS(liq) cavity-dispersion-solvent structure 
     free energy                                                1.5115 kcal/mol
(6)  G-S(liq) free energy of system                     -227.310437390 a.u.
 SCF   energy in the final basis set =     -227.3104373895
 Total energy in the final basis set =     -227.3104373895
 
 --------------------------------------------------------------
 
                    Orbital Energies (a.u.)
 --------------------------------------------------------------
 
 Alpha MOs
 -- Occupied --
-19.4167 -19.4107 -19.3928  -1.2881  -1.1482  -1.0252  -0.6994  -0.6232
 -0.5896  -0.5700  -0.5078  -0.4667  -0.4353  -0.4088
 -- Virtual --
  0.0318   0.0506   0.0661   0.1392   0.1665   0.1930   0.2079   0.2152
  0.2222   0.2263   0.2460   0.2566   0.2783   0.2865   0.2971   0.3139
  0.3672   0.3725   0.4186   0.5739   0.6022   0.6348   0.7506   0.7782
  0.8181   0.8332   0.8599   0.9370   0.9668   0.9917   1.0435   1.0750
  1.0969   1.1194   1.1513   1.1750   1.1953   1.3970   1.4199   1.4541
  1.5254   1.5361   1.5583   1.6096   1.6359   1.7876   1.8407   1.8678
  1.9377   1.9714   2.0906   2.2228   2.2417   2.3082   2.3520   2.4755
  2.5130   2.6388   2.7529   2.7870   2.9043   3.6826   3.7084   3.7725
  3.7881   3.8684   3.9247   4.1013   4.1938   4.2217   4.6206   4.6366
  4.7013   4.8318   4.9574   5.0301   5.0569   5.0691   5.0929   5.1201
  5.1299   5.1564   5.2318   5.2684   5.2810   5.3030   5.3373   5.4070
  5.4609   5.5446   5.6065   5.6460   5.6868   5.7541   6.1480   6.1599
  6.8189   6.8765   6.8883   6.9149   6.9492   6.9645   6.9885   7.0729
  7.1494   7.1821   7.2025   7.3329   7.3556   7.4344   7.5476   7.6052
  7.6954   7.8707   8.0237  50.3820  50.4230  50.4556
 
 Beta MOs
 -- Occupied --
-19.4090 -19.4088 -19.3735  -1.2784  -1.1002  -1.0103  -0.6833  -0.5996
 -0.5665  -0.5597  -0.4467  -0.4254  -0.3976
 -- Virtual --
 -0.1073   0.0330   0.0519   0.0678   0.1440   0.1700   0.1970   0.2093
  0.2190   0.2249   0.2307   0.2483   0.2580   0.2795   0.2882   0.3006
  0.3171   0.3687   0.3874   0.4216   0.5829   0.6047   0.6418   0.7588
  0.7803   0.8199   0.8344   0.8663   0.9413   0.9701   0.9993   1.0475
  1.0785   1.1238   1.1284   1.1593   1.1820   1.2049   1.4011   1.4328
  1.4668   1.5390   1.5473   1.5738   1.6166   1.6455   1.8074   1.8583
  1.8794   1.9584   1.9765   2.1073   2.2267   2.2475   2.3179   2.3569
  2.4866   2.5240   2.6473   2.7719   2.7924   2.8974   3.6857   3.7172
  3.7792   3.7866   3.8660   3.9242   4.1054   4.2004   4.2262   4.6245
  4.6467   4.7062   4.8406   4.9670   5.0830   5.1107   5.1147   5.1445
  5.1469   5.1487   5.1906   5.2394   5.2910   5.3214   5.3283   5.3554
  5.4210   5.4775   5.5648   5.6264   5.6660   5.7134   5.7805   6.1515
  6.1744   6.8702   6.8936   6.9331   6.9546   6.9724   6.9922   7.0276
  7.1101   7.1885   7.2085   7.2273   7.3442   7.3863   7.4650   7.5560
  7.6509   7.7521   7.8850   8.0311  50.3892  50.4280  50.4644
 --------------------------------------------------------------
 
          Ground-State Mulliken Net Atomic Charges

     Atom                 Charge (a.u.)    Spin (a.u.)
  --------------------------------------------------------
      1 H                     0.340871      -0.001515
      2 O                    -0.286399       0.059213
      3 O                    -0.306452       0.248585
      4 H                     0.381803      -0.041443
      5 O                    -0.477000       0.748548
      6 H                     0.347177      -0.013388
  --------------------------------------------------------
  Sum of atomic charges =     0.000000
  Sum of spin   charges =     1.000000

 -----------------------------------------------------------------
                    Cartesian Multipole Moments
 -----------------------------------------------------------------
    Charge (ESU x 10^10)
                 0.0000
    Dipole Moment (Debye)
         X       1.8894      Y       0.8797      Z      -1.4056
       Tot       2.5138
    Quadrupole Moments (Debye-Ang)
        XX     -20.2797     XY      -1.8575     YY     -13.3701
        XZ      -3.0313     YZ       0.8666     ZZ     -20.3822
    Octopole Moments (Debye-Ang^2)
       XXX      46.4258    XXY     -13.2223    XYY       6.6046
       YYY     -12.9970    XXZ       9.8211    XYZ      -1.6718
       YYZ       5.0054    XZZ      16.3024    YZZ     -13.0300
       ZZZ      24.6323
    Hexadecapole Moments (Debye-Ang^3)
      XXXX    -176.5631   XXXY      55.8659   XXYY     -42.6719
      XYYY      24.6228   YYYY     -63.2624   XXXZ     -55.1587
      XXYZ      19.1083   XYYZ     -13.3971   YYYZ      26.6428
      XXZZ     -47.8338   XYZZ      19.5980   YYZZ     -33.4224
      XZZZ     -49.0065   YZZZ      42.6807   ZZZZ     -90.4185
 -----------------------------------------------------------------
 Calculating analytic gradient of the SCF energy
 Gradient of CDS energy
            1           2           3           4           5           6
    1   0.0004009  -0.0002707   0.0000868  -0.0001475  -0.0000675  -0.0000021
    2  -0.0001709   0.0000131   0.0000855  -0.0002566  -0.0001440   0.0004728
    3  -0.0002319   0.0002035   0.0002543  -0.0002774  -0.0000434   0.0000949
 Gradient of SCF Energy
            1           2           3           4           5           6
    1   0.0072408  -0.0056536  -0.0016437   0.0030429  -0.0087484   0.0057620
    2  -0.0067122   0.0076686  -0.0050554   0.0022420  -0.0093855   0.0112425
    3  -0.0141839   0.0149161   0.0058837  -0.0042778  -0.0092224   0.0068843
 Max gradient component =       1.492E-02
 RMS gradient           =       8.042E-03
 Computing fast CPCM-SWIG gradient
 Updating gradient with PCM contributions...
 -- total gradient after adding PCM contribution --
---------------------------------------------------
  Atom         X              Y              Z     
---------------------------------------------------
   1      -0.000018      -0.000016      -0.000033
   2       0.000002       0.000009      -0.000031
   3       0.000007       0.000112      -0.000034
   4      -0.000000      -0.000033       0.000070
   5       0.000019      -0.000078       0.000072
   6      -0.000010       0.000006      -0.000044
---------------------------------------------------
 Number of fixed atoms: 0
 Gradient time:  CPU 20.70 s  wall 1.53 s
 Geometry Optimization Parameters
   NAtoms,    NIC,     NZ,  NCons,   NDum,   NFix, NCnnct, MaxDiis
        6      24       0       0       0       0       0       0

 Cartesian Hessian Update
 Hessian updated using Powell/Murtagh-Sargent update
  Mixing factors:     0.998872 Powell                      0.001128 Murtagh-Sargent


** GEOMETRY OPTIMIZATION IN DELOCALIZED INTERNAL COORDINATES **
   Searching for a Transition State

   Optimization Cycle:  33

                       Coordinates (Angstroms)
     ATOM                X               Y               Z
      1  H         0.9949125964   -0.2747980045   -0.5238965483
      2  O         0.5641584545    0.1829249315    0.2143091671
      3  O        -0.7834916298   -0.1575927451    0.0736512841
      4  H        -1.1135005784    0.4095156323   -0.7359600382
      5  O        -1.6722188213    1.5031128363   -1.3322003106
      6  H        -1.3466972213    2.2559545495   -0.8101570541
   Point Group: c1    Number of degrees of freedom:    12


   Energy is   -227.310437390

 Hessian updated using Powell/Murtagh-Sargent update
  Mixing factors:     0.999983 Powell                      0.000017 Murtagh-Sargent

 12 Hessian modes will be used to form the next step
  Hessian Eigenvalues:
    -0.169766    0.001529    0.015305    0.017581    0.021186    0.084595
     0.141737    0.219445    0.268051    0.333822    0.507902    0.516194

 Transition state search - taking P-RFO step
 Searching for Lamda that Maximizes Along the Lowest mode
 Value Taken    Lamda =   0.00000000
 Searching for Lamda that Minimizes Along All other modes
 Value Taken    Lamda =  -0.00000011
 Step Taken.  Stepsize is  0.002762

                             Maximum     Tolerance    Cnvgd?
         Gradient           0.000107      0.000300     YES
         Displacement       0.002292      0.001200      NO
         Energy change     -0.000001      0.000001     YES


                       Distance Matrix (Angstroms)
             H (  1)   O (  2)   O (  3)   H (  4)   O (  5)
   O (  2)  0.969540
   O (  3)  1.879766  1.397103
   H (  4)  2.226805  1.941364  1.042108
   O (  5)  3.305739  3.022577  2.350361  1.365146
   H (  6)  3.459738  2.999725  2.631260  1.862585  0.972247
 
 Final energy is   -227.310437389523     


 ******************************
 **  OPTIMIZATION CONVERGED  **
 ******************************

                       Coordinates (Angstroms)
     ATOM                X               Y               Z
      1  H         0.9949125964   -0.2747980045   -0.5238965483
      2  O         0.5641584545    0.1829249315    0.2143091671
      3  O        -0.7834916298   -0.1575927451    0.0736512841
      4  H        -1.1135005784    0.4095156323   -0.7359600382
      5  O        -1.6722188213    1.5031128363   -1.3322003106
      6  H        -1.3466972213    2.2559545495   -0.8101570541

Z-matrix Print:
$molecule
0 2
O 
H  1 1.042108
O  2 1.365146 1 154.805661
H  3 0.972247 2 104.404085 1 37.550179 0
O  1 1.397103 2 104.539355 3 -92.273566 0
H  5 0.969540 1 103.700011 2 -74.370024 0
$end

 
 --------------------------------------------------------------
 
                    Orbital Energies (a.u.)
 --------------------------------------------------------------
 
 Alpha MOs
 -- Occupied --
-19.4167 -19.4107 -19.3928  -1.2881  -1.1482  -1.0252  -0.6994  -0.6232
 -0.5896  -0.5700  -0.5078  -0.4667  -0.4353  -0.4088
 -- Virtual --
  0.0318   0.0506   0.0661   0.1392   0.1665   0.1930   0.2079   0.2152
  0.2222   0.2263   0.2460   0.2566   0.2783   0.2865   0.2971   0.3139
  0.3672   0.3725   0.4186   0.5739   0.6022   0.6348   0.7506   0.7782
  0.8181   0.8332   0.8599   0.9370   0.9668   0.9917   1.0435   1.0750
  1.0969   1.1194   1.1513   1.1750   1.1953   1.3970   1.4199   1.4541
  1.5254   1.5361   1.5583   1.6096   1.6359   1.7876   1.8407   1.8678
  1.9377   1.9714   2.0906   2.2228   2.2417   2.3082   2.3520   2.4755
  2.5130   2.6388   2.7529   2.7870   2.9043   3.6826   3.7084   3.7725
  3.7881   3.8684   3.9247   4.1013   4.1938   4.2217   4.6206   4.6366
  4.7013   4.8318   4.9574   5.0301   5.0569   5.0691   5.0929   5.1201
  5.1299   5.1564   5.2318   5.2684   5.2810   5.3030   5.3373   5.4070
  5.4609   5.5446   5.6065   5.6460   5.6868   5.7541   6.1480   6.1599
  6.8189   6.8765   6.8883   6.9149   6.9492   6.9645   6.9885   7.0729
  7.1494   7.1821   7.2025   7.3329   7.3556   7.4344   7.5476   7.6052
  7.6954   7.8707   8.0237  50.3820  50.4230  50.4556
 
 Beta MOs
 -- Occupied --
-19.4090 -19.4088 -19.3735  -1.2784  -1.1002  -1.0103  -0.6833  -0.5996
 -0.5665  -0.5597  -0.4467  -0.4254  -0.3976
 -- Virtual --
 -0.1073   0.0330   0.0519   0.0678   0.1440   0.1700   0.1970   0.2093
  0.2190   0.2249   0.2307   0.2483   0.2580   0.2795   0.2882   0.3006
  0.3171   0.3687   0.3874   0.4216   0.5829   0.6047   0.6418   0.7588
  0.7803   0.8199   0.8344   0.8663   0.9413   0.9701   0.9993   1.0475
  1.0785   1.1238   1.1284   1.1593   1.1820   1.2049   1.4011   1.4328
  1.4668   1.5390   1.5473   1.5738   1.6166   1.6455   1.8074   1.8583
  1.8794   1.9584   1.9765   2.1073   2.2267   2.2475   2.3179   2.3569
  2.4866   2.5240   2.6473   2.7719   2.7924   2.8974   3.6857   3.7172
  3.7792   3.7866   3.8660   3.9242   4.1054   4.2004   4.2262   4.6245
  4.6467   4.7062   4.8406   4.9670   5.0830   5.1107   5.1147   5.1445
  5.1469   5.1487   5.1906   5.2394   5.2910   5.3214   5.3283   5.3554
  5.4210   5.4775   5.5648   5.6264   5.6660   5.7134   5.7805   6.1515
  6.1744   6.8702   6.8936   6.9331   6.9546   6.9724   6.9922   7.0276
  7.1101   7.1885   7.2085   7.2273   7.3442   7.3863   7.4650   7.5560
  7.6509   7.7521   7.8850   8.0311  50.3892  50.4280  50.4644
 --------------------------------------------------------------
 
          Ground-State Mulliken Net Atomic Charges

     Atom                 Charge (a.u.)    Spin (a.u.)
  --------------------------------------------------------
      1 H                     0.340871      -0.001515
      2 O                    -0.286399       0.059213
      3 O                    -0.306452       0.248585
      4 H                     0.381803      -0.041443
      5 O                    -0.477000       0.748548
      6 H                     0.347177      -0.013388
  --------------------------------------------------------
  Sum of atomic charges =     0.000000
  Sum of spin   charges =     1.000000

 -----------------------------------------------------------------
                    Cartesian Multipole Moments
 -----------------------------------------------------------------
    Charge (ESU x 10^10)
                 0.0000
    Dipole Moment (Debye)
         X       1.8894      Y       0.8797      Z      -1.4056
       Tot       2.5138
    Quadrupole Moments (Debye-Ang)
        XX     -20.2797     XY      -1.8575     YY     -13.3701
        XZ      -3.0313     YZ       0.8666     ZZ     -20.3822
    Octopole Moments (Debye-Ang^2)
       XXX      46.4258    XXY     -13.2223    XYY       6.6046
       YYY     -12.9970    XXZ       9.8211    XYZ      -1.6718
       YYZ       5.0054    XZZ      16.3024    YZZ     -13.0300
       ZZZ      24.6323
    Hexadecapole Moments (Debye-Ang^3)
      XXXX    -176.5631   XXXY      55.8659   XXYY     -42.6719
      XYYY      24.6228   YYYY     -63.2624   XXXZ     -55.1587
      XXYZ      19.1083   XYYZ     -13.3971   YYYZ      26.6428
      XXZZ     -47.8338   XYZZ      19.5980   YYZZ     -33.4224
      XZZZ     -49.0065   YZZZ      42.6807   ZZZZ     -90.4185
 -----------------------------------------------------------------
 Total job time:  550.94s(wall), 8465.24s(cpu) 
 Fri Jul 21 18:32:44 2023

        *************************************************************
        *                                                           *
        *  Thank you very much for using Q-Chem.  Have a nice day.  *
        *                                                           *
        *************************************************************


