
Running Job 1 of 1 Q_in.in
qchem Q_in.in_395802.0 /scratch/ari.fischer/qChem1853798.hpc-mn1/qchem395802/ 0
/usr/local/qchem-5.4.1/exe/qcprog.exe_s Q_in.in_395802.0 /scratch/ari.fischer/qChem1853798.hpc-mn1/qchem395802/
                  Welcome to Q-Chem
     A Quantum Leap Into The Future Of Chemistry


 Q-Chem 5.4, Q-Chem, Inc., Pleasanton, CA (2021)

 License issued to: Nanyang Technological University (site)

 E. Epifanovsky,  A. T. B. Gilbert,  Xintian Feng,  Joonho Lee,  Yuezhi Mao,  
 N. Mardirossian,  P. Pokhilko,  A. White,  M. Wormit,  M. P. Coons,  
 A. L. Dempwolff,  Zhengting Gan,  D. Hait,  P. R. Horn,  L. D. Jacobson,  
 I. Kaliman,  J. Kussmann,  A. W. Lange,  Ka Un Lao,  D. S. Levine,  Jie Liu,  
 S. C. McKenzie,  A. F. Morrison,  K. Nanda,  F. Plasser,  D. R. Rehn,  
 M. L. Vidal,  Zhi-Qiang You,  Ying Zhu,  B. Alam,  B. Albrecht,  
 A. Aldossary,  E. Alguire,  J. H. Andersen,  D. Barton,  K. Begam,  A. Behn,  
 Y. A. Bernard,  E. J. Berquist,  H. Burton,  A. Carreras,  K. Carter-Fenk,  
 R. Chakraborty,  A. D. Chien,  K. D. Closser,  V. Cofer-Shabica,  
 S. Dasgupta,  Jia Deng,  M. de Wergifosse,  M. Diedenhofen,  Hainam Do,  
 S. Ehlert,  Po-Tung Fang,  S. Fatehi,  Qingguo Feng,  T. Friedhoff,  
 J. Gayvert,  Qinghui Ge,  G. Gidofalvi,  M. Goldey,  J. Gomes,  
 C. Gonzalez-Espinoza,  S. Gulania,  A. Gunina,  M. W. D. Hanson-Heine,  
 P. H. P. Harbach,  A. W. Hauser,  M. F. Herbst,  M. Hernandez Vera,  
 M. Hodecker,  Z. C. Holden,  S. Houck,  Xunkun Huang,  Kerwin Hui,  
 B. C. Huynh,  M. Ivanov,  Hyunjun Ji,  Hanjie Jiang,  B. Kaduk,  S. Kaehler,  
 K. Khistyaev,  Jaehoon Kim,  P. Klunzinger,  Z. Koczor-Benda,  
 Joong Hoon Koh,  D. Kosenkov,  L. Koulias,  T. Kowalczyk,  C. M. Krauter,  
 K. Kue,  A. Kunitsa,  T. Kus,  A. Landau,  K. V. Lawler,  D. Lefrancois,  
 S. Lehtola,  Rain Li,  Yi-Pei Li,  Jiashu Liang,  M. Liebenthal,  
 Hung-Hsuan Lin,  You-Sheng Lin,  Fenglai Liu,  Kuan-Yu Liu,  
 M. Loipersberger,  A. Luenser,  A. Manjanath,  P. Manohar,  E. Mansoor,  
 S. F. Manzer,  Shan-Ping Mao,  A. V. Marenich,  T. Markovich,  S. Mason,  
 S. A. Maurer,  P. F. McLaughlin,  M. F. S. J. Menger,  J.-M. Mewes,  
 S. A. Mewes,  P. Morgante,  J. W. Mullinax,  K. J. Oosterbaan,  G. Paran,  
 Alexander C. Paul,  Suranjan K. Paul,  F. Pavosevic,  Zheng Pei,  S. Prager,  
 E. I. Proynov,  E. Ramos,  B. Rana,  A. E. Rask,  A. Rettig,  R. M. Richard,  
 F. Rob,  E. Rossomme,  T. Scheele,  M. Scheurer,  M. Schneider,  
 N. Sergueev,  S. M. Sharada,  W. Skomorowski,  D. W. Small,  C. J. Stein,  
 Yu-Chuan Su,  E. J. Sundstrom,  Zhen Tao,  J. Thirman,  T. Tsuchimochi,  
 N. M. Tubman,  S. P. Veccham,  O. Vydrov,  J. Wenzel,  J. Witte,  A. Yamada,  
 Kun Yao,  S. Yeganeh,  S. R. Yost,  A. Zech,  Igor Ying Zhang,  Xing Zhang,  
 Yu Zhang,  D. Zuev,  A. Aspuru-Guzik,  A. T. Bell,  N. A. Besley,  
 K. B. Bravaya,  B. R. Brooks,  D. Casanova,  Jeng-Da Chai,  S. Coriani,  
 C. J. Cramer,  A. E. DePrince, III,  R. A. DiStasio Jr.,  A. Dreuw,  
 B. D. Dunietz,  T. R. Furlani,  W. A. Goddard III,  S. Grimme,  
 S. Hammes-Schiffer,  T. Head-Gordon,  W. J. Hehre,  Chao-Ping Hsu,  
 T.-C. Jagau,  Yousung Jung,  A. Klamt,  Jing Kong,  D. S. Lambrecht,  
 WanZhen Liang,  N. J. Mayhall,  C. W. McCurdy,  J. B. Neaton,  
 C. Ochsenfeld,  J. A. Parkhill,  R. Peverati,  V. A. Rassolov,  Yihan Shao,  
 L. V. Slipchenko,  T. Stauch,  R. P. Steele,  J. E. Subotnik,  
 A. J. W. Thom,  A. Tkatchenko,  D. G. Truhlar,  T. Van Voorhis,  
 T. A. Wesolowski,  K. B. Whaley,  H. L. Woodcock III,  P. M. Zimmerman,  
 S. Faraji,  P. M. W. Gill,  M. Head-Gordon,  J. M. Herbert,  A. I. Krylov

 Additional authors for Version 5.4.1: 
 S. Kotaru,  Shaozhi Li,  Xiangyuan Li,  F. Matz,  A. Molle,  Haisheng Ren,  
 Yingli Su,  Hung-Yi Tsai,  C. Utku,  Fang Wang

 Contributors to earlier versions of Q-Chem not listed above: 
 R. D. Adamson,  B. Austin,  R. Baer,  J. Baker,  G. J. O. Beran,  
 K. Brandhorst,  S. T. Brown,  E. F. C. Byrd,  A. K. Chakraborty,  
 G. K. L. Chan,  Chun-Min Chang,  Yunqing Chen,  C.-L. Cheng,  
 Siu Hung Chien,  D. M. Chipman,  D. L. Crittenden,  H. Dachsel,  
 R. J. Doerksen,  A. D. Dutoi,  R. G. Edgar,  J. Fosso-Tande,  
 L. Fusti-Molnar,  D. Ghosh,  A. Ghysels,  A. Golubeva-Zadorozhnaya,  
 J. Gonthier,  M. S. Gordon,  S. R. Gwaltney,  G. Hawkins,  J. E. Herr,  
 A. Heyden,  S. Hirata,  E. G. Hohenstein,  G. Kedziora,  F. J. Keil,  
 C. Kelley,  Jihan Kim,  R. A. King,  R. Z. Khaliullin,  P. P. Korambath,  
 W. Kurlancheek,  A. Laurent,  A. M. Lee,  M. S. Lee,  S. V. Levchenko,  
 Ching Yeh Lin,  D. Liotard,  E. Livshits,  R. C. Lochan,  I. Lotan,  
 L. A. Martinez-Martinez,  P. E. Maslen,  N. Nair,  D. P. O'Neill,  
 D. Neuhauser,  E. Neuscamman,  C. M. Oana,  R. Olivares-Amaya,  R. Olson,  
 T. M. Perrine,  B. Peters,  P. A. Pieniazek,  A. Prociuk,  Y. M. Rhee,  
 J. Ritchie,  M. A. Rohrdanz,  E. Rosta,  N. J. Russ,  H. F. Schaefer III,  
 M. W. Schmidt,  N. E. Schultz,  S. Sharma,  N. Shenvi,  C. D. Sherrill,  
 A. C. Simmonett,  A. Sodt,  T. Stein,  D. Stuck,  K. S. Thanthiriwatte,  
 V. Vanovschi,  L. Vogt,  Tao Wang,  A. Warshel,  M. A. Watson,  
 C. F. Williams,  Q. Wu,  X. Xu,  Jun Yang,  W. Zhang,  Yan Zhao

 Please cite Q-Chem as follows:
 Y. Shao et al., Mol. Phys. 113, 184-215 (2015)
 DOI: 10.1080/00268976.2014.952696

 Q-Chem 5.4.1 for Intel X86 EM64T Linux

 Parts of Q-Chem use Armadillo 9.800.1 (Horizon Scraper).
 http://arma.sourceforge.net/

 Q-Chem begins on Wed Dec  6 10:59:09 2023  

 Host: 
0

     Scratch files written to /scratch/ari.fischer/qChem1853798.hpc-mn1/qchem395802//
 Aug1521 |scratch|qcdevops|jenkins|workspace|build_RNUM 8249   
 Processing $rem in /usr/local/qchem-5.4.1/config/preferences:
 Processing $rem in /home/ari.fischer/.qchemrc:
 Symmetry turned off for PCM/SM12/SMD calculation

 Checking the input file for inconsistencies... 	...done.

--------------------------------------------------------------
User input:
--------------------------------------------------------------
$molecule
-1 2
C         0.2893629763    0.0315406487    0.5566337965
O         0.6541680611   -1.1565349345    0.4174602413
C        -1.2484564108    0.2451230646    0.4406601187
O        -1.9097781564   -0.9131982675    0.1604466214
O        -1.5417753257    1.2702625386   -0.4185445904
O         0.9759381516    1.0444137214    0.7745928551
O        -1.7384232270    0.7473130169    1.7662032033
O        -1.5108119417   -0.1144755690    2.7119986494
H        -1.2217318192   -1.6053856353    0.1817768981
H        -2.4856635083    1.2394733162   -0.6302879932
$end

$rem
BASIS = 6-31G(d)
JOB_TYPE = SP
METHOD = wB97M-V
SCF_ALGORITHM = DIIS_GDM
MAX_SCF_CYCLES = 400
SCF_CONVERGENCE = 7
THRESH = 12
Solvent_method = SMD
$end
--------------------------------------------------------------
 ----------------------------------------------------------------
             Standard Nuclear Orientation (Angstroms)
    I     Atom           X                Y                Z
 ----------------------------------------------------------------
    1      C       0.2893629763     0.0315406487     0.5566337965
    2      O       0.6541680611    -1.1565349345     0.4174602413
    3      C      -1.2484564108     0.2451230646     0.4406601187
    4      O      -1.9097781564    -0.9131982675     0.1604466214
    5      O      -1.5417753257     1.2702625386    -0.4185445904
    6      O       0.9759381516     1.0444137214     0.7745928551
    7      O      -1.7384232270     0.7473130169     1.7662032033
    8      O      -1.5108119417    -0.1144755690     2.7119986494
    9      H      -1.2217318192    -1.6053856353     0.1817768981
   10      H      -2.4856635083     1.2394733162    -0.6302879932
 ----------------------------------------------------------------
 Nuclear Repulsion Energy =         403.67858861 hartrees
 There are       32 alpha and       31 beta electrons
 Requested basis set is 6-31G(d)
 There are 36 shells and 124 basis functions

 Total QAlloc Memory Limit 288000 MB
 Mega-Array Size       188 MB
 MEM_STATIC part       192 MB
 
 Citation of the SMD model:
 Marenich, A.V.; Cramer, C.J.; Truhlar, D.G.
 J. Phys. Chem. B 2009, 113, 6378-6396.
 iSolventCode=           1
 Solvent: water                                                           
 
 vradii
            1           2           3           4           5           6
    1   1.8500000   1.5200000   1.8500000   1.5200000   1.5200000   1.5200000
            7           8           9          10
    1   1.5200000   1.5200000   1.2000000   1.2000000
 Changing PCM_VDW_RADII to SMD_RADIUS
 Discretize the solute cavity surface with Lebedev spheres
	Using 110 Lebedev grid points for each H atom
	Using 194 Lebedev grid points for other atoms
	Atomic van der Waals radii will be scaled by 1.20
 Remove points where switching function is < 1.0e-08
 Keep 960 surface tesserae and discard 812 interior tesserae
 Molecular Surface Area = 114.611 Angst**2

                       Distance Matrix (Angstroms)
             C (  1)   O (  2)   C (  3)   O (  4)   O (  5)   O (  6)
   O (  2)  1.250590
   C (  3)  1.556906  2.363295
   O (  4)  2.426050  2.588260  1.362929
   O (  5)  2.416293  3.377931  1.369372  2.288702
   O (  6)  1.242901  2.252833  2.387113  3.540731  2.795258
   O (  7)  2.467246  3.341891  1.499776  2.316272  2.255054  2.905050
   O (  8)  2.812036  3.322338  2.314545  2.703248  3.423267  3.358644
   H (  9)  2.259082  1.943197  1.868721  0.976210  2.955024  3.493225
   H ( 10)  3.250947  4.086218  1.914770  2.364508  0.967837  3.740912
             O (  7)   O (  8)   H (  9)
   O (  8)  1.299621
   H (  9)  2.883152  2.951000
   H ( 10)  2.558077  3.735558  3.217172
 
 A cutoff of  1.0D-12 yielded    618 shell pairs
 There are      7822 function pairs
 Smallest overlap matrix eigenvalue = 1.73E-03

 Scale SEOQF with 1.000000e-01/1.000000e-01/1.000000e-01

 Standard Electronic Orientation quadrupole field applied
 Nucleus-field energy     =    -0.0000000025 hartrees
 Guess from superposition of atomic densities
 Warning:  Energy on first SCF cycle will be non-variational
 SAD guess density has 62.000000 electrons

 -----------------------------------------------------------------------
  General SCF calculation program by
  Eric Jon Sundstrom, Paul Horn, Yuezhi Mao, Dmitri Zuev, Alec White,
  David Stuck, Shaama M.S., Shane Yost, Joonho Lee, David Small,
  Daniel Levine, Susi Lehtola, Hugh Burton, Evgeny Epifanovsky,
  Bang C. Huynh
 -----------------------------------------------------------------------
 Exchange:     0.1500 Hartree-Fock + 1.0000 wB97M-V + LR-HF
 Correlation:  1.0000 wB97M-V
 Using SG-2 standard quadrature grid
 Nonlocal Correlation:  VV10 with C = 0.0100 and b = 6.00 and scale = 1.00000
 Grid used for NLC:  SG-1 standard quadrature
 
 Citation of the SMD model:
 Marenich, A.V.; Cramer, C.J.; Truhlar, D.G.
 J. Phys. Chem. B 2009, 113, 6378-6396.
 iSolventCode=           1
 Solvent: water                                                           
 
 vradii
            1           2           3           4           5           6
    1   1.8500000   1.5200000   1.8500000   1.5200000   1.5200000   1.5200000
            7           8           9          10
    1   1.5200000   1.5200000   1.2000000   1.2000000
 using 4 threads for integral computing
 -------------------------------------------------------
 OpenMP Integral computing Module                
 Release: version 1.0, May 2013, Q-Chem Inc. Pittsburgh 
 -------------------------------------------------------
 -------------------------------------------------------
 OpenMP BLAS3 based DFT computing Module                
 Release: version 1.0, May 2013, Q-Chem Inc. Pittsburgh 
 -------------------------------------------------------
 A unrestricted SCF calculation will be
 performed using DIIS, GDM
 SCF converges when RMS gradient is below 1.0e-07
 ---------------------------------------
  Cycle       Energy         DIIS error
 ---------------------------------------
    1    -529.8002586648      3.39e-02  
    2    -528.3865645977      6.66e-03  Done DIIS. Switching to GDM
 ---------------------------------------
  Cycle       Energy        RMS Gradient
 ---------------------------------------
    1    -528.3865645977      1.91e-01   Descent step
    2    -528.6121631548      6.97e-02   Normal BFGS step
    3    -528.6505604426      2.72e-02   Normal BFGS step
    4    -528.6518150917      1.75e-02   Normal BFGS step
    5    -528.6540026538      7.34e-03   Normal BFGS step
    6    -528.6542070914      4.30e-03   Normal BFGS step
    7    -528.6543032314      2.32e-03   Normal BFGS step
    8    -528.6543236406      2.43e-03   Normal BFGS step
    9    -528.6543338774      1.76e-03   Normal BFGS step
   10    -528.6543427879      9.03e-04   Normal BFGS step
   11    -528.6543483566      6.53e-04   Normal BFGS step
   12    -528.6543507324      4.38e-04   Normal BFGS step
   13    -528.6543516671      1.65e-04   Normal BFGS step
   14    -528.6543518199      4.51e-05   Normal BFGS step
   15    -528.6543518395      2.14e-05   Normal BFGS step
   16    -528.6543518448      7.83e-06   Normal BFGS step
   17    -528.6543518452      2.96e-06   Normal BFGS step
   18    -528.6543518454      9.24e-07   Normal BFGS step
   19    -528.6543518454      3.94e-07   Normal BFGS step
   20    -528.6543518454      1.65e-07   Normal BFGS step
   21    -528.6543518454      6.84e-08  Convergence criterion met
 ---------------------------------------
 SCF time:   CPU 190.22s  wall 79.00s 
<S^2> =          0.752816428
(3)  G-ENP(liq) elect-nuc-pol free energy of system     -528.654351845 a.u.
(4)  G-CDS(liq) cavity-dispersion-solvent structure 
     free energy                                                3.9645 kcal/mol
(6)  G-S(liq) free energy of system                     -528.648033960 a.u.
 SCF   energy in the final basis set =     -528.6480339598
 Total energy in the final basis set =     -528.6480339598
 
 --------------------------------------------------------------
 
                    Orbital Energies (a.u.)
 --------------------------------------------------------------
 
 Alpha MOs
 -- Occupied --
-19.4635 -19.4248 -19.3746 -19.3673 -19.3050 -19.2972 -10.5062 -10.4511
 -1.3332  -1.2222  -1.1615  -1.1497  -1.0749  -0.9772  -0.7933  -0.7023
 -0.6602  -0.6497  -0.5946  -0.5873  -0.5686  -0.5225  -0.5113  -0.5040
 -0.4909  -0.4587  -0.4173  -0.3945  -0.3810  -0.3581  -0.3505  -0.3418
 -- Virtual --
  0.1319   0.1912   0.2287   0.2481   0.3064   0.3527   0.3664   0.4036
  0.4434   0.5445   0.6410   0.6735   0.7168   0.7278   0.7341   0.7780
  0.7965   0.8546   0.8623   0.8985   0.9289   0.9469   0.9622   0.9694
  1.0151   1.0592   1.0685   1.0851   1.1180   1.1233   1.1401   1.1623
  1.1814   1.1998   1.2258   1.2835   1.2988   1.3641   1.3731   1.4003
  1.4820   1.5401   1.5762   1.5946   1.6727   1.7181   1.7322   1.7414
  1.7941   1.8512   1.8575   1.8928   1.9502   1.9607   1.9649   1.9806
  1.9979   2.0080   2.0638   2.1132   2.1204   2.1912   2.2233   2.2510
  2.2829   2.3505   2.4086   2.4397   2.4956   2.5586   2.5755   2.6340
  2.7419   2.7625   2.7809   2.8289   2.8569   2.9395   3.0068   3.0504
  3.0774   3.0891   3.1782   3.2738   3.5457   3.8476   3.9651   4.1541
  4.1980   4.3669   4.6563   4.8111
 
 Beta MOs
 -- Occupied --
-19.4537 -19.4065 -19.3747 -19.3672 -19.3049 -19.2972 -10.5066 -10.4510
 -1.3090  -1.2187  -1.1614  -1.1496  -1.0747  -0.9428  -0.7870  -0.6966
 -0.6568  -0.6391  -0.5811  -0.5604  -0.5322  -0.5194  -0.5092  -0.4982
 -0.4857  -0.4527  -0.4142  -0.3731  -0.3581  -0.3505  -0.3411
 -- Virtual --
 -0.0071   0.1332   0.1929   0.2295   0.2655   0.3133   0.3539   0.3692
  0.4057   0.4440   0.5449   0.6433   0.6739   0.7176   0.7319   0.7358
  0.7800   0.7971   0.8593   0.8667   0.9076   0.9393   0.9552   0.9630
  0.9751   1.0358   1.0606   1.0709   1.0903   1.1240   1.1270   1.1516
  1.1735   1.1853   1.2108   1.2267   1.2849   1.3022   1.3691   1.3798
  1.4028   1.4845   1.5454   1.5857   1.6056   1.6816   1.7237   1.7421
  1.7455   1.8010   1.8586   1.8595   1.9052   1.9507   1.9628   1.9771
  1.9822   2.0065   2.0165   2.0696   2.1184   2.1294   2.1926   2.2268
  2.2536   2.2852   2.3579   2.4206   2.4441   2.5020   2.5707   2.5830
  2.6463   2.7482   2.7658   2.7826   2.8320   2.8592   2.9419   3.0099
  3.0522   3.0853   3.0903   3.1805   3.2744   3.5786   3.8559   3.9653
  4.1610   4.1989   4.3680   4.6565   4.8120
 --------------------------------------------------------------
 
          Ground-State Mulliken Net Atomic Charges

     Atom                 Charge (a.u.)    Spin (a.u.)
  --------------------------------------------------------
      1 C                     0.526032       0.008133
      2 O                    -0.661040       0.004064
      3 C                     0.618027      -0.010979
      4 O                    -0.662915       0.003422
      5 O                    -0.654125      -0.001384
      6 O                    -0.658267      -0.000566
      7 O                    -0.210055       0.314375
      8 O                    -0.215016       0.683377
      9 H                     0.452725      -0.000464
     10 H                     0.464634       0.000023
  --------------------------------------------------------
  Sum of atomic charges =    -1.000000
  Sum of spin   charges =     1.000000

 -----------------------------------------------------------------
                    Cartesian Multipole Moments
 -----------------------------------------------------------------
    Charge (ESU x 10^10)
                -4.8032
    Dipole Moment (Debye)
         X      -3.1164      Y      -0.9761      Z      -5.7377
       Tot       6.6020
    Quadrupole Moments (Debye-Ang)
        XX     -49.0613     XY      -2.8955     YY     -51.6929
        XZ       4.1881     YZ      -1.8670     ZZ     -55.3192
    Octopole Moments (Debye-Ang^2)
       XXX      87.9510    XXY       5.2551    XYY      25.3070
       YYY     -26.1109    XXZ     -52.5471    XYZ       2.0192
       YYZ     -39.9560    XZZ      46.5684    YZZ      -7.7662
       ZZZ    -130.3192
    Hexadecapole Moments (Debye-Ang^3)
      XXXX    -491.8600   XXXY     -21.3958   XXYY    -124.8667
      XYYY      29.6736   YYYY    -235.9455   XXXZ     124.7481
      XXYZ     -16.2932   XYYZ      32.8028   YYYZ     -14.5516
      XXZZ    -180.9822   XYZZ       7.0516   YYZZ    -113.4721
      XZZZ     139.4729   YZZZ     -14.8271   ZZZZ    -494.4498
 -----------------------------------------------------------------
 Total job time:  82.14s(wall), 192.98s(cpu) 
 Wed Dec  6 11:00:32 2023

        *************************************************************
        *                                                           *
        *  Thank you very much for using Q-Chem.  Have a nice day.  *
        *                                                           *
        *************************************************************


