
Running Job 1 of 1 Q_in.in
qchem Q_in.in_164102.0 /scratch/ari.fischer/qChem1554540.hpc-mn1/qchem164102/ 0
/usr/local/qchem-5.4.1/exe/qcprog.exe_s Q_in.in_164102.0 /scratch/ari.fischer/qChem1554540.hpc-mn1/qchem164102/
                  Welcome to Q-Chem
     A Quantum Leap Into The Future Of Chemistry


 Q-Chem 5.4, Q-Chem, Inc., Pleasanton, CA (2021)

 License issued to: Nanyang Technological University (site)

 E. Epifanovsky,  A. T. B. Gilbert,  Xintian Feng,  Joonho Lee,  Yuezhi Mao,  
 N. Mardirossian,  P. Pokhilko,  A. White,  M. Wormit,  M. P. Coons,  
 A. L. Dempwolff,  Zhengting Gan,  D. Hait,  P. R. Horn,  L. D. Jacobson,  
 I. Kaliman,  J. Kussmann,  A. W. Lange,  Ka Un Lao,  D. S. Levine,  Jie Liu,  
 S. C. McKenzie,  A. F. Morrison,  K. Nanda,  F. Plasser,  D. R. Rehn,  
 M. L. Vidal,  Zhi-Qiang You,  Ying Zhu,  B. Alam,  B. Albrecht,  
 A. Aldossary,  E. Alguire,  J. H. Andersen,  D. Barton,  K. Begam,  A. Behn,  
 Y. A. Bernard,  E. J. Berquist,  H. Burton,  A. Carreras,  K. Carter-Fenk,  
 R. Chakraborty,  A. D. Chien,  K. D. Closser,  V. Cofer-Shabica,  
 S. Dasgupta,  Jia Deng,  M. de Wergifosse,  M. Diedenhofen,  Hainam Do,  
 S. Ehlert,  Po-Tung Fang,  S. Fatehi,  Qingguo Feng,  T. Friedhoff,  
 J. Gayvert,  Qinghui Ge,  G. Gidofalvi,  M. Goldey,  J. Gomes,  
 C. Gonzalez-Espinoza,  S. Gulania,  A. Gunina,  M. W. D. Hanson-Heine,  
 P. H. P. Harbach,  A. W. Hauser,  M. F. Herbst,  M. Hernandez Vera,  
 M. Hodecker,  Z. C. Holden,  S. Houck,  Xunkun Huang,  Kerwin Hui,  
 B. C. Huynh,  M. Ivanov,  Hyunjun Ji,  Hanjie Jiang,  B. Kaduk,  S. Kaehler,  
 K. Khistyaev,  Jaehoon Kim,  P. Klunzinger,  Z. Koczor-Benda,  
 Joong Hoon Koh,  D. Kosenkov,  L. Koulias,  T. Kowalczyk,  C. M. Krauter,  
 K. Kue,  A. Kunitsa,  T. Kus,  A. Landau,  K. V. Lawler,  D. Lefrancois,  
 S. Lehtola,  Rain Li,  Yi-Pei Li,  Jiashu Liang,  M. Liebenthal,  
 Hung-Hsuan Lin,  You-Sheng Lin,  Fenglai Liu,  Kuan-Yu Liu,  
 M. Loipersberger,  A. Luenser,  A. Manjanath,  P. Manohar,  E. Mansoor,  
 S. F. Manzer,  Shan-Ping Mao,  A. V. Marenich,  T. Markovich,  S. Mason,  
 S. A. Maurer,  P. F. McLaughlin,  M. F. S. J. Menger,  J.-M. Mewes,  
 S. A. Mewes,  P. Morgante,  J. W. Mullinax,  K. J. Oosterbaan,  G. Paran,  
 Alexander C. Paul,  Suranjan K. Paul,  F. Pavosevic,  Zheng Pei,  S. Prager,  
 E. I. Proynov,  E. Ramos,  B. Rana,  A. E. Rask,  A. Rettig,  R. M. Richard,  
 F. Rob,  E. Rossomme,  T. Scheele,  M. Scheurer,  M. Schneider,  
 N. Sergueev,  S. M. Sharada,  W. Skomorowski,  D. W. Small,  C. J. Stein,  
 Yu-Chuan Su,  E. J. Sundstrom,  Zhen Tao,  J. Thirman,  T. Tsuchimochi,  
 N. M. Tubman,  S. P. Veccham,  O. Vydrov,  J. Wenzel,  J. Witte,  A. Yamada,  
 Kun Yao,  S. Yeganeh,  S. R. Yost,  A. Zech,  Igor Ying Zhang,  Xing Zhang,  
 Yu Zhang,  D. Zuev,  A. Aspuru-Guzik,  A. T. Bell,  N. A. Besley,  
 K. B. Bravaya,  B. R. Brooks,  D. Casanova,  Jeng-Da Chai,  S. Coriani,  
 C. J. Cramer,  A. E. DePrince, III,  R. A. DiStasio Jr.,  A. Dreuw,  
 B. D. Dunietz,  T. R. Furlani,  W. A. Goddard III,  S. Grimme,  
 S. Hammes-Schiffer,  T. Head-Gordon,  W. J. Hehre,  Chao-Ping Hsu,  
 T.-C. Jagau,  Yousung Jung,  A. Klamt,  Jing Kong,  D. S. Lambrecht,  
 WanZhen Liang,  N. J. Mayhall,  C. W. McCurdy,  J. B. Neaton,  
 C. Ochsenfeld,  J. A. Parkhill,  R. Peverati,  V. A. Rassolov,  Yihan Shao,  
 L. V. Slipchenko,  T. Stauch,  R. P. Steele,  J. E. Subotnik,  
 A. J. W. Thom,  A. Tkatchenko,  D. G. Truhlar,  T. Van Voorhis,  
 T. A. Wesolowski,  K. B. Whaley,  H. L. Woodcock III,  P. M. Zimmerman,  
 S. Faraji,  P. M. W. Gill,  M. Head-Gordon,  J. M. Herbert,  A. I. Krylov

 Additional authors for Version 5.4.1: 
 S. Kotaru,  Shaozhi Li,  Xiangyuan Li,  F. Matz,  A. Molle,  Haisheng Ren,  
 Yingli Su,  Hung-Yi Tsai,  C. Utku,  Fang Wang

 Contributors to earlier versions of Q-Chem not listed above: 
 R. D. Adamson,  B. Austin,  R. Baer,  J. Baker,  G. J. O. Beran,  
 K. Brandhorst,  S. T. Brown,  E. F. C. Byrd,  A. K. Chakraborty,  
 G. K. L. Chan,  Chun-Min Chang,  Yunqing Chen,  C.-L. Cheng,  
 Siu Hung Chien,  D. M. Chipman,  D. L. Crittenden,  H. Dachsel,  
 R. J. Doerksen,  A. D. Dutoi,  R. G. Edgar,  J. Fosso-Tande,  
 L. Fusti-Molnar,  D. Ghosh,  A. Ghysels,  A. Golubeva-Zadorozhnaya,  
 J. Gonthier,  M. S. Gordon,  S. R. Gwaltney,  G. Hawkins,  J. E. Herr,  
 A. Heyden,  S. Hirata,  E. G. Hohenstein,  G. Kedziora,  F. J. Keil,  
 C. Kelley,  Jihan Kim,  R. A. King,  R. Z. Khaliullin,  P. P. Korambath,  
 W. Kurlancheek,  A. Laurent,  A. M. Lee,  M. S. Lee,  S. V. Levchenko,  
 Ching Yeh Lin,  D. Liotard,  E. Livshits,  R. C. Lochan,  I. Lotan,  
 L. A. Martinez-Martinez,  P. E. Maslen,  N. Nair,  D. P. O'Neill,  
 D. Neuhauser,  E. Neuscamman,  C. M. Oana,  R. Olivares-Amaya,  R. Olson,  
 T. M. Perrine,  B. Peters,  P. A. Pieniazek,  A. Prociuk,  Y. M. Rhee,  
 J. Ritchie,  M. A. Rohrdanz,  E. Rosta,  N. J. Russ,  H. F. Schaefer III,  
 M. W. Schmidt,  N. E. Schultz,  S. Sharma,  N. Shenvi,  C. D. Sherrill,  
 A. C. Simmonett,  A. Sodt,  T. Stein,  D. Stuck,  K. S. Thanthiriwatte,  
 V. Vanovschi,  L. Vogt,  Tao Wang,  A. Warshel,  M. A. Watson,  
 C. F. Williams,  Q. Wu,  X. Xu,  Jun Yang,  W. Zhang,  Yan Zhao

 Please cite Q-Chem as follows:
 Y. Shao et al., Mol. Phys. 113, 184-215 (2015)
 DOI: 10.1080/00268976.2014.952696

 Q-Chem 5.4.1 for Intel X86 EM64T Linux

 Parts of Q-Chem use Armadillo 9.800.1 (Horizon Scraper).
 http://arma.sourceforge.net/

 Q-Chem begins on Thu May 25 14:28:50 2023  

 Host: 
0

     Scratch files written to /scratch/ari.fischer/qChem1554540.hpc-mn1/qchem164102//
 Aug1521 |scratch|qcdevops|jenkins|workspace|build_RNUM 8249   
 Processing $rem in /usr/local/qchem-5.4.1/config/preferences:
 Processing $rem in /home/ari.fischer/.qchemrc:
 Symmetry turned off for PCM/SM12/SMD calculation


!!********************************************.
!!******************Warning*******************.
!!Desired Analytical derivatives not available.
!!Finite difference job might take a long time.
!!********************************************.
!!********************************************.


 2-order derivative to be evaluated numerically with 1-order analytical derivatives

 Checking the input file for inconsistencies... 	...done.

--------------------------------------------------------------
User input:
--------------------------------------------------------------
$molecule
0 1
H         0.9621686072    2.1095025196   -1.8346621507
C         1.4071512487    1.4958206058   -1.0486152001
O         1.4206384636    1.7908817174    0.1222901401
O         1.9321222613    0.3813255764   -1.5529563606
H         2.3205960192   -0.1453382193   -0.8349901288
$end

$rem
BASIS = 6-311++G(2df,2p)
GUI = 2
JOB_TYPE = Frequency
METHOD = wB97M-V
SOLVENT_METHOD = SMD
SCF_ALGORITHM = DIIS_GDM
MAX_SCF_CYCLES = 400
SCF_CONVERGENCE = 7
THRESH = 12
SYMMETRY_IGNORE = 1
$end
--------------------------------------------------------------
 ----------------------------------------------------------------
             Standard Nuclear Orientation (Angstroms)
    I     Atom           X                Y                Z
 ----------------------------------------------------------------
    1      H       0.9621686072     2.1095025196    -1.8346621507
    2      C       1.4071512487     1.4958206058    -1.0486152001
    3      O       1.4206384636     1.7908817174     0.1222901401
    4      O       1.9321222613     0.3813255764    -1.5529563606
    5      H       2.3205960192    -0.1453382193    -0.8349901288
 ----------------------------------------------------------------
 Nuclear Repulsion Energy =          70.31590264 hartrees
 There are       12 alpha and       12 beta electrons
 Requested basis set is 6-311++G(2df,2p)
 There are 36 shells and 122 basis functions

 Total QAlloc Memory Limit 288000 MB
 Mega-Array Size       188 MB
 MEM_STATIC part       192 MB
 
 Citation of the SMD model:
 Marenich, A.V.; Cramer, C.J.; Truhlar, D.G.
 J. Phys. Chem. B 2009, 113, 6378-6396.
 iSolventCode=           1
 Solvent: water                                                           
 
 vradii
            1           2           3           4           5
    1   1.2000000   1.8500000   1.5200000   1.5200000   1.2000000
 Changing PCM_VDW_RADII to SMD_RADIUS
 Discretize the solute cavity surface with Lebedev spheres
	Using 110 Lebedev grid points for each H atom
	Using 194 Lebedev grid points for other atoms
	Atomic van der Waals radii will be scaled by 1.20
 Remove points where switching function is < 1.0e-08
 Keep 488 surface tesserae and discard 314 interior tesserae
 Molecular Surface Area = 62.562 Angst**2

                       Distance Matrix (Angstroms)
             H (  1)   C (  2)   O (  3)   O (  4)
   C (  2)  1.092010
   O (  3)  2.035037  1.207585
   O (  4)  2.001690  1.331185  2.248314
   H (  5)  2.815844  1.890349  2.339927  0.971474
 
 A cutoff of  1.0D-12 yielded    663 shell pairs
 There are      7701 function pairs (      9753 Cartesian)
 Smallest overlap matrix eigenvalue = 7.86E-04
 Guess from superposition of atomic densities
 Warning:  Energy on first SCF cycle will be non-variational
 SAD guess density has 24.000000 electrons

 -----------------------------------------------------------------------
  General SCF calculation program by
  Eric Jon Sundstrom, Paul Horn, Yuezhi Mao, Dmitri Zuev, Alec White,
  David Stuck, Shaama M.S., Shane Yost, Joonho Lee, David Small,
  Daniel Levine, Susi Lehtola, Hugh Burton, Evgeny Epifanovsky,
  Bang C. Huynh
 -----------------------------------------------------------------------
 Exchange:     0.1500 Hartree-Fock + 1.0000 wB97M-V + LR-HF
 Correlation:  1.0000 wB97M-V
 Using SG-2 standard quadrature grid
 Nonlocal Correlation:  VV10 with C = 0.0100 and b = 6.00 and scale = 1.00000
 Grid used for NLC:  SG-1 standard quadrature
 using 8 threads for integral computing
 -------------------------------------------------------
 OpenMP Integral computing Module                
 Release: version 1.0, May 2013, Q-Chem Inc. Pittsburgh 
 -------------------------------------------------------
 
 Citation of the SMD model:
 Marenich, A.V.; Cramer, C.J.; Truhlar, D.G.
 J. Phys. Chem. B 2009, 113, 6378-6396.
 iSolventCode=           1
 Solvent: water                                                           
 
 vradii
            1           2           3           4           5
    1   1.2000000   1.8500000   1.5200000   1.5200000   1.2000000
 -------------------------------------------------------
 OpenMP BLAS3 based DFT computing Module                
 Release: version 1.0, May 2013, Q-Chem Inc. Pittsburgh 
 -------------------------------------------------------
 A restricted SCF calculation will be
 performed using DIIS, GDM
 SCF converges when RMS gradient is below 1.0e-07
 ---------------------------------------
  Cycle       Energy         DIIS error
 ---------------------------------------
    1    -190.2054127573      4.70e-02  
    2    -189.6987102487      7.92e-03  Done DIIS. Switching to GDM
 ---------------------------------------
  Cycle       Energy        RMS Gradient
 ---------------------------------------
    1    -189.6987102487      1.46e-01   Descent step
    2    -189.7455038460      1.13e-01   Normal BFGS step
    3    -189.7882035818      1.84e-02   Normal BFGS step
    4    -189.7884404214      1.06e-02   Normal BFGS step
    5    -189.7893749879      7.91e-04   Normal BFGS step
    6    -189.7893825568      3.57e-04   Normal BFGS step
    7    -189.7893835235      9.16e-05   Normal BFGS step
    8    -189.7893835638      2.18e-05   Normal BFGS step
    9    -189.7893835689      5.26e-06   Normal BFGS step
   10    -189.7893835693      1.24e-06   Normal BFGS step
   11    -189.7893835693      2.53e-07   Normal BFGS step
   12    -189.7893835693      4.48e-08  Convergence criterion met
 ---------------------------------------
 SCF time:   CPU 68.40s  wall 9.00s 
(3)  G-ENP(liq) elect-nuc-pol free energy of system     -189.789383569 a.u.
(4)  G-CDS(liq) cavity-dispersion-solvent structure 
     free energy                                                4.3031 kcal/mol
(6)  G-S(liq) free energy of system                     -189.782526100 a.u.
 SCF   energy in the final basis set =     -189.7825260996
 Total energy in the final basis set =     -189.7825260996
 
 --------------------------------------------------------------
 
                    Orbital Energies (a.u.)
 --------------------------------------------------------------
 
 Alpha MOs
 -- Occupied --
-19.3884 -19.3404 -10.4861  -1.2498  -1.1629  -0.7816  -0.6348  -0.6184
 -0.5691  -0.5174  -0.4437  -0.4083
 -- Virtual --
  0.0367   0.0486   0.0709   0.0772   0.1001   0.1152   0.1463   0.2110
  0.2222   0.2270   0.2400   0.2799   0.2841   0.2967   0.3209   0.3370
  0.3575   0.4148   0.4892   0.5783   0.5952   0.6022   0.6580   0.7108
  0.7217   0.7928   0.8275   0.8556   0.9258   1.0322   1.0683   1.1027
  1.1028   1.1284   1.1416   1.1522   1.1840   1.2015   1.3755   1.4477
  1.4906   1.5359   1.6007   1.6453   1.7046   1.8138   1.8311   2.0221
  2.1162   2.1246   2.2771   2.3737   2.4112   2.5243   2.7184   2.7937
  2.8333   2.9569   3.0906   3.1021   3.2240   3.2694   3.2722   3.4055
  3.4201   3.5361   3.5840   3.6126   3.7670   3.7911   3.8317   4.0160
  4.1690   4.1756   4.3257   4.4453   5.0359   5.1146   5.1279   5.1824
  5.1858   5.1867   5.2257   5.2869   5.3968   5.5085   5.5089   5.6102
  5.6274   5.9153   5.9853   6.0595   6.4023   6.6914   6.8987   6.9419
  7.0301   7.0335   7.1498   7.2382   7.2422   7.3167   7.3712   7.5693
  7.6722   7.7395   7.7810  25.0858  50.5340  50.7052
 --------------------------------------------------------------
 
          Ground-State Mulliken Net Atomic Charges

     Atom                 Charge (a.u.)
  ----------------------------------------
      1 H                     0.204742
      2 C                     0.236812
      3 O                    -0.479014
      4 O                    -0.315966
      5 H                     0.353426
  ----------------------------------------
  Sum of atomic charges =     0.000000

 -----------------------------------------------------------------
                    Cartesian Multipole Moments
 -----------------------------------------------------------------
    Charge (ESU x 10^10)
                -0.0000
    Dipole Moment (Debye)
         X       0.4360      Y      -1.3246      Z      -1.8819
       Tot       2.3423
    Quadrupole Moments (Debye-Ang)
        XX     -14.8401     XY      -3.1449     YY     -18.7752
        XZ      -1.6361     YZ      -5.3986     ZZ     -17.9039
    Octopole Moments (Debye-Ang^2)
       XXX     -73.4762    XXY     -27.6895    XYY     -30.1990
       YYY     -67.5127    XXZ      13.0625    XYZ      -5.3001
       YYZ       2.4571    XZZ     -31.8287    YZZ     -14.8473
       ZZZ      46.6710
    Hexadecapole Moments (Debye-Ang^3)
      XXXX    -258.9139   XXXY    -104.3446   XXYY     -87.4757
      XYYY     -98.1853   YYYY    -225.8681   XXXZ      72.6248
      XXYZ       7.4455   XYYZ      10.6772   YYYZ      12.3427
      XXZZ     -83.7049   XYZZ     -25.8007   YYZZ     -44.3182
      XZZZ      86.5332   YZZZ      25.1900   ZZZZ    -152.8903
 -----------------------------------------------------------------
 Calculating analytic gradient of the SCF energy
 Gradient of CDS energy
            1           2           3           4           5
    1   0.0000535   0.0011812   0.0000754  -0.0015255   0.0002154
    2  -0.0001097  -0.0022902  -0.0004735   0.0032569  -0.0003836
    3  -0.0000369  -0.0003398  -0.0012185   0.0015326   0.0000625
 Gradient of SCF Energy
            1           2           3           4           5
    1  -0.0037047   0.0038290  -0.0015624  -0.0052478   0.0066859
    2   0.0048886  -0.0057676   0.0046917   0.0062040  -0.0100167
    3  -0.0075475   0.0055296   0.0064519  -0.0133520   0.0089180
 Max gradient component =       1.335E-02
 RMS gradient           =       6.870E-03
 Computing fast CPCM-SWIG gradient
 Updating gradient with PCM contributions...
 -- total gradient after adding PCM contribution --
---------------------------------------------------
  Atom         X              Y              Z     
---------------------------------------------------
   1       0.000029      -0.000018      -0.000010
   2      -0.000132      -0.000001       0.000129
   3      -0.000004       0.000003      -0.000092
   4       0.000091      -0.000036      -0.000010
   5       0.000017       0.000052      -0.000018
---------------------------------------------------
 Number of fixed atoms: 0
 Gradient time:  CPU 13.08 s  wall 1.87 s
 ######################################################
 ######################################################
 # Starting finite difference calculation for IDERIV  #
 Finite diff step size:  1.88973e-03 a.u.
 ----------------------------------------------------------------
             Standard Nuclear Orientation (Angstroms)
    I     Atom           X                Y                Z
 ----------------------------------------------------------------
    1      H       0.9631686072     2.1095025196    -1.8346621507
    2      C       1.4071512487     1.4958206058    -1.0486152001
    3      O       1.4206384636     1.7908817174     0.1222901401
    4      O       1.9321222613     0.3813255764    -1.5529563606
    5      H       2.3205960192    -0.1453382193    -0.8349901288
 ----------------------------------------------------------------
 Nuclear Repulsion Energy =          70.31776117 hartrees
 There are       12 alpha and       12 beta electrons
 Discretize the solute cavity surface with Lebedev spheres
	Using 110 Lebedev grid points for each H atom
	Using 194 Lebedev grid points for other atoms
	Atomic van der Waals radii will be scaled by 1.20
 Remove points where switching function is < 1.0e-08
 Keep 488 surface tesserae and discard 314 interior tesserae
 Molecular Surface Area = 62.560 Angst**2

                       Distance Matrix (Angstroms)
             H (  1)   C (  2)   O (  3)   O (  4)
   C (  2)  1.091602
   O (  3)  2.034812  1.207585
   O (  4)  2.001206  1.331185  2.248314
   H (  5)  2.815361  1.890349  2.339927  0.971474
 
 Requested basis set is 6-311++G(2df,2p)
 There are 36 shells and 122 basis functions
 A cutoff of  1.0D-12 yielded    663 shell pairs
 There are      7701 function pairs (      9753 Cartesian)
 Smallest overlap matrix eigenvalue = 7.86E-04
 Guess MOs from SCF MO coefficient file

 -----------------------------------------------------------------------
  General SCF calculation program by
  Eric Jon Sundstrom, Paul Horn, Yuezhi Mao, Dmitri Zuev, Alec White,
  David Stuck, Shaama M.S., Shane Yost, Joonho Lee, David Small,
  Daniel Levine, Susi Lehtola, Hugh Burton, Evgeny Epifanovsky,
  Bang C. Huynh
 -----------------------------------------------------------------------
 Exchange:     0.1500 Hartree-Fock + 1.0000 wB97M-V + LR-HF
 Correlation:  1.0000 wB97M-V
 Using SG-2 standard quadrature grid
 Nonlocal Correlation:  VV10 with C = 0.0100 and b = 6.00 and scale = 1.00000
 Grid used for NLC:  SG-1 standard quadrature
 
 Citation of the SMD model:
 Marenich, A.V.; Cramer, C.J.; Truhlar, D.G.
 J. Phys. Chem. B 2009, 113, 6378-6396.
 iSolventCode=           1
 Solvent: water                                                           
 
 vradii
            1           2           3           4           5
    1   1.2000000   1.8500000   1.5200000   1.5200000   1.2000000
 -------------------------------------------------------
 OpenMP BLAS3 based DFT computing Module                
 Release: version 1.0, May 2013, Q-Chem Inc. Pittsburgh 
 -------------------------------------------------------
 A restricted SCF calculation will be
 performed using Roothaan-Hall, DIIS, GDM
 SCF converges when RMS gradient is below 1.0e-07
 ---------------------------------------
  Cycle       Energy         DIIS error
 ---------------------------------------
    1    -189.7698955970      8.97e-04  Roothaan Step
 ---------------------------------------
  Cycle       Energy         DIIS error
 ---------------------------------------
    1    -189.7858220823      1.21e-03  
    2    -189.7867140656      1.49e-03  Done DIIS. Switching to GDM
 ---------------------------------------
  Cycle       Energy        RMS Gradient
 ---------------------------------------
    1    -189.7867140656      2.17e-02   Normal BFGS step
    2    -189.7851752299      3.48e-02  Line search: overstep
    3    -189.7892679767      2.01e-03   Normal BFGS step
    4    -189.7893678630      1.17e-03   Normal BFGS step
    5    -189.7893780696      1.15e-03   Normal BFGS step
    6    -189.7893833459      9.71e-05   Normal BFGS step
    7    -189.7893834519      3.99e-05   Normal BFGS step
    8    -189.7893834666      9.63e-06   Normal BFGS step
    9    -189.7893834677      2.43e-06   Normal BFGS step
   10    -189.7893834678      6.42e-07   Normal BFGS step
   11    -189.7893834678      1.43e-07   Normal BFGS step
   12    -189.7893834678      2.94e-08  Convergence criterion met
 ---------------------------------------
 SCF time:   CPU 74.92s  wall 10.00s 
(3)  G-ENP(liq) elect-nuc-pol free energy of system     -189.789383468 a.u.
(4)  G-CDS(liq) cavity-dispersion-solvent structure 
     free energy                                                4.3032 kcal/mol
(6)  G-S(liq) free energy of system                     -189.782525896 a.u.
 SCF   energy in the final basis set =     -189.7825258964
 Total energy in the final basis set =     -189.7825258964
 
 --------------------------------------------------------------
 
                    Orbital Energies (a.u.)
 --------------------------------------------------------------
 
 Alpha MOs
 -- Occupied --
-19.3884 -19.3404 -10.4861  -1.2498  -1.1629  -0.7817  -0.6349  -0.6184
 -0.5691  -0.5175  -0.4437  -0.4083
 -- Virtual --
  0.0367   0.0486   0.0709   0.0772   0.1001   0.1152   0.1463   0.2110
  0.2222   0.2270   0.2400   0.2799   0.2842   0.2967   0.3209   0.3370
  0.3575   0.4148   0.4892   0.5784   0.5952   0.6023   0.6580   0.7108
  0.7217   0.7928   0.8275   0.8556   0.9258   1.0322   1.0683   1.1028
  1.1028   1.1284   1.1417   1.1523   1.1840   1.2015   1.3756   1.4477
  1.4907   1.5361   1.6007   1.6453   1.7047   1.8138   1.8311   2.0221
  2.1163   2.1247   2.2771   2.3737   2.4110   2.5243   2.7183   2.7937
  2.8334   2.9570   3.0907   3.1022   3.2240   3.2693   3.2722   3.4055
  3.4201   3.5360   3.5840   3.6126   3.7671   3.7916   3.8320   4.0162
  4.1697   4.1758   4.3258   4.4457   5.0364   5.1146   5.1280   5.1825
  5.1859   5.1867   5.2257   5.2869   5.3969   5.5086   5.5090   5.6102
  5.6277   5.9158   5.9855   6.0595   6.4023   6.6916   6.8987   6.9420
  7.0301   7.0337   7.1500   7.2382   7.2422   7.3167   7.3713   7.5693
  7.6722   7.7395   7.7811  25.0862  50.5340  50.7052
 --------------------------------------------------------------
 
          Ground-State Mulliken Net Atomic Charges

     Atom                 Charge (a.u.)
  ----------------------------------------
      1 H                     0.204784
      2 C                     0.236808
      3 O                    -0.479028
      4 O                    -0.315977
      5 H                     0.353413
  ----------------------------------------
  Sum of atomic charges =     0.000000

 -----------------------------------------------------------------
                    Cartesian Multipole Moments
 -----------------------------------------------------------------
    Charge (ESU x 10^10)
                 0.0000
    Dipole Moment (Debye)
         X       0.4366      Y      -1.3244      Z      -1.8821
       Tot       2.3424
    Quadrupole Moments (Debye-Ang)
        XX     -14.8387     XY      -3.1430     YY     -18.7746
        XZ      -1.6374     YZ      -5.3992     ZZ     -17.9030
    Octopole Moments (Debye-Ang^2)
       XXX     -73.4754    XXY     -27.6854    XYY     -30.1951
       YYY     -67.5100    XXZ      13.0602    XYZ      -5.3039
       YYZ       2.4555    XZZ     -31.8256    YZZ     -14.8451
       ZZZ      46.6675
    Hexadecapole Moments (Debye-Ang^3)
      XXXX    -258.9141   XXXY    -104.3411   XXYY     -87.4676
      XYYY     -98.1770   YYYY    -225.8581   XXXZ      72.6256
      XXYZ       7.4386   XYYZ      10.6689   YYYZ      12.3361
      XXZZ     -83.6994   XYZZ     -25.7926   YYZZ     -44.3125
      XZZZ      86.5275   YZZZ      25.1822   ZZZZ    -152.8787
 -----------------------------------------------------------------
 Calculating analytic gradient of the SCF energy
 Gradient of CDS energy
            1           2           3           4           5
    1   0.0000541   0.0011807   0.0000754  -0.0015256   0.0002154
    2  -0.0001107  -0.0022894  -0.0004735   0.0032572  -0.0003836
    3  -0.0000365  -0.0003397  -0.0012185   0.0015321   0.0000625
 Gradient of SCF Energy
            1           2           3           4           5
    1  -0.0035367   0.0036150  -0.0015268  -0.0052454   0.0066939
    2   0.0047349  -0.0056623   0.0046996   0.0062360  -0.0100082
    3  -0.0073914   0.0053969   0.0064475  -0.0133718   0.0089187
 Max gradient component =       1.337E-02
 RMS gradient           =       6.829E-03
 Computing fast CPCM-SWIG gradient
 Updating gradient with PCM contributions...
 -- total gradient after adding PCM contribution --
---------------------------------------------------
  Atom         X              Y              Z     
---------------------------------------------------
   1       0.000186      -0.000174       0.000150
   2      -0.000336       0.000107      -0.000007
   3       0.000032       0.000011      -0.000098
   4       0.000093      -0.000003      -0.000030
   5       0.000024       0.000059      -0.000016
---------------------------------------------------
 Number of fixed atoms: 0
 Gradient time:  CPU 12.75 s  wall 1.74 s
 ----------------------------------------------------------------
             Standard Nuclear Orientation (Angstroms)
    I     Atom           X                Y                Z
 ----------------------------------------------------------------
    1      H       0.9611686072     2.1095025196    -1.8346621507
    2      C       1.4071512487     1.4958206058    -1.0486152001
    3      O       1.4206384636     1.7908817174     0.1222901401
    4      O       1.9321222613     0.3813255764    -1.5529563606
    5      H       2.3205960192    -0.1453382193    -0.8349901288
 ----------------------------------------------------------------
 Nuclear Repulsion Energy =          70.31404230 hartrees
 There are       12 alpha and       12 beta electrons
 Discretize the solute cavity surface with Lebedev spheres
	Using 110 Lebedev grid points for each H atom
	Using 194 Lebedev grid points for other atoms
	Atomic van der Waals radii will be scaled by 1.20
 Remove points where switching function is < 1.0e-08
 Keep 488 surface tesserae and discard 314 interior tesserae
 Molecular Surface Area = 62.565 Angst**2

                       Distance Matrix (Angstroms)
             H (  1)   C (  2)   O (  3)   O (  4)
   C (  2)  1.092417
   O (  3)  2.035263  1.207585
   O (  4)  2.002175  1.331185  2.248314
   H (  5)  2.816326  1.890349  2.339927  0.971474
 
 Requested basis set is 6-311++G(2df,2p)
 There are 36 shells and 122 basis functions
 A cutoff of  1.0D-12 yielded    663 shell pairs
 There are      7701 function pairs (      9753 Cartesian)
 Smallest overlap matrix eigenvalue = 7.86E-04
 Guess MOs from SCF MO coefficient file

 -----------------------------------------------------------------------
  General SCF calculation program by
  Eric Jon Sundstrom, Paul Horn, Yuezhi Mao, Dmitri Zuev, Alec White,
  David Stuck, Shaama M.S., Shane Yost, Joonho Lee, David Small,
  Daniel Levine, Susi Lehtola, Hugh Burton, Evgeny Epifanovsky,
  Bang C. Huynh
 -----------------------------------------------------------------------
 Exchange:     0.1500 Hartree-Fock + 1.0000 wB97M-V + LR-HF
 Correlation:  1.0000 wB97M-V
 Using SG-2 standard quadrature grid
 Nonlocal Correlation:  VV10 with C = 0.0100 and b = 6.00 and scale = 1.00000
 Grid used for NLC:  SG-1 standard quadrature
 
 Citation of the SMD model:
 Marenich, A.V.; Cramer, C.J.; Truhlar, D.G.
 J. Phys. Chem. B 2009, 113, 6378-6396.
 iSolventCode=           1
 Solvent: water                                                           
 
 vradii
            1           2           3           4           5
    1   1.2000000   1.8500000   1.5200000   1.5200000   1.2000000
 -------------------------------------------------------
 OpenMP BLAS3 based DFT computing Module                
 Release: version 1.0, May 2013, Q-Chem Inc. Pittsburgh 
 -------------------------------------------------------
 A restricted SCF calculation will be
 performed using Roothaan-Hall, DIIS, GDM
 SCF converges when RMS gradient is below 1.0e-07
 ---------------------------------------
  Cycle       Energy         DIIS error
 ---------------------------------------
    1    -189.7698911025      8.96e-04  Roothaan Step
 ---------------------------------------
  Cycle       Energy         DIIS error
 ---------------------------------------
    1    -189.7858282432      1.20e-03  
    2    -189.7867209454      1.49e-03  Done DIIS. Switching to GDM
 ---------------------------------------
  Cycle       Energy        RMS Gradient
 ---------------------------------------
    1    -189.7867209454      2.17e-02   Normal BFGS step
    2    -189.7851851883      3.48e-02  Line search: overstep
    3    -189.7892681289      2.00e-03   Normal BFGS step
    4    -189.7893678347      1.16e-03   Normal BFGS step
    5    -189.7893779989      1.14e-03   Normal BFGS step
    6    -189.7893832524      9.62e-05   Normal BFGS step
    7    -189.7893833582      3.99e-05   Normal BFGS step
    8    -189.7893833728      9.56e-06   Normal BFGS step
    9    -189.7893833738      2.44e-06   Normal BFGS step
   10    -189.7893833739      6.36e-07   Normal BFGS step
   11    -189.7893833739      1.43e-07   Normal BFGS step
   12    -189.7893833739      2.95e-08  Convergence criterion met
 ---------------------------------------
 SCF time:   CPU 74.18s  wall 10.00s 
(3)  G-ENP(liq) elect-nuc-pol free energy of system     -189.789383374 a.u.
(4)  G-CDS(liq) cavity-dispersion-solvent structure 
     free energy                                                4.3031 kcal/mol
(6)  G-S(liq) free energy of system                     -189.782526005 a.u.
 SCF   energy in the final basis set =     -189.7825260048
 Total energy in the final basis set =     -189.7825260048
 
 --------------------------------------------------------------
 
                    Orbital Energies (a.u.)
 --------------------------------------------------------------
 
 Alpha MOs
 -- Occupied --
-19.3884 -19.3404 -10.4862  -1.2498  -1.1629  -0.7816  -0.6348  -0.6185
 -0.5691  -0.5174  -0.4437  -0.4083
 -- Virtual --
  0.0367   0.0486   0.0709   0.0772   0.1001   0.1152   0.1463   0.2110
  0.2221   0.2270   0.2400   0.2799   0.2841   0.2967   0.3209   0.3370
  0.3575   0.4147   0.4892   0.5782   0.5952   0.6022   0.6580   0.7108
  0.7217   0.7927   0.8275   0.8556   0.9258   1.0322   1.0683   1.1027
  1.1027   1.1284   1.1415   1.1522   1.1840   1.2014   1.3755   1.4477
  1.4905   1.5358   1.6006   1.6453   1.7046   1.8138   1.8311   2.0221
  2.1161   2.1245   2.2771   2.3737   2.4115   2.5243   2.7184   2.7937
  2.8332   2.9569   3.0905   3.1021   3.2240   3.2694   3.2721   3.4055
  3.4201   3.5362   3.5840   3.6126   3.7670   3.7906   3.8314   4.0159
  4.1684   4.1754   4.3255   4.4448   5.0354   5.1146   5.1279   5.1824
  5.1857   5.1867   5.2257   5.2869   5.3966   5.5084   5.5088   5.6102
  5.6272   5.9149   5.9851   6.0594   6.4023   6.6913   6.8987   6.9418
  7.0301   7.0333   7.1495   7.2382   7.2421   7.3167   7.3712   7.5693
  7.6722   7.7395   7.7810  25.0854  50.5339  50.7051
 --------------------------------------------------------------
 
          Ground-State Mulliken Net Atomic Charges

     Atom                 Charge (a.u.)
  ----------------------------------------
      1 H                     0.204699
      2 C                     0.236816
      3 O                    -0.479000
      4 O                    -0.315955
      5 H                     0.353440
  ----------------------------------------
  Sum of atomic charges =     0.000000

 -----------------------------------------------------------------
                    Cartesian Multipole Moments
 -----------------------------------------------------------------
    Charge (ESU x 10^10)
                -0.0000
    Dipole Moment (Debye)
         X       0.4355      Y      -1.3249      Z      -1.8817
       Tot       2.3421
    Quadrupole Moments (Debye-Ang)
        XX     -14.8414     XY      -3.1468     YY     -18.7758
        XZ      -1.6348     YZ      -5.3980     ZZ     -17.9048
    Octopole Moments (Debye-Ang^2)
       XXX     -73.4770    XXY     -27.6936    XYY     -30.2029
       YYY     -67.5153    XXZ      13.0648    XYZ      -5.2963
       YYZ       2.4588    XZZ     -31.8317    YZZ     -14.8496
       ZZZ      46.6746
    Hexadecapole Moments (Debye-Ang^3)
      XXXX    -258.9137   XXXY    -104.3480   XXYY     -87.4838
      XYYY     -98.1936   YYYY    -225.8781   XXXZ      72.6239
      XXYZ       7.4524   XYYZ      10.6855   YYYZ      12.3494
      XXZZ     -83.7104   XYZZ     -25.8089   YYZZ     -44.3239
      XZZZ      86.5390   YZZZ      25.1978   ZZZZ    -152.9018
 -----------------------------------------------------------------
 Calculating analytic gradient of the SCF energy
 Gradient of CDS energy
            1           2           3           4           5
    1   0.0000529   0.0011817   0.0000754  -0.0015254   0.0002154
    2  -0.0001086  -0.0022910  -0.0004735   0.0032567  -0.0003836
    3  -0.0000372  -0.0003399  -0.0012185   0.0015330   0.0000625
 Gradient of SCF Energy
            1           2           3           4           5
    1  -0.0038730   0.0040432  -0.0015979  -0.0052502   0.0066779
    2   0.0050421  -0.0058726   0.0046838   0.0061720  -0.0100253
    3  -0.0077034   0.0056620   0.0064564  -0.0133322   0.0089172
 Max gradient component =       1.333E-02
 RMS gradient           =       6.913E-03
 Computing fast CPCM-SWIG gradient
 Updating gradient with PCM contributions...
 -- total gradient after adding PCM contribution --
---------------------------------------------------
  Atom         X              Y              Z     
---------------------------------------------------
   1      -0.000129       0.000137      -0.000169
   2       0.000072      -0.000108       0.000264
   3      -0.000041      -0.000005      -0.000086
   4       0.000089      -0.000069       0.000010
   5       0.000009       0.000045      -0.000019
---------------------------------------------------
 Number of fixed atoms: 0
 Gradient time:  CPU 12.71 s  wall 1.73 s
 ----------------------------------------------------------------
             Standard Nuclear Orientation (Angstroms)
    I     Atom           X                Y                Z
 ----------------------------------------------------------------
    1      H       0.9621686072     2.1105025196    -1.8346621507
    2      C       1.4071512487     1.4958206058    -1.0486152001
    3      O       1.4206384636     1.7908817174     0.1222901401
    4      O       1.9321222613     0.3813255764    -1.5529563606
    5      H       2.3205960192    -0.1453382193    -0.8349901288
 ----------------------------------------------------------------
 Nuclear Repulsion Energy =          70.31328070 hartrees
 There are       12 alpha and       12 beta electrons
 Discretize the solute cavity surface with Lebedev spheres
	Using 110 Lebedev grid points for each H atom
	Using 194 Lebedev grid points for other atoms
	Atomic van der Waals radii will be scaled by 1.20
 Remove points where switching function is < 1.0e-08
 Keep 488 surface tesserae and discard 314 interior tesserae
 Molecular Surface Area = 62.566 Angst**2

                       Distance Matrix (Angstroms)
             H (  1)   C (  2)   O (  3)   O (  4)
   C (  2)  1.092572
   O (  3)  2.035194  1.207585
   O (  4)  2.002554  1.331185  2.248314
   H (  5)  2.816645  1.890349  2.339927  0.971474
 
 Requested basis set is 6-311++G(2df,2p)
 There are 36 shells and 122 basis functions
 A cutoff of  1.0D-12 yielded    663 shell pairs
 There are      7701 function pairs (      9753 Cartesian)
 Smallest overlap matrix eigenvalue = 7.86E-04
 Guess MOs from SCF MO coefficient file

 -----------------------------------------------------------------------
  General SCF calculation program by
  Eric Jon Sundstrom, Paul Horn, Yuezhi Mao, Dmitri Zuev, Alec White,
  David Stuck, Shaama M.S., Shane Yost, Joonho Lee, David Small,
  Daniel Levine, Susi Lehtola, Hugh Burton, Evgeny Epifanovsky,
  Bang C. Huynh
 -----------------------------------------------------------------------
 Exchange:     0.1500 Hartree-Fock + 1.0000 wB97M-V + LR-HF
 Correlation:  1.0000 wB97M-V
 Using SG-2 standard quadrature grid
 Nonlocal Correlation:  VV10 with C = 0.0100 and b = 6.00 and scale = 1.00000
 Grid used for NLC:  SG-1 standard quadrature
 
 Citation of the SMD model:
 Marenich, A.V.; Cramer, C.J.; Truhlar, D.G.
 J. Phys. Chem. B 2009, 113, 6378-6396.
 iSolventCode=           1
 Solvent: water                                                           
 
 vradii
            1           2           3           4           5
    1   1.2000000   1.8500000   1.5200000   1.5200000   1.2000000
 -------------------------------------------------------
 OpenMP BLAS3 based DFT computing Module                
 Release: version 1.0, May 2013, Q-Chem Inc. Pittsburgh 
 -------------------------------------------------------
 A restricted SCF calculation will be
 performed using Roothaan-Hall, DIIS, GDM
 SCF converges when RMS gradient is below 1.0e-07
 ---------------------------------------
  Cycle       Energy         DIIS error
 ---------------------------------------
    1    -189.7698928058      8.96e-04  Roothaan Step
 ---------------------------------------
  Cycle       Energy         DIIS error
 ---------------------------------------
    1    -189.7858241156      1.21e-03  
    2    -189.7867165981      1.49e-03  Done DIIS. Switching to GDM
 ---------------------------------------
  Cycle       Energy        RMS Gradient
 ---------------------------------------
    1    -189.7867165981      2.17e-02   Normal BFGS step
    2    -189.7851788953      3.48e-02  Line search: overstep
    3    -189.7892677342      2.00e-03   Normal BFGS step
    4    -189.7893675566      1.16e-03   Normal BFGS step
    5    -189.7893777425      1.15e-03   Normal BFGS step
    6    -189.7893830080      9.65e-05   Normal BFGS step
    7    -189.7893831139      3.99e-05   Normal BFGS step
    8    -189.7893831285      9.59e-06   Normal BFGS step
    9    -189.7893831295      2.44e-06   Normal BFGS step
   10    -189.7893831296      6.39e-07   Normal BFGS step
   11    -189.7893831296      1.43e-07   Normal BFGS step
   12    -189.7893831296      2.95e-08  Convergence criterion met
 ---------------------------------------
 SCF time:   CPU 74.65s  wall 9.00s 
(3)  G-ENP(liq) elect-nuc-pol free energy of system     -189.789383130 a.u.
(4)  G-CDS(liq) cavity-dispersion-solvent structure 
     free energy                                                4.3030 kcal/mol
(6)  G-S(liq) free energy of system                     -189.782525865 a.u.
 SCF   energy in the final basis set =     -189.7825258653
 Total energy in the final basis set =     -189.7825258653
 
 --------------------------------------------------------------
 
                    Orbital Energies (a.u.)
 --------------------------------------------------------------
 
 Alpha MOs
 -- Occupied --
-19.3884 -19.3404 -10.4862  -1.2498  -1.1629  -0.7815  -0.6348  -0.6184
 -0.5691  -0.5174  -0.4437  -0.4083
 -- Virtual --
  0.0367   0.0486   0.0709   0.0772   0.1001   0.1152   0.1463   0.2110
  0.2221   0.2269   0.2400   0.2799   0.2840   0.2967   0.3209   0.3370
  0.3575   0.4147   0.4892   0.5782   0.5952   0.6021   0.6580   0.7108
  0.7217   0.7927   0.8275   0.8555   0.9258   1.0322   1.0684   1.1027
  1.1027   1.1283   1.1415   1.1521   1.1840   1.2014   1.3755   1.4476
  1.4904   1.5358   1.6006   1.6453   1.7045   1.8138   1.8311   2.0221
  2.1161   2.1246   2.2771   2.3737   2.4116   2.5243   2.7184   2.7937
  2.8330   2.9569   3.0905   3.1021   3.2240   3.2695   3.2721   3.4055
  3.4202   3.5362   3.5841   3.6126   3.7670   3.7904   3.8314   4.0158
  4.1682   4.1753   4.3253   4.4447   5.0353   5.1146   5.1279   5.1824
  5.1857   5.1867   5.2257   5.2869   5.3966   5.5084   5.5088   5.6102
  5.6271   5.9147   5.9851   6.0594   6.4023   6.6912   6.8987   6.9418
  7.0301   7.0331   7.1494   7.2382   7.2421   7.3167   7.3712   7.5693
  7.6722   7.7394   7.7810  25.0853  50.5339  50.7051
 --------------------------------------------------------------
 
          Ground-State Mulliken Net Atomic Charges

     Atom                 Charge (a.u.)
  ----------------------------------------
      1 H                     0.204698
      2 C                     0.236819
      3 O                    -0.479002
      4 O                    -0.315970
      5 H                     0.353455
  ----------------------------------------
  Sum of atomic charges =     0.000000

 -----------------------------------------------------------------
                    Cartesian Multipole Moments
 -----------------------------------------------------------------
    Charge (ESU x 10^10)
                 0.0000
    Dipole Moment (Debye)
         X       0.4362      Y      -1.3243      Z      -1.8817
       Tot       2.3420
    Quadrupole Moments (Debye-Ang)
        XX     -14.8398     XY      -3.1451     YY     -18.7729
        XZ      -1.6361     YZ      -5.3991     ZZ     -17.9054
    Octopole Moments (Debye-Ang^2)
       XXX     -73.4751    XXY     -27.6923    XYY     -30.1982
       YYY     -67.5067    XXZ      13.0631    XYZ      -5.2997
       YYZ       2.4529    XZZ     -31.8300    YZZ     -14.8486
       ZZZ      46.6763
    Hexadecapole Moments (Debye-Ang^3)
      XXXX    -258.9094   XXXY    -104.3524   XXYY     -87.4824
      XYYY     -98.1842   YYYY    -225.8614   XXXZ      72.6259
      XXYZ       7.4510   XYYZ      10.6758   YYYZ      12.3313
      XXZZ     -83.7080   XYZZ     -25.8037   YYZZ     -44.3153
      XZZZ      86.5381   YZZZ      25.1991   ZZZZ    -152.9078
 -----------------------------------------------------------------
 Calculating analytic gradient of the SCF energy
 Gradient of CDS energy
            1           2           3           4           5
    1   0.0000525   0.0011817   0.0000754  -0.0015249   0.0002154
    2  -0.0001077  -0.0022916  -0.0004735   0.0032563  -0.0003836
    3  -0.0000365  -0.0003414  -0.0012185   0.0015339   0.0000625
 Gradient of SCF Energy
            1           2           3           4           5
    1  -0.0038580   0.0039311  -0.0015607  -0.0052070   0.0066947
    2   0.0051826  -0.0060445   0.0047233   0.0061604  -0.0100219
    3  -0.0077463   0.0057173   0.0064313  -0.0133156   0.0089133
 Max gradient component =       1.332E-02
 RMS gradient           =       6.926E-03
 Computing fast CPCM-SWIG gradient
 Updating gradient with PCM contributions...
 -- total gradient after adding PCM contribution --
---------------------------------------------------
  Atom         X              Y              Z     
---------------------------------------------------
   1      -0.000126       0.000266      -0.000214
   2      -0.000028      -0.000270       0.000322
   3      -0.000002       0.000036      -0.000111
   4       0.000133      -0.000081       0.000026
   5       0.000024       0.000049      -0.000023
---------------------------------------------------
 Number of fixed atoms: 0
 Gradient time:  CPU 12.71 s  wall 1.72 s
 ----------------------------------------------------------------
             Standard Nuclear Orientation (Angstroms)
    I     Atom           X                Y                Z
 ----------------------------------------------------------------
    1      H       0.9621686072     2.1085025196    -1.8346621507
    2      C       1.4071512487     1.4958206058    -1.0486152001
    3      O       1.4206384636     1.7908817174     0.1222901401
    4      O       1.9321222613     0.3813255764    -1.5529563606
    5      H       2.3205960192    -0.1453382193    -0.8349901288
 ----------------------------------------------------------------
 Nuclear Repulsion Energy =          70.31852466 hartrees
 There are       12 alpha and       12 beta electrons
 Discretize the solute cavity surface with Lebedev spheres
	Using 110 Lebedev grid points for each H atom
	Using 194 Lebedev grid points for other atoms
	Atomic van der Waals radii will be scaled by 1.20
 Remove points where switching function is < 1.0e-08
 Keep 488 surface tesserae and discard 314 interior tesserae
 Molecular Surface Area = 62.559 Angst**2

                       Distance Matrix (Angstroms)
             H (  1)   C (  2)   O (  3)   O (  4)
   C (  2)  1.091448
   O (  3)  2.034881  1.207585
   O (  4)  2.000827  1.331185  2.248314
   H (  5)  2.815043  1.890349  2.339927  0.971474
 
 Requested basis set is 6-311++G(2df,2p)
 There are 36 shells and 122 basis functions
 A cutoff of  1.0D-12 yielded    663 shell pairs
 There are      7701 function pairs (      9753 Cartesian)
 Smallest overlap matrix eigenvalue = 7.86E-04
 Guess MOs from SCF MO coefficient file

 -----------------------------------------------------------------------
  General SCF calculation program by
  Eric Jon Sundstrom, Paul Horn, Yuezhi Mao, Dmitri Zuev, Alec White,
  David Stuck, Shaama M.S., Shane Yost, Joonho Lee, David Small,
  Daniel Levine, Susi Lehtola, Hugh Burton, Evgeny Epifanovsky,
  Bang C. Huynh
 -----------------------------------------------------------------------
 Exchange:     0.1500 Hartree-Fock + 1.0000 wB97M-V + LR-HF
 Correlation:  1.0000 wB97M-V
 Using SG-2 standard quadrature grid
 Nonlocal Correlation:  VV10 with C = 0.0100 and b = 6.00 and scale = 1.00000
 Grid used for NLC:  SG-1 standard quadrature
 
 Citation of the SMD model:
 Marenich, A.V.; Cramer, C.J.; Truhlar, D.G.
 J. Phys. Chem. B 2009, 113, 6378-6396.
 iSolventCode=           1
 Solvent: water                                                           
 
 vradii
            1           2           3           4           5
    1   1.2000000   1.8500000   1.5200000   1.5200000   1.2000000
 -------------------------------------------------------
 OpenMP BLAS3 based DFT computing Module                
 Release: version 1.0, May 2013, Q-Chem Inc. Pittsburgh 
 -------------------------------------------------------
 A restricted SCF calculation will be
 performed using Roothaan-Hall, DIIS, GDM
 SCF converges when RMS gradient is below 1.0e-07
 ---------------------------------------
  Cycle       Energy         DIIS error
 ---------------------------------------
    1    -189.7698977271      8.97e-04  Roothaan Step
 ---------------------------------------
  Cycle       Energy         DIIS error
 ---------------------------------------
    1    -189.7858196989      1.21e-03  
    2    -189.7867119286      1.49e-03  Done DIIS. Switching to GDM
 ---------------------------------------
  Cycle       Energy        RMS Gradient
 ---------------------------------------
    1    -189.7867119286      2.17e-02   Normal BFGS step
    2    -189.7851727065      3.48e-02  Line search: overstep
    3    -189.7892678670      2.00e-03   Normal BFGS step
    4    -189.7893678301      1.17e-03   Normal BFGS step
    5    -189.7893780632      1.15e-03   Normal BFGS step
    6    -189.7893833526      9.74e-05   Normal BFGS step
    7    -189.7893834588      4.00e-05   Normal BFGS step
    8    -189.7893834736      9.67e-06   Normal BFGS step
    9    -189.7893834746      2.43e-06   Normal BFGS step
   10    -189.7893834747      6.45e-07   Normal BFGS step
   11    -189.7893834747      1.42e-07   Normal BFGS step
   12    -189.7893834747      2.92e-08  Convergence criterion met
 ---------------------------------------
 SCF time:   CPU 74.30s  wall 10.00s 
(3)  G-ENP(liq) elect-nuc-pol free energy of system     -189.789383475 a.u.
(4)  G-CDS(liq) cavity-dispersion-solvent structure 
     free energy                                                4.3033 kcal/mol
(6)  G-S(liq) free energy of system                     -189.782525796 a.u.
 SCF   energy in the final basis set =     -189.7825257959
 Total energy in the final basis set =     -189.7825257959
 
 --------------------------------------------------------------
 
                    Orbital Energies (a.u.)
 --------------------------------------------------------------
 
 Alpha MOs
 -- Occupied --
-19.3884 -19.3404 -10.4861  -1.2498  -1.1629  -0.7817  -0.6349  -0.6184
 -0.5691  -0.5175  -0.4437  -0.4083
 -- Virtual --
  0.0367   0.0486   0.0709   0.0772   0.1001   0.1152   0.1463   0.2110
  0.2222   0.2270   0.2400   0.2799   0.2842   0.2967   0.3209   0.3370
  0.3575   0.4148   0.4891   0.5784   0.5952   0.6023   0.6579   0.7108
  0.7217   0.7928   0.8274   0.8557   0.9257   1.0322   1.0682   1.1027
  1.1028   1.1284   1.1418   1.1523   1.1840   1.2016   1.3756   1.4478
  1.4907   1.5361   1.6008   1.6454   1.7048   1.8137   1.8311   2.0220
  2.1163   2.1246   2.2771   2.3737   2.4109   2.5243   2.7183   2.7937
  2.8335   2.9570   3.0907   3.1022   3.2240   3.2692   3.2722   3.4055
  3.4200   3.5360   3.5840   3.6126   3.7671   3.7918   3.8320   4.0163
  4.1699   4.1759   4.3260   4.4458   5.0366   5.1146   5.1280   5.1825
  5.1859   5.1867   5.2257   5.2870   5.3970   5.5086   5.5090   5.6102
  5.6278   5.9160   5.9855   6.0596   6.4023   6.6917   6.8987   6.9420
  7.0301   7.0338   7.1502   7.2382   7.2422   7.3168   7.3713   7.5693
  7.6723   7.7395   7.7811  25.0863  50.5340  50.7052
 --------------------------------------------------------------
 
          Ground-State Mulliken Net Atomic Charges

     Atom                 Charge (a.u.)
  ----------------------------------------
      1 H                     0.204786
      2 C                     0.236804
      3 O                    -0.479026
      4 O                    -0.315962
      5 H                     0.353398
  ----------------------------------------
  Sum of atomic charges =     0.000000

 -----------------------------------------------------------------
                    Cartesian Multipole Moments
 -----------------------------------------------------------------
    Charge (ESU x 10^10)
                 0.0000
    Dipole Moment (Debye)
         X       0.4358      Y      -1.3250      Z      -1.8821
       Tot       2.3426
    Quadrupole Moments (Debye-Ang)
        XX     -14.8404     XY      -3.1447     YY     -18.7775
        XZ      -1.6361     YZ      -5.3981     ZZ     -17.9024
    Octopole Moments (Debye-Ang^2)
       XXX     -73.4773    XXY     -27.6867    XYY     -30.1998
       YYY     -67.5187    XXZ      13.0619    XYZ      -5.3005
       YYZ       2.4613    XZZ     -31.8274    YZZ     -14.8461
       ZZZ      46.6658
    Hexadecapole Moments (Debye-Ang^3)
      XXXX    -258.9184   XXXY    -104.3368   XXYY     -87.4690
      XYYY     -98.1863   YYYY    -225.8747   XXXZ      72.6237
      XXYZ       7.4400   XYYZ      10.6786   YYYZ      12.3541
      XXZZ     -83.7019   XYZZ     -25.7978   YYZZ     -44.3211
      XZZZ      86.5284   YZZZ      25.1809   ZZZZ    -152.8727
 -----------------------------------------------------------------
 Calculating analytic gradient of the SCF energy
 Gradient of CDS energy
            1           2           3           4           5
    1   0.0000545   0.0011807   0.0000754  -0.0015261   0.0002154
    2  -0.0001116  -0.0022888  -0.0004735   0.0032575  -0.0003836
    3  -0.0000372  -0.0003382  -0.0012185   0.0015313   0.0000625
 Gradient of SCF Energy
            1           2           3           4           5
    1  -0.0035508   0.0037265  -0.0015640  -0.0052887   0.0066771
    2   0.0045944  -0.0054905   0.0046600   0.0062476  -0.0100116
    3  -0.0073479   0.0053410   0.0064726  -0.0133884   0.0089227
 Max gradient component =       1.339E-02
 RMS gradient           =       6.817E-03
 Computing fast CPCM-SWIG gradient
 Updating gradient with PCM contributions...
 -- total gradient after adding PCM contribution --
---------------------------------------------------
  Atom         X              Y              Z     
---------------------------------------------------
   1       0.000184      -0.000303       0.000196
   2      -0.000237       0.000269      -0.000065
   3      -0.000006      -0.000030      -0.000072
   4       0.000050       0.000009      -0.000046
   5       0.000009       0.000056      -0.000012
---------------------------------------------------
 Number of fixed atoms: 0
 Gradient time:  CPU 12.54 s  wall 1.70 s
 ----------------------------------------------------------------
             Standard Nuclear Orientation (Angstroms)
    I     Atom           X                Y                Z
 ----------------------------------------------------------------
    1      H       0.9621686072     2.1095025196    -1.8336621507
    2      C       1.4071512487     1.4958206058    -1.0486152001
    3      O       1.4206384636     1.7908817174     0.1222901401
    4      O       1.9321222613     0.3813255764    -1.5529563606
    5      H       2.3205960192    -0.1453382193    -0.8349901288
 ----------------------------------------------------------------
 Nuclear Repulsion Energy =          70.31897546 hartrees
 There are       12 alpha and       12 beta electrons
 Discretize the solute cavity surface with Lebedev spheres
	Using 110 Lebedev grid points for each H atom
	Using 194 Lebedev grid points for other atoms
	Atomic van der Waals radii will be scaled by 1.20
 Remove points where switching function is < 1.0e-08
 Keep 488 surface tesserae and discard 314 interior tesserae
 Molecular Surface Area = 62.558 Angst**2

                       Distance Matrix (Angstroms)
             H (  1)   C (  2)   O (  3)   O (  4)
   C (  2)  1.091290
   O (  3)  2.034076  1.207585
   O (  4)  2.001550  1.331185  2.248314
   H (  5)  2.815489  1.890349  2.339927  0.971474
 
 Requested basis set is 6-311++G(2df,2p)
 There are 36 shells and 122 basis functions
 A cutoff of  1.0D-12 yielded    663 shell pairs
 There are      7701 function pairs (      9753 Cartesian)
 Smallest overlap matrix eigenvalue = 7.86E-04
 Guess MOs from SCF MO coefficient file

 -----------------------------------------------------------------------
  General SCF calculation program by
  Eric Jon Sundstrom, Paul Horn, Yuezhi Mao, Dmitri Zuev, Alec White,
  David Stuck, Shaama M.S., Shane Yost, Joonho Lee, David Small,
  Daniel Levine, Susi Lehtola, Hugh Burton, Evgeny Epifanovsky,
  Bang C. Huynh
 -----------------------------------------------------------------------
 Exchange:     0.1500 Hartree-Fock + 1.0000 wB97M-V + LR-HF
 Correlation:  1.0000 wB97M-V
 Using SG-2 standard quadrature grid
 Nonlocal Correlation:  VV10 with C = 0.0100 and b = 6.00 and scale = 1.00000
 Grid used for NLC:  SG-1 standard quadrature
 
 Citation of the SMD model:
 Marenich, A.V.; Cramer, C.J.; Truhlar, D.G.
 J. Phys. Chem. B 2009, 113, 6378-6396.
 iSolventCode=           1
 Solvent: water                                                           
 
 vradii
            1           2           3           4           5
    1   1.2000000   1.8500000   1.5200000   1.5200000   1.2000000
 -------------------------------------------------------
 OpenMP BLAS3 based DFT computing Module                
 Release: version 1.0, May 2013, Q-Chem Inc. Pittsburgh 
 -------------------------------------------------------
 A restricted SCF calculation will be
 performed using Roothaan-Hall, DIIS, GDM
 SCF converges when RMS gradient is below 1.0e-07
 ---------------------------------------
  Cycle       Energy         DIIS error
 ---------------------------------------
    1    -189.7698934731      8.96e-04  Roothaan Step
 ---------------------------------------
  Cycle       Energy         DIIS error
 ---------------------------------------
    1    -189.7858200043      1.21e-03  
    2    -189.7867109254      1.49e-03  Done DIIS. Switching to GDM
 ---------------------------------------
  Cycle       Energy        RMS Gradient
 ---------------------------------------
    1    -189.7867109254      2.17e-02   Normal BFGS step
    2    -189.7851696885      3.49e-02  Line search: overstep
    3    -189.7892676390      2.00e-03   Normal BFGS step
    4    -189.7893675600      1.17e-03   Normal BFGS step
    5    -189.7893777557      1.15e-03   Normal BFGS step
    6    -189.7893830278      9.71e-05   Normal BFGS step
    7    -189.7893831338      3.99e-05   Normal BFGS step
    8    -189.7893831484      9.62e-06   Normal BFGS step
    9    -189.7893831495      2.43e-06   Normal BFGS step
   10    -189.7893831496      6.41e-07   Normal BFGS step
   11    -189.7893831496      1.43e-07   Normal BFGS step
   12    -189.7893831496      2.95e-08  Convergence criterion met
 ---------------------------------------
 SCF time:   CPU 75.16s  wall 10.00s 
(3)  G-ENP(liq) elect-nuc-pol free energy of system     -189.789383150 a.u.
(4)  G-CDS(liq) cavity-dispersion-solvent structure 
     free energy                                                4.3031 kcal/mol
(6)  G-S(liq) free energy of system                     -189.782525746 a.u.
 SCF   energy in the final basis set =     -189.7825257463
 Total energy in the final basis set =     -189.7825257463
 
 --------------------------------------------------------------
 
                    Orbital Energies (a.u.)
 --------------------------------------------------------------
 
 Alpha MOs
 -- Occupied --
-19.3884 -19.3403 -10.4861  -1.2498  -1.1629  -0.7817  -0.6350  -0.6184
 -0.5691  -0.5175  -0.4437  -0.4083
 -- Virtual --
  0.0367   0.0486   0.0709   0.0772   0.1001   0.1152   0.1463   0.2110
  0.2222   0.2270   0.2400   0.2799   0.2842   0.2967   0.3209   0.3370
  0.3575   0.4147   0.4892   0.5785   0.5952   0.6022   0.6580   0.7108
  0.7217   0.7927   0.8275   0.8556   0.9259   1.0322   1.0685   1.1027
  1.1029   1.1284   1.1417   1.1522   1.1840   1.2015   1.3757   1.4476
  1.4907   1.5361   1.6008   1.6453   1.7046   1.8138   1.8312   2.0222
  2.1162   2.1250   2.2771   2.3738   2.4108   2.5242   2.7184   2.7937
  2.8332   2.9570   3.0906   3.1022   3.2240   3.2693   3.2724   3.4055
  3.4202   3.5361   3.5841   3.6127   3.7670   3.7919   3.8324   4.0162
  4.1701   4.1756   4.3256   4.4463   5.0369   5.1146   5.1279   5.1826
  5.1858   5.1867   5.2258   5.2869   5.3971   5.5086   5.5091   5.6102
  5.6276   5.9160   5.9856   6.0595   6.4023   6.6917   6.8987   6.9420
  7.0301   7.0336   7.1500   7.2382   7.2424   7.3167   7.3713   7.5694
  7.6722   7.7395   7.7811  25.0866  50.5340  50.7052
 --------------------------------------------------------------
 
          Ground-State Mulliken Net Atomic Charges

     Atom                 Charge (a.u.)
  ----------------------------------------
      1 H                     0.204854
      2 C                     0.236829
      3 O                    -0.479067
      4 O                    -0.316052
      5 H                     0.353435
  ----------------------------------------
  Sum of atomic charges =     0.000000

 -----------------------------------------------------------------
                    Cartesian Multipole Moments
 -----------------------------------------------------------------
    Charge (ESU x 10^10)
                 0.0000
    Dipole Moment (Debye)
         X       0.4358      Y      -1.3244      Z      -1.8820
       Tot       2.3422
    Quadrupole Moments (Debye-Ang)
        XX     -14.8398     XY      -3.1451     YY     -18.7734
        XZ      -1.6364     YZ      -5.3987     ZZ     -17.9055
    Octopole Moments (Debye-Ang^2)
       XXX     -73.4750    XXY     -27.6887    XYY     -30.1977
       YYY     -67.5051    XXZ      13.0594    XYZ      -5.3008
       YYZ       2.4547    XZZ     -31.8299    YZZ     -14.8508
       ZZZ      46.6730
    Hexadecapole Moments (Debye-Ang^3)
      XXXX    -258.9105   XXXY    -104.3420   XXYY     -87.4711
      XYYY     -98.1784   YYYY    -225.8401   XXXZ      72.6161
      XXYZ       7.4392   XYYZ      10.6734   YYYZ      12.3288
      XXZZ     -83.7002   XYZZ     -25.8028   YYZZ     -44.3209
      XZZZ      86.5334   YZZZ      25.1954   ZZZZ    -152.8856
 -----------------------------------------------------------------
 Calculating analytic gradient of the SCF energy
 Gradient of CDS energy
            1           2           3           4           5
    1   0.0000539   0.0011801   0.0000754  -0.0015248   0.0002154
    2  -0.0001093  -0.0022897  -0.0004735   0.0032561  -0.0003836
    3  -0.0000334  -0.0003451  -0.0012185   0.0015344   0.0000625
 Gradient of SCF Energy
            1           2           3           4           5
    1  -0.0035481   0.0036852  -0.0015897  -0.0052349   0.0066876
    2   0.0046888  -0.0055587   0.0047135   0.0061797  -0.0100232
    3  -0.0071504   0.0051766   0.0063863  -0.0133308   0.0089183
 Max gradient component =       1.333E-02
 RMS gradient           =       6.785E-03
 Computing fast CPCM-SWIG gradient
 Updating gradient with PCM contributions...
 -- total gradient after adding PCM contribution --
---------------------------------------------------
  Atom         X              Y              Z     
---------------------------------------------------
   1       0.000189      -0.000224       0.000384
   2      -0.000278       0.000211      -0.000216
   3      -0.000032       0.000025      -0.000161
   4       0.000103      -0.000058       0.000010
   5       0.000018       0.000046      -0.000017
---------------------------------------------------
 Number of fixed atoms: 0
 Gradient time:  CPU 13.08 s  wall 1.78 s
 ----------------------------------------------------------------
             Standard Nuclear Orientation (Angstroms)
    I     Atom           X                Y                Z
 ----------------------------------------------------------------
    1      H       0.9621686072     2.1095025196    -1.8356621507
    2      C       1.4071512487     1.4958206058    -1.0486152001
    3      O       1.4206384636     1.7908817174     0.1222901401
    4      O       1.9321222613     0.3813255764    -1.5529563606
    5      H       2.3205960192    -0.1453382193    -0.8349901288
 ----------------------------------------------------------------
 Nuclear Repulsion Energy =          70.31283156 hartrees
 There are       12 alpha and       12 beta electrons
 Discretize the solute cavity surface with Lebedev spheres
	Using 110 Lebedev grid points for each H atom
	Using 194 Lebedev grid points for other atoms
	Atomic van der Waals radii will be scaled by 1.20
 Remove points where switching function is < 1.0e-08
 Keep 488 surface tesserae and discard 314 interior tesserae
 Molecular Surface Area = 62.567 Angst**2

                       Distance Matrix (Angstroms)
             H (  1)   C (  2)   O (  3)   O (  4)
   C (  2)  1.092730
   O (  3)  2.035999  1.207585
   O (  4)  2.001831  1.331185  2.248314
   H (  5)  2.816199  1.890349  2.339927  0.971474
 
 Requested basis set is 6-311++G(2df,2p)
 There are 36 shells and 122 basis functions
 A cutoff of  1.0D-12 yielded    663 shell pairs
 There are      7701 function pairs (      9753 Cartesian)
 Smallest overlap matrix eigenvalue = 7.86E-04
 Guess MOs from SCF MO coefficient file

 -----------------------------------------------------------------------
  General SCF calculation program by
  Eric Jon Sundstrom, Paul Horn, Yuezhi Mao, Dmitri Zuev, Alec White,
  David Stuck, Shaama M.S., Shane Yost, Joonho Lee, David Small,
  Daniel Levine, Susi Lehtola, Hugh Burton, Evgeny Epifanovsky,
  Bang C. Huynh
 -----------------------------------------------------------------------
 Exchange:     0.1500 Hartree-Fock + 1.0000 wB97M-V + LR-HF
 Correlation:  1.0000 wB97M-V
 Using SG-2 standard quadrature grid
 Nonlocal Correlation:  VV10 with C = 0.0100 and b = 6.00 and scale = 1.00000
 Grid used for NLC:  SG-1 standard quadrature
 
 Citation of the SMD model:
 Marenich, A.V.; Cramer, C.J.; Truhlar, D.G.
 J. Phys. Chem. B 2009, 113, 6378-6396.
 iSolventCode=           1
 Solvent: water                                                           
 
 vradii
            1           2           3           4           5
    1   1.2000000   1.8500000   1.5200000   1.5200000   1.2000000
 -------------------------------------------------------
 OpenMP BLAS3 based DFT computing Module                
 Release: version 1.0, May 2013, Q-Chem Inc. Pittsburgh 
 -------------------------------------------------------
 A restricted SCF calculation will be
 performed using Roothaan-Hall, DIIS, GDM
 SCF converges when RMS gradient is below 1.0e-07
 ---------------------------------------
  Cycle       Energy         DIIS error
 ---------------------------------------
    1    -189.7698884082      8.97e-04  Roothaan Step
 ---------------------------------------
  Cycle       Energy         DIIS error
 ---------------------------------------
    1    -189.7858357016      1.20e-03  
    2    -189.7867302930      1.49e-03  Done DIIS. Switching to GDM
 ---------------------------------------
  Cycle       Energy        RMS Gradient
 ---------------------------------------
    1    -189.7867302930      2.16e-02   Normal BFGS step
    2    -189.7852004721      3.47e-02  Line search: overstep
    3    -189.7892682497      2.01e-03   Normal BFGS step
    4    -189.7893677442      1.16e-03   Normal BFGS step
    5    -189.7893778909      1.14e-03   Normal BFGS step
    6    -189.7893831322      9.56e-05   Normal BFGS step
    7    -189.7893832380      3.99e-05   Normal BFGS step
    8    -189.7893832525      9.52e-06   Normal BFGS step
    9    -189.7893832535      2.43e-06   Normal BFGS step
   10    -189.7893832536      6.35e-07   Normal BFGS step
   11    -189.7893832536      1.44e-07   Normal BFGS step
   12    -189.7893832536      2.99e-08  Convergence criterion met
 ---------------------------------------
 SCF time:   CPU 74.75s  wall 10.00s 
(3)  G-ENP(liq) elect-nuc-pol free energy of system     -189.789383254 a.u.
(4)  G-CDS(liq) cavity-dispersion-solvent structure 
     free energy                                                4.3032 kcal/mol
(6)  G-S(liq) free energy of system                     -189.782525711 a.u.
 SCF   energy in the final basis set =     -189.7825257110
 Total energy in the final basis set =     -189.7825257110
 
 --------------------------------------------------------------
 
                    Orbital Energies (a.u.)
 --------------------------------------------------------------
 
 Alpha MOs
 -- Occupied --
-19.3884 -19.3404 -10.4862  -1.2498  -1.1629  -0.7816  -0.6347  -0.6185
 -0.5691  -0.5174  -0.4437  -0.4083
 -- Virtual --
  0.0367   0.0486   0.0709   0.0772   0.1001   0.1152   0.1463   0.2110
  0.2221   0.2270   0.2400   0.2799   0.2841   0.2967   0.3208   0.3370
  0.3575   0.4148   0.4891   0.5781   0.5952   0.6022   0.6579   0.7108
  0.7217   0.7928   0.8275   0.8556   0.9256   1.0322   1.0681   1.1026
  1.1028   1.1283   1.1416   1.1522   1.1840   1.2014   1.3753   1.4478
  1.4904   1.5358   1.6006   1.6453   1.7047   1.8138   1.8311   2.0219
  2.1162   2.1242   2.2771   2.3737   2.4116   2.5243   2.7183   2.7937
  2.8333   2.9569   3.0906   3.1020   3.2240   3.2694   3.2720   3.4055
  3.4200   3.5361   3.5840   3.6125   3.7671   3.7903   3.8310   4.0159
  4.1680   4.1756   4.3258   4.4442   5.0350   5.1146   5.1279   5.1822
  5.1858   5.1867   5.2257   5.2870   5.3965   5.5084   5.5087   5.6102
  5.6273   5.9147   5.9850   6.0595   6.4023   6.6912   6.8987   6.9418
  7.0301   7.0334   7.1495   7.2381   7.2420   7.3167   7.3712   7.5692
  7.6722   7.7395   7.7810  25.0850  50.5339  50.7051
 --------------------------------------------------------------
 
          Ground-State Mulliken Net Atomic Charges

     Atom                 Charge (a.u.)
  ----------------------------------------
      1 H                     0.204630
      2 C                     0.236794
      3 O                    -0.478961
      4 O                    -0.315880
      5 H                     0.353417
  ----------------------------------------
  Sum of atomic charges =     0.000000

 -----------------------------------------------------------------
                    Cartesian Multipole Moments
 -----------------------------------------------------------------
    Charge (ESU x 10^10)
                 0.0000
    Dipole Moment (Debye)
         X       0.4362      Y      -1.3249      Z      -1.8818
       Tot       2.3424
    Quadrupole Moments (Debye-Ang)
        XX     -14.8403     XY      -3.1447     YY     -18.7770
        XZ      -1.6357     YZ      -5.3985     ZZ     -17.9023
    Octopole Moments (Debye-Ang^2)
       XXX     -73.4774    XXY     -27.6903    XYY     -30.2003
       YYY     -67.5202    XXZ      13.0656    XYZ      -5.2994
       YYZ       2.4596    XZZ     -31.8275    YZZ     -14.8439
       ZZZ      46.6691
    Hexadecapole Moments (Debye-Ang^3)
      XXXX    -258.9174   XXXY    -104.3472   XXYY     -87.4803
      XYYY     -98.1922   YYYY    -225.8960   XXXZ      72.6335
      XXYZ       7.4517   XYYZ      10.6811   YYYZ      12.3566
      XXZZ     -83.7097   XYZZ     -25.7987   YYZZ     -44.3156
      XZZZ      86.5331   YZZZ      25.1846   ZZZZ    -152.8950
 -----------------------------------------------------------------
 Calculating analytic gradient of the SCF energy
 Gradient of CDS energy
            1           2           3           4           5
    1   0.0000532   0.0011823   0.0000754  -0.0015262   0.0002154
    2  -0.0001100  -0.0022908  -0.0004735   0.0032578  -0.0003836
    3  -0.0000403  -0.0003346  -0.0012185   0.0015308   0.0000625
 Gradient of SCF Energy
            1           2           3           4           5
    1  -0.0038604   0.0039720  -0.0015352  -0.0052606   0.0066842
    2   0.0050874  -0.0059753   0.0046699   0.0062282  -0.0100103
    3  -0.0079436   0.0058815   0.0065175  -0.0133730   0.0089176
 Max gradient component =       1.337E-02
 RMS gradient           =       6.959E-03
 Computing fast CPCM-SWIG gradient
 Updating gradient with PCM contributions...
 -- total gradient after adding PCM contribution --
---------------------------------------------------
  Atom         X              Y              Z     
---------------------------------------------------
   1      -0.000131       0.000186      -0.000402
   2       0.000012      -0.000211       0.000472
   3       0.000024      -0.000019      -0.000022
   4       0.000080      -0.000014      -0.000030
   5       0.000015       0.000058      -0.000019
---------------------------------------------------
 Number of fixed atoms: 0
 Gradient time:  CPU 12.99 s  wall 1.81 s
 ----------------------------------------------------------------
             Standard Nuclear Orientation (Angstroms)
    I     Atom           X                Y                Z
 ----------------------------------------------------------------
    1      H       0.9621686072     2.1095025196    -1.8346621507
    2      C       1.4081512487     1.4958206058    -1.0486152001
    3      O       1.4206384636     1.7908817174     0.1222901401
    4      O       1.9321222613     0.3813255764    -1.5529563606
    5      H       2.3205960192    -0.1453382193    -0.8349901288
 ----------------------------------------------------------------
 Nuclear Repulsion Energy =          70.32108358 hartrees
 There are       12 alpha and       12 beta electrons
 Discretize the solute cavity surface with Lebedev spheres
	Using 110 Lebedev grid points for each H atom
	Using 194 Lebedev grid points for other atoms
	Atomic van der Waals radii will be scaled by 1.20
 Remove points where switching function is < 1.0e-08
 Keep 488 surface tesserae and discard 314 interior tesserae
 Molecular Surface Area = 62.561 Angst**2

                       Distance Matrix (Angstroms)
             H (  1)   C (  2)   O (  3)   O (  4)
   C (  2)  1.092417
   O (  3)  2.035037  1.207575
   O (  4)  2.001690  1.330791  2.248314
   H (  5)  2.815844  1.889866  2.339927  0.971474
 
 Requested basis set is 6-311++G(2df,2p)
 There are 36 shells and 122 basis functions
 A cutoff of  1.0D-12 yielded    663 shell pairs
 There are      7701 function pairs (      9753 Cartesian)
 Smallest overlap matrix eigenvalue = 7.86E-04
 Guess MOs from SCF MO coefficient file

 -----------------------------------------------------------------------
  General SCF calculation program by
  Eric Jon Sundstrom, Paul Horn, Yuezhi Mao, Dmitri Zuev, Alec White,
  David Stuck, Shaama M.S., Shane Yost, Joonho Lee, David Small,
  Daniel Levine, Susi Lehtola, Hugh Burton, Evgeny Epifanovsky,
  Bang C. Huynh
 -----------------------------------------------------------------------
 Exchange:     0.1500 Hartree-Fock + 1.0000 wB97M-V + LR-HF
 Correlation:  1.0000 wB97M-V
 Using SG-2 standard quadrature grid
 Nonlocal Correlation:  VV10 with C = 0.0100 and b = 6.00 and scale = 1.00000
 Grid used for NLC:  SG-1 standard quadrature
 
 Citation of the SMD model:
 Marenich, A.V.; Cramer, C.J.; Truhlar, D.G.
 J. Phys. Chem. B 2009, 113, 6378-6396.
 iSolventCode=           1
 Solvent: water                                                           
 
 vradii
            1           2           3           4           5
    1   1.2000000   1.8500000   1.5200000   1.5200000   1.2000000
 -------------------------------------------------------
 OpenMP BLAS3 based DFT computing Module                
 Release: version 1.0, May 2013, Q-Chem Inc. Pittsburgh 
 -------------------------------------------------------
 A restricted SCF calculation will be
 performed using Roothaan-Hall, DIIS, GDM
 SCF converges when RMS gradient is below 1.0e-07
 ---------------------------------------
  Cycle       Energy         DIIS error
 ---------------------------------------
    1    -189.7698968762      8.97e-04  Roothaan Step
 ---------------------------------------
  Cycle       Energy         DIIS error
 ---------------------------------------
    1    -189.7858196119      1.21e-03  
    2    -189.7867103714      1.49e-03  Done DIIS. Switching to GDM
 ---------------------------------------
  Cycle       Energy        RMS Gradient
 ---------------------------------------
    1    -189.7867103714      2.17e-02   Normal BFGS step
    2    -189.7851671206      3.49e-02  Line search: overstep
    3    -189.7892697863      1.98e-03   Normal BFGS step
    4    -189.7893698870      1.16e-03   Normal BFGS step
    5    -189.7893801066      1.15e-03   Normal BFGS step
    6    -189.7893853771      9.64e-05   Normal BFGS step
    7    -189.7893854836      4.00e-05   Normal BFGS step
    8    -189.7893854983      9.64e-06   Normal BFGS step
    9    -189.7893854994      2.43e-06   Normal BFGS step
   10    -189.7893854995      6.44e-07   Normal BFGS step
   11    -189.7893854995      1.43e-07   Normal BFGS step
   12    -189.7893854995      2.96e-08  Convergence criterion met
 ---------------------------------------
 SCF time:   CPU 73.52s  wall 9.00s 
(3)  G-ENP(liq) elect-nuc-pol free energy of system     -189.789385499 a.u.
(4)  G-CDS(liq) cavity-dispersion-solvent structure 
     free energy                                                4.3045 kcal/mol
(6)  G-S(liq) free energy of system                     -189.782525806 a.u.
 SCF   energy in the final basis set =     -189.7825258063
 Total energy in the final basis set =     -189.7825258063
 
 --------------------------------------------------------------
 
                    Orbital Energies (a.u.)
 --------------------------------------------------------------
 
 Alpha MOs
 -- Occupied --
-19.3885 -19.3403 -10.4861  -1.2499  -1.1629  -0.7816  -0.6348  -0.6185
 -0.5692  -0.5174  -0.4437  -0.4083
 -- Virtual --
  0.0367   0.0486   0.0710   0.0772   0.1001   0.1152   0.1463   0.2110
  0.2222   0.2270   0.2400   0.2799   0.2841   0.2967   0.3209   0.3370
  0.3575   0.4150   0.4892   0.5782   0.5952   0.6021   0.6580   0.7107
  0.7219   0.7928   0.8275   0.8556   0.9259   1.0322   1.0683   1.1026
  1.1028   1.1284   1.1416   1.1523   1.1839   1.2014   1.3757   1.4477
  1.4905   1.5358   1.6006   1.6453   1.7046   1.8138   1.8311   2.0223
  2.1162   2.1247   2.2771   2.3740   2.4117   2.5243   2.7185   2.7937
  2.8334   2.9569   3.0906   3.1022   3.2240   3.2695   3.2722   3.4056
  3.4204   3.5362   3.5842   3.6127   3.7671   3.7907   3.8316   4.0159
  4.1684   4.1755   4.3258   4.4449   5.0355   5.1146   5.1280   5.1824
  5.1858   5.1867   5.2260   5.2869   5.3967   5.5085   5.5092   5.6101
  5.6277   5.9147   5.9858   6.0605   6.4028   6.6922   6.8987   6.9419
  7.0301   7.0332   7.1502   7.2382   7.2423   7.3168   7.3721   7.5692
  7.6721   7.7398   7.7811  25.0862  50.5342  50.7052
 --------------------------------------------------------------
 
          Ground-State Mulliken Net Atomic Charges

     Atom                 Charge (a.u.)
  ----------------------------------------
      1 H                     0.204572
      2 C                     0.236676
      3 O                    -0.479155
      4 O                    -0.315504
      5 H                     0.353410
  ----------------------------------------
  Sum of atomic charges =     0.000000

 -----------------------------------------------------------------
                    Cartesian Multipole Moments
 -----------------------------------------------------------------
    Charge (ESU x 10^10)
                 0.0000
    Dipole Moment (Debye)
         X       0.4393      Y      -1.3276      Z      -1.8829
       Tot       2.3453
    Quadrupole Moments (Debye-Ang)
        XX     -14.8298     XY      -3.1452     YY     -18.7818
        XZ      -1.6419     YZ      -5.3951     ZZ     -17.9033
    Octopole Moments (Debye-Ang^2)
       XXX     -73.4640    XXY     -27.6844    XYY     -30.2083
       YYY     -67.5326    XXZ      13.0459    XYZ      -5.3007
       YYZ       2.4660    XZZ     -31.8273    YZZ     -14.8570
       ZZZ      46.6694
    Hexadecapole Moments (Debye-Ang^3)
      XXXX    -258.9290   XXXY    -104.3481   XXYY     -87.4895
      XYYY     -98.2291   YYYY    -225.9241   XXXZ      72.5968
      XXYZ       7.4357   XYYZ      10.6860   YYYZ      12.3718
      XXZZ     -83.6992   XYZZ     -25.8159   YYZZ     -44.3408
      XZZZ      86.5353   YZZZ      25.2125   ZZZZ    -152.8902
 -----------------------------------------------------------------
 Calculating analytic gradient of the SCF energy
 Gradient of CDS energy
            1           2           3           4           5
    1   0.0000530   0.0011719   0.0000764  -0.0015163   0.0002149
    2  -0.0001092  -0.0022772  -0.0004735   0.0032433  -0.0003834
    3  -0.0000379  -0.0003324  -0.0012183   0.0015259   0.0000627
 Gradient of SCF Energy
            1           2           3           4           5
    1  -0.0039154   0.0044204  -0.0017236  -0.0054576   0.0066762
    2   0.0049792  -0.0060772   0.0047112   0.0063651  -0.0099782
    3  -0.0076814   0.0057312   0.0063756  -0.0133606   0.0089352
 Max gradient component =       1.336E-02
 RMS gradient           =       6.962E-03
 Computing fast CPCM-SWIG gradient
 Updating gradient with PCM contributions...
 -- total gradient after adding PCM contribution --
---------------------------------------------------
  Atom         X              Y              Z     
[...]
      XYYY     -98.1832   YYYY    -225.8626   XXXZ      72.5970
      XXYZ       7.4496   XYYZ      10.6762   YYYZ      12.3412
      XXZZ     -83.6892   XYZZ     -25.8041   YYZZ     -44.3168
      XZZZ      86.5321   YZZZ      25.1921   ZZZZ    -152.8978
 -----------------------------------------------------------------
 Calculating analytic gradient of the SCF energy
 Gradient of CDS energy
            1           2           3           4           5
    1   0.0000535   0.0011810   0.0000754  -0.0015254   0.0002154
    2  -0.0001097  -0.0022899  -0.0004735   0.0032566  -0.0003836
    3  -0.0000369  -0.0003392  -0.0012186   0.0015322   0.0000624
 Gradient of SCF Energy
            1           2           3           4           5
    1  -0.0037066   0.0038159  -0.0015611  -0.0049794   0.0064312
    2   0.0048949  -0.0057506   0.0046874   0.0058489  -0.0096805
    3  -0.0075496   0.0054920   0.0064593  -0.0127737   0.0083720
 Max gradient component =       1.277E-02
 RMS gradient           =       6.663E-03
 Computing fast CPCM-SWIG gradient
 Updating gradient with PCM contributions...
 -- total gradient after adding PCM contribution --
---------------------------------------------------
  Atom         X              Y              Z     
---------------------------------------------------
   1       0.000027      -0.000013      -0.000011
   2      -0.000144       0.000014       0.000093
   3      -0.000005       0.000003      -0.000084
   4       0.000363      -0.000396       0.000555
   5      -0.000242       0.000392      -0.000553
---------------------------------------------------
 Number of fixed atoms: 0
 Gradient time:  CPU 13.10 s  wall 1.82 s
Dipole drv :
gprntSymmMtrx error report: 
 Final Hessian.
            1           2           3           4           5           6
    1   0.0834430  -0.0822312   0.0846005  -0.1079411   0.0567634  -0.0717797
    2  -0.0822312   0.1506426  -0.1082918   0.0554445  -0.1424680   0.1024109
    3   0.0846005  -0.1082918   0.2077299  -0.0766901   0.1115187  -0.1820105
    4  -0.1079411   0.0554445  -0.0766901   0.3040977  -0.1703610   0.1099607
    5   0.0567634  -0.1424680   0.1115187  -0.1703610   0.5155457   0.0054143
    6  -0.0717797   0.1024109  -0.1820105   0.1099607   0.0054143   0.9639768
    7   0.0194174   0.0010364  -0.0148730  -0.0822009   0.0125024  -0.0248464
    8   0.0042588   0.0173695   0.0115775   0.0082462  -0.1199352  -0.1190132
    9  -0.0030956  -0.0103630  -0.0368716  -0.0400526  -0.0908308  -0.6768939
   10   0.0010206   0.0219850   0.0060653  -0.1051289   0.0817774   0.0001944
   11   0.0174910  -0.0237348  -0.0116569   0.0818107  -0.2184231  -0.0180078
   12  -0.0104487   0.0190730   0.0106099   0.0005450  -0.0186063  -0.1241178
   13   0.0040602   0.0037654   0.0008973  -0.0088268   0.0193178  -0.0135288
   14   0.0037180  -0.0018091  -0.0031474   0.0248596  -0.0347195   0.0291958
   15   0.0007237  -0.0028296   0.0005416   0.0062371  -0.0074956   0.0190467
            7           8           9          10          11          12
    1   0.0194174   0.0042588  -0.0030956   0.0010206   0.0174910  -0.0104487
    2   0.0010364   0.0173695  -0.0103630   0.0219850  -0.0237348   0.0190730
    3  -0.0148730   0.0115775  -0.0368716   0.0060653  -0.0116569   0.0106099
    4  -0.0822009   0.0082462  -0.0400526  -0.1051289   0.0818107   0.0005450
    5   0.0125024  -0.1199352  -0.0908308   0.0817774  -0.2184231  -0.0186063
    6  -0.0248464  -0.1190132  -0.6768939   0.0001944  -0.0180078  -0.1241178
    7   0.0423355  -0.0245503   0.0100733   0.0224184   0.0172111   0.0293429
    8  -0.0245503   0.1236340   0.1836810   0.0186513  -0.0280864  -0.0760019
    9   0.0100733   0.1836810   0.7685727   0.0345360  -0.0856224  -0.0508078
   10   0.0224184   0.0186513   0.0345360   0.1703634  -0.2186952   0.1026116
   11   0.0172111  -0.0280864  -0.0856224  -0.2186952   0.4241262  -0.0744164
   12   0.0293429  -0.0760019  -0.0508078   0.1026116  -0.0744164   0.4626222
   13  -0.0019703  -0.0066060  -0.0014612  -0.0886735   0.1021825  -0.1220509
   14  -0.0061996   0.0070182   0.0031353   0.0962816  -0.1538819   0.1499517
   15   0.0003033  -0.0002433  -0.0039994  -0.1434075   0.1897038  -0.2983071
           13          14          15
    1   0.0040602   0.0037180   0.0007237
    2   0.0037654  -0.0018091  -0.0028296
    3   0.0008973  -0.0031474   0.0005416
    4  -0.0088268   0.0248596   0.0062371
    5   0.0193178  -0.0347195  -0.0074956
    6  -0.0135288   0.0291958   0.0190467
    7  -0.0019703  -0.0061996   0.0003033
    8  -0.0066060   0.0070182  -0.0002433
    9  -0.0014612   0.0031353  -0.0039994
   10  -0.0886735   0.0962816  -0.1434075
   11   0.1021825  -0.1538819   0.1897038
   12  -0.1220509   0.1499517  -0.2983071
   13   0.0954105  -0.1186596   0.1361435
   14  -0.1186596   0.1833924  -0.1791353
   15   0.1361435  -0.1791353   0.2827182
 ----------------------------------------------------------------
             Standard Nuclear Orientation (Angstroms)
    I     Atom           X                Y                Z
 ----------------------------------------------------------------
    1      H       0.9621686072     2.1095025196    -1.8346621507
    2      C       1.4071512487     1.4958206058    -1.0486152001
    3      O       1.4206384636     1.7908817174     0.1222901401
    4      O       1.9321222613     0.3813255764    -1.5529563606
    5      H       2.3205960192    -0.1453382193    -0.8349901288
 ----------------------------------------------------------------
 Nuclear Repulsion Energy =          70.31590264 hartrees
 There are       12 alpha and       12 beta electrons
 old dipole drv.
            1           2           3           4           5           6
    1   0.1152905   0.0488346  -0.0498447   0.6898529  -0.6044310  -0.1929269
    2   0.0503173   0.0687267   0.0471440  -0.6109481   1.7564083   0.8376489
    3  -0.0472818   0.0422775  -0.0179946  -0.2058839   0.8612480   2.1373899
            7           8           9          10          11          12
    1  -0.5783127   0.1489273   0.1539117  -0.6848188   0.4213816   0.1002586
    2   0.0894881  -0.8543616  -0.6093087   0.4853150  -1.4448023  -0.2545175
    3  -0.0637081  -0.2046152  -1.7026043   0.3321258  -0.6847846  -0.7148281
           13          14          15
    1   0.4579874  -0.0147130  -0.0113983
    2  -0.0141726   0.4740300  -0.0209673
    3  -0.0152535  -0.0141251   0.2980382
 New transposed dipole drv.
            1           2           3
    1   0.1152905   0.0503173  -0.0472818
    2   0.0488346   0.0687267   0.0422775
    3  -0.0498447   0.0471440  -0.0179946
    4   0.6898529  -0.6109481  -0.2058839
    5  -0.6044310   1.7564083   0.8612480
    6  -0.1929269   0.8376489   2.1373899
    7  -0.5783127   0.0894881  -0.0637081
    8   0.1489273  -0.8543616  -0.2046152
    9   0.1539117  -0.6093087  -1.7026043
   10  -0.6848188   0.4853150   0.3321258
   11   0.4213816  -1.4448023  -0.6847846
   12   0.1002586  -0.2545175  -0.7148281
   13   0.4579874  -0.0141726  -0.0152535
   14  -0.0147130   0.4740300  -0.0141251
   15  -0.0113983  -0.0209673   0.2980382
FINAL TENSOR RESULT:
Order 2, Length 15
    Atom      X          Y          Z
     1 Order 1, Length 15
    Atom      X          Y          Z
     1    8.344303424805240e-02  -8.223124704725158e-02   8.460052126320268e-02
     2   -1.079411291262019e-01   5.676335694262638e-02  -7.177970518382618e-02
     3    1.941735279450221e-02   4.258845296565492e-03  -3.095611258067776e-03
     4    1.020587164246569e-03   1.749099480472772e-02  -1.044871764007524e-02
     5    4.060193475888577e-03   3.718049697348797e-03   7.236650151887896e-04

Order 1, Length 15
    Atom      X          Y          Z
     1   -8.223124704725158e-02   1.506425660897493e-01  -1.082918285220003e-01
     2    5.544450183897331e-02  -1.424680048564650e-01   1.024108911801034e-01
     3    1.036385644022039e-03   1.736945802750407e-02  -1.036297724477379e-02
     4    2.198499941445246e-02  -2.373482902070255e-02   1.907297315098212e-02
     5    3.765382140112152e-03  -1.809125792966359e-03  -2.829583356076358e-03

Order 1, Length 15
    Atom      X          Y          Z
     1    8.460052126320268e-02  -1.082918285220003e-01   2.077299005864127e-01
     2   -7.669009539949243e-02   1.115186551732852e-01  -1.820105309326027e-01
     3   -1.487301784038230e-02   1.157752388699977e-02  -3.687158708496265e-02
     4    6.065272503356069e-03  -1.165689417063281e-02   1.060988924444282e-02
     5    8.972993989628360e-04  -3.147418263921014e-03   5.415525261870109e-04


     2 Order 1, Length 15
    Atom      X          Y          Z
     1   -1.079411291262019e-01   5.544450183897331e-02  -7.669009539949243e-02
     2    3.040976530014288e-01  -1.703609965066885e-01   1.099606661947232e-01
     3   -8.220092923715054e-02   8.246167617945927e-03  -4.005255897041853e-02
     4   -1.051288654927079e-01   8.181069501803503e-02   5.450280543019741e-04
     5   -8.826790968438296e-03   2.485961568163847e-02   6.237071220632106e-03

Order 1, Length 15
    Atom      X          Y          Z
     1    5.676335694262638e-02  -1.424680048564650e-01   1.115186551732852e-01
     2   -1.703609965066885e-01   5.155457251083929e-01   5.414288945392780e-03
     3    1.250240300814919e-02  -1.199352066724166e-01  -9.083083978378720e-02
     4    8.177736482885081e-02  -2.184231206727197e-01  -1.860630774125338e-02
     5    1.931782705213091e-02  -3.471946780119950e-02  -7.495569787514238e-03

Order 1, Length 15
    Atom      X          Y          Z
     1   -7.177970518382618e-02   1.024108911801034e-01  -1.820105309326027e-01
     2    1.099606661947232e-01   5.414288945392780e-03   9.639768270215745e-01
     3   -2.484642933055711e-02  -1.190132490863689e-01  -6.768938529859436e-01
     4    1.943561673599245e-04  -1.800783131869219e-02  -1.241177832892089e-01
     5   -1.352879865060558e-02   2.919579594702245e-02   1.904669724303919e-02


     3 Order 1, Length 15
    Atom      X          Y          Z
     1    1.941735279450221e-02   1.036385644022039e-03  -1.487301784038230e-02
     2   -8.220092923715054e-02   1.250240300814919e-02  -2.484642933055711e-02
     3    4.233551251152438e-02  -2.455030633716793e-02   1.007329351354515e-02
     4    2.241838247039485e-02   1.721109947233318e-02   2.934289139400011e-02
     5   -1.970293611613582e-03  -6.199593114843737e-03   3.032803905250163e-04

Order 1, Length 15
    Atom      X          Y          Z
     1    4.258845296565492e-03   1.736945802750407e-02   1.157752388699977e-02
     2    8.246167617945927e-03  -1.199352066724166e-01  -1.190132490863689e-01
     3   -2.455030633716793e-02   1.236340109461470e-01   1.836809845641755e-01
     4    1.865128705415524e-02  -2.808639843803757e-02  -7.600194489137037e-02
     5   -6.606026060168701e-03   7.018177532751146e-03  -2.433179296538688e-04

Order 1, Length 15
    Atom      X          Y          Z
     1   -3.095611258067776e-03  -1.036297724477379e-02  -3.687158708496265e-02
     2   -4.005255897041853e-02  -9.083083978378720e-02  -6.768938529859436e-01
     3    1.007329351354515e-02   1.836809845641755e-01   7.685727056576137e-01
     4    3.453597937817948e-02  -8.562237286504970e-02  -5.080784714155211e-02
     5   -1.461189353501894e-03   3.135269551953733e-03  -3.999350458176738e-03


     4 Order 1, Length 15
    Atom      X          Y          Z
     1    1.020587164246569e-03   2.198499941445246e-02   6.065272503356069e-03
     2   -1.051288654927079e-01   8.177736482885081e-02   1.943561673599245e-04
     3    2.241838247039485e-02   1.865128705415524e-02   3.453597937817948e-02
     4    1.703634077500034e-01  -2.186951668289290e-01   1.026116472955079e-01
     5   -8.867353973870254e-02   9.628155018533624e-02  -1.434075046207882e-01

Order 1, Length 15
    Atom      X          Y          Z
     1    1.749099480472772e-02  -2.373482902070255e-02  -1.165689417063281e-02
     2    8.181069501803503e-02  -2.184231206727197e-01  -1.800783131869219e-02
     3    1.721109947233318e-02  -2.808639843803757e-02  -8.562237286504970e-02
     4   -2.186951668289290e-01   4.241262001684096e-01  -7.441637985765584e-02
     5    1.021824502327431e-01  -1.538819138248333e-01   1.897037631417219e-01

Order 1, Length 15
    Atom      X          Y          Z
     1   -1.044871764007524e-02   1.907297315098212e-02   1.060988924444282e-02
     2    5.450280543019741e-04  -1.860630774125338e-02  -1.241177832892089e-01
     3    2.934289139400011e-02  -7.600194489137037e-02  -5.080784714155211e-02
     4    1.026116472955079e-01  -7.441637985765584e-02   4.626221669278362e-01
     5   -1.220508549164515e-01   1.499516745532708e-01  -2.983071001268330e-01


     5 Order 1, Length 15
    Atom      X          Y          Z
     1    4.060193475888577e-03   3.765382140112152e-03   8.972993989628360e-04
     2   -8.826790968438296e-03   1.931782705213091e-02  -1.352879865060558e-02
     3   -1.970293611613582e-03  -6.606026060168701e-03  -1.461189353501894e-03
     4   -8.867353973870254e-02   1.021824502327431e-01  -1.220508549164515e-01
     5    9.541045702928713e-02  -1.186596400317022e-01   1.361435113715291e-01

Order 1, Length 15
    Atom      X          Y          Z
     1    3.718049697348797e-03  -1.809125792966359e-03  -3.147418263921014e-03
     2    2.485961568163847e-02  -3.471946780119950e-02   2.919579594702245e-02
     3   -6.199593114843737e-03   7.018177532751146e-03   3.135269551953733e-03
     4    9.628155018533624e-02  -1.538819138248333e-01   1.499516745532708e-01
     5   -1.186596400317022e-01   1.833923606812829e-01  -1.791353053335802e-01

Order 1, Length 15
    Atom      X          Y          Z
     1    7.236650151887896e-04  -2.829583356076358e-03   5.415525261870109e-04
     2    6.237071220632106e-03  -7.495569787514238e-03   1.904669724303919e-02
     3    3.032803905250163e-04  -2.433179296538688e-04  -3.999350458176738e-03
     4   -1.434075046207882e-01   1.897037631417219e-01  -2.983071001268330e-01
     5    1.361435113715291e-01  -1.791353053335802e-01   2.827182258478967e-01




 # Finishing finite difference calculation for IDERIV #
 ######################################################
 ######################################################
 Requested basis set is 6-311++G(2df,2p)
 There are 36 shells and 122 basis functions
 **********************************************************************
 **                                                                  **
 **                       VIBRATIONAL ANALYSIS                       **
 **                       --------------------                       **
 **                                                                  **
 **        VIBRATIONAL FREQUENCIES (CM**-1) AND NORMAL MODES         **
 **     FORCE CONSTANTS (mDYN/ANGSTROM) AND REDUCED MASSES (AMU)     **
 **                  INFRARED INTENSITIES (KM/MOL)                   **
 **                                                                  **
 **********************************************************************
 

 Mode:                 1                      2                      3
 Frequency:       628.90                 639.30                1076.83
 Force Cnst:      0.2922                 0.8691                 1.0758
 Red. Mass:       1.2538                 3.6093                 1.5747
 IR Active:          YES                    YES                    YES
 IR Intens:      252.599                 82.086                  3.181
 Raman Active:       YES                    YES                    YES
               X      Y      Z        X      Y      Z        X      Y      Z
 H          0.171  0.093 -0.026    0.122 -0.184  0.122    0.844  0.453 -0.124
 C          0.075  0.042 -0.012    0.100 -0.134  0.178   -0.187 -0.100  0.027
 O         -0.037 -0.022  0.005   -0.114  0.238  0.102    0.048  0.026 -0.007
 O         -0.083 -0.044  0.013    0.018 -0.092 -0.203    0.032  0.017 -0.005
 H          0.847  0.459 -0.121    0.215 -0.538 -0.641    0.111  0.060 -0.016
 TransDip   0.443  0.243 -0.065    0.144 -0.251  0.021    0.049  0.029 -0.006

 Mode:                 4                      5                      6
 Frequency:      1111.36                1302.67                1420.68
 Force Cnst:      2.8655                 1.6012                 1.3629
 Red. Mass:       3.9377                 1.6015                 1.1461
 IR Active:          YES                    YES                    YES
 IR Intens:      548.838                 13.520                  9.977
 Raman Active:       YES                    YES                    YES
               X      Y      Z        X      Y      Z        X      Y      Z
 H          0.198 -0.406 -0.173    0.023  0.019  0.223   -0.238  0.636  0.700
 C          0.136 -0.260 -0.023    0.095 -0.174  0.009    0.019 -0.032  0.009
 O          0.001 -0.030 -0.101   -0.020  0.041  0.015   -0.013  0.003 -0.081
 O         -0.126  0.279  0.164   -0.035  0.045 -0.072    0.010 -0.009  0.036
 H          0.167 -0.459 -0.556   -0.287  0.694  0.579    0.066 -0.152 -0.105
 TransDip   0.280 -0.612 -0.332    0.054 -0.104 -0.008    0.020 -0.010  0.099

 Mode:                 7                      8                      9
 Frequency:      1732.89                3120.90                3724.25
 Force Cnst:     13.2135                 6.2731                 8.6995
 Red. Mass:       7.4684                 1.0931                 1.0646
 IR Active:          YES                    YES                    YES
 IR Intens:      771.976                 29.728                182.085
 Raman Active:       YES                    YES                    YES
               X      Y      Z        X      Y      Z        X      Y      Z
 H          0.277 -0.524 -0.026    0.409 -0.569  0.708    0.008 -0.012  0.013
 C          0.007  0.146  0.580   -0.035  0.048 -0.064   -0.002  0.003 -0.001
 O         -0.007 -0.095 -0.396    0.000  0.000  0.004    0.000 -0.001 -0.001
 O         -0.008  0.002 -0.050    0.001 -0.001  0.001   -0.025  0.034 -0.045
 H         -0.114  0.265  0.198   -0.006  0.005 -0.022    0.405 -0.556  0.723
 TransDip  -0.115  0.426  0.773   -0.057  0.066 -0.151    0.203 -0.318  0.211

 STANDARD THERMODYNAMIC QUANTITIES AT   298.15 K  AND     1.00 ATM

   This Molecule has  0 Imaginary Frequencies
   Zero point vibrational energy:       21.097 kcal/mol

   Atom    1 Element H  Has Mass    1.00783
   Atom    2 Element C  Has Mass   12.00000
   Atom    3 Element O  Has Mass   15.99491
   Atom    4 Element O  Has Mass   15.99491
   Atom    5 Element H  Has Mass    1.00783
   Molecular Mass:    46.005480 amu
   Principal axes and moments of inertia in amu*Bohr^2:
                             1           2           3
    Eigenvalues --       23.39299   148.44601   171.83900
          X              -0.24522     0.42042     0.87356
          Y               0.65229    -0.59506     0.46949
          Z               0.71721     0.68494    -0.12831
   Rotational Symmetry Number is   1
   The Molecule is an Asymmetric Top
   Translational Enthalpy:        0.889 kcal/mol
   Rotational Enthalpy:           0.889 kcal/mol
   Vibrational Enthalpy:         21.320 kcal/mol
   gas constant (RT):             0.592 kcal/mol
   Translational Entropy:        37.404  cal/mol.K
   Rotational Entropy:           21.017  cal/mol.K
   Vibrational Entropy:           0.965  cal/mol.K

   Total Enthalpy:               23.690 kcal/mol
   Total Entropy:                59.386  cal/mol.K
 Total job time:  362.38s(wall), 2758.81s(cpu) 
 Thu May 25 14:34:52 2023

        *************************************************************
        *                                                           *
        *  Thank you very much for using Q-Chem.  Have a nice day.  *
        *                                                           *
        *************************************************************


