
Running Job 1 of 2 Q_in.in
qchem Q_in.in_386378.0 /scratch/ari.fischer/qChem1687782.hpc-mn1/qchem386378/ 0
/usr/local/qchem-5.4.1/exe/qcprog.exe_s Q_in.in_386378.0 /scratch/ari.fischer/qChem1687782.hpc-mn1/qchem386378/
                  Welcome to Q-Chem
     A Quantum Leap Into The Future Of Chemistry


 Q-Chem 5.4, Q-Chem, Inc., Pleasanton, CA (2021)

 License issued to: Nanyang Technological University (site)

 E. Epifanovsky,  A. T. B. Gilbert,  Xintian Feng,  Joonho Lee,  Yuezhi Mao,  
 N. Mardirossian,  P. Pokhilko,  A. White,  M. Wormit,  M. P. Coons,  
 A. L. Dempwolff,  Zhengting Gan,  D. Hait,  P. R. Horn,  L. D. Jacobson,  
 I. Kaliman,  J. Kussmann,  A. W. Lange,  Ka Un Lao,  D. S. Levine,  Jie Liu,  
 S. C. McKenzie,  A. F. Morrison,  K. Nanda,  F. Plasser,  D. R. Rehn,  
 M. L. Vidal,  Zhi-Qiang You,  Ying Zhu,  B. Alam,  B. Albrecht,  
 A. Aldossary,  E. Alguire,  J. H. Andersen,  D. Barton,  K. Begam,  A. Behn,  
 Y. A. Bernard,  E. J. Berquist,  H. Burton,  A. Carreras,  K. Carter-Fenk,  
 R. Chakraborty,  A. D. Chien,  K. D. Closser,  V. Cofer-Shabica,  
 S. Dasgupta,  Jia Deng,  M. de Wergifosse,  M. Diedenhofen,  Hainam Do,  
 S. Ehlert,  Po-Tung Fang,  S. Fatehi,  Qingguo Feng,  T. Friedhoff,  
 J. Gayvert,  Qinghui Ge,  G. Gidofalvi,  M. Goldey,  J. Gomes,  
 C. Gonzalez-Espinoza,  S. Gulania,  A. Gunina,  M. W. D. Hanson-Heine,  
 P. H. P. Harbach,  A. W. Hauser,  M. F. Herbst,  M. Hernandez Vera,  
 M. Hodecker,  Z. C. Holden,  S. Houck,  Xunkun Huang,  Kerwin Hui,  
 B. C. Huynh,  M. Ivanov,  Hyunjun Ji,  Hanjie Jiang,  B. Kaduk,  S. Kaehler,  
 K. Khistyaev,  Jaehoon Kim,  P. Klunzinger,  Z. Koczor-Benda,  
 Joong Hoon Koh,  D. Kosenkov,  L. Koulias,  T. Kowalczyk,  C. M. Krauter,  
 K. Kue,  A. Kunitsa,  T. Kus,  A. Landau,  K. V. Lawler,  D. Lefrancois,  
 S. Lehtola,  Rain Li,  Yi-Pei Li,  Jiashu Liang,  M. Liebenthal,  
 Hung-Hsuan Lin,  You-Sheng Lin,  Fenglai Liu,  Kuan-Yu Liu,  
 M. Loipersberger,  A. Luenser,  A. Manjanath,  P. Manohar,  E. Mansoor,  
 S. F. Manzer,  Shan-Ping Mao,  A. V. Marenich,  T. Markovich,  S. Mason,  
 S. A. Maurer,  P. F. McLaughlin,  M. F. S. J. Menger,  J.-M. Mewes,  
 S. A. Mewes,  P. Morgante,  J. W. Mullinax,  K. J. Oosterbaan,  G. Paran,  
 Alexander C. Paul,  Suranjan K. Paul,  F. Pavosevic,  Zheng Pei,  S. Prager,  
 E. I. Proynov,  E. Ramos,  B. Rana,  A. E. Rask,  A. Rettig,  R. M. Richard,  
 F. Rob,  E. Rossomme,  T. Scheele,  M. Scheurer,  M. Schneider,  
 N. Sergueev,  S. M. Sharada,  W. Skomorowski,  D. W. Small,  C. J. Stein,  
 Yu-Chuan Su,  E. J. Sundstrom,  Zhen Tao,  J. Thirman,  T. Tsuchimochi,  
 N. M. Tubman,  S. P. Veccham,  O. Vydrov,  J. Wenzel,  J. Witte,  A. Yamada,  
 Kun Yao,  S. Yeganeh,  S. R. Yost,  A. Zech,  Igor Ying Zhang,  Xing Zhang,  
 Yu Zhang,  D. Zuev,  A. Aspuru-Guzik,  A. T. Bell,  N. A. Besley,  
 K. B. Bravaya,  B. R. Brooks,  D. Casanova,  Jeng-Da Chai,  S. Coriani,  
 C. J. Cramer,  A. E. DePrince, III,  R. A. DiStasio Jr.,  A. Dreuw,  
 B. D. Dunietz,  T. R. Furlani,  W. A. Goddard III,  S. Grimme,  
 S. Hammes-Schiffer,  T. Head-Gordon,  W. J. Hehre,  Chao-Ping Hsu,  
 T.-C. Jagau,  Yousung Jung,  A. Klamt,  Jing Kong,  D. S. Lambrecht,  
 WanZhen Liang,  N. J. Mayhall,  C. W. McCurdy,  J. B. Neaton,  
 C. Ochsenfeld,  J. A. Parkhill,  R. Peverati,  V. A. Rassolov,  Yihan Shao,  
 L. V. Slipchenko,  T. Stauch,  R. P. Steele,  J. E. Subotnik,  
 A. J. W. Thom,  A. Tkatchenko,  D. G. Truhlar,  T. Van Voorhis,  
 T. A. Wesolowski,  K. B. Whaley,  H. L. Woodcock III,  P. M. Zimmerman,  
 S. Faraji,  P. M. W. Gill,  M. Head-Gordon,  J. M. Herbert,  A. I. Krylov

 Additional authors for Version 5.4.1: 
 S. Kotaru,  Shaozhi Li,  Xiangyuan Li,  F. Matz,  A. Molle,  Haisheng Ren,  
 Yingli Su,  Hung-Yi Tsai,  C. Utku,  Fang Wang

 Contributors to earlier versions of Q-Chem not listed above: 
 R. D. Adamson,  B. Austin,  R. Baer,  J. Baker,  G. J. O. Beran,  
 K. Brandhorst,  S. T. Brown,  E. F. C. Byrd,  A. K. Chakraborty,  
 G. K. L. Chan,  Chun-Min Chang,  Yunqing Chen,  C.-L. Cheng,  
 Siu Hung Chien,  D. M. Chipman,  D. L. Crittenden,  H. Dachsel,  
 R. J. Doerksen,  A. D. Dutoi,  R. G. Edgar,  J. Fosso-Tande,  
 L. Fusti-Molnar,  D. Ghosh,  A. Ghysels,  A. Golubeva-Zadorozhnaya,  
 J. Gonthier,  M. S. Gordon,  S. R. Gwaltney,  G. Hawkins,  J. E. Herr,  
 A. Heyden,  S. Hirata,  E. G. Hohenstein,  G. Kedziora,  F. J. Keil,  
 C. Kelley,  Jihan Kim,  R. A. King,  R. Z. Khaliullin,  P. P. Korambath,  
 W. Kurlancheek,  A. Laurent,  A. M. Lee,  M. S. Lee,  S. V. Levchenko,  
 Ching Yeh Lin,  D. Liotard,  E. Livshits,  R. C. Lochan,  I. Lotan,  
 L. A. Martinez-Martinez,  P. E. Maslen,  N. Nair,  D. P. O'Neill,  
 D. Neuhauser,  E. Neuscamman,  C. M. Oana,  R. Olivares-Amaya,  R. Olson,  
 T. M. Perrine,  B. Peters,  P. A. Pieniazek,  A. Prociuk,  Y. M. Rhee,  
 J. Ritchie,  M. A. Rohrdanz,  E. Rosta,  N. J. Russ,  H. F. Schaefer III,  
 M. W. Schmidt,  N. E. Schultz,  S. Sharma,  N. Shenvi,  C. D. Sherrill,  
 A. C. Simmonett,  A. Sodt,  T. Stein,  D. Stuck,  K. S. Thanthiriwatte,  
 V. Vanovschi,  L. Vogt,  Tao Wang,  A. Warshel,  M. A. Watson,  
 C. F. Williams,  Q. Wu,  X. Xu,  Jun Yang,  W. Zhang,  Yan Zhao

 Please cite Q-Chem as follows:
 Y. Shao et al., Mol. Phys. 113, 184-215 (2015)
 DOI: 10.1080/00268976.2014.952696

 Q-Chem 5.4.1 for Intel X86 EM64T Linux

 Parts of Q-Chem use Armadillo 9.800.1 (Horizon Scraper).
 http://arma.sourceforge.net/

 Q-Chem begins on Fri Aug 18 14:48:02 2023  

 Host: 
0

     Scratch files written to /scratch/ari.fischer/qChem1687782.hpc-mn1/qchem386378//
 Aug1521 |scratch|qcdevops|jenkins|workspace|build_RNUM 8249   
 Processing $rem in /usr/local/qchem-5.4.1/config/preferences:
 Processing $rem in /home/ari.fischer/.qchemrc:
 Symmetry turned off for PCM/SM12/SMD calculation


!!********************************************.
!!******************Warning*******************.
!!Desired Analytical derivatives not available.
!!Finite difference job might take a long time.
!!********************************************.
!!********************************************.


 2-order derivative to be evaluated numerically with 1-order analytical derivatives

 Checking the input file for inconsistencies... 	...done.

--------------------------------------------------------------
User input:
--------------------------------------------------------------
$molecule
0 3
O         0.5453964939    0.3184922832    0.7150050378
O         0.6859044353   -0.7881363120    1.1488052394
H         2.0060155610   -1.1190209994    3.2414712730
O         2.5405698743   -1.5906114977    3.8882252731
H         3.3883004354   -1.1347333741    3.8738896766
$end

$rem
BASIS = 6-311++G(2df,2p)
GUI = 2
JOB_TYPE = Frequency
METHOD = wB97M-V
SOLVENT_METHOD = SMD
SCF_ALGORITHM = DIIS_GDM
MAX_SCF_CYCLES = 400
SCF_CONVERGENCE = 7
THRESH = 12
$end

--------------------------------------------------------------
 ----------------------------------------------------------------
             Standard Nuclear Orientation (Angstroms)
    I     Atom           X                Y                Z
 ----------------------------------------------------------------
    1      O       0.5453964939     0.3184922832     0.7150050378
    2      O       0.6859044353    -0.7881363120     1.1488052394
    3      H       2.0060155610    -1.1190209994     3.2414712730
    4      O       2.5405698743    -1.5906114977     3.8882252731
    5      H       3.3883004354    -1.1347333741     3.8738896766
 ----------------------------------------------------------------
 Nuclear Repulsion Energy =          60.47858856 hartrees
 There are       14 alpha and       12 beta electrons
 Requested basis set is 6-311++G(2df,2p)
 There are 36 shells and 122 basis functions

 Total QAlloc Memory Limit 288000 MB
 Mega-Array Size       188 MB
 MEM_STATIC part       192 MB
 
 Citation of the SMD model:
 Marenich, A.V.; Cramer, C.J.; Truhlar, D.G.
 J. Phys. Chem. B 2009, 113, 6378-6396.
 iSolventCode=           1
 Solvent: water                                                           
 
 vradii
            1           2           3           4           5
    1   1.5200000   1.5200000   1.2000000   1.5200000   1.2000000
 Changing PCM_VDW_RADII to SMD_RADIUS
 Discretize the solute cavity surface with Lebedev spheres
	Using 110 Lebedev grid points for each H atom
	Using 194 Lebedev grid points for other atoms
	Atomic van der Waals radii will be scaled by 1.20
 Remove points where switching function is < 1.0e-08
 Keep 589 surface tesserae and discard 213 interior tesserae
 Molecular Surface Area = 74.897 Angst**2

                       Distance Matrix (Angstroms)
             O (  1)   O (  2)   H (  3)   O (  4)
   O (  2)  1.196893
   H (  3)  3.253135  2.496283
   O (  4)  4.206509  3.404140  0.962516
   H (  5)  4.491383  3.853461  1.520168  0.962641
 
 A cutoff of  1.0D-12 yielded    591 shell pairs
 There are      6697 function pairs (      8392 Cartesian)
 Smallest overlap matrix eigenvalue = 5.76E-04
 Guess from superposition of atomic densities
 Warning:  Energy on first SCF cycle will be non-variational
 SAD guess density has 26.000000 electrons

 -----------------------------------------------------------------------
  General SCF calculation program by
  Eric Jon Sundstrom, Paul Horn, Yuezhi Mao, Dmitri Zuev, Alec White,
  David Stuck, Shaama M.S., Shane Yost, Joonho Lee, David Small,
  Daniel Levine, Susi Lehtola, Hugh Burton, Evgeny Epifanovsky,
  Bang C. Huynh
 -----------------------------------------------------------------------
 Exchange:     0.1500 Hartree-Fock + 1.0000 wB97M-V + LR-HF
 Correlation:  1.0000 wB97M-V
 Using SG-2 standard quadrature grid
 Nonlocal Correlation:  VV10 with C = 0.0100 and b = 6.00 and scale = 1.00000
 Grid used for NLC:  SG-1 standard quadrature
 using 8 threads for integral computing
 -------------------------------------------------------
 OpenMP Integral computing Module                
 Release: version 1.0, May 2013, Q-Chem Inc. Pittsburgh 
 -------------------------------------------------------
 
 Citation of the SMD model:
 Marenich, A.V.; Cramer, C.J.; Truhlar, D.G.
 J. Phys. Chem. B 2009, 113, 6378-6396.
 iSolventCode=           1
 Solvent: water                                                           
 
 vradii
            1           2           3           4           5
    1   1.5200000   1.5200000   1.2000000   1.5200000   1.2000000
 -------------------------------------------------------
 OpenMP BLAS3 based DFT computing Module                
 Release: version 1.0, May 2013, Q-Chem Inc. Pittsburgh 
 -------------------------------------------------------
 A unrestricted SCF calculation will be
 performed using DIIS, GDM
 SCF converges when RMS gradient is below 1.0e-07
 ---------------------------------------
  Cycle       Energy         DIIS error
 ---------------------------------------
    1    -226.7242365935      2.01e-02  
    2    -226.7075725383      3.52e-03  Done DIIS. Switching to GDM
 ---------------------------------------
  Cycle       Energy        RMS Gradient
 ---------------------------------------
    1    -226.7075725383      1.02e-01   Descent step
    2    -226.7684392261      3.31e-02   Normal BFGS step
    3    -226.7779787985      1.11e-02   Normal BFGS step
    4    -226.7787300767      3.69e-03   Normal BFGS step
    5    -226.7788065744      1.83e-03   Normal BFGS step
    6    -226.7788098503      1.87e-03   Normal BFGS step
    7    -226.7788155768      1.21e-04   Normal BFGS step
    8    -226.7788157551      4.21e-05   Normal BFGS step
    9    -226.7788157730      3.07e-05   Normal BFGS step
   10    -226.7788157754      1.57e-05   Normal BFGS step
   11    -226.7788157759      4.00e-06   Normal BFGS step
   12    -226.7788157759      1.28e-06   Normal BFGS step
   13    -226.7788157760      7.71e-07   Normal BFGS step
   14    -226.7788157760      3.55e-07   Normal BFGS step
   15    -226.7788157760      9.11e-08  Convergence criterion met
 ---------------------------------------
 SCF time:   CPU 75.41s  wall 10.00s 
<S^2> =          2.008349668
(3)  G-ENP(liq) elect-nuc-pol free energy of system     -226.778815776 a.u.
(4)  G-CDS(liq) cavity-dispersion-solvent structure 
     free energy                                                1.1642 kcal/mol
(6)  G-S(liq) free energy of system                     -226.776960552 a.u.
 SCF   energy in the final basis set =     -226.7769605524
 Total energy in the final basis set =     -226.7769605524
 
 --------------------------------------------------------------
 
                    Orbital Energies (a.u.)
 --------------------------------------------------------------
 
 Alpha MOs
 -- Occupied --
-19.4896 -19.4895 -19.3329  -1.4419  -1.1390  -0.9597  -0.6783  -0.6776
 -0.6660  -0.6328  -0.5080  -0.4315  -0.4094  -0.4092
 -- Virtual --
  0.0340   0.0702   0.1358   0.1645   0.1712   0.1958   0.2125   0.2194
  0.2207   0.2410   0.2642   0.2673   0.2944   0.3474   0.3587   0.3789
  0.4185   0.6027   0.6511   0.7312   0.7995   0.8437   0.9363   0.9852
  0.9905   1.0270   1.0414   1.0488   1.0877   1.1022   1.1136   1.1235
  1.2863   1.3187   1.3515   1.3824   1.3996   1.4100   1.4862   1.5328
  1.5924   1.7194   1.7549   1.8763   1.9169   2.0015   2.2678   2.3192
  2.3395   2.3442   2.3619   2.5506   2.5762   2.9490   3.7014   3.7348
  3.7473   3.9703   4.1708   4.3043   4.5372   4.5459   4.5689   4.5752
  4.8679   4.8901   4.8913   4.9556   4.9902   5.0612   5.0902   5.1034
  5.1291   5.1354   5.1508   5.1521   5.2326   5.3286   5.3372   5.4924
  5.5866   5.7265   5.7534   5.7546   5.8315   6.6150   6.6335   6.7895
  6.8010   6.8230   6.8243   6.8574   6.9725   6.9743   7.0017   7.0366
  7.1131   7.1621   7.3491   7.3520   7.4144   7.4709   7.6507   8.0889
  8.1038  50.3741  50.4764  50.5295
 
 Beta MOs
 -- Occupied --
-19.4594 -19.4591 -19.3329  -1.3857  -1.1389  -0.8729  -0.6354  -0.6187
 -0.5718  -0.5717  -0.5076  -0.4313
 -- Virtual --
 -0.0125  -0.0116   0.0345   0.0709   0.1390   0.1688   0.1751   0.1997
  0.2151   0.2213   0.2242   0.2468   0.2671   0.2717   0.2975   0.3537
  0.3617   0.4162   0.4233   0.6029   0.6515   0.7312   0.7999   0.8445
  0.9384   0.9890   1.0024   1.0519   1.0670   1.0787   1.1093   1.1165
  1.1327   1.1477   1.3165   1.3556   1.3731   1.4127   1.4313   1.4384
  1.4919   1.5515   1.6225   1.7787   1.8065   1.8766   1.9203   2.0017
  2.2687   2.3529   2.3581   2.3736   2.3841   2.5508   2.5973   2.9491
  3.7015   3.7347   3.7473   3.9703   4.1713   4.3055   4.5934   4.6010
  4.6201   4.6263   4.9048   4.9704   4.9714   5.0532   5.0827   5.1033
  5.1269   5.1470   5.1698   5.1824   5.2321   5.2357   5.2385   5.3363
  5.3814   5.4931   5.5867   5.7267   5.8144   5.8149   5.8326   6.7505
  6.7685   6.9004   6.9013   6.9133   6.9237   6.9337   6.9986   7.0298
  7.0535   7.0605   7.1171   7.1645   7.4011   7.4038   7.4148   7.4713
  7.6510   8.1211   8.1561  50.3981  50.4765  50.5534
 --------------------------------------------------------------
 
          Ground-State Mulliken Net Atomic Charges

     Atom                 Charge (a.u.)    Spin (a.u.)
  --------------------------------------------------------
      1 O                     0.012488       1.001779
      2 O                    -0.002402       0.996715
      3 H                     0.323952      -0.000908
      4 O                    -0.667219       0.002231
      5 H                     0.333180       0.000183
  --------------------------------------------------------
  Sum of atomic charges =     0.000000
  Sum of spin   charges =     2.000000

 -----------------------------------------------------------------
                    Cartesian Multipole Moments
 -----------------------------------------------------------------
    Charge (ESU x 10^10)
                 0.0000
    Dipole Moment (Debye)
         X       0.6448      Y       1.9794      Z      -1.4277
       Tot       2.5243
    Quadrupole Moments (Debye-Ang)
        XX     -11.5954     XY       4.4176     YY     -23.5321
        XZ       0.0187     YZ       9.1530     ZZ     -27.8533
    Octopole Moments (Debye-Ang^2)
       XXX     -41.5658    XXY      20.1897    XYY     -38.9427
       YYY      53.6944    XXZ     -18.8219    XYZ      19.0440
       YYZ     -60.9062    XZZ     -33.2695    YZZ      53.3637
       ZZZ    -169.9087
    Hexadecapole Moments (Debye-Ang^3)
      XXXX    -170.9083   XXXY      88.2372   XXYY    -108.2726
      XYYY     123.3798   YYYY    -167.3855   XXXZ    -110.1045
      XXYZ      74.2594   XYYZ    -132.1917   YYYZ     189.1298
      XXZZ    -115.1541   XYZZ     111.0216   YYZZ    -236.6074
      XZZZ    -295.9377   YZZZ     310.5454   ZZZZ   -1004.2959
 -----------------------------------------------------------------
 Calculating analytic gradient of the SCF energy
 Gradient of CDS energy
            1           2           3           4           5
    1   0.0000000  -0.0001289  -0.0002411  -0.0000767   0.0004466
    2   0.0000000   0.0000323   0.0000860  -0.0002273   0.0001090
    3   0.0000000  -0.0002043  -0.0000635   0.0001620   0.0001058
 Gradient of SCF Energy
            1           2           3           4           5
    1  -0.0005567   0.0002932  -0.0036698  -0.0063542   0.0102875
    2   0.0078991  -0.0080057   0.0088770  -0.0174310   0.0086605
    3  -0.0024700   0.0020076  -0.0085442   0.0119302  -0.0029237
 Max gradient component =       1.743E-02
 RMS gradient           =       8.076E-03
 Computing fast CPCM-SWIG gradient
 Updating gradient with PCM contributions...
 -- total gradient after adding PCM contribution --
---------------------------------------------------
  Atom         X              Y              Z     
---------------------------------------------------
   1      -0.000030       0.000282      -0.000206
   2       0.000084      -0.000328       0.000209
   3       0.000003       0.000008       0.000175
   4      -0.000065       0.000079      -0.000161
   5       0.000008      -0.000040      -0.000018
---------------------------------------------------
 Number of fixed atoms: 0
 Gradient time:  CPU 10.67 s  wall 1.49 s
 ######################################################
 ######################################################
 # Starting finite difference calculation for IDERIV  #
 Finite diff step size:  1.88973e-03 a.u.
 ----------------------------------------------------------------
             Standard Nuclear Orientation (Angstroms)
    I     Atom           X                Y                Z
 ----------------------------------------------------------------
    1      O       0.5463964939     0.3184922832     0.7150050378
    2      O       0.6859044353    -0.7881363120     1.1488052394
    3      H       2.0060155610    -1.1190209994     3.2414712730
    4      O       2.5405698743    -1.5906114977     3.8882252731
    5      H       3.3883004354    -1.1347333741     3.8738896766
 ----------------------------------------------------------------
 Nuclear Repulsion Energy =          60.48257459 hartrees
 There are       14 alpha and       12 beta electrons
 Discretize the solute cavity surface with Lebedev spheres
	Using 110 Lebedev grid points for each H atom
	Using 194 Lebedev grid points for other atoms
	Atomic van der Waals radii will be scaled by 1.20
 Remove points where switching function is < 1.0e-08
 Keep 589 surface tesserae and discard 213 interior tesserae
 Molecular Surface Area = 74.896 Angst**2

                       Distance Matrix (Angstroms)
             O (  1)   O (  2)   H (  3)   O (  4)
   O (  2)  1.196776
   H (  3)  3.252686  2.496283
   O (  4)  4.206035  3.404140  0.962516
   H (  5)  4.490750  3.853461  1.520168  0.962641
 
 Requested basis set is 6-311++G(2df,2p)
 There are 36 shells and 122 basis functions
 A cutoff of  1.0D-12 yielded    591 shell pairs
 There are      6697 function pairs (      8392 Cartesian)
 Smallest overlap matrix eigenvalue = 5.76E-04
 Guess MOs from SCF MO coefficient file

 -----------------------------------------------------------------------
  General SCF calculation program by
  Eric Jon Sundstrom, Paul Horn, Yuezhi Mao, Dmitri Zuev, Alec White,
  David Stuck, Shaama M.S., Shane Yost, Joonho Lee, David Small,
  Daniel Levine, Susi Lehtola, Hugh Burton, Evgeny Epifanovsky,
  Bang C. Huynh
 -----------------------------------------------------------------------
 Exchange:     0.1500 Hartree-Fock + 1.0000 wB97M-V + LR-HF
 Correlation:  1.0000 wB97M-V
 Using SG-2 standard quadrature grid
 Nonlocal Correlation:  VV10 with C = 0.0100 and b = 6.00 and scale = 1.00000
 Grid used for NLC:  SG-1 standard quadrature
 
 Citation of the SMD model:
 Marenich, A.V.; Cramer, C.J.; Truhlar, D.G.
 J. Phys. Chem. B 2009, 113, 6378-6396.
 iSolventCode=           1
 Solvent: water                                                           
 
 vradii
            1           2           3           4           5
    1   1.5200000   1.5200000   1.2000000   1.5200000   1.2000000
 -------------------------------------------------------
 OpenMP BLAS3 based DFT computing Module                
 Release: version 1.0, May 2013, Q-Chem Inc. Pittsburgh 
 -------------------------------------------------------
 A unrestricted SCF calculation will be
 performed using Roothaan-Hall, DIIS, GDM
 SCF converges when RMS gradient is below 1.0e-07
 ---------------------------------------
  Cycle       Energy         DIIS error
 ---------------------------------------
    1    -226.7606490350      4.87e-04  Roothaan Step
 ---------------------------------------
  Cycle       Energy         DIIS error
 ---------------------------------------
    1    -226.7758667200      5.37e-04  
    2    -226.7778567390      4.39e-04  Done DIIS. Switching to GDM
 ---------------------------------------
  Cycle       Energy        RMS Gradient
 ---------------------------------------
    1    -226.7778567390      1.35e-02   Normal BFGS step
    2    -226.7778079823      1.22e-02  Line search: overstep
    3    -226.7787473411      2.80e-03   Normal BFGS step
    4    -226.7788012006      1.95e-03   Normal BFGS step
    5    -226.7788089845      1.62e-03   Normal BFGS step
    6    -226.7788157143      7.53e-05   Normal BFGS step
    7    -226.7788157942      4.36e-05   Normal BFGS step
    8    -226.7788158066      2.83e-05   Normal BFGS step
    9    -226.7788158090      1.29e-05   Normal BFGS step
   10    -226.7788158094      3.93e-06   Normal BFGS step
   11    -226.7788158095      1.52e-06   Normal BFGS step
   12    -226.7788158095      9.26e-07   Normal BFGS step
   13    -226.7788158095      1.74e-07   Normal BFGS step
   14    -226.7788158095      3.36e-08  Convergence criterion met
 ---------------------------------------
 SCF time:   CPU 71.83s  wall 9.00s 
<S^2> =          2.008347874
(3)  G-ENP(liq) elect-nuc-pol free energy of system     -226.778815809 a.u.
(4)  G-CDS(liq) cavity-dispersion-solvent structure 
     free energy                                                1.1642 kcal/mol
(6)  G-S(liq) free energy of system                     -226.776960586 a.u.
 SCF   energy in the final basis set =     -226.7769605859
 Total energy in the final basis set =     -226.7769605859
 
 --------------------------------------------------------------
 
                    Orbital Energies (a.u.)
 --------------------------------------------------------------
 
 Alpha MOs
 -- Occupied --
-19.4896 -19.4895 -19.3329  -1.4420  -1.1390  -0.9597  -0.6783  -0.6776
 -0.6660  -0.6328  -0.5080  -0.4315  -0.4093  -0.4092
 -- Virtual --
  0.0340   0.0702   0.1358   0.1645   0.1713   0.1958   0.2125   0.2194
  0.2207   0.2410   0.2642   0.2673   0.2944   0.3474   0.3587   0.3790
  0.4185   0.6027   0.6511   0.7312   0.7995   0.8437   0.9363   0.9852
  0.9905   1.0270   1.0414   1.0488   1.0877   1.1022   1.1135   1.1235
  1.2863   1.3187   1.3515   1.3824   1.3997   1.4100   1.4861   1.5328
  1.5924   1.7194   1.7550   1.8763   1.9169   2.0015   2.2678   2.3194
  2.3396   2.3443   2.3619   2.5506   2.5762   2.9490   3.7014   3.7348
  3.7473   3.9703   4.1708   4.3044   4.5373   4.5460   4.5689   4.5751
  4.8678   4.8901   4.8912   4.9556   4.9902   5.0613   5.0902   5.1034
  5.1291   5.1357   5.1509   5.1521   5.2326   5.3287   5.3373   5.4924
  5.5866   5.7265   5.7537   5.7548   5.8315   6.6150   6.6335   6.7895
  6.8010   6.8234   6.8247   6.8571   6.9727   6.9745   7.0017   7.0366
  7.1131   7.1621   7.3493   7.3521   7.4144   7.4709   7.6507   8.0893
  8.1041  50.3741  50.4764  50.5299
 
 Beta MOs
 -- Occupied --
-19.4594 -19.4590 -19.3329  -1.3858  -1.1389  -0.8728  -0.6354  -0.6188
 -0.5719  -0.5717  -0.5076  -0.4313
 -- Virtual --
 -0.0124  -0.0115   0.0345   0.0709   0.1390   0.1688   0.1751   0.1997
  0.2151   0.2213   0.2242   0.2468   0.2671   0.2717   0.2975   0.3537
  0.3617   0.4162   0.4233   0.6029   0.6515   0.7312   0.7999   0.8445
  0.9384   0.9890   1.0024   1.0519   1.0670   1.0787   1.1093   1.1165
  1.1327   1.1477   1.3165   1.3556   1.3731   1.4128   1.4314   1.4385
  1.4918   1.5514   1.6225   1.7788   1.8066   1.8766   1.9203   2.0018
  2.2687   2.3530   2.3582   2.3737   2.3842   2.5508   2.5973   2.9491
  3.7015   3.7347   3.7473   3.9703   4.1713   4.3055   4.5935   4.6011
  4.6201   4.6262   4.9047   4.9703   4.9714   5.0532   5.0827   5.1033
  5.1269   5.1471   5.1699   5.1826   5.2321   5.2358   5.2386   5.3363
  5.3817   5.4931   5.5867   5.7267   5.8147   5.8152   5.8326   6.7505
  6.7686   6.9008   6.9017   6.9129   6.9237   6.9337   6.9986   7.0298
  7.0536   7.0606   7.1171   7.1645   7.4012   7.4039   7.4148   7.4713
  7.6510   8.1215   8.1563  50.3982  50.4765  50.5538
 --------------------------------------------------------------
 
          Ground-State Mulliken Net Atomic Charges

     Atom                 Charge (a.u.)    Spin (a.u.)
  --------------------------------------------------------
      1 O                     0.012474       1.001779
      2 O                    -0.002385       0.996716
      3 H                     0.323946      -0.000909
      4 O                    -0.667213       0.002232
      5 H                     0.333179       0.000183
  --------------------------------------------------------
  Sum of atomic charges =     0.000000
  Sum of spin   charges =     2.000000

 -----------------------------------------------------------------
                    Cartesian Multipole Moments
 -----------------------------------------------------------------
    Charge (ESU x 10^10)
                 0.0000
    Dipole Moment (Debye)
         X       0.6448      Y       1.9794      Z      -1.4277
       Tot       2.5243
    Quadrupole Moments (Debye-Ang)
        XX     -11.5951     XY       4.4173     YY     -23.5324
        XZ       0.0189     YZ       9.1532     ZZ     -27.8532
    Octopole Moments (Debye-Ang^2)
       XXX     -41.5805    XXY      20.1893    XYY     -38.9480
       YYY      53.6946    XXZ     -18.8215    XYZ      19.0439
       YYZ     -60.9066    XZZ     -33.2744    YZZ      53.3641
       ZZZ    -169.9084
    Hexadecapole Moments (Debye-Ang^3)
      XXXX    -170.9405   XXXY      88.2315   XXYY    -108.2788
      XYYY     123.3758   YYYY    -167.3859   XXXZ    -110.1148
      XXYZ      74.2595   XYYZ    -132.1962   YYYZ     189.1301
      XXZZ    -115.1593   XYZZ     111.0202   YYZZ    -236.6080
      XZZZ    -295.9485   YZZZ     310.5463   ZZZZ   -1004.2956
 -----------------------------------------------------------------
 Calculating analytic gradient of the SCF energy
 Gradient of CDS energy
            1           2           3           4           5
    1   0.0000000  -0.0001289  -0.0002411  -0.0000767   0.0004466
    2   0.0000000   0.0000323   0.0000860  -0.0002273   0.0001090
    3   0.0000000  -0.0002043  -0.0000635   0.0001620   0.0001058
 Gradient of SCF Energy
            1           2           3           4           5
    1  -0.0005265   0.0002629  -0.0036697  -0.0063543   0.0102876
    2   0.0077202  -0.0078272   0.0088777  -0.0174314   0.0086607
    3  -0.0023997   0.0019376  -0.0085446   0.0119304  -0.0029238
 Max gradient component =       1.743E-02
 RMS gradient           =       8.050E-03
 Computing fast CPCM-SWIG gradient
 Updating gradient with PCM contributions...
 -- total gradient after adding PCM contribution --
---------------------------------------------------
  Atom         X              Y              Z     
---------------------------------------------------
   1      -0.000006       0.000101      -0.000135
   2       0.000059      -0.000148       0.000138
   3       0.000004       0.000008       0.000175
   4      -0.000065       0.000079      -0.000161
   5       0.000008      -0.000040      -0.000018
---------------------------------------------------
 Number of fixed atoms: 0
 Gradient time:  CPU 10.27 s  wall 1.41 s
 ----------------------------------------------------------------
             Standard Nuclear Orientation (Angstroms)
    I     Atom           X                Y                Z
 ----------------------------------------------------------------
    1      O       0.5443964939     0.3184922832     0.7150050378
    2      O       0.6859044353    -0.7881363120     1.1488052394
    3      H       2.0060155610    -1.1190209994     3.2414712730
    4      O       2.5405698743    -1.5906114977     3.8882252731
    5      H       3.3883004354    -1.1347333741     3.8738896766
 ----------------------------------------------------------------
 Nuclear Repulsion Energy =          60.47458341 hartrees
 There are       14 alpha and       12 beta electrons
 Discretize the solute cavity surface with Lebedev spheres
	Using 110 Lebedev grid points for each H atom
	Using 194 Lebedev grid points for other atoms
	Atomic van der Waals radii will be scaled by 1.20
 Remove points where switching function is < 1.0e-08
 Keep 589 surface tesserae and discard 213 interior tesserae
 Molecular Surface Area = 74.898 Angst**2

                       Distance Matrix (Angstroms)
             O (  1)   O (  2)   H (  3)   O (  4)
   O (  2)  1.197010
   H (  3)  3.253584  2.496283
   O (  4)  4.206984  3.404140  0.962516
   H (  5)  4.492016  3.853461  1.520168  0.962641
 
 Requested basis set is 6-311++G(2df,2p)
 There are 36 shells and 122 basis functions
 A cutoff of  1.0D-12 yielded    591 shell pairs
 There are      6697 function pairs (      8392 Cartesian)
 Smallest overlap matrix eigenvalue = 5.76E-04
 Guess MOs from SCF MO coefficient file

 -----------------------------------------------------------------------
  General SCF calculation program by
  Eric Jon Sundstrom, Paul Horn, Yuezhi Mao, Dmitri Zuev, Alec White,
  David Stuck, Shaama M.S., Shane Yost, Joonho Lee, David Small,
  Daniel Levine, Susi Lehtola, Hugh Burton, Evgeny Epifanovsky,
  Bang C. Huynh
 -----------------------------------------------------------------------
 Exchange:     0.1500 Hartree-Fock + 1.0000 wB97M-V + LR-HF
 Correlation:  1.0000 wB97M-V
 Using SG-2 standard quadrature grid
 Nonlocal Correlation:  VV10 with C = 0.0100 and b = 6.00 and scale = 1.00000
 Grid used for NLC:  SG-1 standard quadrature
 
 Citation of the SMD model:
 Marenich, A.V.; Cramer, C.J.; Truhlar, D.G.
 J. Phys. Chem. B 2009, 113, 6378-6396.
 iSolventCode=           1
 Solvent: water                                                           
 
 vradii
            1           2           3           4           5
    1   1.5200000   1.5200000   1.2000000   1.5200000   1.2000000
 -------------------------------------------------------
 OpenMP BLAS3 based DFT computing Module                
 Release: version 1.0, May 2013, Q-Chem Inc. Pittsburgh 
 -------------------------------------------------------
 A unrestricted SCF calculation will be
 performed using Roothaan-Hall, DIIS, GDM
 SCF converges when RMS gradient is below 1.0e-07
 ---------------------------------------
  Cycle       Energy         DIIS error
 ---------------------------------------
    1    -226.7606475305      4.88e-04  Roothaan Step
 ---------------------------------------
  Cycle       Energy         DIIS error
 ---------------------------------------
    1    -226.7758672668      5.37e-04  
    2    -226.7778565193      4.39e-04  Done DIIS. Switching to GDM
 ---------------------------------------
  Cycle       Energy        RMS Gradient
 ---------------------------------------
    1    -226.7778565193      1.35e-02   Normal BFGS step
    2    -226.7778068471      1.22e-02  Line search: overstep
    3    -226.7787472487      2.80e-03   Normal BFGS step
    4    -226.7788010411      1.96e-03   Normal BFGS step
    5    -226.7788088948      1.62e-03   Normal BFGS step
    6    -226.7788156025      7.60e-05   Normal BFGS step
    7    -226.7788156813      4.40e-05   Normal BFGS step
    8    -226.7788156934      2.84e-05   Normal BFGS step
    9    -226.7788156956      1.30e-05   Normal BFGS step
   10    -226.7788156961      3.94e-06   Normal BFGS step
   11    -226.7788156961      1.54e-06   Normal BFGS step
   12    -226.7788156961      9.38e-07   Normal BFGS step
   13    -226.7788156961      1.74e-07   Normal BFGS step
   14    -226.7788156961      3.36e-08  Convergence criterion met
 ---------------------------------------
 SCF time:   CPU 74.22s  wall 9.00s 
<S^2> =          2.008351470
(3)  G-ENP(liq) elect-nuc-pol free energy of system     -226.778815696 a.u.
(4)  G-CDS(liq) cavity-dispersion-solvent structure 
     free energy                                                1.1642 kcal/mol
(6)  G-S(liq) free energy of system                     -226.776960473 a.u.
 SCF   energy in the final basis set =     -226.7769604726
 Total energy in the final basis set =     -226.7769604726
 
 --------------------------------------------------------------
 
                    Orbital Energies (a.u.)
 --------------------------------------------------------------
 
 Alpha MOs
 -- Occupied --
-19.4897 -19.4895 -19.3329  -1.4418  -1.1390  -0.9598  -0.6783  -0.6775
 -0.6660  -0.6328  -0.5080  -0.4315  -0.4094  -0.4093
 -- Virtual --
  0.0340   0.0702   0.1358   0.1645   0.1712   0.1959   0.2125   0.2194
  0.2207   0.2410   0.2642   0.2673   0.2944   0.3474   0.3587   0.3788
  0.4186   0.6027   0.6511   0.7312   0.7995   0.8437   0.9363   0.9852
  0.9904   1.0270   1.0415   1.0488   1.0877   1.1022   1.1136   1.1235
  1.2863   1.3187   1.3515   1.3823   1.3995   1.4100   1.4862   1.5329
  1.5923   1.7193   1.7549   1.8763   1.9168   2.0015   2.2678   2.3191
  2.3394   2.3441   2.3618   2.5506   2.5762   2.9490   3.7014   3.7348
  3.7473   3.9703   4.1708   4.3043   4.5370   4.5458   4.5690   4.5752
  4.8681   4.8902   4.8913   4.9556   4.9902   5.0612   5.0902   5.1034
  5.1290   5.1351   5.1508   5.1520   5.2326   5.3285   5.3371   5.4924
  5.5866   5.7265   5.7531   5.7543   5.8315   6.6150   6.6335   6.7895
  6.8010   6.8227   6.8240   6.8577   6.9724   6.9742   7.0017   7.0366
  7.1131   7.1621   7.3490   7.3519   7.4144   7.4709   7.6507   8.0884
  8.1036  50.3740  50.4764  50.5291
 
 Beta MOs
 -- Occupied --
-19.4594 -19.4591 -19.3329  -1.3856  -1.1389  -0.8729  -0.6354  -0.6187
 -0.5718  -0.5716  -0.5076  -0.4313
 -- Virtual --
 -0.0125  -0.0116   0.0345   0.0709   0.1390   0.1688   0.1751   0.1997
  0.2151   0.2212   0.2242   0.2468   0.2671   0.2717   0.2975   0.3537
  0.3616   0.4161   0.4232   0.6029   0.6515   0.7312   0.7999   0.8445
  0.9384   0.9890   1.0024   1.0520   1.0670   1.0788   1.1093   1.1165
  1.1327   1.1477   1.3165   1.3557   1.3731   1.4127   1.4313   1.4383
  1.4919   1.5515   1.6225   1.7787   1.8065   1.8766   1.9203   2.0017
  2.2687   2.3528   2.3581   2.3735   2.3840   2.5508   2.5974   2.9491
  3.7015   3.7347   3.7473   3.9703   4.1713   4.3055   4.5933   4.6009
  4.6202   4.6263   4.9049   4.9705   4.9715   5.0532   5.0827   5.1033
  5.1269   5.1470   5.1696   5.1822   5.2321   5.2356   5.2385   5.3363
  5.3811   5.4931   5.5867   5.7267   5.8141   5.8146   5.8326   6.7505
  6.7685   6.9000   6.9009   6.9136   6.9237   6.9337   6.9986   7.0298
  7.0533   7.0604   7.1171   7.1645   7.4010   7.4037   7.4148   7.4713
  7.6510   8.1206   8.1558  50.3980  50.4765  50.5530
 --------------------------------------------------------------
 
          Ground-State Mulliken Net Atomic Charges

     Atom                 Charge (a.u.)    Spin (a.u.)
  --------------------------------------------------------
      1 O                     0.012502       1.001780
      2 O                    -0.002418       0.996713
      3 H                     0.323959      -0.000907
      4 O                    -0.667225       0.002231
      5 H                     0.333181       0.000182
  --------------------------------------------------------
  Sum of atomic charges =     0.000000
  Sum of spin   charges =     2.000000

 -----------------------------------------------------------------
                    Cartesian Multipole Moments
 -----------------------------------------------------------------
    Charge (ESU x 10^10)
                 0.0000
    Dipole Moment (Debye)
         X       0.6448      Y       1.9794      Z      -1.4277
       Tot       2.5243
    Quadrupole Moments (Debye-Ang)
        XX     -11.5958     XY       4.4180     YY     -23.5318
        XZ       0.0186     YZ       9.1528     ZZ     -27.8535
    Octopole Moments (Debye-Ang^2)
       XXX     -41.5511    XXY      20.1901    XYY     -38.9373
       YYY      53.6942    XXZ     -18.8222    XYZ      19.0441
       YYZ     -60.9058    XZZ     -33.2647    YZZ      53.3634
       ZZZ    -169.9089
    Hexadecapole Moments (Debye-Ang^3)
      XXXX    -170.8761   XXXY      88.2428   XXYY    -108.2665
      XYYY     123.3837   YYYY    -167.3850   XXXZ    -110.0941
      XXYZ      74.2593   XYYZ    -132.1873   YYYZ     189.1294
      XXZZ    -115.1488   XYZZ     111.0230   YYZZ    -236.6068
      XZZZ    -295.9270   YZZZ     310.5446   ZZZZ   -1004.2961
 -----------------------------------------------------------------
 Calculating analytic gradient of the SCF energy
 Gradient of CDS energy
            1           2           3           4           5
    1   0.0000000  -0.0001289  -0.0002411  -0.0000767   0.0004466
    2   0.0000000   0.0000323   0.0000860  -0.0002273   0.0001090
    3   0.0000000  -0.0002043  -0.0000635   0.0001620   0.0001058
 Gradient of SCF Energy
            1           2           3           4           5
    1  -0.0005874   0.0003239  -0.0036698  -0.0063540   0.0102873
    2   0.0080790  -0.0081852   0.0088763  -0.0174305   0.0086604
    3  -0.0025407   0.0020781  -0.0085439   0.0119300  -0.0029236
 Max gradient component =       1.743E-02
 RMS gradient           =       8.102E-03
 Computing fast CPCM-SWIG gradient
 Updating gradient with PCM contributions...
 -- total gradient after adding PCM contribution --
---------------------------------------------------
  Atom         X              Y              Z     
---------------------------------------------------
   1      -0.000055       0.000463      -0.000276
   2       0.000108      -0.000509       0.000280
   3       0.000003       0.000008       0.000175
   4      -0.000065       0.000079      -0.000161
   5       0.000008      -0.000040      -0.000018
---------------------------------------------------
 Number of fixed atoms: 0
 Gradient time:  CPU 10.33 s  wall 1.40 s
 ----------------------------------------------------------------
             Standard Nuclear Orientation (Angstroms)
    I     Atom           X                Y                Z
 ----------------------------------------------------------------
    1      O       0.5453964939     0.3194922832     0.7150050378
    2      O       0.6859044353    -0.7881363120     1.1488052394
    3      H       2.0060155610    -1.1190209994     3.2414712730
    4      O       2.5405698743    -1.5906114977     3.8882252731
    5      H       3.3883004354    -1.1347333741     3.8738896766
 ----------------------------------------------------------------
 Nuclear Repulsion Energy =          60.45563220 hartrees
 There are       14 alpha and       12 beta electrons
 Discretize the solute cavity surface with Lebedev spheres
	Using 110 Lebedev grid points for each H atom
	Using 194 Lebedev grid points for other atoms
	Atomic van der Waals radii will be scaled by 1.20
 Remove points where switching function is < 1.0e-08
 Keep 589 surface tesserae and discard 213 interior tesserae
 Molecular Surface Area = 74.905 Angst**2

                       Distance Matrix (Angstroms)
             O (  1)   O (  2)   H (  3)   O (  4)
   O (  2)  1.197817
   H (  3)  3.253577  2.496283
   O (  4)  4.206963  3.404140  0.962516
   H (  5)  4.491706  3.853461  1.520168  0.962641
 
 Requested basis set is 6-311++G(2df,2p)
 There are 36 shells and 122 basis functions
 A cutoff of  1.0D-12 yielded    591 shell pairs
 There are      6697 function pairs (      8392 Cartesian)
 Smallest overlap matrix eigenvalue = 5.79E-04
 Guess MOs from SCF MO coefficient file

 -----------------------------------------------------------------------
  General SCF calculation program by
  Eric Jon Sundstrom, Paul Horn, Yuezhi Mao, Dmitri Zuev, Alec White,
  David Stuck, Shaama M.S., Shane Yost, Joonho Lee, David Small,
  Daniel Levine, Susi Lehtola, Hugh Burton, Evgeny Epifanovsky,
  Bang C. Huynh
 -----------------------------------------------------------------------
 Exchange:     0.1500 Hartree-Fock + 1.0000 wB97M-V + LR-HF
 Correlation:  1.0000 wB97M-V
 Using SG-2 standard quadrature grid
 Nonlocal Correlation:  VV10 with C = 0.0100 and b = 6.00 and scale = 1.00000
 Grid used for NLC:  SG-1 standard quadrature
 
 Citation of the SMD model:
 Marenich, A.V.; Cramer, C.J.; Truhlar, D.G.
 J. Phys. Chem. B 2009, 113, 6378-6396.
 iSolventCode=           1
 Solvent: water                                                           
 
 vradii
            1           2           3           4           5
    1   1.5200000   1.5200000   1.2000000   1.5200000   1.2000000
 -------------------------------------------------------
 OpenMP BLAS3 based DFT computing Module                
 Release: version 1.0, May 2013, Q-Chem Inc. Pittsburgh 
 -------------------------------------------------------
 A unrestricted SCF calculation will be
 performed using Roothaan-Hall, DIIS, GDM
 SCF converges when RMS gradient is below 1.0e-07
 ---------------------------------------
  Cycle       Energy         DIIS error
 ---------------------------------------
    1    -226.7606492672      4.88e-04  Roothaan Step
 ---------------------------------------
  Cycle       Energy         DIIS error
 ---------------------------------------
    1    -226.7758663567      5.37e-04  
    2    -226.7778547276      4.39e-04  Done DIIS. Switching to GDM
 ---------------------------------------
  Cycle       Energy        RMS Gradient
 ---------------------------------------
    1    -226.7778547276      1.35e-02   Normal BFGS step
    2    -226.7778046127      1.21e-02  Line search: overstep
    3    -226.7787453786      2.80e-03   Normal BFGS step
    4    -226.7787991641      1.98e-03   Normal BFGS step
    5    -226.7788070901      1.62e-03   Normal BFGS step
    6    -226.7788138101      7.59e-05   Normal BFGS step
    7    -226.7788138896      4.39e-05   Normal BFGS step
    8    -226.7788139019      2.81e-05   Normal BFGS step
    9    -226.7788139042      1.27e-05   Normal BFGS step
   10    -226.7788139047      3.90e-06   Normal BFGS step
   11    -226.7788139047      1.52e-06   Normal BFGS step
   12    -226.7788139047      9.34e-07   Normal BFGS step
   13    -226.7788139047      1.72e-07   Normal BFGS step
   14    -226.7788139047      3.54e-08  Convergence criterion met
 ---------------------------------------
 SCF time:   CPU 72.13s  wall 9.00s 
<S^2> =          2.008363878
(3)  G-ENP(liq) elect-nuc-pol free energy of system     -226.778813905 a.u.
(4)  G-CDS(liq) cavity-dispersion-solvent structure 
     free energy                                                1.1642 kcal/mol
(6)  G-S(liq) free energy of system                     -226.776958681 a.u.
 SCF   energy in the final basis set =     -226.7769586812
 Total energy in the final basis set =     -226.7769586812
 
 --------------------------------------------------------------
 
                    Orbital Energies (a.u.)
 --------------------------------------------------------------
 
 Alpha MOs
 -- Occupied --
-19.4898 -19.4896 -19.3329  -1.4412  -1.1390  -0.9600  -0.6780  -0.6773
 -0.6659  -0.6328  -0.5080  -0.4315  -0.4097  -0.4096
 -- Virtual --
  0.0340   0.0702   0.1357   0.1645   0.1713   0.1958   0.2125   0.2194
  0.2207   0.2410   0.2642   0.2673   0.2944   0.3471   0.3587   0.3780
  0.4185   0.6027   0.6511   0.7312   0.7995   0.8437   0.9364   0.9852
  0.9904   1.0270   1.0416   1.0490   1.0877   1.1022   1.1136   1.1235
  1.2864   1.3189   1.3516   1.3820   1.3991   1.4099   1.4861   1.5328
  1.5923   1.7190   1.7546   1.8763   1.9168   2.0015   2.2677   2.3178
  2.3388   2.3436   2.3616   2.5506   2.5762   2.9490   3.7014   3.7348
  3.7473   3.9703   4.1708   4.3043   4.5363   4.5451   4.5694   4.5756
  4.8687   4.8907   4.8918   4.9556   4.9902   5.0612   5.0901   5.1034
  5.1288   5.1332   5.1503   5.1516   5.2326   5.3274   5.3364   5.4924
  5.5866   5.7264   5.7512   5.7524   5.8315   6.6150   6.6335   6.7894
  6.8009   6.8201   6.8215   6.8598   6.9715   6.9732   7.0016   7.0365
  7.1131   7.1621   7.3481   7.3510   7.4144   7.4709   7.6507   8.0853
  8.1021  50.3735  50.4764  50.5262
 
 Beta MOs
 -- Occupied --
-19.4595 -19.4592 -19.3329  -1.3850  -1.1389  -0.8732  -0.6354  -0.6186
 -0.5715  -0.5713  -0.5076  -0.4313
 -- Virtual --
 -0.0128  -0.0119   0.0345   0.0709   0.1390   0.1689   0.1751   0.1997
  0.2151   0.2213   0.2242   0.2468   0.2671   0.2717   0.2975   0.3536
  0.3617   0.4156   0.4226   0.6029   0.6515   0.7312   0.7999   0.8445
  0.9384   0.9890   1.0023   1.0522   1.0671   1.0788   1.1094   1.1165
  1.1327   1.1477   1.3166   1.3559   1.3732   1.4127   1.4311   1.4379
  1.4918   1.5514   1.6225   1.7784   1.8062   1.8766   1.9203   2.0017
  2.2687   2.3520   2.3576   2.3728   2.3833   2.5508   2.5973   2.9491
  3.7015   3.7347   3.7473   3.9703   4.1713   4.3055   4.5925   4.6001
  4.6206   4.6267   4.9054   4.9710   4.9720   5.0532   5.0827   5.1033
  5.1269   5.1470   5.1687   5.1811   5.2319   5.2352   5.2382   5.3363
  5.3794   5.4931   5.5867   5.7267   5.8123   5.8128   5.8325   6.7505
  6.7685   6.8973   6.8983   6.9157   6.9237   6.9336   6.9985   7.0296
  7.0523   7.0597   7.1170   7.1645   7.4003   7.4030   7.4148   7.4713
  7.6510   8.1174   8.1543  50.3976  50.4765  50.5501
 --------------------------------------------------------------
 
          Ground-State Mulliken Net Atomic Charges

     Atom                 Charge (a.u.)    Spin (a.u.)
  --------------------------------------------------------
      1 O                     0.012437       1.001793
      2 O                    -0.002347       0.996704
      3 H                     0.323942      -0.000908
      4 O                    -0.667214       0.002229
      5 H                     0.333182       0.000183
  --------------------------------------------------------
  Sum of atomic charges =     0.000000
  Sum of spin   charges =     2.000000

 -----------------------------------------------------------------
                    Cartesian Multipole Moments
 -----------------------------------------------------------------
    Charge (ESU x 10^10)
                 0.0000
    Dipole Moment (Debye)
         X       0.6448      Y       1.9794      Z      -1.4277
       Tot       2.5243
    Quadrupole Moments (Debye-Ang)
        XX     -11.5971     XY       4.4172     YY     -23.5307
        XZ       0.0190     YZ       9.1516     ZZ     -27.8544
    Octopole Moments (Debye-Ang^2)
       XXX     -41.5688    XXY      20.1844    XYY     -38.9415
       YYY      53.6775    XXZ     -18.8230    XYZ      19.0426
       YYZ     -60.9040    XZZ     -33.2696    YZZ      53.3562
       ZZZ    -169.9115
    Hexadecapole Moments (Debye-Ang^3)
      XXXX    -170.9142   XXXY      88.2285   XXYY    -108.2750
      XYYY     123.3698   YYYY    -167.3992   XXXZ    -110.1064
      XXYZ      74.2543   XYYZ    -132.1900   YYYZ     189.1153
      XXZZ    -115.1553   XYZZ     111.0163   YYZZ    -236.6076
      XZZZ    -295.9378   YZZZ     310.5297   ZZZZ   -1004.3015
 -----------------------------------------------------------------
 Calculating analytic gradient of the SCF energy
 Gradient of CDS energy
            1           2           3           4           5
    1   0.0000000  -0.0001289  -0.0002411  -0.0000767   0.0004466
    2   0.0000000   0.0000323   0.0000860  -0.0002273   0.0001090
    3   0.0000000  -0.0002043  -0.0000635   0.0001620   0.0001058
 Gradient of SCF Energy
            1           2           3           4           5
    1  -0.0007374   0.0004740  -0.0036708  -0.0063529   0.0102872
    2   0.0093205  -0.0094256   0.0088751  -0.0174301   0.0086601
    3  -0.0030259   0.0025636  -0.0085452   0.0119311  -0.0029236
 Max gradient component =       1.743E-02
 RMS gradient           =       8.300E-03
 Computing fast CPCM-SWIG gradient
 Updating gradient with PCM contributions...
 -- total gradient after adding PCM contribution --
---------------------------------------------------
  Atom         X              Y              Z     
---------------------------------------------------
   1      -0.000210       0.001697      -0.000760
   2       0.000264      -0.001744       0.000764
   3       0.000003       0.000008       0.000174
   4      -0.000065       0.000079      -0.000160
   5       0.000008      -0.000040      -0.000018
---------------------------------------------------
 Number of fixed atoms: 0
 Gradient time:  CPU 10.61 s  wall 1.45 s
 ----------------------------------------------------------------
             Standard Nuclear Orientation (Angstroms)
    I     Atom           X                Y                Z
 ----------------------------------------------------------------
    1      O       0.5453964939     0.3174922832     0.7150050378
    2      O       0.6859044353    -0.7881363120     1.1488052394
    3      H       2.0060155610    -1.1190209994     3.2414712730
    4      O       2.5405698743    -1.5906114977     3.8882252731
    5      H       3.3883004354    -1.1347333741     3.8738896766
 ----------------------------------------------------------------
 Nuclear Repulsion Energy =          60.50157556 hartrees
 There are       14 alpha and       12 beta electrons
 Discretize the solute cavity surface with Lebedev spheres
	Using 110 Lebedev grid points for each H atom
	Using 194 Lebedev grid points for other atoms
	Atomic van der Waals radii will be scaled by 1.20
 Remove points where switching function is < 1.0e-08
 Keep 589 surface tesserae and discard 213 interior tesserae
 Molecular Surface Area = 74.888 Angst**2

                       Distance Matrix (Angstroms)
             O (  1)   O (  2)   H (  3)   O (  4)
   O (  2)  1.195968
   H (  3)  3.252693  2.496283
   O (  4)  4.206056  3.404140  0.962516
   H (  5)  4.491059  3.853461  1.520168  0.962641
 
 Requested basis set is 6-311++G(2df,2p)
 There are 36 shells and 122 basis functions
 A cutoff of  1.0D-12 yielded    591 shell pairs
 There are      6697 function pairs (      8392 Cartesian)
 Smallest overlap matrix eigenvalue = 5.74E-04
 Guess MOs from SCF MO coefficient file

 -----------------------------------------------------------------------
  General SCF calculation program by
  Eric Jon Sundstrom, Paul Horn, Yuezhi Mao, Dmitri Zuev, Alec White,
  David Stuck, Shaama M.S., Shane Yost, Joonho Lee, David Small,
  Daniel Levine, Susi Lehtola, Hugh Burton, Evgeny Epifanovsky,
  Bang C. Huynh
 -----------------------------------------------------------------------
 Exchange:     0.1500 Hartree-Fock + 1.0000 wB97M-V + LR-HF
 Correlation:  1.0000 wB97M-V
 Using SG-2 standard quadrature grid
 Nonlocal Correlation:  VV10 with C = 0.0100 and b = 6.00 and scale = 1.00000
 Grid used for NLC:  SG-1 standard quadrature
 
 Citation of the SMD model:
 Marenich, A.V.; Cramer, C.J.; Truhlar, D.G.
 J. Phys. Chem. B 2009, 113, 6378-6396.
 iSolventCode=           1
 Solvent: water                                                           
 
 vradii
            1           2           3           4           5
    1   1.5200000   1.5200000   1.2000000   1.5200000   1.2000000
 -------------------------------------------------------
 OpenMP BLAS3 based DFT computing Module                
 Release: version 1.0, May 2013, Q-Chem Inc. Pittsburgh 
 -------------------------------------------------------
 A unrestricted SCF calculation will be
 performed using Roothaan-Hall, DIIS, GDM
 SCF converges when RMS gradient is below 1.0e-07
 ---------------------------------------
  Cycle       Energy         DIIS error
 ---------------------------------------
    1    -226.7606460547      4.88e-04  Roothaan Step
 ---------------------------------------
  Cycle       Energy         DIIS error
 ---------------------------------------
    1    -226.7758633412      5.37e-04  
    2    -226.7778553404      4.39e-04  Done DIIS. Switching to GDM
 ---------------------------------------
  Cycle       Energy        RMS Gradient
 ---------------------------------------
    1    -226.7778553404      1.36e-02   Normal BFGS step
    2    -226.7778073132      1.22e-02  Line search: overstep
    3    -226.7787465341      2.80e-03   Normal BFGS step
    4    -226.7788004279      1.94e-03   Normal BFGS step
    5    -226.7788081580      1.62e-03   Normal BFGS step
    6    -226.7788148676      7.51e-05   Normal BFGS step
    7    -226.7788149482      4.36e-05   Normal BFGS step
    8    -226.7788149608      2.89e-05   Normal BFGS step
    9    -226.7788149632      1.35e-05   Normal BFGS step
   10    -226.7788149636      4.01e-06   Normal BFGS step
   11    -226.7788149637      1.54e-06   Normal BFGS step
   12    -226.7788149637      9.34e-07   Normal BFGS step
   13    -226.7788149637      1.87e-07   Normal BFGS step
   14    -226.7788149637      3.52e-08  Convergence criterion met
 ---------------------------------------
 SCF time:   CPU 71.72s  wall 9.00s 
<S^2> =          2.008335453
(3)  G-ENP(liq) elect-nuc-pol free energy of system     -226.778814964 a.u.
(4)  G-CDS(liq) cavity-dispersion-solvent structure 
     free energy                                                1.1642 kcal/mol
(6)  G-S(liq) free energy of system                     -226.776959740 a.u.
 SCF   energy in the final basis set =     -226.7769597401
 Total energy in the final basis set =     -226.7769597401
 
 --------------------------------------------------------------
 
                    Orbital Energies (a.u.)
 --------------------------------------------------------------
 
 Alpha MOs
 -- Occupied --
-19.4895 -19.4894 -19.3329  -1.4427  -1.1390  -0.9594  -0.6786  -0.6779
 -0.6662  -0.6328  -0.5080  -0.4315  -0.4090  -0.4089
 -- Virtual --
  0.0340   0.0702   0.1358   0.1645   0.1712   0.1959   0.2125   0.2194
  0.2207   0.2410   0.2642   0.2673   0.2944   0.3477   0.3587   0.3799
  0.4186   0.6027   0.6511   0.7312   0.7995   0.8437   0.9363   0.9852
  0.9905   1.0269   1.0413   1.0487   1.0877   1.1022   1.1136   1.1235
  1.2862   1.3185   1.3514   1.3827   1.4001   1.4100   1.4862   1.5329
  1.5924   1.7197   1.7552   1.8763   1.9169   2.0015   2.2678   2.3207
  2.3403   2.3448   2.3621   2.5506   2.5763   2.9490   3.7014   3.7348
  3.7473   3.9703   4.1708   4.3043   4.5380   4.5468   4.5685   4.5747
  4.8672   4.8896   4.8907   4.9556   4.9901   5.0613   5.0902   5.1034
  5.1292   5.1377   5.1513   5.1526   5.2326   5.3296   5.3383   5.4924
  5.5866   5.7265   5.7556   5.7567   5.8315   6.6151   6.6336   6.7896
  6.8011   6.8259   6.8272   6.8549   6.9736   6.9755   7.0018   7.0366
  7.1131   7.1621   7.3501   7.3530   7.4144   7.4709   7.6507   8.0924
  8.1056  50.3746  50.4764  50.5328
 
 Beta MOs
 -- Occupied --
-19.4593 -19.4589 -19.3329  -1.3865  -1.1389  -0.8726  -0.6354  -0.6189
 -0.5722  -0.5720  -0.5076  -0.4313
 -- Virtual --
 -0.0121  -0.0113   0.0345   0.0709   0.1391   0.1688   0.1751   0.1997
  0.2151   0.2212   0.2242   0.2468   0.2671   0.2717   0.2975   0.3538
  0.3617   0.4166   0.4240   0.6029   0.6515   0.7312   0.7999   0.8445
  0.9384   0.9890   1.0025   1.0517   1.0669   1.0787   1.1093   1.1165
  1.1327   1.1477   1.3163   1.3554   1.3730   1.4128   1.4316   1.4390
  1.4919   1.5515   1.6225   1.7791   1.8069   1.8766   1.9203   2.0018
  2.2687   2.3537   2.3589   2.3744   2.3849   2.5508   2.5974   2.9491
  3.7015   3.7347   3.7473   3.9703   4.1713   4.3055   4.5943   4.6019
  4.6196   4.6258   4.9041   4.9698   4.9708   5.0532   5.0826   5.1033
  5.1269   5.1471   5.1706   5.1840   5.2322   5.2362   5.2389   5.3364
  5.3834   5.4931   5.5867   5.7267   5.8165   5.8170   5.8327   6.7506
  6.7686   6.9034   6.9043   6.9108   6.9238   6.9338   6.9986   7.0300
  7.0546   7.0613   7.1172   7.1645   7.4020   7.4047   7.4148   7.4713
  7.6510   8.1248   8.1578  50.3986  50.4765  50.5567
 --------------------------------------------------------------
 
          Ground-State Mulliken Net Atomic Charges

     Atom                 Charge (a.u.)    Spin (a.u.)
  --------------------------------------------------------
      1 O                     0.012540       1.001766
      2 O                    -0.002456       0.996726
      3 H                     0.323963      -0.000908
      4 O                    -0.667224       0.002234
      5 H                     0.333177       0.000182
  --------------------------------------------------------
  Sum of atomic charges =     0.000000
  Sum of spin   charges =     2.000000

 -----------------------------------------------------------------
                    Cartesian Multipole Moments
 -----------------------------------------------------------------
    Charge (ESU x 10^10)
                 0.0000
    Dipole Moment (Debye)
         X       0.6448      Y       1.9794      Z      -1.4277
       Tot       2.5243
    Quadrupole Moments (Debye-Ang)
        XX     -11.5938     XY       4.4181     YY     -23.5335
        XZ       0.0185     YZ       9.1544     ZZ     -27.8523
    Octopole Moments (Debye-Ang^2)
       XXX     -41.5628    XXY      20.1950    XYY     -38.9439
       YYY      53.7113    XXZ     -18.8207    XYZ      19.0454
       YYZ     -60.9084    XZZ     -33.2695    YZZ      53.3713
       ZZZ    -169.9058
    Hexadecapole Moments (Debye-Ang^3)
      XXXX    -170.9024   XXXY      88.2458   XXYY    -108.2703
      XYYY     123.3898   YYYY    -167.3718   XXXZ    -110.1026
      XXYZ      74.2645   XYYZ    -132.1935   YYYZ     189.1442
      XXZZ    -115.1528   XYZZ     111.0268   YYZZ    -236.6073
      XZZZ    -295.9377   YZZZ     310.5611   ZZZZ   -1004.2902
 -----------------------------------------------------------------
 Calculating analytic gradient of the SCF energy
 Gradient of CDS energy
            1           2           3           4           5
    1   0.0000000  -0.0001289  -0.0002411  -0.0000767   0.0004466
    2   0.0000000   0.0000323   0.0000860  -0.0002273   0.0001090
    3   0.0000000  -0.0002043  -0.0000635   0.0001620   0.0001058
 Gradient of SCF Energy
            1           2           3           4           5
    1  -0.0003746   0.0001110  -0.0036687  -0.0063555   0.0102877
    2   0.0064692  -0.0065772   0.0088789  -0.0174318   0.0086610
    3  -0.0019097   0.0014473  -0.0085432   0.0119292  -0.0029237
 Max gradient component =       1.743E-02
 RMS gradient           =       7.884E-03
 Computing fast CPCM-SWIG gradient
 Updating gradient with PCM contributions...
 -- total gradient after adding PCM contribution --
---------------------------------------------------
  Atom         X              Y              Z     
---------------------------------------------------
   1       0.000151      -0.001143       0.000353
   2      -0.000098       0.001096      -0.000351
   3       0.000004       0.000008       0.000176
   4      -0.000065       0.000079      -0.000161
   5       0.000008      -0.000040      -0.000018
---------------------------------------------------
 Number of fixed atoms: 0
 Gradient time:  CPU 10.66 s  wall 1.48 s
 ----------------------------------------------------------------
             Standard Nuclear Orientation (Angstroms)
    I     Atom           X                Y                Z
 ----------------------------------------------------------------
    1      O       0.5453964939     0.3184922832     0.7160050378
    2      O       0.6859044353    -0.7881363120     1.1488052394
    3      H       2.0060155610    -1.1190209994     3.2414712730
    4      O       2.5405698743    -1.5906114977     3.8882252731
    5      H       3.3883004354    -1.1347333741     3.8738896766
 ----------------------------------------------------------------
 Nuclear Repulsion Energy =          60.48905340 hartrees
 There are       14 alpha and       12 beta electrons
 Discretize the solute cavity surface with Lebedev spheres
	Using 110 Lebedev grid points for each H atom
	Using 194 Lebedev grid points for other atoms
	Atomic van der Waals radii will be scaled by 1.20
 Remove points where switching function is < 1.0e-08
 Keep 589 surface tesserae and discard 213 interior tesserae
 Molecular Surface Area = 74.893 Angst**2

                       Distance Matrix (Angstroms)
             O (  1)   O (  2)   H (  3)   O (  4)
   O (  2)  1.196531
   H (  3)  3.252358  2.496283
   O (  4)  4.205755  3.404140  0.962516
   H (  5)  4.490680  3.853461  1.520168  0.962641
 
 Requested basis set is 6-311++G(2df,2p)
 There are 36 shells and 122 basis functions
 A cutoff of  1.0D-12 yielded    591 shell pairs
 There are      6697 function pairs (      8392 Cartesian)
 Smallest overlap matrix eigenvalue = 5.75E-04
 Guess MOs from SCF MO coefficient file

 -----------------------------------------------------------------------
  General SCF calculation program by
  Eric Jon Sundstrom, Paul Horn, Yuezhi Mao, Dmitri Zuev, Alec White,
  David Stuck, Shaama M.S., Shane Yost, Joonho Lee, David Small,
  Daniel Levine, Susi Lehtola, Hugh Burton, Evgeny Epifanovsky,
  Bang C. Huynh
 -----------------------------------------------------------------------
 Exchange:     0.1500 Hartree-Fock + 1.0000 wB97M-V + LR-HF
 Correlation:  1.0000 wB97M-V
 Using SG-2 standard quadrature grid
 Nonlocal Correlation:  VV10 with C = 0.0100 and b = 6.00 and scale = 1.00000
 Grid used for NLC:  SG-1 standard quadrature
 
 Citation of the SMD model:
 Marenich, A.V.; Cramer, C.J.; Truhlar, D.G.
 J. Phys. Chem. B 2009, 113, 6378-6396.
 iSolventCode=           1
 Solvent: water                                                           
 
 vradii
            1           2           3           4           5
    1   1.5200000   1.5200000   1.2000000   1.5200000   1.2000000
 -------------------------------------------------------
 OpenMP BLAS3 based DFT computing Module                
 Release: version 1.0, May 2013, Q-Chem Inc. Pittsburgh 
 -------------------------------------------------------
 A unrestricted SCF calculation will be
 performed using Roothaan-Hall, DIIS, GDM
 SCF converges when RMS gradient is below 1.0e-07
 ---------------------------------------
  Cycle       Energy         DIIS error
 ---------------------------------------
    1    -226.7606457375      4.88e-04  Roothaan Step
 ---------------------------------------
  Cycle       Energy         DIIS error
 ---------------------------------------
    1    -226.7758674914      5.37e-04  
    2    -226.7778572296      4.39e-04  Done DIIS. Switching to GDM
 ---------------------------------------
  Cycle       Energy        RMS Gradient
 ---------------------------------------
    1    -226.7778572296      1.35e-02   Normal BFGS step
    2    -226.7778087656      1.22e-02  Line search: overstep
    3    -226.7787474893      2.80e-03   Normal BFGS step
    4    -226.7788013819      1.95e-03   Normal BFGS step
    5    -226.7788091168      1.62e-03   Normal BFGS step
    6    -226.7788158630      7.51e-05   Normal BFGS step
    7    -226.7788159428      4.35e-05   Normal BFGS step
    8    -226.7788159552      2.79e-05   Normal BFGS step
    9    -226.7788159575      1.26e-05   Normal BFGS step
   10    -226.7788159579      3.88e-06   Normal BFGS step
   11    -226.7788159580      1.49e-06   Normal BFGS step
   12    -226.7788159580      9.14e-07   Normal BFGS step
   13    -226.7788159580      1.69e-07   Normal BFGS step
   14    -226.7788159580      3.52e-08  Convergence criterion met
 ---------------------------------------
 SCF time:   CPU 72.14s  wall 9.00s 
<S^2> =          2.008344126
(3)  G-ENP(liq) elect-nuc-pol free energy of system     -226.778815958 a.u.
(4)  G-CDS(liq) cavity-dispersion-solvent structure 
     free energy                                                1.1642 kcal/mol
(6)  G-S(liq) free energy of system                     -226.776960734 a.u.
 SCF   energy in the final basis set =     -226.7769607344
 Total energy in the final basis set =     -226.7769607344
 
 --------------------------------------------------------------
 
                    Orbital Energies (a.u.)
 --------------------------------------------------------------
 
 Alpha MOs
 -- Occupied --
-19.4896 -19.4895 -19.3329  -1.4422  -1.1390  -0.9596  -0.6784  -0.6777
 -0.6661  -0.6328  -0.5080  -0.4315  -0.4092  -0.4091
 -- Virtual --
  0.0340   0.0702   0.1358   0.1645   0.1712   0.1958   0.2125   0.2194
  0.2207   0.2410   0.2642   0.2673   0.2944   0.3475   0.3588   0.3793
  0.4185   0.6027   0.6511   0.7312   0.7995   0.8437   0.9363   0.9852
  0.9905   1.0270   1.0414   1.0488   1.0877   1.1022   1.1136   1.1235
  1.2863   1.3186   1.3515   1.3825   1.3998   1.4100   1.4861   1.5328
  1.5924   1.7195   1.7551   1.8763   1.9169   2.0015   2.2678   2.3198
  2.3399   2.3444   2.3620   2.5506   2.5762   2.9490   3.7014   3.7348
  3.7473   3.9703   4.1708   4.3044   4.5375   4.5463   4.5687   4.5750
  4.8676   4.8899   4.8911   4.9556   4.9902   5.0613   5.0902   5.1034
  5.1291   5.1363   5.1510   5.1523   5.2326   5.3290   5.3376   5.4924
  5.5866   5.7265   5.7543   5.7554   5.8315   6.6151   6.6336   6.7895
  6.8010   6.8241   6.8255   6.8564   6.9729   6.9748   7.0018   7.0366
  7.1131   7.1621   7.3495   7.3524   7.4144   7.4709   7.6507   8.0903
  8.1045  50.3743  50.4764  50.5308
 
 Beta MOs
 -- Occupied --
-19.4594 -19.4590 -19.3329  -1.3860  -1.1389  -0.8728  -0.6354  -0.6188
 -0.5720  -0.5718  -0.5076  -0.4313
 -- Virtual --
 -0.0123  -0.0115   0.0345   0.0709   0.1391   0.1688   0.1751   0.1997
  0.2151   0.2213   0.2242   0.2468   0.2671   0.2717   0.2975   0.3537
  0.3617   0.4163   0.4235   0.6029   0.6515   0.7312   0.7999   0.8445
  0.9384   0.9890   1.0024   1.0518   1.0670   1.0787   1.1093   1.1165
  1.1327   1.1477   1.3164   1.3556   1.3731   1.4128   1.4314   1.4386
  1.4918   1.5514   1.6226   1.7789   1.8067   1.8766   1.9203   2.0017
  2.2687   2.3533   2.3584   2.3739   2.3844   2.5508   2.5973   2.9491
  3.7015   3.7347   3.7473   3.9703   4.1713   4.3055   4.5938   4.6013
  4.6199   4.6261   4.9045   4.9702   4.9712   5.0532   5.0827   5.1033
  5.1269   5.1471   5.1701   5.1830   5.2321   5.2359   5.2387   5.3364
  5.3822   5.4931   5.5867   5.7267   5.8152   5.8157   5.8326   6.7505
  6.7686   6.9016   6.9025   6.9123   6.9238   6.9337   6.9986   7.0299
  7.0539   7.0608   7.1171   7.1645   7.4015   7.4042   7.4148   7.4713
  7.6510   8.1225   8.1567  50.3983  50.4765  50.5547
 --------------------------------------------------------------
 
          Ground-State Mulliken Net Atomic Charges

     Atom                 Charge (a.u.)    Spin (a.u.)
  --------------------------------------------------------
      1 O                     0.012477       1.001776
      2 O                    -0.002387       0.996720
      3 H                     0.323943      -0.000912
      4 O                    -0.667213       0.002234
      5 H                     0.333181       0.000183
  --------------------------------------------------------
  Sum of atomic charges =     0.000000
  Sum of spin   charges =     2.000000

 -----------------------------------------------------------------
                    Cartesian Multipole Moments
 -----------------------------------------------------------------
    Charge (ESU x 10^10)
                 0.0000
    Dipole Moment (Debye)
         X       0.6448      Y       1.9794      Z      -1.4277
       Tot       2.5243
    Quadrupole Moments (Debye-Ang)
        XX     -11.5948     XY       4.4178     YY     -23.5330
        XZ       0.0187     YZ       9.1532     ZZ     -27.8526
    Octopole Moments (Debye-Ang^2)
       XXX     -41.5647    XXY      20.1898    XYY     -38.9434
       YYY      53.6950    XXZ     -18.8265    XYZ      19.0444
       YYZ     -60.9125    XZZ     -33.2693    YZZ      53.3642
       ZZZ    -169.9222
    Hexadecapole Moments (Debye-Ang^3)
      XXXX    -170.9061   XXXY      88.2374   XXYY    -108.2733
      XYYY     123.3803   YYYY    -167.3868   XXXZ    -110.1120
      XXYZ      74.2582   XYYZ    -132.1956   YYYZ     189.1265
      XXZZ    -115.1607   XYZZ     111.0225   YYZZ    -236.6172
      XZZZ    -295.9458   YZZZ     310.5421   ZZZZ   -1004.3361
 -----------------------------------------------------------------
 Calculating analytic gradient of the SCF energy
 Gradient of CDS energy
            1           2           3           4           5
    1   0.0000000  -0.0001289  -0.0002411  -0.0000767   0.0004466
    2   0.0000000   0.0000323   0.0000860  -0.0002273   0.0001090
    3   0.0000000  -0.0002043  -0.0000635   0.0001620   0.0001058
 Gradient of SCF Energy
            1           2           3           4           5
    1  -0.0004858   0.0002224  -0.0036697  -0.0063545   0.0102876
    2   0.0073439  -0.0074515   0.0088784  -0.0174317   0.0086608
    3  -0.0022451   0.0017829  -0.0085442   0.0119301  -0.0029237
 Max gradient component =       1.743E-02
 RMS gradient           =       7.997E-03
 Computing fast CPCM-SWIG gradient
 Updating gradient with PCM contributions...
 -- total gradient after adding PCM contribution --
---------------------------------------------------
  Atom         X              Y              Z     
---------------------------------------------------
   1       0.000041      -0.000275       0.000013
   2       0.000013       0.000228      -0.000010
   3       0.000004       0.000008       0.000176
   4      -0.000065       0.000079      -0.000161
   5       0.000008      -0.000040      -0.000018
---------------------------------------------------
 Number of fixed atoms: 0
 Gradient time:  CPU 10.41 s  wall 1.41 s
 ----------------------------------------------------------------
             Standard Nuclear Orientation (Angstroms)
    I     Atom           X                Y                Z
 ----------------------------------------------------------------
    1      O       0.5453964939     0.3184922832     0.7140050378
    2      O       0.6859044353    -0.7881363120     1.1488052394
    3      H       2.0060155610    -1.1190209994     3.2414712730
    4      O       2.5405698743    -1.5906114977     3.8882252731
    5      H       3.3883004354    -1.1347333741     3.8738896766
 ----------------------------------------------------------------
 Nuclear Repulsion Energy =          60.46811220 hartrees
 There are       14 alpha and       12 beta electrons
 Discretize the solute cavity surface with Lebedev spheres
	Using 110 Lebedev grid points for each H atom
	Using 194 Lebedev grid points for other atoms
	Atomic van der Waals radii will be scaled by 1.20
 Remove points where switching function is < 1.0e-08
 Keep 589 surface tesserae and discard 213 interior tesserae
 Molecular Surface Area = 74.900 Angst**2

                       Distance Matrix (Angstroms)
             O (  1)   O (  2)   H (  3)   O (  4)
   O (  2)  1.197255
   H (  3)  3.253911  2.496283
   O (  4)  4.207264  3.404140  0.962516
   H (  5)  4.492086  3.853461  1.520168  0.962641
 
 Requested basis set is 6-311++G(2df,2p)
 There are 36 shells and 122 basis functions
 A cutoff of  1.0D-12 yielded    591 shell pairs
 There are      6697 function pairs (      8392 Cartesian)
 Smallest overlap matrix eigenvalue = 5.77E-04
 Guess MOs from SCF MO coefficient file

 -----------------------------------------------------------------------
  General SCF calculation program by
  Eric Jon Sundstrom, Paul Horn, Yuezhi Mao, Dmitri Zuev, Alec White,
  David Stuck, Shaama M.S., Shane Yost, Joonho Lee, David Small,
  Daniel Levine, Susi Lehtola, Hugh Burton, Evgeny Epifanovsky,
  Bang C. Huynh
 -----------------------------------------------------------------------
 Exchange:     0.1500 Hartree-Fock + 1.0000 wB97M-V + LR-HF
 Correlation:  1.0000 wB97M-V
 Using SG-2 standard quadrature grid
 Nonlocal Correlation:  VV10 with C = 0.0100 and b = 6.00 and scale = 1.00000
 Grid used for NLC:  SG-1 standard quadrature
 
 Citation of the SMD model:
 Marenich, A.V.; Cramer, C.J.; Truhlar, D.G.
 J. Phys. Chem. B 2009, 113, 6378-6396.
 iSolventCode=           1
 Solvent: water                                                           
 
 vradii
            1           2           3           4           5
    1   1.5200000   1.5200000   1.2000000   1.5200000   1.2000000
 -------------------------------------------------------
 OpenMP BLAS3 based DFT computing Module                
 Release: version 1.0, May 2013, Q-Chem Inc. Pittsburgh 
 -------------------------------------------------------
 A unrestricted SCF calculation will be
 performed using Roothaan-Hall, DIIS, GDM
 SCF converges when RMS gradient is below 1.0e-07
 ---------------------------------------
  Cycle       Energy         DIIS error
 ---------------------------------------
    1    -226.7606469310      4.88e-04  Roothaan Step
 ---------------------------------------
  Cycle       Energy         DIIS error
 ---------------------------------------
    1    -226.7758676451      5.37e-04  
    2    -226.7778561961      4.39e-04  Done DIIS. Switching to GDM
 ---------------------------------------
  Cycle       Energy        RMS Gradient
 ---------------------------------------
    1    -226.7778561961      1.35e-02   Normal BFGS step
    2    -226.7778061169      1.22e-02  Line search: overstep
    3    -226.7787467588      2.80e-03   Normal BFGS step
    4    -226.7788005062      1.97e-03   Normal BFGS step
    5    -226.7788083851      1.62e-03   Normal BFGS step
    6    -226.7788150878      7.63e-05   Normal BFGS step
    7    -226.7788151658      4.41e-05   Normal BFGS step
    8    -226.7788151776      2.84e-05   Normal BFGS step
    9    -226.7788151798      1.30e-05   Normal BFGS step
   10    -226.7788151802      3.92e-06   Normal BFGS step
   11    -226.7788151803      1.54e-06   Normal BFGS step
   12    -226.7788151803      9.43e-07   Normal BFGS step
   13    -226.7788151803      1.72e-07   Normal BFGS step
   14    -226.7788151803      3.37e-08  Convergence criterion met
 ---------------------------------------
 SCF time:   CPU 72.56s  wall 9.00s 
<S^2> =          2.008355216
(3)  G-ENP(liq) elect-nuc-pol free energy of system     -226.778815180 a.u.
(4)  G-CDS(liq) cavity-dispersion-solvent structure 
     free energy                                                1.1642 kcal/mol
(6)  G-S(liq) free energy of system                     -226.776959957 a.u.
 SCF   energy in the final basis set =     -226.7769599568
 Total energy in the final basis set =     -226.7769599568
 
 --------------------------------------------------------------
 
                    Orbital Energies (a.u.)
 --------------------------------------------------------------
 
 Alpha MOs
 -- Occupied --
-19.4897 -19.4896 -19.3329  -1.4417  -1.1390  -0.9599  -0.6782  -0.6775
 -0.6659  -0.6328  -0.5080  -0.4315  -0.4095  -0.4094
 -- Virtual --
  0.0340   0.0702   0.1357   0.1645   0.1713   0.1958   0.2125   0.2194
  0.2207   0.2410   0.2642   0.2673   0.2944   0.3473   0.3587   0.3786
  0.4186   0.6027   0.6511   0.7312   0.7995   0.8437   0.9364   0.9852
  0.9904   1.0270   1.0415   1.0489   1.0877   1.1022   1.1136   1.1235
  1.2864   1.3188   1.3515   1.3822   1.3994   1.4100   1.4862   1.5329
  1.5923   1.7192   1.7548   1.8763   1.9168   2.0015   2.2677   2.3187
  2.3392   2.3439   2.3617   2.5506   2.5762   2.9490   3.7014   3.7348
  3.7473   3.9703   4.1708   4.3043   4.5368   4.5456   4.5691   4.5753
  4.8683   4.8904   4.8915   4.9556   4.9902   5.0612   5.0901   5.1034
  5.1290   5.1345   5.1506   5.1519   5.2326   5.3281   5.3369   5.4924
  5.5866   5.7264   5.7526   5.7537   5.8315   6.6150   6.6335   6.7895
  6.8009   6.8219   6.8232   6.8583   6.9721   6.9739   7.0017   7.0366
  7.1131   7.1621   7.3487   7.3516   7.4144   7.4709   7.6507   8.0875
  8.1031  50.3738  50.4764  50.5282
 
 Beta MOs
 -- Occupied --
-19.4595 -19.4591 -19.3329  -1.3854  -1.1389  -0.8730  -0.6354  -0.6187
 -0.5717  -0.5716  -0.5076  -0.4313
 -- Virtual --
 -0.0126  -0.0117   0.0345   0.0709   0.1390   0.1689   0.1751   0.1997
  0.2151   0.2212   0.2242   0.2468   0.2671   0.2717   0.2975   0.3537
  0.3616   0.4160   0.4230   0.6029   0.6515   0.7312   0.7999   0.8445
  0.9384   0.9890   1.0023   1.0521   1.0670   1.0788   1.1093   1.1166
  1.1327   1.1477   1.3165   1.3557   1.3731   1.4126   1.4313   1.4382
  1.4919   1.5516   1.6224   1.7786   1.8064   1.8766   1.9203   2.0017
  2.2687   2.3526   2.3579   2.3733   2.3837   2.5508   2.5973   2.9491
  3.7015   3.7347   3.7473   3.9703   4.1713   4.3055   4.5930   4.6006
  4.6203   4.6265   4.9051   4.9706   4.9716   5.0532   5.0827   5.1033
  5.1269   5.1470   5.1694   5.1819   5.2320   5.2355   5.2384   5.3363
  5.3806   5.4931   5.5867   5.7267   5.8136   5.8141   5.8325   6.7505
  6.7685   6.8992   6.9001   6.9142   6.9237   6.9337   6.9986   7.0297
  7.0530   7.0602   7.1171   7.1645   7.4008   7.4035   7.4148   7.4713
  7.6510   8.1196   8.1554  50.3979  50.4765  50.5521
 --------------------------------------------------------------
 
          Ground-State Mulliken Net Atomic Charges

     Atom                 Charge (a.u.)    Spin (a.u.)
  --------------------------------------------------------
      1 O                     0.012499       1.001783
      2 O                    -0.002416       0.996710
      3 H                     0.323962      -0.000904
      4 O                    -0.667224       0.002229
      5 H                     0.333179       0.000182
  --------------------------------------------------------
  Sum of atomic charges =     0.000000
  Sum of spin   charges =     2.000000

 -----------------------------------------------------------------
                    Cartesian Multipole Moments
 -----------------------------------------------------------------
    Charge (ESU x 10^10)
                 0.0000
    Dipole Moment (Debye)
         X       0.6448      Y       1.9794      Z      -1.4277
       Tot       2.5243
    Quadrupole Moments (Debye-Ang)
        XX     -11.5961     XY       4.4174     YY     -23.5312
        XZ       0.0188     YZ       9.1527     ZZ     -27.8541
    Octopole Moments (Debye-Ang^2)
       XXX     -41.5670    XXY      20.1896    XYY     -38.9420
       YYY      53.6937    XXZ     -18.8173    XYZ      19.0436
       YYZ     -60.8999    XZZ     -33.2698    YZZ      53.3632
       ZZZ    -169.8952
    Hexadecapole Moments (Debye-Ang^3)
      XXXX    -170.9105   XXXY      88.2369   XXYY    -108.2720
      XYYY     123.3792   YYYY    -167.3841   XXXZ    -110.0969
      XXYZ      74.2607   XYYZ    -132.1879   YYYZ     189.1330
      XXZZ    -115.1475   XYZZ     111.0207   YYZZ    -236.5976
[...]
    2    -226.7778574139      4.39e-04  Done DIIS. Switching to GDM
 ---------------------------------------
  Cycle       Energy        RMS Gradient
 ---------------------------------------
    1    -226.7778574139      1.35e-02   Normal BFGS step
    2    -226.7778087740      1.22e-02  Line search: overstep
    3    -226.7787475821      2.80e-03   Normal BFGS step
    4    -226.7788014739      1.95e-03   Normal BFGS step
    5    -226.7788092407      1.62e-03   Normal BFGS step
    6    -226.7788159693      7.54e-05   Normal BFGS step
    7    -226.7788160489      4.37e-05   Normal BFGS step
    8    -226.7788160613      2.84e-05   Normal BFGS step
    9    -226.7788160636      1.30e-05   Normal BFGS step
   10    -226.7788160640      3.94e-06   Normal BFGS step
   11    -226.7788160641      1.52e-06   Normal BFGS step
   12    -226.7788160641      9.29e-07   Normal BFGS step
   13    -226.7788160641      1.75e-07   Normal BFGS step
   14    -226.7788160641      3.35e-08  Convergence criterion met
 ---------------------------------------
 SCF time:   CPU 73.10s  wall 10.00s 
<S^2> =          2.008344273
(3)  G-ENP(liq) elect-nuc-pol free energy of system     -226.778816064 a.u.
(4)  G-CDS(liq) cavity-dispersion-solvent structure 
     free energy                                                1.1642 kcal/mol
(6)  G-S(liq) free energy of system                     -226.776960727 a.u.
 SCF   energy in the final basis set =     -226.7769607272
 Total energy in the final basis set =     -226.7769607272
 
 --------------------------------------------------------------
 
                    Orbital Energies (a.u.)
 --------------------------------------------------------------
 
 Alpha MOs
 -- Occupied --
-19.4896 -19.4895 -19.3329  -1.4422  -1.1390  -0.9596  -0.6784  -0.6777
 -0.6661  -0.6328  -0.5080  -0.4315  -0.4092  -0.4091
 -- Virtual --
  0.0340   0.0702   0.1358   0.1645   0.1712   0.1958   0.2125   0.2194
  0.2207   0.2410   0.2642   0.2673   0.2944   0.3475   0.3587   0.3793
  0.4185   0.6027   0.6511   0.7312   0.7995   0.8436   0.9364   0.9852
  0.9905   1.0270   1.0414   1.0487   1.0877   1.1022   1.1135   1.1235
  1.2863   1.3186   1.3515   1.3825   1.3998   1.4100   1.4862   1.5328
  1.5923   1.7195   1.7550   1.8763   1.9167   2.0015   2.2678   2.3198
  2.3398   2.3444   2.3620   2.5506   2.5762   2.9490   3.7014   3.7348
  3.7473   3.9702   4.1706   4.3042   4.5375   4.5463   4.5688   4.5750
  4.8676   4.8899   4.8911   4.9556   4.9902   5.0613   5.0902   5.1034
  5.1291   5.1362   5.1510   5.1523   5.2326   5.3290   5.3376   5.4924
  5.5864   5.7263   5.7542   5.7554   5.8312   6.6151   6.6335   6.7895
  6.8010   6.8241   6.8254   6.8564   6.9729   6.9748   7.0018   7.0365
  7.1129   7.1620   7.3495   7.3524   7.4144   7.4705   7.6508   8.0902
  8.1045  50.3743  50.4763  50.5307
 
 Beta MOs
 -- Occupied --
-19.4594 -19.4590 -19.3329  -1.3860  -1.1389  -0.8728  -0.6354  -0.6188
 -0.5720  -0.5718  -0.5076  -0.4313
 -- Virtual --
 -0.0123  -0.0115   0.0345   0.0709   0.1391   0.1688   0.1751   0.1997
  0.2151   0.2212   0.2242   0.2468   0.2671   0.2717   0.2975   0.3537
  0.3617   0.4163   0.4235   0.6029   0.6515   0.7312   0.7999   0.8444
  0.9384   0.9890   1.0024   1.0518   1.0670   1.0787   1.1093   1.1165
  1.1327   1.1477   1.3164   1.3556   1.3731   1.4128   1.4314   1.4386
  1.4919   1.5514   1.6225   1.7789   1.8067   1.8767   1.9202   2.0017
  2.2687   2.3533   2.3584   2.3739   2.3844   2.5507   2.5974   2.9490
  3.7014   3.7347   3.7473   3.9702   4.1712   4.3054   4.5938   4.6013
  4.6199   4.6261   4.9045   4.9702   4.9712   5.0532   5.0826   5.1033
  5.1269   5.1471   5.1701   5.1830   5.2321   5.2359   5.2387   5.3363
  5.3822   5.4931   5.5865   5.7265   5.8152   5.8157   5.8324   6.7505
  6.7685   6.9015   6.9025   6.9123   6.9238   6.9337   6.9986   7.0298
  7.0539   7.0607   7.1169   7.1645   7.4015   7.4041   7.4148   7.4709
  7.6511   8.1225   8.1567  50.3983  50.4764  50.5546
 --------------------------------------------------------------
 
          Ground-State Mulliken Net Atomic Charges

     Atom                 Charge (a.u.)    Spin (a.u.)
  --------------------------------------------------------
      1 O                     0.012495       1.001773
      2 O                    -0.002406       0.996721
      3 H                     0.323966      -0.000909
      4 O                    -0.667229       0.002232
      5 H                     0.333174       0.000182
  --------------------------------------------------------
  Sum of atomic charges =     0.000000
  Sum of spin   charges =     2.000000

 -----------------------------------------------------------------
                    Cartesian Multipole Moments
 -----------------------------------------------------------------
    Charge (ESU x 10^10)
                 0.0000
    Dipole Moment (Debye)
         X       0.6448      Y       1.9796      Z      -1.4278
       Tot       2.5246
    Quadrupole Moments (Debye-Ang)
        XX     -11.5955     XY       4.4189     YY     -23.5336
        XZ       0.0190     YZ       9.1547     ZZ     -27.8530
    Octopole Moments (Debye-Ang^2)
       XXX     -41.5695    XXY      20.1948    XYY     -38.9461
       YYY      53.6976    XXZ     -18.8221    XYZ      19.0486
       YYZ     -60.9109    XZZ     -33.2659    YZZ      53.3698
       ZZZ    -169.9063
    Hexadecapole Moments (Debye-Ang^3)
      XXXX    -170.9389   XXXY      88.2609   XXYY    -108.2861
      XYYY     123.3907   YYYY    -167.3920   XXXZ    -110.1175
      XXYZ      74.2773   XYYZ    -132.2058   YYYZ     189.1415
      XXZZ    -115.1464   XYZZ     111.0376   YYZZ    -236.6244
      XZZZ    -295.9155   YZZZ     310.5675   ZZZZ   -1004.2787
 -----------------------------------------------------------------
 Calculating analytic gradient of the SCF energy
 Gradient of CDS energy
            1           2           3           4           5
    1   0.0000000  -0.0001289  -0.0002410  -0.0000767   0.0004466
    2   0.0000000   0.0000323   0.0000859  -0.0002272   0.0001090
    3   0.0000000  -0.0002043  -0.0000636   0.0001619   0.0001059
 Gradient of SCF Energy
            1           2           3           4           5
    1  -0.0004870   0.0002232  -0.0037194  -0.0063027   0.0102860
    2   0.0073576  -0.0074646   0.0089380  -0.0175023   0.0086714
    3  -0.0022554   0.0017928  -0.0086206   0.0120134  -0.0029303
 Max gradient component =       1.750E-02
 RMS gradient           =       8.027E-03
 Computing fast CPCM-SWIG gradient
 Updating gradient with PCM contributions...
 -- total gradient after adding PCM contribution --
---------------------------------------------------
  Atom         X              Y              Z     
---------------------------------------------------
   1       0.000039      -0.000259       0.000006
   2       0.000014       0.000213      -0.000004
   3      -0.000047       0.000067       0.000102
   4      -0.000013       0.000011      -0.000079
   5       0.000007      -0.000031      -0.000025
---------------------------------------------------
 Number of fixed atoms: 0
 Gradient time:  CPU 10.15 s  wall 1.39 s
rPathMan2.  file_steps = 952
 IRC --- Status = 3.  Assess initial corrector step
 IRC --- bisector search: b =  0.000000 E =     -226.776961 G.B =  -0.000298
 IRC --- bisector search: b =  0.000426 E =     -226.776961 G.B =   0.000352
 IRC --- performed gradient/energy interpolation
 IRC --- bisector search:  estimate b(min) =   1.956759746640901E-004
 ----------------------------------------------------------------
             Standard Nuclear Orientation (Angstroms)
    I     Atom           X                Y                Z
 ----------------------------------------------------------------
    1      O       0.5453756389     0.3184772821     0.7151505007
    2      O       0.6858144741    -0.7880665352     1.1486413372
    3      H       2.0061295809    -1.1190652669     3.2412603903
    4      O       2.5406049940    -1.5907097421     3.8882937547
    5      H       3.3882621141    -1.1346456479     3.8740505150
 ----------------------------------------------------------------
 Nuclear Repulsion Energy =          60.48148468 hartrees
 There are       14 alpha and       12 beta electrons
 Discretize the solute cavity surface with Lebedev spheres
	Using 110 Lebedev grid points for each H atom
	Using 194 Lebedev grid points for other atoms
	Atomic van der Waals radii will be scaled by 1.20
 Remove points where switching function is < 1.0e-08
 Keep 588 surface tesserae and discard 214 interior tesserae
 Molecular Surface Area = 74.897 Angst**2

                       Distance Matrix (Angstroms)
             O (  1)   O (  2)   H (  3)   O (  4)
   O (  2)  1.196694
   H (  3)  3.252931  2.496367
   O (  4)  4.206516  3.404435  0.962686
   H (  5)  4.491349  3.853725  1.520183  0.962663
 
 Applying Cartesian multipole field
    Component          Value
    ---------          -----
     (2,0,0)        1.00000E-11
     (0,2,0)        2.00000E-11
     (0,0,2)       -3.00000E-11
 Nucleus-field energy     =    -0.0000000126 hartrees
 Requested basis set is 6-311++G(2df,2p)
 There are 36 shells and 122 basis functions
 A cutoff of  1.0D-12 yielded    591 shell pairs
 There are      6697 function pairs (      8392 Cartesian)
 Smallest overlap matrix eigenvalue = 5.76E-04
 Guess MOs from SCF MO coefficient file

 -----------------------------------------------------------------------
  General SCF calculation program by
  Eric Jon Sundstrom, Paul Horn, Yuezhi Mao, Dmitri Zuev, Alec White,
  David Stuck, Shaama M.S., Shane Yost, Joonho Lee, David Small,
  Daniel Levine, Susi Lehtola, Hugh Burton, Evgeny Epifanovsky,
  Bang C. Huynh
 -----------------------------------------------------------------------
 Exchange:     0.1500 Hartree-Fock + 1.0000 wB97M-V + LR-HF
 Correlation:  1.0000 wB97M-V
 Using SG-2 standard quadrature grid
 Nonlocal Correlation:  VV10 with C = 0.0100 and b = 6.00 and scale = 1.00000
 Grid used for NLC:  SG-1 standard quadrature
 
 Citation of the SMD model:
 Marenich, A.V.; Cramer, C.J.; Truhlar, D.G.
 J. Phys. Chem. B 2009, 113, 6378-6396.
 iSolventCode=           1
 Solvent: water                                                           
 
 vradii
            1           2           3           4           5
    1   1.5200000   1.5200000   1.2000000   1.5200000   1.2000000
 -------------------------------------------------------
 OpenMP BLAS3 based DFT computing Module                
 Release: version 1.0, May 2013, Q-Chem Inc. Pittsburgh 
 -------------------------------------------------------
 A unrestricted SCF calculation will be
 performed using Roothaan-Hall, DIIS, GDM
 SCF converges when RMS gradient is below 1.0e-07
 ---------------------------------------
  Cycle       Energy         DIIS error
 ---------------------------------------
    1    -226.7606460665      4.87e-04  Roothaan Step
 ---------------------------------------
  Cycle       Energy         DIIS error
 ---------------------------------------
    1    -226.7758657695      5.37e-04  
    2    -226.7778556424      4.40e-04  Done DIIS. Switching to GDM
 ---------------------------------------
  Cycle       Energy        RMS Gradient
 ---------------------------------------
    1    -226.7778556424      1.35e-02   Normal BFGS step
    2    -226.7778063423      1.22e-02  Line search: overstep
    3    -226.7787476676      2.80e-03   Normal BFGS step
    4    -226.7788015158      1.95e-03   Normal BFGS step
    5    -226.7788093018      1.62e-03   Normal BFGS step
    6    -226.7788160285      7.56e-05   Normal BFGS step
    7    -226.7788161078      4.37e-05   Normal BFGS step
    8    -226.7788161201      2.83e-05   Normal BFGS step
    9    -226.7788161223      1.29e-05   Normal BFGS step
   10    -226.7788161228      3.92e-06   Normal BFGS step
   11    -226.7788161228      1.52e-06   Normal BFGS step
   12    -226.7788161228      9.28e-07   Normal BFGS step
   13    -226.7788161228      1.73e-07   Normal BFGS step
   14    -226.7788161228      3.32e-08  Convergence criterion met
 ---------------------------------------
 SCF time:   CPU 73.94s  wall 10.00s 
<S^2> =          2.008346625
(3)  G-ENP(liq) elect-nuc-pol free energy of system     -226.778816123 a.u.
(4)  G-CDS(liq) cavity-dispersion-solvent structure 
     free energy                                                1.1643 kcal/mol
(6)  G-S(liq) free energy of system                     -226.776960768 a.u.
 SCF   energy in the final basis set =     -226.7769607677
 Total energy in the final basis set =     -226.7769607677
 
 --------------------------------------------------------------
 
                    Orbital Energies (a.u.)
 --------------------------------------------------------------
 
 Alpha MOs
 -- Occupied --
-19.4896 -19.4895 -19.3329  -1.4421  -1.1389  -0.9597  -0.6784  -0.6776
 -0.6660  -0.6328  -0.5080  -0.4315  -0.4093  -0.4092
 -- Virtual --
  0.0340   0.0702   0.1358   0.1645   0.1712   0.1958   0.2125   0.2194
  0.2207   0.2410   0.2642   0.2673   0.2944   0.3475   0.3587   0.3791
  0.4185   0.6027   0.6511   0.7311   0.7995   0.8436   0.9364   0.9852
  0.9905   1.0270   1.0414   1.0488   1.0877   1.1022   1.1135   1.1235
  1.2863   1.3187   1.3515   1.3824   1.3997   1.4100   1.4861   1.5328
  1.5923   1.7194   1.7550   1.8763   1.9167   2.0015   2.2678   2.3195
  2.3397   2.3443   2.3620   2.5506   2.5762   2.9489   3.7014   3.7348
  3.7472   3.9701   4.1706   4.3041   4.5373   4.5461   4.5688   4.5751
  4.8678   4.8900   4.8912   4.9556   4.9902   5.0613   5.0902   5.1034
  5.1291   5.1359   5.1510   5.1522   5.2326   5.3288   5.3374   5.4924
  5.5864   5.7263   5.7539   5.7550   5.8310   6.6150   6.6335   6.7895
  6.8010   6.8236   6.8250   6.8568   6.9728   6.9746   7.0017   7.0365
  7.1128   7.1620   7.3493   7.3522   7.4144   7.4702   7.6508   8.0896
  8.1042  50.3742  50.4763  50.5302
 
 Beta MOs
 -- Occupied --
-19.4594 -19.4590 -19.3329  -1.3859  -1.1388  -0.8728  -0.6354  -0.6188
 -0.5719  -0.5718  -0.5076  -0.4313
 -- Virtual --
 -0.0124  -0.0115   0.0345   0.0709   0.1391   0.1688   0.1751   0.1997
  0.2151   0.2212   0.2242   0.2468   0.2671   0.2717   0.2975   0.3537
  0.3617   0.4163   0.4234   0.6029   0.6514   0.7311   0.7999   0.8444
  0.9384   0.9890   1.0024   1.0519   1.0670   1.0787   1.1093   1.1165
  1.1327   1.1477   1.3164   1.3556   1.3731   1.4128   1.4314   1.4385
  1.4919   1.5514   1.6225   1.7788   1.8066   1.8767   1.9201   2.0017
  2.2687   2.3531   2.3583   2.3738   2.3843   2.5507   2.5973   2.9490
  3.7014   3.7347   3.7473   3.9702   4.1711   4.3053   4.5936   4.6012
  4.6200   4.6262   4.9046   4.9703   4.9713   5.0532   5.0826   5.1033
  5.1269   5.1470   5.1699   5.1828   5.2321   5.2358   5.2386   5.3363
  5.3818   5.4931   5.5864   5.7265   5.8148   5.8153   5.8322   6.7505
  6.7685   6.9010   6.9020   6.9127   6.9237   6.9337   6.9986   7.0298
  7.0537   7.0606   7.1168   7.1644   7.4013   7.4040   7.4147   7.4706
  7.6511   8.1219   8.1564  50.3982  50.4763  50.5541
 --------------------------------------------------------------
 
          Ground-State Mulliken Net Atomic Charges

     Atom                 Charge (a.u.)    Spin (a.u.)
  --------------------------------------------------------
      1 O                     0.012489       1.001776
      2 O                    -0.002398       0.996718
      3 H                     0.323977      -0.000909
      4 O                    -0.667244       0.002232
      5 H                     0.333176       0.000183
  --------------------------------------------------------
  Sum of atomic charges =     0.000000
  Sum of spin   charges =     2.000000

 -----------------------------------------------------------------
                    Cartesian Multipole Moments
 -----------------------------------------------------------------
    Charge (ESU x 10^10)
                 0.0000
    Dipole Moment (Debye)
         X       0.6448      Y       1.9797      Z      -1.4280
       Tot       2.5247
    Quadrupole Moments (Debye-Ang)
        XX     -11.5960     XY       4.4190     YY     -23.5336
        XZ       0.0186     YZ       9.1549     ZZ     -27.8544
    Octopole Moments (Debye-Ang^2)
       XXX     -41.5712    XXY      20.1959    XYY     -38.9467
       YYY      53.6983    XXZ     -18.8243    XYZ      19.0497
       YYZ     -60.9119    XZZ     -33.2691    YZZ      53.3719
       ZZZ    -169.9139
    Hexadecapole Moments (Debye-Ang^3)
      XXXX    -170.9466   XXXY      88.2660   XXYY    -108.2902
      XYYY     123.3938   YYYY    -167.4001   XXXZ    -110.1266
      XXYZ      74.2830   XYYZ    -132.2098   YYYZ     189.1467
      XXZZ    -115.1584   XYZZ     111.0448   YYZZ    -236.6320
      XZZZ    -295.9348   YZZZ     310.5815   ZZZZ   -1004.3223
 -----------------------------------------------------------------
 Calculating analytic gradient of the SCF energy
 Gradient of CDS energy
            1           2           3           4           5
    1   0.0000000  -0.0001289  -0.0002410  -0.0000767   0.0004466
    2   0.0000000   0.0000323   0.0000859  -0.0002271   0.0001090
    3   0.0000000  -0.0002043  -0.0000636   0.0001619   0.0001060
 Gradient of SCF Energy
            1           2           3           4           5
    1  -0.0005172   0.0002534  -0.0037492  -0.0062818   0.0102947
    2   0.0075945  -0.0077013   0.0089684  -0.0175407   0.0086792
    3  -0.0023483   0.0018857  -0.0086611   0.0120569  -0.0029333
 Max gradient component =       1.754E-02
 RMS gradient           =       8.076E-03
 Computing fast CPCM-SWIG gradient
 Updating gradient with PCM contributions...
 -- total gradient after adding PCM contribution --
---------------------------------------------------
  Atom         X              Y              Z     
---------------------------------------------------
   1       0.000009      -0.000024      -0.000086
   2       0.000044      -0.000023       0.000088
   3      -0.000077       0.000097       0.000062
   4       0.000008      -0.000027      -0.000037
   5       0.000016      -0.000024      -0.000028
---------------------------------------------------
 Number of fixed atoms: 0
 Gradient time:  CPU 10.04 s  wall 1.37 s
rPathMan2.  file_steps = 952
 IRC --- Status = 4.  Checking bisector search.
 IRC --- Bisector search finished successfully.
 ------------------------------------------------------------------------
 Reaction path following.  The coordinates are cartesian              
 Step   3 E=    -226.776961 |G|=  0.000203 S_lin= 0.0008 S_tot= 0.0010
 ------------------------------------------------------------------------
  IRC -- convergence criterion reached.
 ----------------------------------------------------------------
             Standard Nuclear Orientation (Angstroms)
    I     Atom           X                Y                Z
 ----------------------------------------------------------------
    1      O       0.5453964939     0.3184922832     0.7150050378
    2      O       0.6859044353    -0.7881363120     1.1488052394
    3      H       2.0060155610    -1.1190209994     3.2414712730
    4      O       2.5405698743    -1.5906114977     3.8882252731
    5      H       3.3883004354    -1.1347333741     3.8738896766
 ----------------------------------------------------------------
 Nuclear Repulsion Energy =          60.47858856 hartrees
 There are       14 alpha and       12 beta electrons
 Here is where we should summarize the reaction path
 Total job time:  208.11s(wall), 1584.86s(cpu) 
 Fri Aug 18 14:57:20 2023

        *************************************************************
        *                                                           *
        *  Thank you very much for using Q-Chem.  Have a nice day.  *
        *                                                           *
        *************************************************************


