
Running Job 1 of 2 Q_in.in
qchem Q_in.in_359427.0 /scratch/ari.fischer/qChem1711267.hpc-mn1/qchem359427/ 0
/usr/local/qchem-5.4.1/exe/qcprog.exe_s Q_in.in_359427.0 /scratch/ari.fischer/qChem1711267.hpc-mn1/qchem359427/
                  Welcome to Q-Chem
     A Quantum Leap Into The Future Of Chemistry


 Q-Chem 5.4, Q-Chem, Inc., Pleasanton, CA (2021)

 License issued to: Nanyang Technological University (site)

 E. Epifanovsky,  A. T. B. Gilbert,  Xintian Feng,  Joonho Lee,  Yuezhi Mao,  
 N. Mardirossian,  P. Pokhilko,  A. White,  M. Wormit,  M. P. Coons,  
 A. L. Dempwolff,  Zhengting Gan,  D. Hait,  P. R. Horn,  L. D. Jacobson,  
 I. Kaliman,  J. Kussmann,  A. W. Lange,  Ka Un Lao,  D. S. Levine,  Jie Liu,  
 S. C. McKenzie,  A. F. Morrison,  K. Nanda,  F. Plasser,  D. R. Rehn,  
 M. L. Vidal,  Zhi-Qiang You,  Ying Zhu,  B. Alam,  B. Albrecht,  
 A. Aldossary,  E. Alguire,  J. H. Andersen,  D. Barton,  K. Begam,  A. Behn,  
 Y. A. Bernard,  E. J. Berquist,  H. Burton,  A. Carreras,  K. Carter-Fenk,  
 R. Chakraborty,  A. D. Chien,  K. D. Closser,  V. Cofer-Shabica,  
 S. Dasgupta,  Jia Deng,  M. de Wergifosse,  M. Diedenhofen,  Hainam Do,  
 S. Ehlert,  Po-Tung Fang,  S. Fatehi,  Qingguo Feng,  T. Friedhoff,  
 J. Gayvert,  Qinghui Ge,  G. Gidofalvi,  M. Goldey,  J. Gomes,  
 C. Gonzalez-Espinoza,  S. Gulania,  A. Gunina,  M. W. D. Hanson-Heine,  
 P. H. P. Harbach,  A. W. Hauser,  M. F. Herbst,  M. Hernandez Vera,  
 M. Hodecker,  Z. C. Holden,  S. Houck,  Xunkun Huang,  Kerwin Hui,  
 B. C. Huynh,  M. Ivanov,  Hyunjun Ji,  Hanjie Jiang,  B. Kaduk,  S. Kaehler,  
 K. Khistyaev,  Jaehoon Kim,  P. Klunzinger,  Z. Koczor-Benda,  
 Joong Hoon Koh,  D. Kosenkov,  L. Koulias,  T. Kowalczyk,  C. M. Krauter,  
 K. Kue,  A. Kunitsa,  T. Kus,  A. Landau,  K. V. Lawler,  D. Lefrancois,  
 S. Lehtola,  Rain Li,  Yi-Pei Li,  Jiashu Liang,  M. Liebenthal,  
 Hung-Hsuan Lin,  You-Sheng Lin,  Fenglai Liu,  Kuan-Yu Liu,  
 M. Loipersberger,  A. Luenser,  A. Manjanath,  P. Manohar,  E. Mansoor,  
 S. F. Manzer,  Shan-Ping Mao,  A. V. Marenich,  T. Markovich,  S. Mason,  
 S. A. Maurer,  P. F. McLaughlin,  M. F. S. J. Menger,  J.-M. Mewes,  
 S. A. Mewes,  P. Morgante,  J. W. Mullinax,  K. J. Oosterbaan,  G. Paran,  
 Alexander C. Paul,  Suranjan K. Paul,  F. Pavosevic,  Zheng Pei,  S. Prager,  
 E. I. Proynov,  E. Ramos,  B. Rana,  A. E. Rask,  A. Rettig,  R. M. Richard,  
 F. Rob,  E. Rossomme,  T. Scheele,  M. Scheurer,  M. Schneider,  
 N. Sergueev,  S. M. Sharada,  W. Skomorowski,  D. W. Small,  C. J. Stein,  
 Yu-Chuan Su,  E. J. Sundstrom,  Zhen Tao,  J. Thirman,  T. Tsuchimochi,  
 N. M. Tubman,  S. P. Veccham,  O. Vydrov,  J. Wenzel,  J. Witte,  A. Yamada,  
 Kun Yao,  S. Yeganeh,  S. R. Yost,  A. Zech,  Igor Ying Zhang,  Xing Zhang,  
 Yu Zhang,  D. Zuev,  A. Aspuru-Guzik,  A. T. Bell,  N. A. Besley,  
 K. B. Bravaya,  B. R. Brooks,  D. Casanova,  Jeng-Da Chai,  S. Coriani,  
 C. J. Cramer,  A. E. DePrince, III,  R. A. DiStasio Jr.,  A. Dreuw,  
 B. D. Dunietz,  T. R. Furlani,  W. A. Goddard III,  S. Grimme,  
 S. Hammes-Schiffer,  T. Head-Gordon,  W. J. Hehre,  Chao-Ping Hsu,  
 T.-C. Jagau,  Yousung Jung,  A. Klamt,  Jing Kong,  D. S. Lambrecht,  
 WanZhen Liang,  N. J. Mayhall,  C. W. McCurdy,  J. B. Neaton,  
 C. Ochsenfeld,  J. A. Parkhill,  R. Peverati,  V. A. Rassolov,  Yihan Shao,  
 L. V. Slipchenko,  T. Stauch,  R. P. Steele,  J. E. Subotnik,  
 A. J. W. Thom,  A. Tkatchenko,  D. G. Truhlar,  T. Van Voorhis,  
 T. A. Wesolowski,  K. B. Whaley,  H. L. Woodcock III,  P. M. Zimmerman,  
 S. Faraji,  P. M. W. Gill,  M. Head-Gordon,  J. M. Herbert,  A. I. Krylov

 Additional authors for Version 5.4.1: 
 S. Kotaru,  Shaozhi Li,  Xiangyuan Li,  F. Matz,  A. Molle,  Haisheng Ren,  
 Yingli Su,  Hung-Yi Tsai,  C. Utku,  Fang Wang

 Contributors to earlier versions of Q-Chem not listed above: 
 R. D. Adamson,  B. Austin,  R. Baer,  J. Baker,  G. J. O. Beran,  
 K. Brandhorst,  S. T. Brown,  E. F. C. Byrd,  A. K. Chakraborty,  
 G. K. L. Chan,  Chun-Min Chang,  Yunqing Chen,  C.-L. Cheng,  
 Siu Hung Chien,  D. M. Chipman,  D. L. Crittenden,  H. Dachsel,  
 R. J. Doerksen,  A. D. Dutoi,  R. G. Edgar,  J. Fosso-Tande,  
 L. Fusti-Molnar,  D. Ghosh,  A. Ghysels,  A. Golubeva-Zadorozhnaya,  
 J. Gonthier,  M. S. Gordon,  S. R. Gwaltney,  G. Hawkins,  J. E. Herr,  
 A. Heyden,  S. Hirata,  E. G. Hohenstein,  G. Kedziora,  F. J. Keil,  
 C. Kelley,  Jihan Kim,  R. A. King,  R. Z. Khaliullin,  P. P. Korambath,  
 W. Kurlancheek,  A. Laurent,  A. M. Lee,  M. S. Lee,  S. V. Levchenko,  
 Ching Yeh Lin,  D. Liotard,  E. Livshits,  R. C. Lochan,  I. Lotan,  
 L. A. Martinez-Martinez,  P. E. Maslen,  N. Nair,  D. P. O'Neill,  
 D. Neuhauser,  E. Neuscamman,  C. M. Oana,  R. Olivares-Amaya,  R. Olson,  
 T. M. Perrine,  B. Peters,  P. A. Pieniazek,  A. Prociuk,  Y. M. Rhee,  
 J. Ritchie,  M. A. Rohrdanz,  E. Rosta,  N. J. Russ,  H. F. Schaefer III,  
 M. W. Schmidt,  N. E. Schultz,  S. Sharma,  N. Shenvi,  C. D. Sherrill,  
 A. C. Simmonett,  A. Sodt,  T. Stein,  D. Stuck,  K. S. Thanthiriwatte,  
 V. Vanovschi,  L. Vogt,  Tao Wang,  A. Warshel,  M. A. Watson,  
 C. F. Williams,  Q. Wu,  X. Xu,  Jun Yang,  W. Zhang,  Yan Zhao

 Please cite Q-Chem as follows:
 Y. Shao et al., Mol. Phys. 113, 184-215 (2015)
 DOI: 10.1080/00268976.2014.952696

 Q-Chem 5.4.1 for Intel X86 EM64T Linux

 Parts of Q-Chem use Armadillo 9.800.1 (Horizon Scraper).
 http://arma.sourceforge.net/

 Q-Chem begins on Fri Sep  1 02:25:02 2023  

 Host: 
0

     Scratch files written to /scratch/ari.fischer/qChem1711267.hpc-mn1/qchem359427//
 Aug1521 |scratch|qcdevops|jenkins|workspace|build_RNUM 8249   
 Processing $rem in /usr/local/qchem-5.4.1/config/preferences:
 Processing $rem in /home/ari.fischer/.qchemrc:
 Symmetry turned off for PCM/SM12/SMD calculation


!!********************************************.
!!******************Warning*******************.
!!Desired Analytical derivatives not available.
!!Finite difference job might take a long time.
!!********************************************.
!!********************************************.


 2-order derivative to be evaluated numerically with 1-order analytical derivatives

 Checking the input file for inconsistencies... 	...done.

--------------------------------------------------------------
User input:
--------------------------------------------------------------
$molecule
0 3
O    0.2842434   -0.1262234    0.7733592
O    0.6656875   -0.9429672    1.7251071
H    1.8541998   -0.4026234    2.1288855
O    3.0079680    0.2729300    2.4713775
H    3.7309935   -0.1352543    1.9586743
$end

$rem
BASIS = 6-311++G(2df,2p)
GUI = 2
JOB_TYPE = Frequency
METHOD = wB97M-V
SCF_ALGORITHM = DIIS_GDM
MAX_SCF_CYCLES = 400
SCF_CONVERGENCE = 6
THRESH = 11
solvent_method = SMD
$end

--------------------------------------------------------------
 ----------------------------------------------------------------
             Standard Nuclear Orientation (Angstroms)
    I     Atom           X                Y                Z
 ----------------------------------------------------------------
    1      O       0.2842434000    -0.1262234000     0.7733592000
    2      O       0.6656875000    -0.9429672000     1.7251071000
    3      H       1.8541998000    -0.4026234000     2.1288855000
    4      O       3.0079680000     0.2729300000     2.4713775000
    5      H       3.7309935000    -0.1352543000     1.9586743000
 ----------------------------------------------------------------
 Nuclear Repulsion Energy =          63.95341389 hartrees
 There are       14 alpha and       12 beta electrons
 Requested basis set is 6-311++G(2df,2p)
 There are 36 shells and 122 basis functions

 Total QAlloc Memory Limit 288000 MB
 Mega-Array Size       188 MB
 MEM_STATIC part       192 MB
 
 Citation of the SMD model:
 Marenich, A.V.; Cramer, C.J.; Truhlar, D.G.
 J. Phys. Chem. B 2009, 113, 6378-6396.
 iSolventCode=           1
 Solvent: water                                                           
 
 vradii
            1           2           3           4           5
    1   1.5200000   1.5200000   1.2000000   1.5200000   1.2000000
 Changing PCM_VDW_RADII to SMD_RADIUS
 Discretize the solute cavity surface with Lebedev spheres
	Using 110 Lebedev grid points for each H atom
	Using 194 Lebedev grid points for other atoms
	Atomic van der Waals radii will be scaled by 1.20
 Remove points where switching function is < 1.0e-08
 Keep 556 surface tesserae and discard 246 interior tesserae
 Molecular Surface Area = 69.857 Angst**2

                       Distance Matrix (Angstroms)
             O (  1)   O (  2)   H (  3)   O (  4)
   O (  2)  1.310875
   H (  3)  2.092513  1.366591
   O (  4)  3.234388  2.742554  1.380165
   H (  5)  3.644879  3.178530  1.903369  0.975830
 
 A cutoff of  1.0D-11 yielded    623 shell pairs
 There are      7228 function pairs (      9132 Cartesian)
 Smallest overlap matrix eigenvalue = 8.55E-04
 Guess from superposition of atomic densities
 Warning:  Energy on first SCF cycle will be non-variational
 SAD guess density has 26.000000 electrons

 -----------------------------------------------------------------------
  General SCF calculation program by
  Eric Jon Sundstrom, Paul Horn, Yuezhi Mao, Dmitri Zuev, Alec White,
  David Stuck, Shaama M.S., Shane Yost, Joonho Lee, David Small,
  Daniel Levine, Susi Lehtola, Hugh Burton, Evgeny Epifanovsky,
  Bang C. Huynh
 -----------------------------------------------------------------------
 Exchange:     0.1500 Hartree-Fock + 1.0000 wB97M-V + LR-HF
 Correlation:  1.0000 wB97M-V
 Using SG-2 standard quadrature grid
 Nonlocal Correlation:  VV10 with C = 0.0100 and b = 6.00 and scale = 1.00000
 Grid used for NLC:  SG-1 standard quadrature
 using 4 threads for integral computing
 -------------------------------------------------------
 OpenMP Integral computing Module                
 Release: version 1.0, May 2013, Q-Chem Inc. Pittsburgh 
 -------------------------------------------------------
 
 Citation of the SMD model:
 Marenich, A.V.; Cramer, C.J.; Truhlar, D.G.
 J. Phys. Chem. B 2009, 113, 6378-6396.
 iSolventCode=           1
 Solvent: water                                                           
 
 vradii
            1           2           3           4           5
    1   1.5200000   1.5200000   1.2000000   1.5200000   1.2000000
 -------------------------------------------------------
 OpenMP BLAS3 based DFT computing Module                
 Release: version 1.0, May 2013, Q-Chem Inc. Pittsburgh 
 -------------------------------------------------------
 A unrestricted SCF calculation will be
 performed using DIIS, GDM
 SCF converges when RMS gradient is below 1.0e-06
 ---------------------------------------
  Cycle       Energy         DIIS error
 ---------------------------------------
    1    -226.3713680218      1.58e-02  
    2    -226.5597965580      4.55e-03  Done DIIS. Switching to GDM
 ---------------------------------------
  Cycle       Energy        RMS Gradient
 ---------------------------------------
    1    -226.5597965580      1.77e-01   Descent step
    2    -226.6736732084      5.43e-02   Normal BFGS step
    3    -226.6850713578      1.49e-02   Normal BFGS step
    4    -226.6870862844      1.00e-02   Normal BFGS step
    5    -226.6873815433      9.54e-03   Normal BFGS step
    6    -226.6875201773      6.01e-03   Normal BFGS step
    7    -226.6875983760      2.61e-03   Normal BFGS step
    8    -226.6876228171      1.21e-03   Normal BFGS step
    9    -226.6876333793      1.05e-03   Normal BFGS step
   10    -226.6876349926      5.73e-04   Normal BFGS step
   11    -226.6876356253      1.66e-04   Normal BFGS step
   12    -226.6876357744      5.88e-05   Normal BFGS step
   13    -226.6876358134      2.61e-05   Normal BFGS step
   14    -226.6876358172      6.87e-06   Normal BFGS step
   15    -226.6876358175      2.19e-06   Normal BFGS step
   16    -226.6876358176      6.06e-07  Convergence criterion met
 ---------------------------------------
 SCF time:   CPU 60.46s  wall 16.00s 
<S^2> =          2.010342084
(3)  G-ENP(liq) elect-nuc-pol free energy of system     -226.687635818 a.u.
(4)  G-CDS(liq) cavity-dispersion-solvent structure 
     free energy                                                0.9565 kcal/mol
(6)  G-S(liq) free energy of system                     -226.686111497 a.u.
 SCF   energy in the final basis set =     -226.6861114974
 Total energy in the final basis set =     -226.6861114974
 
 --------------------------------------------------------------
 
                    Orbital Energies (a.u.)
 --------------------------------------------------------------
 
 Alpha MOs
 -- Occupied --
-19.5480 -19.5330 -19.3181  -1.3998  -1.0703  -1.0338  -0.7116  -0.6774
 -0.6758  -0.5536  -0.5029  -0.4756  -0.4290  -0.4020
 -- Virtual --
  0.0347   0.0687   0.1036   0.1640   0.1838   0.1895   0.2064   0.2159
  0.2222   0.2328   0.2488   0.2660   0.2876   0.2906   0.3319   0.3468
  0.4001   0.6143   0.6161   0.7135   0.7363   0.8257   0.9107   0.9714
  1.0059   1.0170   1.0372   1.0873   1.0954   1.1061   1.1494   1.1586
  1.2989   1.3233   1.3728   1.4058   1.4420   1.4595   1.5197   1.5503
  1.6183   1.7169   1.8361   1.9029   2.0103   2.0859   2.2126   2.2218
  2.2578   2.3304   2.5612   2.6417   2.7919   2.8113   3.7331   3.7678
  3.9001   3.9179   3.9810   4.2419   4.4434   4.5468   4.6218   4.6479
  4.7059   4.9193   4.9400   4.9578   4.9641   5.0180   5.0822   5.0841
  5.0936   5.1081   5.1255   5.1459   5.1788   5.1855   5.2266   5.3089
  5.3689   5.4743   5.4837   5.6180   5.6551   5.8197   6.3536   6.3767
  6.6079   6.6730   6.7858   6.8106   6.8189   6.9612   6.9929   7.0378
  7.0999   7.1329   7.2157   7.2790   7.3211   7.4790   7.6612   7.7985
  7.9029  50.2452  50.3330  50.4743
 
 Beta MOs
 -- Occupied --
-19.5139 -19.5082 -19.3156  -1.3420  -1.0636  -0.9514  -0.6557  -0.6086
 -0.5662  -0.5329  -0.4300  -0.3988
 -- Virtual --
 -0.1028  -0.0778   0.0361   0.0701   0.1194   0.1699   0.1893   0.1989
  0.2197   0.2221   0.2325   0.2480   0.2562   0.2694   0.2895   0.2977
  0.3351   0.3530   0.4014   0.6152   0.6183   0.7156   0.7417   0.8267
  0.9195   0.9850   1.0125   1.0381   1.0751   1.1025   1.1266   1.1395
  1.1572   1.1717   1.3209   1.3566   1.3992   1.4227   1.4725   1.4851
  1.5535   1.5615   1.6636   1.7584   1.8479   1.9053   2.0210   2.1183
  2.2427   2.2464   2.2828   2.3340   2.5798   2.6552   2.7826   2.8111
  3.7343   3.7658   3.8917   3.9122   3.9829   4.2435   4.4924   4.5889
  4.6735   4.6869   4.7440   5.0044   5.0355   5.0441   5.0603   5.1054
  5.1263   5.1349   5.1449   5.1484   5.1519   5.1662   5.2036   5.2338
  5.2415   5.3225   5.3775   5.5232   5.5411   5.6398   5.6571   5.8383
  6.4123   6.4322   6.7486   6.8190   6.8833   6.8857   6.9053   7.0113
  7.0354   7.0533   7.1228   7.1679   7.2668   7.3450   7.3674   7.4985
  7.6859   7.8215   7.9540  50.2714  50.3531  50.4761
 --------------------------------------------------------------
 
          Ground-State Mulliken Net Atomic Charges

     Atom                 Charge (a.u.)    Spin (a.u.)
  --------------------------------------------------------
      1 O                     0.156399       1.137860
      2 O                    -0.001020       0.793175
      3 H                     0.380799      -0.019320
      4 O                    -0.868007       0.089432
      5 H                     0.331829      -0.001147
  --------------------------------------------------------
  Sum of atomic charges =    -0.000000
  Sum of spin   charges =     2.000000

 -----------------------------------------------------------------
                    Cartesian Multipole Moments
 -----------------------------------------------------------------
    Charge (ESU x 10^10)
                -0.0000
    Dipole Moment (Debye)
         X      -2.5516      Y      -2.4231      Z      -2.7574
       Tot       4.4705
    Quadrupole Moments (Debye-Ang)
        XX     -24.2130     XY      -6.1268     YY     -18.1376
        XZ     -11.8786     YZ      -5.0987     ZZ     -29.4008
    Octopole Moments (Debye-Ang^2)
       XXX     -88.7369    XXY     -13.6289    XYY     -29.6551
       YYY      10.5460    XXZ     -65.5568    XYZ     -13.3336
       YYZ     -32.4027    XZZ     -69.7725    YZZ      -7.2928
       ZZZ    -133.3725
    Hexadecapole Moments (Debye-Ang^3)
      XXXX    -392.4914   XXXY     -56.9281   XXYY     -88.1913
      XYYY      -7.1187   YYYY     -46.8359   XXXZ    -266.6200
      XXYZ     -33.1464   XYYZ     -67.1245   YYYZ      12.1243
      XXZZ    -266.8358   XYZZ     -31.2867   YYZZ     -76.5145
      XZZZ    -322.5982   YZZZ     -10.7336   ZZZZ    -520.7806
 -----------------------------------------------------------------
 Calculating analytic gradient of the SCF energy
 Gradient of CDS energy
            1           2           3           4           5
    1  -0.0000584  -0.0002134  -0.0000136  -0.0001290   0.0004144
    2  -0.0000226  -0.0000017  -0.0001116   0.0002344  -0.0000986
    3  -0.0000197  -0.0001517   0.0002007   0.0001462  -0.0001755
 Gradient of SCF Energy
            1           2           3           4           5
    1  -0.0359712   0.0368132  -0.0870239   0.0708496   0.0153323
    2   0.0867512  -0.0899057  -0.0459315   0.0559396  -0.0068536
    3  -0.0987753   0.1012232  -0.0269999   0.0348081  -0.0102562
 Max gradient component =       1.012E-01
 RMS gradient           =       6.241E-02
 Computing fast CPCM-SWIG gradient
 Updating gradient with PCM contributions...
 -- total gradient after adding PCM contribution --
---------------------------------------------------
  Atom         X              Y              Z     
---------------------------------------------------
   1      -0.031357       0.077908      -0.087119
   2       0.036532      -0.078514       0.091073
   3      -0.083170      -0.041261      -0.022615
   4       0.064254       0.042504       0.022629
   5       0.013741      -0.000637      -0.003968
---------------------------------------------------
 Number of fixed atoms: 0
 Gradient time:  CPU 8.50 s  wall 2.35 s
 ######################################################
 ######################################################
 # Starting finite difference calculation for IDERIV  #
 Finite diff step size:  1.88973e-03 a.u.
 ----------------------------------------------------------------
             Standard Nuclear Orientation (Angstroms)
    I     Atom           X                Y                Z
 ----------------------------------------------------------------
    1      O       0.2852434000    -0.1262234000     0.7733592000
    2      O       0.6656875000    -0.9429672000     1.7251071000
    3      H       1.8541998000    -0.4026234000     2.1288855000
    4      O       3.0079680000     0.2729300000     2.4713775000
    5      H       3.7309935000    -0.1352543000     1.9586743000
 ----------------------------------------------------------------
 Nuclear Repulsion Energy =          63.96289700 hartrees
 There are       14 alpha and       12 beta electrons
 Discretize the solute cavity surface with Lebedev spheres
	Using 110 Lebedev grid points for each H atom
	Using 194 Lebedev grid points for other atoms
	Atomic van der Waals radii will be scaled by 1.20
 Remove points where switching function is < 1.0e-08
 Keep 556 surface tesserae and discard 246 interior tesserae
 Molecular Surface Area = 69.853 Angst**2

                       Distance Matrix (Angstroms)
             O (  1)   O (  2)   H (  3)   O (  4)
   O (  2)  1.310585
   H (  3)  2.091763  1.366591
   O (  4)  3.233546  2.742554  1.380165
   H (  5)  3.643933  3.178530  1.903369  0.975830
 
 Requested basis set is 6-311++G(2df,2p)
 There are 36 shells and 122 basis functions
 A cutoff of  1.0D-11 yielded    623 shell pairs
 There are      7228 function pairs (      9132 Cartesian)
 Smallest overlap matrix eigenvalue = 8.54E-04
 Guess MOs from SCF MO coefficient file

 -----------------------------------------------------------------------
  General SCF calculation program by
  Eric Jon Sundstrom, Paul Horn, Yuezhi Mao, Dmitri Zuev, Alec White,
  David Stuck, Shaama M.S., Shane Yost, Joonho Lee, David Small,
  Daniel Levine, Susi Lehtola, Hugh Burton, Evgeny Epifanovsky,
  Bang C. Huynh
 -----------------------------------------------------------------------
 Exchange:     0.1500 Hartree-Fock + 1.0000 wB97M-V + LR-HF
 Correlation:  1.0000 wB97M-V
 Using SG-2 standard quadrature grid
 Nonlocal Correlation:  VV10 with C = 0.0100 and b = 6.00 and scale = 1.00000
 Grid used for NLC:  SG-1 standard quadrature
 
 Citation of the SMD model:
 Marenich, A.V.; Cramer, C.J.; Truhlar, D.G.
 J. Phys. Chem. B 2009, 113, 6378-6396.
 iSolventCode=           1
 Solvent: water                                                           
 
 vradii
            1           2           3           4           5
    1   1.5200000   1.5200000   1.2000000   1.5200000   1.2000000
 -------------------------------------------------------
 OpenMP BLAS3 based DFT computing Module                
 Release: version 1.0, May 2013, Q-Chem Inc. Pittsburgh 
 -------------------------------------------------------
 A unrestricted SCF calculation will be
 performed using Roothaan-Hall, DIIS, GDM
 SCF converges when RMS gradient is below 1.0e-06
 ---------------------------------------
  Cycle       Energy         DIIS error
 ---------------------------------------
    1    -226.6604578853      5.60e-04  Roothaan Step
 ---------------------------------------
  Cycle       Energy         DIIS error
 ---------------------------------------
    1    -226.6811661642      7.96e-04  
    2    -226.6822194874      1.05e-03  Done DIIS. Switching to GDM
 ---------------------------------------
  Cycle       Energy        RMS Gradient
 ---------------------------------------
    1    -226.6822194874      3.64e-02   Normal BFGS step
    2    -226.6788481212      4.55e-02  Line search: overstep
    3    -226.6874729805      7.38e-03   Normal BFGS step
    4    -226.6876280688      5.26e-03   Normal BFGS step
    5    -226.6876772289      1.62e-03   Normal BFGS step
    6    -226.6876836769      1.83e-03   Normal BFGS step
    7    -226.6876911864      5.52e-04   Normal BFGS step
    8    -226.6876938741      5.54e-04   Normal BFGS step
    9    -226.6876945332      3.31e-04   Normal BFGS step
   10    -226.6876947208      1.21e-04   Normal BFGS step
   11    -226.6876947735      3.58e-05   Normal BFGS step
   12    -226.6876947898      1.40e-05   Normal BFGS step
   13    -226.6876947920      5.97e-06   Normal BFGS step
   14    -226.6876947923      1.98e-06   Normal BFGS step
   15    -226.6876947923      5.38e-07  Convergence criterion met
 ---------------------------------------
 SCF time:   CPU 59.79s  wall 16.00s 
<S^2> =          2.010336900
(3)  G-ENP(liq) elect-nuc-pol free energy of system     -226.687694792 a.u.
(4)  G-CDS(liq) cavity-dispersion-solvent structure 
     free energy                                                0.9565 kcal/mol
(6)  G-S(liq) free energy of system                     -226.686170582 a.u.
 SCF   energy in the final basis set =     -226.6861705823
 Total energy in the final basis set =     -226.6861705823
 
 --------------------------------------------------------------
 
                    Orbital Energies (a.u.)
 --------------------------------------------------------------
 
 Alpha MOs
 -- Occupied --
-19.5480 -19.5330 -19.3180  -1.4000  -1.0703  -1.0337  -0.7117  -0.6775
 -0.6759  -0.5536  -0.5029  -0.4755  -0.4290  -0.4020
 -- Virtual --
  0.0347   0.0687   0.1037   0.1640   0.1838   0.1895   0.2064   0.2159
  0.2223   0.2328   0.2488   0.2660   0.2876   0.2906   0.3319   0.3468
  0.4002   0.6143   0.6161   0.7135   0.7363   0.8257   0.9107   0.9713
  1.0059   1.0170   1.0372   1.0872   1.0954   1.1060   1.1494   1.1586
  1.2989   1.3234   1.3729   1.4058   1.4421   1.4595   1.5198   1.5503
  1.6183   1.7169   1.8363   1.9030   2.0103   2.0864   2.2129   2.2218
  2.2579   2.3305   2.5610   2.6418   2.7919   2.8113   3.7331   3.7678
  3.9002   3.9179   3.9811   4.2419   4.4434   4.5469   4.6215   4.6479
  4.7062   4.9193   4.9399   4.9579   4.9640   5.0180   5.0822   5.0842
  5.0938   5.1079   5.1255   5.1459   5.1789   5.1855   5.2267   5.3089
  5.3689   5.4748   5.4842   5.6180   5.6551   5.8197   6.3547   6.3777
  6.6079   6.6732   6.7858   6.8108   6.8192   6.9615   6.9930   7.0378
  7.0999   7.1329   7.2158   7.2791   7.3211   7.4790   7.6612   7.7987
  7.9036  50.2454  50.3333  50.4743
 
 Beta MOs
 -- Occupied --
-19.5139 -19.5082 -19.3156  -1.3422  -1.0636  -0.9513  -0.6558  -0.6087
 -0.5663  -0.5330  -0.4300  -0.3988
 -- Virtual --
 -0.1027  -0.0778   0.0361   0.0701   0.1195   0.1699   0.1893   0.1990
  0.2197   0.2221   0.2326   0.2481   0.2562   0.2694   0.2895   0.2977
  0.3351   0.3530   0.4014   0.6152   0.6183   0.7156   0.7418   0.8267
  0.9195   0.9850   1.0125   1.0381   1.0752   1.1024   1.1266   1.1394
  1.1572   1.1717   1.3209   1.3567   1.3993   1.4227   1.4725   1.4851
  1.5535   1.5614   1.6636   1.7585   1.8481   1.9054   2.0210   2.1188
  2.2427   2.2466   2.2829   2.3341   2.5796   2.6553   2.7826   2.8111
  3.7343   3.7658   3.8918   3.9122   3.9829   4.2435   4.4925   4.5890
  4.6732   4.6872   4.7440   5.0043   5.0355   5.0441   5.0602   5.1055
  5.1263   5.1352   5.1449   5.1484   5.1519   5.1662   5.2036   5.2339
  5.2415   5.3224   5.3775   5.5237   5.5416   5.6399   5.6571   5.8382
  6.4135   6.4334   6.7486   6.8191   6.8835   6.8860   6.9054   7.0115
  7.0355   7.0535   7.1228   7.1679   7.2668   7.3450   7.3674   7.4984
  7.6859   7.8216   7.9547  50.2717  50.3533  50.4761
 --------------------------------------------------------------
 
          Ground-State Mulliken Net Atomic Charges

     Atom                 Charge (a.u.)    Spin (a.u.)
  --------------------------------------------------------
      1 O                     0.156382       1.137826
      2 O                    -0.000940       0.793254
      3 H                     0.380772      -0.019290
      4 O                    -0.868041       0.089355
      5 H                     0.331827      -0.001146
  --------------------------------------------------------
  Sum of atomic charges =    -0.000000
  Sum of spin   charges =     2.000000

 -----------------------------------------------------------------
                    Cartesian Multipole Moments
 -----------------------------------------------------------------
    Charge (ESU x 10^10)
                -0.0000
    Dipole Moment (Debye)
         X      -2.5516      Y      -2.4235      Z      -2.7574
       Tot       4.4707
    Quadrupole Moments (Debye-Ang)
        XX     -24.2141     XY      -6.1270     YY     -18.1372
        XZ     -11.8797     YZ      -5.0990     ZZ     -29.4012
    Octopole Moments (Debye-Ang^2)
       XXX     -88.7574    XXY     -13.6296    XYY     -29.6602
       YYY      10.5449    XXZ     -65.5611    XYZ     -13.3337
       YYZ     -32.4025    XZZ     -69.7814    YZZ      -7.2933
       ZZZ    -133.3744
    Hexadecapole Moments (Debye-Ang^3)
      XXXX    -392.5303   XXXY     -56.9281   XXYY     -88.1952
      XYYY      -7.1170   YYYY     -46.8340   XXXZ    -266.6479
      XXYZ     -33.1475   XYYZ     -67.1297   YYYZ      12.1231
      XXZZ    -266.8520   XYZZ     -31.2863   YYZZ     -76.5145
      XZZZ    -322.6223   YZZZ     -10.7350   ZZZZ    -520.7873
 -----------------------------------------------------------------
 Calculating analytic gradient of the SCF energy
 Gradient of CDS energy
            1           2           3           4           5
    1  -0.0000583  -0.0002133  -0.0000136  -0.0001292   0.0004144
    2  -0.0000225  -0.0000016  -0.0001118   0.0002345  -0.0000986
    3  -0.0000197  -0.0001517   0.0002009   0.0001460  -0.0001755
 Gradient of SCF Energy
            1           2           3           4           5
    1  -0.0357804   0.0366409  -0.0870478   0.0708552   0.0153320
    2   0.0866400  -0.0898086  -0.0459200   0.0559425  -0.0068538
    3  -0.0986220   0.1010964  -0.0270290   0.0348121  -0.0102574
 Max gradient component =       1.011E-01
 RMS gradient           =       6.235E-02
 Computing fast CPCM-SWIG gradient
 Updating gradient with PCM contributions...
 -- total gradient after adding PCM contribution --
---------------------------------------------------
  Atom         X              Y              Z     
---------------------------------------------------
   1      -0.031176       0.077795      -0.086962
   2       0.036371      -0.078413       0.090943
   3      -0.083194      -0.041250      -0.022643
   4       0.064258       0.042506       0.022631
   5       0.013741      -0.000638      -0.003968
---------------------------------------------------
 Number of fixed atoms: 0
 Gradient time:  CPU 8.17 s  wall 2.27 s
 ----------------------------------------------------------------
             Standard Nuclear Orientation (Angstroms)
    I     Atom           X                Y                Z
 ----------------------------------------------------------------
    1      O       0.2832434000    -0.1262234000     0.7733592000
    2      O       0.6656875000    -0.9429672000     1.7251071000
    3      H       1.8541998000    -0.4026234000     2.1288855000
    4      O       3.0079680000     0.2729300000     2.4713775000
    5      H       3.7309935000    -0.1352543000     1.9586743000
 ----------------------------------------------------------------
 Nuclear Repulsion Energy =          63.94392117 hartrees
 There are       14 alpha and       12 beta electrons
 Discretize the solute cavity surface with Lebedev spheres
	Using 110 Lebedev grid points for each H atom
	Using 194 Lebedev grid points for other atoms
	Atomic van der Waals radii will be scaled by 1.20
 Remove points where switching function is < 1.0e-08
 Keep 556 surface tesserae and discard 246 interior tesserae
 Molecular Surface Area = 69.861 Angst**2

                       Distance Matrix (Angstroms)
             O (  1)   O (  2)   H (  3)   O (  4)
   O (  2)  1.311167
   H (  3)  2.093264  1.366591
   O (  4)  3.235230  2.742554  1.380165
   H (  5)  3.645824  3.178530  1.903369  0.975830
 
 Requested basis set is 6-311++G(2df,2p)
 There are 36 shells and 122 basis functions
 A cutoff of  1.0D-11 yielded    623 shell pairs
 There are      7228 function pairs (      9132 Cartesian)
 Smallest overlap matrix eigenvalue = 8.56E-04
 Guess MOs from SCF MO coefficient file

 -----------------------------------------------------------------------
  General SCF calculation program by
  Eric Jon Sundstrom, Paul Horn, Yuezhi Mao, Dmitri Zuev, Alec White,
  David Stuck, Shaama M.S., Shane Yost, Joonho Lee, David Small,
  Daniel Levine, Susi Lehtola, Hugh Burton, Evgeny Epifanovsky,
  Bang C. Huynh
 -----------------------------------------------------------------------
 Exchange:     0.1500 Hartree-Fock + 1.0000 wB97M-V + LR-HF
 Correlation:  1.0000 wB97M-V
 Using SG-2 standard quadrature grid
 Nonlocal Correlation:  VV10 with C = 0.0100 and b = 6.00 and scale = 1.00000
 Grid used for NLC:  SG-1 standard quadrature
 
 Citation of the SMD model:
 Marenich, A.V.; Cramer, C.J.; Truhlar, D.G.
 J. Phys. Chem. B 2009, 113, 6378-6396.
 iSolventCode=           1
 Solvent: water                                                           
 
 vradii
            1           2           3           4           5
    1   1.5200000   1.5200000   1.2000000   1.5200000   1.2000000
 -------------------------------------------------------
 OpenMP BLAS3 based DFT computing Module                
 Release: version 1.0, May 2013, Q-Chem Inc. Pittsburgh 
 -------------------------------------------------------
 A unrestricted SCF calculation will be
 performed using Roothaan-Hall, DIIS, GDM
 SCF converges when RMS gradient is below 1.0e-06
 ---------------------------------------
  Cycle       Energy         DIIS error
 ---------------------------------------
    1    -226.6603373049      5.60e-04  Roothaan Step
 ---------------------------------------
  Cycle       Energy         DIIS error
 ---------------------------------------
    1    -226.6810540565      7.95e-04  
    2    -226.6821042162      1.05e-03  Done DIIS. Switching to GDM
 ---------------------------------------
  Cycle       Energy        RMS Gradient
 ---------------------------------------
    1    -226.6821042162      3.64e-02   Normal BFGS step
    2    -226.6787328767      4.55e-02  Line search: overstep
    3    -226.6873546868      7.38e-03   Normal BFGS step
    4    -226.6875096653      5.25e-03   Normal BFGS step
    5    -226.6875590209      1.57e-03   Normal BFGS step
    6    -226.6875655274      1.80e-03   Normal BFGS step
    7    -226.6875729222      5.28e-04   Normal BFGS step
    8    -226.6875755984      5.50e-04   Normal BFGS step
    9    -226.6875762395      3.25e-04   Normal BFGS step
   10    -226.6875764298      1.18e-04   Normal BFGS step
   11    -226.6875764819      3.60e-05   Normal BFGS step
   12    -226.6875764984      1.39e-05   Normal BFGS step
   13    -226.6875765006      5.96e-06   Normal BFGS step
   14    -226.6875765008      1.92e-06   Normal BFGS step
   15    -226.6875765008      5.35e-07  Convergence criterion met
 ---------------------------------------
 SCF time:   CPU 60.25s  wall 16.00s 
<S^2> =          2.010347320
(3)  G-ENP(liq) elect-nuc-pol free energy of system     -226.687576501 a.u.
(4)  G-CDS(liq) cavity-dispersion-solvent structure 
     free energy                                                0.9566 kcal/mol
(6)  G-S(liq) free energy of system                     -226.686052070 a.u.
 SCF   energy in the final basis set =     -226.6860520702
 Total energy in the final basis set =     -226.6860520702
 
 --------------------------------------------------------------
 
                    Orbital Energies (a.u.)
 --------------------------------------------------------------
 
 Alpha MOs
 -- Occupied --
-19.5480 -19.5330 -19.3181  -1.3996  -1.0703  -1.0339  -0.7115  -0.6773
 -0.6757  -0.5536  -0.5030  -0.4756  -0.4290  -0.4020
 -- Virtual --
  0.0347   0.0687   0.1035   0.1640   0.1838   0.1895   0.2063   0.2159
  0.2222   0.2328   0.2488   0.2660   0.2876   0.2906   0.3319   0.3468
  0.4001   0.6143   0.6162   0.7135   0.7363   0.8257   0.9107   0.9714
  1.0059   1.0170   1.0371   1.0873   1.0954   1.1061   1.1494   1.1586
  1.2990   1.3233   1.3727   1.4058   1.4420   1.4594   1.5197   1.5504
  1.6182   1.7168   1.8359   1.9029   2.0103   2.0854   2.2123   2.2218
  2.2576   2.3304   2.5615   2.6417   2.7919   2.8113   3.7331   3.7678
  3.9000   3.9179   3.9810   4.2419   4.4433   4.5467   4.6221   4.6478
  4.7057   4.9194   4.9401   4.9578   4.9641   5.0179   5.0821   5.0839
  5.0933   5.1083   5.1255   5.1458   5.1788   5.1854   5.2266   5.3089
  5.3689   5.4737   5.4832   5.6180   5.6551   5.8198   6.3524   6.3756
  6.6078   6.6729   6.7857   6.8104   6.8186   6.9610   6.9927   7.0378
  7.0999   7.1329   7.2157   7.2789   7.3212   7.4790   7.6612   7.7984
  7.9022  50.2449  50.3328  50.4743
 
 Beta MOs
 -- Occupied --
-19.5140 -19.5082 -19.3156  -1.3418  -1.0636  -0.9515  -0.6557  -0.6085
 -0.5661  -0.5329  -0.4300  -0.3988
 -- Virtual --
 -0.1029  -0.0779   0.0361   0.0701   0.1193   0.1699   0.1893   0.1989
  0.2197   0.2220   0.2325   0.2478   0.2562   0.2694   0.2894   0.2976
  0.3351   0.3530   0.4014   0.6152   0.6183   0.7156   0.7417   0.8267
  0.9196   0.9851   1.0125   1.0381   1.0751   1.1025   1.1265   1.1395
  1.1572   1.1717   1.3210   1.3565   1.3991   1.4227   1.4725   1.4851
  1.5535   1.5615   1.6635   1.7584   1.8477   1.9053   2.0210   2.1178
  2.2427   2.2461   2.2827   2.3339   2.5800   2.6552   2.7826   2.8111
  3.7343   3.7658   3.8916   3.9122   3.9828   4.2435   4.4924   4.5887
  4.6738   4.6866   4.7440   5.0045   5.0356   5.0441   5.0604   5.1054
  5.1263   5.1345   5.1450   5.1483   5.1519   5.1663   5.2036   5.2337
  5.2414   5.3225   5.3774   5.5227   5.5406   5.6398   5.6571   5.8384
  6.4112   6.4311   6.7485   6.8188   6.8831   6.8854   6.9053   7.0111
  7.0352   7.0532   7.1227   7.1679   7.2668   7.3449   7.3673   7.4985
  7.6859   7.8213   7.9533  50.2711  50.3528  50.4761
 --------------------------------------------------------------
 
          Ground-State Mulliken Net Atomic Charges

     Atom                 Charge (a.u.)    Spin (a.u.)
  --------------------------------------------------------
      1 O                     0.156416       1.137894
      2 O                    -0.001099       0.793096
      3 H                     0.380826      -0.019351
      4 O                    -0.867973       0.089510
      5 H                     0.331831      -0.001148
  --------------------------------------------------------
  Sum of atomic charges =    -0.000000
  Sum of spin   charges =     2.000000

 -----------------------------------------------------------------
                    Cartesian Multipole Moments
 -----------------------------------------------------------------
    Charge (ESU x 10^10)
                -0.0000
    Dipole Moment (Debye)
         X      -2.5517      Y      -2.4226      Z      -2.7573
       Tot       4.4703
    Quadrupole Moments (Debye-Ang)
        XX     -24.2119     XY      -6.1266     YY     -18.1381
        XZ     -11.8775     YZ      -5.0984     ZZ     -29.4003
    Octopole Moments (Debye-Ang^2)
       XXX     -88.7164    XXY     -13.6282    XYY     -29.6499
       YYY      10.5471    XXZ     -65.5526    XYZ     -13.3334
       YYZ     -32.4029    XZZ     -69.7635    YZZ      -7.2924
       ZZZ    -133.3707
    Hexadecapole Moments (Debye-Ang^3)
      XXXX    -392.4524   XXXY     -56.9281   XXYY     -88.1874
      XYYY      -7.1204   YYYY     -46.8377   XXXZ    -266.5919
      XXYZ     -33.1453   XYYZ     -67.1192   YYYZ      12.1256
      XXZZ    -266.8195   XYZZ     -31.2871   YYZZ     -76.5144
      XZZZ    -322.5740   YZZZ     -10.7321   ZZZZ    -520.7738
 -----------------------------------------------------------------
 Calculating analytic gradient of the SCF energy
 Gradient of CDS energy
            1           2           3           4           5
    1  -0.0000584  -0.0002135  -0.0000136  -0.0001289   0.0004144
    2  -0.0000226  -0.0000017  -0.0001114   0.0002344  -0.0000986
    3  -0.0000197  -0.0001516   0.0002005   0.0001464  -0.0001755
 Gradient of SCF Energy
            1           2           3           4           5
    1  -0.0361624   0.0369860  -0.0870001   0.0708440   0.0153325
    2   0.0868623  -0.0900027  -0.0459431   0.0559368  -0.0068533
    3  -0.0989283   0.1013499  -0.0269707   0.0348041  -0.0102549
 Max gradient component =       1.013E-01
 RMS gradient           =       6.247E-02
 Computing fast CPCM-SWIG gradient
 Updating gradient with PCM contributions...
 -- total gradient after adding PCM contribution --
---------------------------------------------------
  Atom         X              Y              Z     
---------------------------------------------------
   1      -0.031538       0.078021      -0.087275
   2       0.036693      -0.078614       0.091203
   3      -0.083146      -0.041272      -0.022587
   4       0.064250       0.042501       0.022626
   5       0.013740      -0.000637      -0.003967
---------------------------------------------------
 Number of fixed atoms: 0
 Gradient time:  CPU 7.98 s  wall 2.13 s
 ----------------------------------------------------------------
             Standard Nuclear Orientation (Angstroms)
    I     Atom           X                Y                Z
 ----------------------------------------------------------------
    1      O       0.2842434000    -0.1252234000     0.7733592000
    2      O       0.6656875000    -0.9429672000     1.7251071000
    3      H       1.8541998000    -0.4026234000     2.1288855000
    4      O       3.0079680000     0.2729300000     2.4713775000
    5      H       3.7309935000    -0.1352543000     1.9586743000
 ----------------------------------------------------------------
 Nuclear Repulsion Energy =          63.94140586 hartrees
 There are       14 alpha and       12 beta electrons
 Discretize the solute cavity surface with Lebedev spheres
	Using 110 Lebedev grid points for each H atom
	Using 194 Lebedev grid points for other atoms
	Atomic van der Waals radii will be scaled by 1.20
 Remove points where switching function is < 1.0e-08
 Keep 556 surface tesserae and discard 246 interior tesserae
 Molecular Surface Area = 69.862 Angst**2

                       Distance Matrix (Angstroms)
             O (  1)   O (  2)   H (  3)   O (  4)
   O (  2)  1.311499
   H (  3)  2.092646  1.366591
   O (  4)  3.234265  2.742554  1.380165
   H (  5)  3.644881  3.178530  1.903369  0.975830
 
 Requested basis set is 6-311++G(2df,2p)
 There are 36 shells and 122 basis functions
 A cutoff of  1.0D-11 yielded    623 shell pairs
 There are      7228 function pairs (      9132 Cartesian)
 Smallest overlap matrix eigenvalue = 8.57E-04
 Guess MOs from SCF MO coefficient file

 -----------------------------------------------------------------------
  General SCF calculation program by
  Eric Jon Sundstrom, Paul Horn, Yuezhi Mao, Dmitri Zuev, Alec White,
  David Stuck, Shaama M.S., Shane Yost, Joonho Lee, David Small,
  Daniel Levine, Susi Lehtola, Hugh Burton, Evgeny Epifanovsky,
  Bang C. Huynh
 -----------------------------------------------------------------------
 Exchange:     0.1500 Hartree-Fock + 1.0000 wB97M-V + LR-HF
 Correlation:  1.0000 wB97M-V
 Using SG-2 standard quadrature grid
 Nonlocal Correlation:  VV10 with C = 0.0100 and b = 6.00 and scale = 1.00000
 Grid used for NLC:  SG-1 standard quadrature
 
 Citation of the SMD model:
 Marenich, A.V.; Cramer, C.J.; Truhlar, D.G.
 J. Phys. Chem. B 2009, 113, 6378-6396.
 iSolventCode=           1
 Solvent: water                                                           
 
 vradii
            1           2           3           4           5
    1   1.5200000   1.5200000   1.2000000   1.5200000   1.2000000
 -------------------------------------------------------
 OpenMP BLAS3 based DFT computing Module                
 Release: version 1.0, May 2013, Q-Chem Inc. Pittsburgh 
 -------------------------------------------------------
 A unrestricted SCF calculation will be
 performed using Roothaan-Hall, DIIS, GDM
 SCF converges when RMS gradient is below 1.0e-06
 ---------------------------------------
  Cycle       Energy         DIIS error
 ---------------------------------------
    1    -226.6602566330      5.60e-04  Roothaan Step
 ---------------------------------------
  Cycle       Energy         DIIS error
 ---------------------------------------
    1    -226.6809643094      7.95e-04  
    2    -226.6820150184      1.05e-03  Done DIIS. Switching to GDM
 ---------------------------------------
  Cycle       Energy        RMS Gradient
 ---------------------------------------
    1    -226.6820150184      3.64e-02   Normal BFGS step
    2    -226.6786424087      4.55e-02  Line search: overstep
    3    -226.6872666553      7.37e-03   Normal BFGS step
    4    -226.6874215291      5.25e-03   Normal BFGS step
    5    -226.6874707599      1.56e-03   Normal BFGS step
    6    -226.6874772817      1.80e-03   Normal BFGS step
    7    -226.6874846441      5.24e-04   Normal BFGS step
    8    -226.6874873375      5.51e-04   Normal BFGS step
    9    -226.6874879785      3.25e-04   Normal BFGS step
   10    -226.6874881689      1.18e-04   Normal BFGS step
   11    -226.6874882206      3.65e-05   Normal BFGS step
   12    -226.6874882370      1.37e-05   Normal BFGS step
   13    -226.6874882392      6.04e-06   Normal BFGS step
   14    -226.6874882394      1.94e-06   Normal BFGS step
   15    -226.6874882394      5.47e-07  Convergence criterion met
 ---------------------------------------
 SCF time:   CPU 60.48s  wall 16.00s 
<S^2> =          2.010352063
(3)  G-ENP(liq) elect-nuc-pol free energy of system     -226.687488239 a.u.
(4)  G-CDS(liq) cavity-dispersion-solvent structure 
     free energy                                                0.9565 kcal/mol
(6)  G-S(liq) free energy of system                     -226.685963962 a.u.
 SCF   energy in the final basis set =     -226.6859639617
 Total energy in the final basis set =     -226.6859639617
 
 --------------------------------------------------------------
 
                    Orbital Energies (a.u.)
 --------------------------------------------------------------
 
 Alpha MOs
 -- Occupied --
-19.5481 -19.5331 -19.3181  -1.3994  -1.0703  -1.0340  -0.7114  -0.6773
 -0.6757  -0.5536  -0.5030  -0.4757  -0.4291  -0.4020
 -- Virtual --
  0.0347   0.0687   0.1034   0.1640   0.1838   0.1895   0.2061   0.2159
  0.2221   0.2328   0.2488   0.2660   0.2876   0.2906   0.3319   0.3468
  0.4001   0.6143   0.6161   0.7135   0.7362   0.8257   0.9107   0.9714
  1.0059   1.0170   1.0371   1.0873   1.0955   1.1061   1.1494   1.1586
  1.2990   1.3232   1.3728   1.4059   1.4420   1.4595   1.5197   1.5503
  1.6182   1.7167   1.8361   1.9029   2.0103   2.0850   2.2120   2.2214
  2.2576   2.3304   2.5615   2.6417   2.7919   2.8113   3.7331   3.7678
  3.9001   3.9179   3.9810   4.2419   4.4433   4.5467   4.6223   4.6476
  4.7052   4.9195   4.9401   4.9579   4.9642   5.0178   5.0820   5.0837
  5.0930   5.1086   5.1255   5.1458   5.1788   5.1854   5.2266   5.3089
  5.3689   5.4735   5.4826   5.6178   5.6551   5.8196   6.3512   6.3743
  6.6078   6.6729   6.7856   6.8100   6.8185   6.9607   6.9927   7.0378
  7.0999   7.1329   7.2157   7.2788   7.3210   7.4789   7.6610   7.7981
  7.9016  50.2446  50.3326  50.4743
 
 Beta MOs
 -- Occupied --
-19.5140 -19.5082 -19.3156  -1.3416  -1.0636  -0.9515  -0.6556  -0.6085
 -0.5660  -0.5329  -0.4299  -0.3988
 -- Virtual --
 -0.1029  -0.0780   0.0361   0.0701   0.1192   0.1699   0.1893   0.1990
  0.2197   0.2220   0.2325   0.2477   0.2562   0.2694   0.2894   0.2976
  0.3351   0.3530   0.4014   0.6152   0.6183   0.7156   0.7417   0.8267
  0.9196   0.9851   1.0125   1.0381   1.0751   1.1026   1.1266   1.1395
  1.1572   1.1717   1.3209   1.3564   1.3992   1.4228   1.4725   1.4852
  1.5535   1.5614   1.6634   1.7582   1.8479   1.9053   2.0209   2.1174
  2.2424   2.2458   2.2826   2.3340   2.5800   2.6553   2.7826   2.8111
  3.7343   3.7658   3.8917   3.9122   3.9828   4.2435   4.4923   4.5887
  4.6740   4.6863   4.7437   5.0046   5.0356   5.0443   5.0604   5.1053
  5.1263   5.1341   5.1451   5.1483   5.1519   5.1664   5.2035   5.2337
  5.2414   5.3225   5.3774   5.5224   5.5400   5.6396   5.6571   5.8381
  6.4099   6.4299   6.7485   6.8189   6.8830   6.8851   6.9052   7.0111
  7.0350   7.0532   7.1227   7.1679   7.2669   7.3448   7.3673   7.4983
  7.6856   7.8210   7.9527  50.2708  50.3527  50.4761
 --------------------------------------------------------------
 
          Ground-State Mulliken Net Atomic Charges

     Atom                 Charge (a.u.)    Spin (a.u.)
  --------------------------------------------------------
      1 O                     0.156466       1.138040
      2 O                    -0.001112       0.792995
      3 H                     0.380802      -0.019363
      4 O                    -0.867986       0.089478
      5 H                     0.331831      -0.001150
  --------------------------------------------------------
  Sum of atomic charges =    -0.000000
  Sum of spin   charges =     2.000000

 -----------------------------------------------------------------
                    Cartesian Multipole Moments
 -----------------------------------------------------------------
    Charge (ESU x 10^10)
                -0.0000
    Dipole Moment (Debye)
         X      -2.5514      Y      -2.4219      Z      -2.7577
       Tot       4.4699
    Quadrupole Moments (Debye-Ang)
        XX     -24.2126     XY      -6.1265     YY     -18.1383
        XZ     -11.8776     YZ      -5.0983     ZZ     -29.4012
    Octopole Moments (Debye-Ang^2)
       XXX     -88.7340    XXY     -13.6327    XYY     -29.6546
       YYY      10.5326    XXZ     -65.5548    XYZ     -13.3338
       YYZ     -32.4024    XZZ     -69.7696    YZZ      -7.2982
       ZZZ    -133.3729
    Hexadecapole Moments (Debye-Ang^3)
      XXXX    -392.4797   XXXY     -56.9297   XXYY     -88.1892
      XYYY      -7.1230   YYYY     -46.8294   XXXZ    -266.6116
      XXYZ     -33.1488   XYYZ     -67.1224   YYYZ      12.1124
      XXZZ    -266.8297   XYZZ     -31.2889   YYZZ     -76.5109
      XZZZ    -322.5909   YZZZ     -10.7470   ZZZZ    -520.7807
 -----------------------------------------------------------------
 Calculating analytic gradient of the SCF energy
 Gradient of CDS energy
            1           2           3           4           5
    1  -0.0000583  -0.0002134  -0.0000136  -0.0001291   0.0004144
    2  -0.0000225  -0.0000016  -0.0001117   0.0002345  -0.0000986
    3  -0.0000197  -0.0001516   0.0002008   0.0001461  -0.0001755
 Gradient of SCF Energy
            1           2           3           4           5
    1  -0.0360806   0.0369102  -0.0870003   0.0708393   0.0153314
    2   0.0870838  -0.0902433  -0.0459217   0.0559342  -0.0068530
    3  -0.0990428   0.1014836  -0.0269888   0.0348043  -0.0102563
 Max gradient component =       1.015E-01
 RMS gradient           =       6.253E-02
 Computing fast CPCM-SWIG gradient
 Updating gradient with PCM contributions...
 -- total gradient after adding PCM contribution --
---------------------------------------------------
  Atom         X              Y              Z     
---------------------------------------------------
   1      -0.031470       0.078236      -0.087395
   2       0.036631      -0.078846       0.091342
   3      -0.083148      -0.041253      -0.022605
   4       0.064247       0.042500       0.022626
   5       0.013739      -0.000637      -0.003968
---------------------------------------------------
 Number of fixed atoms: 0
 Gradient time:  CPU 8.23 s  wall 2.20 s
 ----------------------------------------------------------------
             Standard Nuclear Orientation (Angstroms)
    I     Atom           X                Y                Z
 ----------------------------------------------------------------
    1      O       0.2842434000    -0.1272234000     0.7733592000
    2      O       0.6656875000    -0.9429672000     1.7251071000
    3      H       1.8541998000    -0.4026234000     2.1288855000
    4      O       3.0079680000     0.2729300000     2.4713775000
    5      H       3.7309935000    -0.1352543000     1.9586743000
 ----------------------------------------------------------------
 Nuclear Repulsion Energy =          63.96542292 hartrees
 There are       14 alpha and       12 beta electrons
 Discretize the solute cavity surface with Lebedev spheres
	Using 110 Lebedev grid points for each H atom
	Using 194 Lebedev grid points for other atoms
	Atomic van der Waals radii will be scaled by 1.20
 Remove points where switching function is < 1.0e-08
 Keep 556 surface tesserae and discard 246 interior tesserae
 Molecular Surface Area = 69.852 Angst**2

                       Distance Matrix (Angstroms)
             O (  1)   O (  2)   H (  3)   O (  4)
   O (  2)  1.310253
   H (  3)  2.092381  1.366591
   O (  4)  3.234511  2.742554  1.380165
   H (  5)  3.644876  3.178530  1.903369  0.975830
 
 Requested basis set is 6-311++G(2df,2p)
 There are 36 shells and 122 basis functions
 A cutoff of  1.0D-11 yielded    623 shell pairs
 There are      7228 function pairs (      9132 Cartesian)
 Smallest overlap matrix eigenvalue = 8.53E-04
 Guess MOs from SCF MO coefficient file

 -----------------------------------------------------------------------
  General SCF calculation program by
  Eric Jon Sundstrom, Paul Horn, Yuezhi Mao, Dmitri Zuev, Alec White,
  David Stuck, Shaama M.S., Shane Yost, Joonho Lee, David Small,
  Daniel Levine, Susi Lehtola, Hugh Burton, Evgeny Epifanovsky,
  Bang C. Huynh
 -----------------------------------------------------------------------
 Exchange:     0.1500 Hartree-Fock + 1.0000 wB97M-V + LR-HF
 Correlation:  1.0000 wB97M-V
 Using SG-2 standard quadrature grid
 Nonlocal Correlation:  VV10 with C = 0.0100 and b = 6.00 and scale = 1.00000
 Grid used for NLC:  SG-1 standard quadrature
 
 Citation of the SMD model:
 Marenich, A.V.; Cramer, C.J.; Truhlar, D.G.
 J. Phys. Chem. B 2009, 113, 6378-6396.
 iSolventCode=           1
 Solvent: water                                                           
 
 vradii
            1           2           3           4           5
    1   1.5200000   1.5200000   1.2000000   1.5200000   1.2000000
 -------------------------------------------------------
 OpenMP BLAS3 based DFT computing Module                
 Release: version 1.0, May 2013, Q-Chem Inc. Pittsburgh 
 -------------------------------------------------------
 A unrestricted SCF calculation will be
 performed using Roothaan-Hall, DIIS, GDM
 SCF converges when RMS gradient is below 1.0e-06
 ---------------------------------------
  Cycle       Energy         DIIS error
 ---------------------------------------
    1    -226.6605446284      5.60e-04  Roothaan Step
 ---------------------------------------
  Cycle       Energy         DIIS error
 ---------------------------------------
    1    -226.6812455361      7.96e-04  
    2    -226.6822987026      1.05e-03  Done DIIS. Switching to GDM
 ---------------------------------------
  Cycle       Energy        RMS Gradient
 ---------------------------------------
    1    -226.6822987026      3.65e-02   Normal BFGS step
    2    -226.6789234950      4.55e-02  Line search: overstep
    3    -226.6875602418      7.40e-03   Normal BFGS step
    4    -226.6877157943      5.27e-03   Normal BFGS step
    5    -226.6877652773      1.58e-03   Normal BFGS step
    6    -226.6877718250      1.80e-03   Normal BFGS step
    7    -226.6877792094      5.31e-04   Normal BFGS step
    8    -226.6877818774      5.46e-04   Normal BFGS step
    9    -226.6877825176      3.22e-04   Normal BFGS step
   10    -226.6877827049      1.17e-04   Normal BFGS step
   11    -226.6877827563      3.59e-05   Normal BFGS step
   12    -226.6877827725      1.38e-05   Normal BFGS step
   13    -226.6877827746      5.92e-06   Normal BFGS step
   14    -226.6877827749      1.91e-06   Normal BFGS step
   15    -226.6877827749      5.33e-07  Convergence criterion met
 ---------------------------------------
 SCF time:   CPU 60.75s  wall 15.00s 
<S^2> =          2.010332157
(3)  G-ENP(liq) elect-nuc-pol free energy of system     -226.687782775 a.u.
(4)  G-CDS(liq) cavity-dispersion-solvent structure 
     free energy                                                0.9566 kcal/mol
(6)  G-S(liq) free energy of system                     -226.686258412 a.u.
 SCF   energy in the final basis set =     -226.6862584120
 Total energy in the final basis set =     -226.6862584120
 
 --------------------------------------------------------------
 
                    Orbital Energies (a.u.)
 --------------------------------------------------------------
 
 Alpha MOs
 -- Occupied --
-19.5479 -19.5330 -19.3181  -1.4002  -1.0703  -1.0337  -0.7117  -0.6775
 -0.6760  -0.5536  -0.5028  -0.4754  -0.4290  -0.4020
 -- Virtual --
  0.0347   0.0687   0.1039   0.1640   0.1838   0.1895   0.2066   0.2159
  0.2223   0.2329   0.2488   0.2660   0.2877   0.2906   0.3319   0.3468
  0.4002   0.6143   0.6162   0.7135   0.7363   0.8257   0.9107   0.9713
  1.0059   1.0170   1.0372   1.0872   1.0953   1.1061   1.1494   1.1586
  1.2989   1.3235   1.3728   1.4058   1.4420   1.4594   1.5198   1.5504
  1.6184   1.7170   1.8361   1.9029   2.0103   2.0869   2.2131   2.2222
  2.2579   2.3305   2.5610   2.6417   2.7919   2.8113   3.7331   3.7678
  3.9000   3.9179   3.9811   4.2419   4.4435   4.5469   4.6213   4.6481
  4.7067   4.9192   4.9399   4.9578   4.9640   5.0181   5.0823   5.0844
  5.0942   5.1077   5.1254   5.1459   5.1788   5.1855   5.2267   5.3089
  5.3689   5.4751   5.4848   5.6182   5.6551   5.8199   6.3559   6.3790
  6.6079   6.6731   6.7859   6.8112   6.8193   6.9618   6.9930   7.0378
  7.0999   7.1329   7.2157   7.2792   7.3213   7.4791   7.6615   7.7989
  7.9043  50.2458  50.3335  50.4743
 
 Beta MOs
 -- Occupied --
-19.5139 -19.5081 -19.3156  -1.3424  -1.0636  -0.9512  -0.6559  -0.6087
 -0.5664  -0.5330  -0.4300  -0.3988
 -- Virtual --
 -0.1026  -0.0777   0.0361   0.0701   0.1195   0.1699   0.1893   0.1989
  0.2197   0.2221   0.2326   0.2483   0.2563   0.2694   0.2895   0.2977
  0.3351   0.3530   0.4014   0.6152   0.6183   0.7156   0.7418   0.8267
  0.9195   0.9850   1.0124   1.0381   1.0751   1.1024   1.1265   1.1395
  1.1572   1.1717   1.3209   1.3568   1.3992   1.4227   1.4725   1.4850
  1.5535   1.5615   1.6637   1.7586   1.8479   1.9054   2.0210   2.1193
  2.2431   2.2469   2.2830   2.3340   2.5796   2.6552   2.7827   2.8111
  3.7343   3.7658   3.8916   3.9122   3.9829   4.2435   4.4925   4.5890
  4.6730   4.6876   4.7443   5.0042   5.0354   5.0439   5.0602   5.1055
  5.1262   5.1356   5.1448   5.1485   5.1519   5.1660   5.2037   5.2338
  5.2415   5.3224   5.3775   5.5239   5.5423   5.6401   5.6571   5.8385
  6.4148   6.4346   6.7486   6.8190   6.8836   6.8863   6.9055   7.0116
  7.0357   7.0535   7.1228   7.1679   7.2668   7.3451   7.3675   7.4986
  7.6862   7.8219   7.9553  50.2720  50.3535  50.4761
 --------------------------------------------------------------
 
          Ground-State Mulliken Net Atomic Charges

     Atom                 Charge (a.u.)    Spin (a.u.)
  --------------------------------------------------------
      1 O                     0.156332       1.137681
      2 O                    -0.000927       0.793354
      3 H                     0.380796      -0.019277
      4 O                    -0.868028       0.089387
      5 H                     0.331827      -0.001144
  --------------------------------------------------------
  Sum of atomic charges =    -0.000000
  Sum of spin   charges =     2.000000

 -----------------------------------------------------------------
                    Cartesian Multipole Moments
 -----------------------------------------------------------------
    Charge (ESU x 10^10)
                -0.0000
    Dipole Moment (Debye)
         X      -2.5518      Y      -2.4242      Z      -2.7571
       Tot       4.4710
    Quadrupole Moments (Debye-Ang)
        XX     -24.2134     XY      -6.1271     YY     -18.1369
        XZ     -11.8796     YZ      -5.0992     ZZ     -29.4003
    Octopole Moments (Debye-Ang^2)
       XXX     -88.7398    XXY     -13.6250    XYY     -29.6555
       YYY      10.5594    XXZ     -65.5588    XYZ     -13.3333
       YYZ     -32.4029    XZZ     -69.7753    YZZ      -7.2874
       ZZZ    -133.3722
    Hexadecapole Moments (Debye-Ang^3)
      XXXX    -392.5030   XXXY     -56.9265   XXYY     -88.1934
      XYYY      -7.1144   YYYY     -46.8424   XXXZ    -266.6282
      XXYZ     -33.1439   XYYZ     -67.1266   YYYZ      12.1363
      XXZZ    -266.8419   XYZZ     -31.2845   YYZZ     -76.5181
      XZZZ    -322.6054   YZZZ     -10.7202   ZZZZ    -520.7804
 -----------------------------------------------------------------
 Calculating analytic gradient of the SCF energy
 Gradient of CDS energy
            1           2           3           4           5
    1  -0.0000584  -0.0002134  -0.0000137  -0.0001289   0.0004144
    2  -0.0000226  -0.0000017  -0.0001114   0.0002344  -0.0000986
    3  -0.0000197  -0.0001517   0.0002006   0.0001463  -0.0001755
 Gradient of SCF Energy
            1           2           3           4           5
    1  -0.0358613   0.0367158  -0.0870475   0.0708599   0.0153331
    2   0.0864178  -0.0895673  -0.0459414   0.0559450  -0.0068541
    3  -0.0985061   0.1009612  -0.0270109   0.0348119  -0.0102560
 Max gradient component =       1.010E-01
 RMS gradient           =       6.228E-02
 Computing fast CPCM-SWIG gradient
 Updating gradient with PCM contributions...
 -- total gradient after adding PCM contribution --
---------------------------------------------------
  Atom         X              Y              Z     
---------------------------------------------------
   1      -0.031244       0.077579      -0.086841
   2       0.036432      -0.078180       0.090802
   3      -0.083191      -0.041269      -0.022625
   4       0.064261       0.042507       0.022631
   5       0.013742      -0.000637      -0.003967
---------------------------------------------------
 Number of fixed atoms: 0
 Gradient time:  CPU 8.44 s  wall 2.38 s
 ----------------------------------------------------------------
             Standard Nuclear Orientation (Angstroms)
    I     Atom           X                Y                Z
 ----------------------------------------------------------------
    1      O       0.2842434000    -0.1262234000     0.7743592000
    2      O       0.6656875000    -0.9429672000     1.7251071000
    3      H       1.8541998000    -0.4026234000     2.1288855000
    4      O       3.0079680000     0.2729300000     2.4713775000
    5      H       3.7309935000    -0.1352543000     1.9586743000
 ----------------------------------------------------------------
 Nuclear Repulsion Energy =          63.97015707 hartrees
 There are       14 alpha and       12 beta electrons
 Discretize the solute cavity surface with Lebedev spheres
	Using 110 Lebedev grid points for each H atom
	Using 194 Lebedev grid points for other atoms
	Atomic van der Waals radii will be scaled by 1.20
 Remove points where switching function is < 1.0e-08
 Keep 556 surface tesserae and discard 246 interior tesserae
 Molecular Surface Area = 69.849 Angst**2

                       Distance Matrix (Angstroms)
             O (  1)   O (  2)   H (  3)   O (  4)
   O (  2)  1.310149
   H (  3)  2.091866  1.366591
   O (  4)  3.233863  2.742554  1.380165
   H (  5)  3.644553  3.178530  1.903369  0.975830
 
 Requested basis set is 6-311++G(2df,2p)
 There are 36 shells and 122 basis functions
 A cutoff of  1.0D-11 yielded    623 shell pairs
 There are      7228 function pairs (      9132 Cartesian)
 Smallest overlap matrix eigenvalue = 8.52E-04
 Guess MOs from SCF MO coefficient file

 -----------------------------------------------------------------------
  General SCF calculation program by
  Eric Jon Sundstrom, Paul Horn, Yuezhi Mao, Dmitri Zuev, Alec White,
  David Stuck, Shaama M.S., Shane Yost, Joonho Lee, David Small,
  Daniel Levine, Susi Lehtola, Hugh Burton, Evgeny Epifanovsky,
  Bang C. Huynh
 -----------------------------------------------------------------------
 Exchange:     0.1500 Hartree-Fock + 1.0000 wB97M-V + LR-HF
 Correlation:  1.0000 wB97M-V
 Using SG-2 standard quadrature grid
 Nonlocal Correlation:  VV10 with C = 0.0100 and b = 6.00 and scale = 1.00000
 Grid used for NLC:  SG-1 standard quadrature
 
 Citation of the SMD model:
 Marenich, A.V.; Cramer, C.J.; Truhlar, D.G.
 J. Phys. Chem. B 2009, 113, 6378-6396.
 iSolventCode=           1
 Solvent: water                                                           
 
 vradii
            1           2           3           4           5
    1   1.5200000   1.5200000   1.2000000   1.5200000   1.2000000
 -------------------------------------------------------
 OpenMP BLAS3 based DFT computing Module                
 Release: version 1.0, May 2013, Q-Chem Inc. Pittsburgh 
 -------------------------------------------------------
 A unrestricted SCF calculation will be
 performed using Roothaan-Hall, DIIS, GDM
 SCF converges when RMS gradient is below 1.0e-06
 ---------------------------------------
  Cycle       Energy         DIIS error
 ---------------------------------------
    1    -226.6605591952      5.60e-04  Roothaan Step
 ---------------------------------------
  Cycle       Energy         DIIS error
 ---------------------------------------
    1    -226.6812737663      7.95e-04  
    2    -226.6823281147      1.05e-03  Done DIIS. Switching to GDM
 ---------------------------------------
  Cycle       Energy        RMS Gradient
 ---------------------------------------
    1    -226.6823281147      3.64e-02   Normal BFGS step
    2    -226.6789595530      4.54e-02  Line search: overstep
    3    -226.6875783713      7.37e-03   Normal BFGS step
    4    -226.6877333625      5.27e-03   Normal BFGS step
    5    -226.6877823080      1.68e-03   Normal BFGS step
    6    -226.6877886462      1.88e-03   Normal BFGS step
    7    -226.6877963587      5.85e-04   Normal BFGS step
    8    -226.6877990530      5.59e-04   Normal BFGS step
    9    -226.6877997398      3.40e-04   Normal BFGS step
   10    -226.6877999262      1.26e-04   Normal BFGS step
   11    -226.6877999805      3.71e-05   Normal BFGS step
   12    -226.6877999969      1.43e-05   Normal BFGS step
   13    -226.6877999992      5.93e-06   Normal BFGS step
   14    -226.6877999995      2.05e-06   Normal BFGS step
   15    -226.6877999995      5.32e-07  Convergence criterion met
 ---------------------------------------
 SCF time:   CPU 62.48s  wall 16.00s 
<S^2> =          2.010330370
(3)  G-ENP(liq) elect-nuc-pol free energy of system     -226.687799999 a.u.
(4)  G-CDS(liq) cavity-dispersion-solvent structure 
     free energy                                                0.9565 kcal/mol
(6)  G-S(liq) free energy of system                     -226.686275717 a.u.
 SCF   energy in the final basis set =     -226.6862757166
 Total energy in the final basis set =     -226.6862757166
 
 --------------------------------------------------------------
 
                    Orbital Energies (a.u.)
 --------------------------------------------------------------
 
 Alpha MOs
 -- Occupied --
-19.5479 -19.5330 -19.3180  -1.4003  -1.0703  -1.0336  -0.7118  -0.6775
 -0.6760  -0.5536  -0.5028  -0.4754  -0.4290  -0.4020
 -- Virtual --
  0.0347   0.0687   0.1039   0.1640   0.1838   0.1895   0.2066   0.2159
  0.2223   0.2329   0.2488   0.2660   0.2876   0.2906   0.3319   0.3468
  0.4001   0.6143   0.6161   0.7135   0.7363   0.8257   0.9107   0.9713
  1.0059   1.0170   1.0372   1.0872   1.0954   1.1061   1.1493   1.1586
  1.2989   1.3235   1.3728   1.4058   1.4420   1.4594   1.5198   1.5504
  1.6184   1.7170   1.8363   1.9030   2.0103   2.0871   2.2132   2.2221
  2.2580   2.3305   2.5609   2.6417   2.7919   2.8113   3.7331   3.7678
  3.9001   3.9179   3.9811   4.2419   4.4435   4.5470   4.6211   4.6481
  4.7067   4.9192   4.9399   4.9578   4.9639   5.0181   5.0824   5.0844
  5.0943   5.1076   5.1254   5.1459   5.1789   5.1855   5.2267   5.3089
  5.3689   5.4753   5.4850   5.6182   5.6551   5.8198   6.3563   6.3794
  6.6080   6.6732   6.7860   6.8112   6.8194   6.9619   6.9931   7.0378
  7.0999   7.1329   7.2157   7.2792   7.3213   7.4791   7.6615   7.7990
  7.9045  50.2459  50.3336  50.4743
 
 Beta MOs
 -- Occupied --
-19.5139 -19.5081 -19.3156  -1.3425  -1.0636  -0.9512  -0.6559  -0.6088
 -0.5665  -0.5330  -0.4300  -0.3988
 -- Virtual --
 -0.1026  -0.0776   0.0361   0.0701   0.1196   0.1699   0.1893   0.1989
  0.2197   0.2221   0.2326   0.2483   0.2563   0.2694   0.2894   0.2977
  0.3351   0.3530   0.4014   0.6152   0.6183   0.7156   0.7418   0.8267
  0.9195   0.9850   1.0124   1.0381   1.0752   1.1024   1.1266   1.1395
  1.1572   1.1717   1.3209   1.3568   1.3993   1.4227   1.4725   1.4850
  1.5535   1.5615   1.6637   1.7586   1.8481   1.9054   2.0210   2.1195
  2.2430   2.2470   2.2831   2.3341   2.5795   2.6553   2.7826   2.8111
  3.7343   3.7658   3.8917   3.9122   3.9830   4.2435   4.4926   4.5891
  4.6729   4.6877   4.7443   5.0042   5.0354   5.0439   5.0602   5.1056
  5.1262   5.1358   5.1448   5.1485   5.1519   5.1660   5.2037   5.2339
  5.2415   5.3224   5.3775   5.5242   5.5424   5.6401   5.6571   5.8384
  6.4152   6.4350   6.7486   6.8191   6.8837   6.8864   6.9055   7.0117
  7.0358   7.0536   7.1228   7.1679   7.2668   7.3451   7.3674   7.4985
  7.6861   7.8220   7.9556  50.2721  50.3536  50.4761
 --------------------------------------------------------------
 
          Ground-State Mulliken Net Atomic Charges

     Atom                 Charge (a.u.)    Spin (a.u.)
  --------------------------------------------------------
      1 O                     0.156329       1.137684
      2 O                    -0.000887       0.793380
      3 H                     0.380775      -0.019265
      4 O                    -0.868046       0.089347
      5 H                     0.331829      -0.001145
  --------------------------------------------------------
  Sum of atomic charges =    -0.000000
  Sum of spin   charges =     2.000000

 -----------------------------------------------------------------
                    Cartesian Multipole Moments
 -----------------------------------------------------------------
    Charge (ESU x 10^10)
                -0.0000
    Dipole Moment (Debye)
         X      -2.5521      Y      -2.4238      Z      -2.7565
       Tot       4.4706
    Quadrupole Moments (Debye-Ang)
        XX     -24.2141     XY      -6.1270     YY     -18.1368
        XZ     -11.8802     YZ      -5.0990     ZZ     -29.3997
    Octopole Moments (Debye-Ang^2)
       XXX     -88.7425    XXY     -13.6302    XYY     -29.6555
       YYY      10.5441    XXZ     -65.5657    XYZ     -13.3333
       YYZ     -32.4076    XZZ     -69.7771    YZZ      -7.2924
       ZZZ    -133.3871
    Hexadecapole Moments (Debye-Ang^3)
      XXXX    -392.5130   XXXY     -56.9316   XXYY     -88.1920
      XYYY      -7.1195   YYYY     -46.8325   XXXZ    -266.6397
      XXYZ     -33.1478   XYYZ     -67.1277   YYYZ      12.1249
      XXZZ    -266.8555   XYZZ     -31.2861   YYZZ     -76.5237
      XZZZ    -322.6161   YZZZ     -10.7294   ZZZZ    -520.8316
 -----------------------------------------------------------------
 Calculating analytic gradient of the SCF energy
 Gradient of CDS energy
            1           2           3           4           5
    1  -0.0000584  -0.0002134  -0.0000136  -0.0001291   0.0004144
    2  -0.0000226  -0.0000016  -0.0001117   0.0002345  -0.0000986
    3  -0.0000197  -0.0001516   0.0002007   0.0001462  -0.0001755
 Gradient of SCF Energy
            1           2           3           4           5
    1  -0.0358181   0.0366851  -0.0870623   0.0708631   0.0153322
    2   0.0864789  -0.0896425  -0.0459275   0.0559453  -0.0068542
    3  -0.0983355   0.1008040  -0.0270252   0.0348127  -0.0102560
 Max gradient component =       1.008E-01
 RMS gradient           =       6.226E-02
 Computing fast CPCM-SWIG gradient
 Updating gradient with PCM contributions...
 -- total gradient after adding PCM contribution --
---------------------------------------------------
  Atom         X              Y              Z     
---------------------------------------------------
   1      -0.031200       0.077630      -0.086683
   2       0.036401      -0.078243       0.090659
   3      -0.083206      -0.041258      -0.022641
   4       0.064263       0.042509       0.022633
   5       0.013742      -0.000638      -0.003968
---------------------------------------------------
 Number of fixed atoms: 0
 Gradient time:  CPU 8.16 s  wall 2.20 s
 ----------------------------------------------------------------
             Standard Nuclear Orientation (Angstroms)
    I     Atom           X                Y                Z
 ----------------------------------------------------------------
    1      O       0.2842434000    -0.1262234000     0.7723592000
    2      O       0.6656875000    -0.9429672000     1.7251071000
    3      H       1.8541998000    -0.4026234000     2.1288855000
    4      O       3.0079680000     0.2729300000     2.4713775000
    5      H       3.7309935000    -0.1352543000     1.9586743000
 ----------------------------------------------------------------
 Nuclear Repulsion Energy =          63.93667935 hartrees
 There are       14 alpha and       12 beta electrons
 Discretize the solute cavity surface with Lebedev spheres
	Using 110 Lebedev grid points for each H atom
	Using 194 Lebedev grid points for other atoms
	Atomic van der Waals radii will be scaled by 1.20
 Remove points where switching function is < 1.0e-08
 Keep 556 surface tesserae and discard 246 interior tesserae
 Molecular Surface Area = 69.865 Angst**2

                       Distance Matrix (Angstroms)
             O (  1)   O (  2)   H (  3)   O (  4)
   O (  2)  1.311602
   H (  3)  2.093161  1.366591
   O (  4)  3.234913  2.742554  1.380165
   H (  5)  3.645204  3.178530  1.903369  0.975830
 
 Requested basis set is 6-311++G(2df,2p)
 There are 36 shells and 122 basis functions
 A cutoff of  1.0D-11 yielded    623 shell pairs
 There are      7228 function pairs (      9132 Cartesian)
 Smallest overlap matrix eigenvalue = 8.57E-04
 Guess MOs from SCF MO coefficient file

 -----------------------------------------------------------------------
  General SCF calculation program by
  Eric Jon Sundstrom, Paul Horn, Yuezhi Mao, Dmitri Zuev, Alec White,
  David Stuck, Shaama M.S., Shane Yost, Joonho Lee, David Small,
  Daniel Levine, Susi Lehtola, Hugh Burton, Evgeny Epifanovsky,
  Bang C. Huynh
 -----------------------------------------------------------------------
 Exchange:     0.1500 Hartree-Fock + 1.0000 wB97M-V + LR-HF
 Correlation:  1.0000 wB97M-V
 Using SG-2 standard quadrature grid
 Nonlocal Correlation:  VV10 with C = 0.0100 and b = 6.00 and scale = 1.00000
 Grid used for NLC:  SG-1 standard quadrature
 
 Citation of the SMD model:
 Marenich, A.V.; Cramer, C.J.; Truhlar, D.G.
 J. Phys. Chem. B 2009, 113, 6378-6396.
 iSolventCode=           1
 Solvent: water                                                           
 
 vradii
            1           2           3           4           5
    1   1.5200000   1.5200000   1.2000000   1.5200000   1.2000000
 -------------------------------------------------------
 OpenMP BLAS3 based DFT computing Module                
 Release: version 1.0, May 2013, Q-Chem Inc. Pittsburgh 
 -------------------------------------------------------
 A unrestricted SCF calculation will be
 performed using Roothaan-Hall, DIIS, GDM
 SCF converges when RMS gradient is below 1.0e-06
 ---------------------------------------
  Cycle       Energy         DIIS error
 ---------------------------------------
    1    -226.6602308003      5.60e-04  Roothaan Step
 ---------------------------------------
  Cycle       Energy         DIIS error
 ---------------------------------------
    1    -226.6809551503      7.95e-04  
    2    -226.6820050687      1.05e-03  Done DIIS. Switching to GDM
 ---------------------------------------
  Cycle       Energy        RMS Gradient
 ---------------------------------------
    1    -226.6820050687      3.64e-02   Normal BFGS step
    2    -226.6786362625      4.55e-02  Line search: overstep
    3    -226.6872495062      7.36e-03   Normal BFGS step
    4    -226.6874041391      5.24e-03   Normal BFGS step
    5    -226.6874533557      1.56e-03   Normal BFGS step
    6    -226.6874598456      1.80e-03   Normal BFGS step
    7    -226.6874672251      5.24e-04   Normal BFGS step
    8    -226.6874699114      5.52e-04   Normal BFGS step
    9    -226.6874705514      3.26e-04   Normal BFGS step
   10    -226.6874707425      1.18e-04   Normal BFGS step
   11    -226.6874707944      3.62e-05   Normal BFGS step
   12    -226.6874708110      1.38e-05   Normal BFGS step
   13    -226.6874708131      6.00e-06   Normal BFGS step
   14    -226.6874708134      1.93e-06   Normal BFGS step
   15    -226.6874708134      5.38e-07  Convergence criterion met
 ---------------------------------------
 SCF time:   CPU 63.33s  wall 16.00s 
<S^2> =          2.010353846
(3)  G-ENP(liq) elect-nuc-pol free energy of system     -226.687470813 a.u.
(4)  G-CDS(liq) cavity-dispersion-solvent structure 
     free energy                                                0.9565 kcal/mol
(6)  G-S(liq) free energy of system                     -226.685946456 a.u.
 SCF   energy in the final basis set =     -226.6859464559
 Total energy in the final basis set =     -226.6859464559
 
 --------------------------------------------------------------
 
                    Orbital Energies (a.u.)
 --------------------------------------------------------------
 
 Alpha MOs
 -- Occupied --
-19.5481 -19.5331 -19.3181  -1.3994  -1.0703  -1.0340  -0.7114  -0.6772
 -0.6756  -0.5536  -0.5030  -0.4757  -0.4291  -0.4020
 -- Virtual --
  0.0347   0.0687   0.1033   0.1640   0.1838   0.1895   0.2061   0.2159
  0.2221   0.2328   0.2488   0.2660   0.2876   0.2906   0.3319   0.3468
  0.4001   0.6143   0.6161   0.7135   0.7362   0.8257   0.9107   0.9715
  1.0059   1.0170   1.0371   1.0873   1.0955   1.1061   1.1494   1.1586
  1.2990   1.3231   1.3727   1.4059   1.4420   1.4595   1.5197   1.5503
  1.6181   1.7167   1.8359   1.9029   2.0103   2.0848   2.2119   2.2215
  2.2576   2.3304   2.5616   2.6417   2.7919   2.8113   3.7331   3.7678
  3.9001   3.9179   3.9810   4.2419   4.4433   4.5466   4.6224   4.6476
  4.7052   4.9195   4.9402   4.9579   4.9642   5.0178   5.0820   5.0836
  5.0929   5.1086   5.1255   5.1458   5.1788   5.1854   5.2266   5.3089
  5.3689   5.4732   5.4824   5.6178   5.6551   5.8197   6.3508   6.3740
  6.6078   6.6729   6.7855   6.8100   6.8184   6.9606   6.9926   7.0378
  7.0999   7.1329   7.2157   7.2788   7.3210   7.4789   7.6610   7.7981
  7.9013  50.2445  50.3325  50.4743
 
 Beta MOs
 -- Occupied --
-19.5140 -19.5082 -19.3156  -1.3415  -1.0636  -0.9516  -0.6556  -0.6085
 -0.5660  -0.5329  -0.4299  -0.3988
 -- Virtual --
 -0.1030  -0.0780   0.0361   0.0701   0.1192   0.1699   0.1893   0.1990
  0.2197   0.2220   0.2325   0.2476   0.2562   0.2694   0.2895   0.2976
  0.3351   0.3530   0.4014   0.6152   0.6183   0.7156   0.7417   0.8267
  0.9196   0.9851   1.0125   1.0381   1.0751   1.1026   1.1266   1.1395
  1.1572   1.1717   1.3210   1.3564   1.3991   1.4228   1.4725   1.4852
  1.5535   1.5614   1.6634   1.7583   1.8477   1.9053   2.0209   2.1172
  2.2424   2.2457   2.2825   2.3340   2.5801   2.6552   2.7826   2.8111
  3.7343   3.7658   3.8916   3.9122   3.9828   4.2435   4.4923   4.5887
  4.6742   4.6861   4.7437   5.0047   5.0356   5.0443   5.0604   5.1053
  5.1263   5.1339   5.1451   5.1482   5.1519   5.1664   5.2035   5.2337
  5.2414   5.3225   5.3774   5.5222   5.5398   5.6395   5.6571   5.8382
  6.4095   6.4295   6.7485   6.8188   6.8829   6.8850   6.9052   7.0110
  7.0349   7.0531   7.1227   7.1679   7.2668   7.3448   7.3673   7.4984
  7.6857   7.8210   7.9524  50.2707  50.3525  50.4761
 --------------------------------------------------------------
 
          Ground-State Mulliken Net Atomic Charges

     Atom                 Charge (a.u.)    Spin (a.u.)
  --------------------------------------------------------
      1 O                     0.156468       1.138037
      2 O                    -0.001153       0.792970
      3 H                     0.380823      -0.019375
      4 O                    -0.867968       0.089518
      5 H                     0.331829      -0.001149
  --------------------------------------------------------
  Sum of atomic charges =    -0.000000
  Sum of spin   charges =     2.000000

 -----------------------------------------------------------------
                    Cartesian Multipole Moments
 -----------------------------------------------------------------
    Charge (ESU x 10^10)
                -0.0000
    Dipole Moment (Debye)
         X      -2.5511      Y      -2.4223      Z      -2.7583
       Tot       4.4703
    Quadrupole Moments (Debye-Ang)
        XX     -24.2119     XY      -6.1267     YY     -18.1384
        XZ     -11.8770     YZ      -5.0985     ZZ     -29.4018
    Octopole Moments (Debye-Ang^2)
       XXX     -88.7312    XXY     -13.6275    XYY     -29.6546
       YYY      10.5480    XXZ     -65.5479    XYZ     -13.3338
[...]
   Point Group: c1    Number of degrees of freedom:     9


   Energy is   -226.678769543

 Hessian updated using Powell/Murtagh-Sargent update
  Mixing factors:     0.980955 Powell                      0.019045 Murtagh-Sargent

  9 Hessian modes will be used to form the next step
  Hessian Eigenvalues:
     0.000372    0.005013    0.007089    0.020292    0.126486    0.241840
     0.433816    0.485906    0.673907
**WARNING** Hessian does not have the desired local structure
**WARNING** Hessian does not have the desired local structure

 Transition state search - taking P-RFO step
 Searching for Lamda that Maximizes Along the Lowest mode
 Value Taken    Lamda =   0.00037310
 Searching for Lamda that Minimizes Along All other modes
 Value Taken    Lamda =  -0.00000464
 Calculated Step too Large.  Step scaled by  0.003775
 Step Taken.  Stepsize is  0.060000

                             Maximum     Tolerance    Cnvgd?
         Gradient           0.000668      0.000300      NO
         Displacement       0.043874      0.001200      NO
         Energy change     -0.000012      0.000001      NO


 New Cartesian Coordinates Obtained by Inverse Iteration

 Displacement from previous Coordinates is:  0.064640
 ----------------------------------------------------------------
             Standard Nuclear Orientation (Angstroms)
    I     Atom           X                Y                Z
 ----------------------------------------------------------------
    1      O       0.1478848456    -0.0549393023     0.9611873216
    2      O       0.7899766904    -0.9616020836     1.6578985938
    3      H       1.6530288430    -0.5416351474     1.9102722620
    4      O       3.0896488536     0.4094351371     2.2484621502
    5      H       3.8625529674    -0.1853969039     2.2795832724
 ----------------------------------------------------------------
 Nuclear Repulsion Energy =          64.54437339 hartrees
 There are       14 alpha and       12 beta electrons
 Discretize the solute cavity surface with Lebedev spheres
	Using 110 Lebedev grid points for each H atom
	Using 194 Lebedev grid points for other atoms
	Atomic van der Waals radii will be scaled by 1.20
 Remove points where switching function is < 1.0e-08
 Keep 557 surface tesserae and discard 245 interior tesserae
 Molecular Surface Area = 70.022 Angst**2
 Applying Cartesian multipole field
    Component          Value
    ---------          -----
     (2,0,0)        1.00000E-11
     (0,2,0)        2.00000E-11
     (0,0,2)       -3.00000E-11
 Nucleus-field energy     =    -0.0000000042 hartrees
 Requested basis set is 6-311++G(2df,2p)
 There are 36 shells and 122 basis functions
 A cutoff of  1.0D-12 yielded    624 shell pairs
 There are      7238 function pairs (      9148 Cartesian)
 Smallest overlap matrix eigenvalue = 7.75E-04
 Guess MOs from SCF MO coefficient file

 -----------------------------------------------------------------------
  General SCF calculation program by
  Eric Jon Sundstrom, Paul Horn, Yuezhi Mao, Dmitri Zuev, Alec White,
  David Stuck, Shaama M.S., Shane Yost, Joonho Lee, David Small,
  Daniel Levine, Susi Lehtola, Hugh Burton, Evgeny Epifanovsky,
  Bang C. Huynh
 -----------------------------------------------------------------------
 Exchange:     0.1500 Hartree-Fock + 1.0000 wB97M-V + LR-HF
 Correlation:  1.0000 wB97M-V
 Using SG-2 standard quadrature grid
 Nonlocal Correlation:  VV10 with C = 0.0100 and b = 6.00 and scale = 1.00000
 Grid used for NLC:  SG-1 standard quadrature
 
 Citation of the SMD model:
 Marenich, A.V.; Cramer, C.J.; Truhlar, D.G.
 J. Phys. Chem. B 2009, 113, 6378-6396.
 iSolventCode=           1
 Solvent: water                                                           
 
 vradii
            1           2           3           4           5
    1   1.5200000   1.5200000   1.2000000   1.5200000   1.2000000
 -------------------------------------------------------
 OpenMP BLAS3 based DFT computing Module                
 Release: version 1.0, May 2013, Q-Chem Inc. Pittsburgh 
 -------------------------------------------------------
 A unrestricted SCF calculation will be
 performed using Roothaan-Hall, DIIS, GDM
 SCF converges when RMS gradient is below 1.0e-07
 ---------------------------------------
  Cycle       Energy         DIIS error
 ---------------------------------------
    1    -226.6550277325      5.72e-04  Roothaan Step
 ---------------------------------------
  Cycle       Energy         DIIS error
 ---------------------------------------
    1    -226.6763136366      6.00e-04  
    2    -226.6788421282      5.25e-04  Done DIIS. Switching to GDM
 ---------------------------------------
  Cycle       Energy        RMS Gradient
 ---------------------------------------
    1    -226.6788421282      2.47e-02   Normal BFGS step
    2    -226.6781047378      4.16e-02  Line search: overstep
    3    -226.6801329138      4.61e-03   Normal BFGS step
    4    -226.6802346236      1.99e-03   Normal BFGS step
    5    -226.6802619542      1.06e-03   Normal BFGS step
    6    -226.6802675846      6.97e-04   Normal BFGS step
    7    -226.6802705658      2.60e-04   Normal BFGS step
    8    -226.6802709027      2.50e-04   Normal BFGS step
    9    -226.6802710454      2.29e-04   Normal BFGS step
   10    -226.6802711798      2.01e-04   Normal BFGS step
   11    -226.6802714928      2.11e-04   Normal BFGS step
   12    -226.6802718459      2.72e-04   Normal BFGS step
   13    -226.6802723191      2.56e-04   Normal BFGS step
   14    -226.6802726688      1.98e-04   Normal BFGS step
   15    -226.6802728310      1.00e-04   Normal BFGS step
   16    -226.6802728742      6.53e-05   Normal BFGS step
   17    -226.6802728870      5.37e-05   Normal BFGS step
   18    -226.6802728940      4.05e-05   Normal BFGS step
   19    -226.6802728993      2.52e-05   Normal BFGS step
   20    -226.6802729030      1.87e-05   Normal BFGS step
   21    -226.6802729048      1.35e-05   Normal BFGS step
   22    -226.6802729054      4.62e-06   Normal BFGS step
   23    -226.6802729054      1.19e-06   Normal BFGS step
   24    -226.6802729055      5.04e-07   Normal BFGS step
   25    -226.6802729055      5.50e-07   Normal BFGS step
   26    -226.6802729055      1.17e-07   Normal BFGS step
   27    -226.6802729055      4.35e-08  Convergence criterion met
 ---------------------------------------
 SCF time:   CPU 103.39s  wall 26.00s 
<S^2> =          2.006575829
(3)  G-ENP(liq) elect-nuc-pol free energy of system     -226.680272905 a.u.
(4)  G-CDS(liq) cavity-dispersion-solvent structure 
     free energy                                                0.9434 kcal/mol
(6)  G-S(liq) free energy of system                     -226.678769438 a.u.
 SCF   energy in the final basis set =     -226.6787694378
 Total energy in the final basis set =     -226.6787694378
 
 --------------------------------------------------------------
 
                    Orbital Energies (a.u.)
 --------------------------------------------------------------
 
 Alpha MOs
 -- Occupied --
-19.4428 -19.4215 -19.4145  -1.3287  -1.1608  -0.9860  -0.6767  -0.6081
 -0.6050  -0.5918  -0.5364  -0.4881  -0.4041  -0.4009
 -- Virtual --
  0.0335   0.0674   0.1232   0.1690   0.1890   0.1955   0.2092   0.2266
  0.2479   0.2497   0.2571   0.2676   0.2806   0.3069   0.3460   0.3841
  0.3869   0.5890   0.6659   0.7443   0.7645   0.8167   0.8774   0.9664
  1.0001   1.0242   1.0571   1.0670   1.1192   1.1219   1.1413   1.1810
  1.3122   1.3706   1.3929   1.4235   1.4726   1.5064   1.5598   1.5765
  1.6285   1.6986   1.8166   1.8767   1.9793   2.1197   2.2270   2.2559
  2.2990   2.3212   2.4758   2.5977   2.7076   2.8835   3.6619   3.6801
  3.7523   3.9122   4.1640   4.3127   4.5082   4.6922   4.7222   4.7565
  4.8691   4.9719   5.0162   5.0457   5.0486   5.0597   5.0607   5.0792
  5.1075   5.1168   5.1452   5.1697   5.2133   5.2592   5.2822   5.4110
  5.4451   5.5424   5.6019   5.6225   5.7357   6.4286   6.4396   6.7135
  6.7680   6.8184   6.8774   6.8877   6.8935   6.9805   7.0159   7.0535
  7.0736   7.1076   7.2586   7.3538   7.3605   7.4498   7.6570   7.9177
  7.9695  50.3502  50.3747  50.4286
 
 Beta MOs
 -- Occupied --
-19.4330 -19.3967 -19.3952  -1.3015  -1.0894  -0.9452  -0.6601  -0.5801
 -0.5700  -0.5213  -0.4564  -0.3815
 -- Virtual --
 -0.0851  -0.0240   0.0349   0.0687   0.1291   0.1787   0.1943   0.2010
  0.2172   0.2367   0.2506   0.2536   0.2640   0.2757   0.2890   0.3162
  0.3470   0.3842   0.3876   0.5970   0.6665   0.7500   0.7690   0.8301
  0.8805   0.9722   1.0060   1.0312   1.0925   1.1200   1.1273   1.1523
  1.1574   1.1921   1.3319   1.3994   1.4154   1.4449   1.5057   1.5487
  1.5847   1.6005   1.6630   1.7267   1.8664   1.8956   1.9996   2.1359
  2.2363   2.2845   2.3098   2.3516   2.4869   2.6114   2.7247   2.8920
  3.6748   3.6987   3.7615   3.9179   4.1784   4.3204   4.5491   4.7058
  4.7487   4.7714   4.8925   5.0890   5.1004   5.1078   5.1096   5.1270
  5.1329   5.1394   5.1654   5.1738   5.1831   5.2288   5.2522   5.3029
  5.3180   5.4463   5.4747   5.6123   5.6219   5.6502   5.7582   6.4532
  6.4762   6.8081   6.8663   6.9097   6.9504   6.9557   6.9974   7.0357
  7.0748   7.0941   7.1241   7.1386   7.3104   7.3915   7.4094   7.5079
  7.6778   7.9282   7.9939  50.3660  50.3886  50.4384
 --------------------------------------------------------------
 
          Ground-State Mulliken Net Atomic Charges

     Atom                 Charge (a.u.)    Spin (a.u.)
  --------------------------------------------------------
      1 O                    -0.247575       0.690404
      2 O                    -0.180316       0.315802
      3 H                     0.381315      -0.010685
      4 O                    -0.306524       1.019688
      5 H                     0.353100      -0.015210
  --------------------------------------------------------
  Sum of atomic charges =     0.000000
  Sum of spin   charges =     2.000000

 -----------------------------------------------------------------
                    Cartesian Multipole Moments
 -----------------------------------------------------------------
    Charge (ESU x 10^10)
                 0.0000
    Dipole Moment (Debye)
         X       5.0033      Y      -1.1273      Z       1.6119
       Tot       5.3761
    Quadrupole Moments (Debye-Ang)
        XX       1.6076     XY      -5.5976     YY     -19.4732
        XZ      10.7421     YZ      -2.9184     ZZ     -12.0230
    Octopole Moments (Debye-Ang^2)
       XXX       3.8265    XXY     -15.1387    XYY     -27.4004
       YYY      11.4211    XXZ      13.0567    XYZ     -12.9305
       YYZ     -32.4535    XZZ       0.0820    YZZ      -3.6854
       ZZZ     -70.9516
    Hexadecapole Moments (Debye-Ang^3)
      XXXX     -77.2158   XXXY     -71.8297   XXYY     -82.1142
      XYYY      -9.7408   YYYY     -56.2395   XXXZ      15.6688
      XXYZ     -39.9813   XYYZ     -57.5835   YYYZ      13.6094
      XXZZ     -24.6986   XYZZ     -32.6398   YYZZ     -70.3361
      XZZZ     -94.6146   YZZZ      -4.2804   ZZZZ    -284.6632
 -----------------------------------------------------------------
 Calculating analytic gradient of the SCF energy
 Gradient of CDS energy
            1           2           3           4           5
    1  -0.0000417  -0.0003175   0.0001979  -0.0001956   0.0003569
    2  -0.0000166   0.0000072  -0.0001630   0.0004470  -0.0002746
    3  -0.0000127  -0.0001603   0.0001614  -0.0000027   0.0000144
 Gradient of SCF Energy
            1           2           3           4           5
    1  -0.0020018  -0.0095410   0.0128033  -0.0188396   0.0175790
    2   0.0021444  -0.0047207   0.0000969   0.0192279  -0.0167485
    3  -0.0015723  -0.0024390   0.0043129  -0.0009759   0.0006743
 Max gradient component =       1.923E-02
 RMS gradient           =       1.042E-02
 Computing fast CPCM-SWIG gradient
 Updating gradient with PCM contributions...
 -- total gradient after adding PCM contribution --
---------------------------------------------------
  Atom         X              Y              Z     
---------------------------------------------------
   1      -0.000053       0.000066      -0.000016
   2      -0.000139      -0.000142      -0.000061
   3       0.000195       0.000135       0.000112
   4      -0.000090      -0.000181      -0.000048
   5       0.000087       0.000122       0.000013
---------------------------------------------------
 Number of fixed atoms: 0
 Gradient time:  CPU 8.40 s  wall 2.24 s
 Geometry Optimization Parameters
   NAtoms,    NIC,     NZ,  NCons,   NDum,   NFix, NCnnct, MaxDiis
        5      19       0       0       0       0       0       0

 Cartesian Hessian Update
 Hessian updated using Powell/Murtagh-Sargent update
  Mixing factors:     0.994070 Powell                      0.005930 Murtagh-Sargent


** GEOMETRY OPTIMIZATION IN DELOCALIZED INTERNAL COORDINATES **
   Searching for a Transition State

   Optimization Cycle: 133

                       Coordinates (Angstroms)
     ATOM                X               Y               Z
      1  O         0.1478848456   -0.0549393023    0.9611873216
      2  O         0.7899766904   -0.9616020836    1.6578985938
      3  H         1.6530288430   -0.5416351474    1.9102722620
      4  O         3.0896488536    0.4094351371    2.2484621502
      5  H         3.8625529674   -0.1853969039    2.2795832724
   Point Group: c1    Number of degrees of freedom:     9


   Energy is   -226.678769438

 Hessian updated using Powell/Murtagh-Sargent update
  Mixing factors:     0.993515 Powell                      0.006485 Murtagh-Sargent

  9 Hessian modes will be used to form the next step
  Hessian Eigenvalues:
    -0.000865    0.005019    0.007090    0.020323    0.126486    0.241794
     0.433440    0.485904    0.673731

 Transition state search - taking P-RFO step
 Searching for Lamda that Maximizes Along the Lowest mode
 Value Taken    Lamda =   0.00000005
 Searching for Lamda that Minimizes Along All other modes
 Value Taken    Lamda =  -0.00000321
 Step Taken.  Stepsize is  0.024264

                             Maximum     Tolerance    Cnvgd?
         Gradient           0.000210      0.000300     YES
         Displacement       0.012529      0.001200      NO
         Energy change      0.000000      0.000001     YES


                       Distance Matrix (Angstroms)
             O (  1)   O (  2)   H (  3)   O (  4)
   O (  2)  1.311383
   H (  3)  1.844748  0.992433
   O (  4)  3.244487  2.741715  1.755786
   H (  5)  3.943849  3.229506  2.268324  0.975794
 
 Final energy is   -226.678769437844     


 ******************************
 **  OPTIMIZATION CONVERGED  **
 ******************************

                       Coordinates (Angstroms)
     ATOM                X               Y               Z
      1  O         0.1478848456   -0.0549393023    0.9611873216
      2  O         0.7899766904   -0.9616020836    1.6578985938
      3  H         1.6530288430   -0.5416351474    1.9102722620
      4  O         3.0896488536    0.4094351371    2.2484621502
      5  H         3.8625529674   -0.1853969039    2.2795832724

Z-matrix Print:
$molecule
0 3
O 
H  1 0.992433
O  1 1.311383 2 105.564967
O  2 1.755786 1 171.790999 3 4.473161 0
H  4 0.975794 2 108.907217 1 -151.093904 0
$end

 
 --------------------------------------------------------------
 
                    Orbital Energies (a.u.)
 --------------------------------------------------------------
 
 Alpha MOs
 -- Occupied --
-19.4428 -19.4215 -19.4145  -1.3287  -1.1608  -0.9860  -0.6767  -0.6081
 -0.6050  -0.5918  -0.5364  -0.4881  -0.4041  -0.4009
 -- Virtual --
  0.0335   0.0674   0.1232   0.1690   0.1890   0.1955   0.2092   0.2266
  0.2479   0.2497   0.2571   0.2676   0.2806   0.3069   0.3460   0.3841
  0.3869   0.5890   0.6659   0.7443   0.7645   0.8167   0.8774   0.9664
  1.0001   1.0242   1.0571   1.0670   1.1192   1.1219   1.1413   1.1810
  1.3122   1.3706   1.3929   1.4235   1.4726   1.5064   1.5598   1.5765
  1.6285   1.6986   1.8166   1.8767   1.9793   2.1197   2.2270   2.2559
  2.2990   2.3212   2.4758   2.5977   2.7076   2.8835   3.6619   3.6801
  3.7523   3.9122   4.1640   4.3127   4.5082   4.6922   4.7222   4.7565
  4.8691   4.9719   5.0162   5.0457   5.0486   5.0597   5.0607   5.0792
  5.1075   5.1168   5.1452   5.1697   5.2133   5.2592   5.2822   5.4110
  5.4451   5.5424   5.6019   5.6225   5.7357   6.4286   6.4396   6.7135
  6.7680   6.8184   6.8774   6.8877   6.8935   6.9805   7.0159   7.0535
  7.0736   7.1076   7.2586   7.3538   7.3605   7.4498   7.6570   7.9177
  7.9695  50.3502  50.3747  50.4286
 
 Beta MOs
 -- Occupied --
-19.4330 -19.3967 -19.3952  -1.3015  -1.0894  -0.9452  -0.6601  -0.5801
 -0.5700  -0.5213  -0.4564  -0.3815
 -- Virtual --
 -0.0851  -0.0240   0.0349   0.0687   0.1291   0.1787   0.1943   0.2010
  0.2172   0.2367   0.2506   0.2536   0.2640   0.2757   0.2890   0.3162
  0.3470   0.3842   0.3876   0.5970   0.6665   0.7500   0.7690   0.8301
  0.8805   0.9722   1.0060   1.0312   1.0925   1.1200   1.1273   1.1523
  1.1574   1.1921   1.3319   1.3994   1.4154   1.4449   1.5057   1.5487
  1.5847   1.6005   1.6630   1.7267   1.8664   1.8956   1.9996   2.1359
  2.2363   2.2845   2.3098   2.3516   2.4869   2.6114   2.7247   2.8920
  3.6748   3.6987   3.7615   3.9179   4.1784   4.3204   4.5491   4.7058
  4.7487   4.7714   4.8925   5.0890   5.1004   5.1078   5.1096   5.1270
  5.1329   5.1394   5.1654   5.1738   5.1831   5.2288   5.2522   5.3029
  5.3180   5.4463   5.4747   5.6123   5.6219   5.6502   5.7582   6.4532
  6.4762   6.8081   6.8663   6.9097   6.9504   6.9557   6.9974   7.0357
  7.0748   7.0941   7.1241   7.1386   7.3104   7.3915   7.4094   7.5079
  7.6778   7.9282   7.9939  50.3660  50.3886  50.4384
 --------------------------------------------------------------
 
          Ground-State Mulliken Net Atomic Charges

     Atom                 Charge (a.u.)    Spin (a.u.)
  --------------------------------------------------------
      1 O                    -0.247575       0.690404
      2 O                    -0.180316       0.315802
      3 H                     0.381315      -0.010685
      4 O                    -0.306524       1.019688
      5 H                     0.353100      -0.015210
  --------------------------------------------------------
  Sum of atomic charges =     0.000000
  Sum of spin   charges =     2.000000

 -----------------------------------------------------------------
                    Cartesian Multipole Moments
 -----------------------------------------------------------------
    Charge (ESU x 10^10)
                 0.0000
    Dipole Moment (Debye)
         X       5.0033      Y      -1.1273      Z       1.6119
       Tot       5.3761
    Quadrupole Moments (Debye-Ang)
        XX       1.6076     XY      -5.5976     YY     -19.4732
        XZ      10.7421     YZ      -2.9184     ZZ     -12.0230
    Octopole Moments (Debye-Ang^2)
       XXX       3.8265    XXY     -15.1387    XYY     -27.4004
       YYY      11.4211    XXZ      13.0567    XYZ     -12.9305
       YYZ     -32.4535    XZZ       0.0820    YZZ      -3.6854
       ZZZ     -70.9516
    Hexadecapole Moments (Debye-Ang^3)
      XXXX     -77.2158   XXXY     -71.8297   XXYY     -82.1142
      XYYY      -9.7408   YYYY     -56.2395   XXXZ      15.6688
      XXYZ     -39.9813   XYYZ     -57.5835   YYYZ      13.6094
      XXZZ     -24.6986   XYZZ     -32.6398   YYZZ     -70.3361
      XZZZ     -94.6146   YZZZ      -4.2804   ZZZZ    -284.6632
 -----------------------------------------------------------------
 Total job time:  3889.15s(wall), 15018.26s(cpu) 
 Fri Sep  1 03:39:19 2023

        *************************************************************
        *                                                           *
        *  Thank you very much for using Q-Chem.  Have a nice day.  *
        *                                                           *
        *************************************************************


