
Running Job 1 of 1 Q_in.in
qchem Q_in.in_228392.0 /scratch/ari.fischer/qChem1854145.hpc-mn1/qchem228392/ 0
/usr/local/qchem-5.4.1/exe/qcprog.exe_s Q_in.in_228392.0 /scratch/ari.fischer/qChem1854145.hpc-mn1/qchem228392/
                  Welcome to Q-Chem
     A Quantum Leap Into The Future Of Chemistry


 Q-Chem 5.4, Q-Chem, Inc., Pleasanton, CA (2021)

 License issued to: Nanyang Technological University (site)

 E. Epifanovsky,  A. T. B. Gilbert,  Xintian Feng,  Joonho Lee,  Yuezhi Mao,  
 N. Mardirossian,  P. Pokhilko,  A. White,  M. Wormit,  M. P. Coons,  
 A. L. Dempwolff,  Zhengting Gan,  D. Hait,  P. R. Horn,  L. D. Jacobson,  
 I. Kaliman,  J. Kussmann,  A. W. Lange,  Ka Un Lao,  D. S. Levine,  Jie Liu,  
 S. C. McKenzie,  A. F. Morrison,  K. Nanda,  F. Plasser,  D. R. Rehn,  
 M. L. Vidal,  Zhi-Qiang You,  Ying Zhu,  B. Alam,  B. Albrecht,  
 A. Aldossary,  E. Alguire,  J. H. Andersen,  D. Barton,  K. Begam,  A. Behn,  
 Y. A. Bernard,  E. J. Berquist,  H. Burton,  A. Carreras,  K. Carter-Fenk,  
 R. Chakraborty,  A. D. Chien,  K. D. Closser,  V. Cofer-Shabica,  
 S. Dasgupta,  Jia Deng,  M. de Wergifosse,  M. Diedenhofen,  Hainam Do,  
 S. Ehlert,  Po-Tung Fang,  S. Fatehi,  Qingguo Feng,  T. Friedhoff,  
 J. Gayvert,  Qinghui Ge,  G. Gidofalvi,  M. Goldey,  J. Gomes,  
 C. Gonzalez-Espinoza,  S. Gulania,  A. Gunina,  M. W. D. Hanson-Heine,  
 P. H. P. Harbach,  A. W. Hauser,  M. F. Herbst,  M. Hernandez Vera,  
 M. Hodecker,  Z. C. Holden,  S. Houck,  Xunkun Huang,  Kerwin Hui,  
 B. C. Huynh,  M. Ivanov,  Hyunjun Ji,  Hanjie Jiang,  B. Kaduk,  S. Kaehler,  
 K. Khistyaev,  Jaehoon Kim,  P. Klunzinger,  Z. Koczor-Benda,  
 Joong Hoon Koh,  D. Kosenkov,  L. Koulias,  T. Kowalczyk,  C. M. Krauter,  
 K. Kue,  A. Kunitsa,  T. Kus,  A. Landau,  K. V. Lawler,  D. Lefrancois,  
 S. Lehtola,  Rain Li,  Yi-Pei Li,  Jiashu Liang,  M. Liebenthal,  
 Hung-Hsuan Lin,  You-Sheng Lin,  Fenglai Liu,  Kuan-Yu Liu,  
 M. Loipersberger,  A. Luenser,  A. Manjanath,  P. Manohar,  E. Mansoor,  
 S. F. Manzer,  Shan-Ping Mao,  A. V. Marenich,  T. Markovich,  S. Mason,  
 S. A. Maurer,  P. F. McLaughlin,  M. F. S. J. Menger,  J.-M. Mewes,  
 S. A. Mewes,  P. Morgante,  J. W. Mullinax,  K. J. Oosterbaan,  G. Paran,  
 Alexander C. Paul,  Suranjan K. Paul,  F. Pavosevic,  Zheng Pei,  S. Prager,  
 E. I. Proynov,  E. Ramos,  B. Rana,  A. E. Rask,  A. Rettig,  R. M. Richard,  
 F. Rob,  E. Rossomme,  T. Scheele,  M. Scheurer,  M. Schneider,  
 N. Sergueev,  S. M. Sharada,  W. Skomorowski,  D. W. Small,  C. J. Stein,  
 Yu-Chuan Su,  E. J. Sundstrom,  Zhen Tao,  J. Thirman,  T. Tsuchimochi,  
 N. M. Tubman,  S. P. Veccham,  O. Vydrov,  J. Wenzel,  J. Witte,  A. Yamada,  
 Kun Yao,  S. Yeganeh,  S. R. Yost,  A. Zech,  Igor Ying Zhang,  Xing Zhang,  
 Yu Zhang,  D. Zuev,  A. Aspuru-Guzik,  A. T. Bell,  N. A. Besley,  
 K. B. Bravaya,  B. R. Brooks,  D. Casanova,  Jeng-Da Chai,  S. Coriani,  
 C. J. Cramer,  A. E. DePrince, III,  R. A. DiStasio Jr.,  A. Dreuw,  
 B. D. Dunietz,  T. R. Furlani,  W. A. Goddard III,  S. Grimme,  
 S. Hammes-Schiffer,  T. Head-Gordon,  W. J. Hehre,  Chao-Ping Hsu,  
 T.-C. Jagau,  Yousung Jung,  A. Klamt,  Jing Kong,  D. S. Lambrecht,  
 WanZhen Liang,  N. J. Mayhall,  C. W. McCurdy,  J. B. Neaton,  
 C. Ochsenfeld,  J. A. Parkhill,  R. Peverati,  V. A. Rassolov,  Yihan Shao,  
 L. V. Slipchenko,  T. Stauch,  R. P. Steele,  J. E. Subotnik,  
 A. J. W. Thom,  A. Tkatchenko,  D. G. Truhlar,  T. Van Voorhis,  
 T. A. Wesolowski,  K. B. Whaley,  H. L. Woodcock III,  P. M. Zimmerman,  
 S. Faraji,  P. M. W. Gill,  M. Head-Gordon,  J. M. Herbert,  A. I. Krylov

 Additional authors for Version 5.4.1: 
 S. Kotaru,  Shaozhi Li,  Xiangyuan Li,  F. Matz,  A. Molle,  Haisheng Ren,  
 Yingli Su,  Hung-Yi Tsai,  C. Utku,  Fang Wang

 Contributors to earlier versions of Q-Chem not listed above: 
 R. D. Adamson,  B. Austin,  R. Baer,  J. Baker,  G. J. O. Beran,  
 K. Brandhorst,  S. T. Brown,  E. F. C. Byrd,  A. K. Chakraborty,  
 G. K. L. Chan,  Chun-Min Chang,  Yunqing Chen,  C.-L. Cheng,  
 Siu Hung Chien,  D. M. Chipman,  D. L. Crittenden,  H. Dachsel,  
 R. J. Doerksen,  A. D. Dutoi,  R. G. Edgar,  J. Fosso-Tande,  
 L. Fusti-Molnar,  D. Ghosh,  A. Ghysels,  A. Golubeva-Zadorozhnaya,  
 J. Gonthier,  M. S. Gordon,  S. R. Gwaltney,  G. Hawkins,  J. E. Herr,  
 A. Heyden,  S. Hirata,  E. G. Hohenstein,  G. Kedziora,  F. J. Keil,  
 C. Kelley,  Jihan Kim,  R. A. King,  R. Z. Khaliullin,  P. P. Korambath,  
 W. Kurlancheek,  A. Laurent,  A. M. Lee,  M. S. Lee,  S. V. Levchenko,  
 Ching Yeh Lin,  D. Liotard,  E. Livshits,  R. C. Lochan,  I. Lotan,  
 L. A. Martinez-Martinez,  P. E. Maslen,  N. Nair,  D. P. O'Neill,  
 D. Neuhauser,  E. Neuscamman,  C. M. Oana,  R. Olivares-Amaya,  R. Olson,  
 T. M. Perrine,  B. Peters,  P. A. Pieniazek,  A. Prociuk,  Y. M. Rhee,  
 J. Ritchie,  M. A. Rohrdanz,  E. Rosta,  N. J. Russ,  H. F. Schaefer III,  
 M. W. Schmidt,  N. E. Schultz,  S. Sharma,  N. Shenvi,  C. D. Sherrill,  
 A. C. Simmonett,  A. Sodt,  T. Stein,  D. Stuck,  K. S. Thanthiriwatte,  
 V. Vanovschi,  L. Vogt,  Tao Wang,  A. Warshel,  M. A. Watson,  
 C. F. Williams,  Q. Wu,  X. Xu,  Jun Yang,  W. Zhang,  Yan Zhao

 Please cite Q-Chem as follows:
 Y. Shao et al., Mol. Phys. 113, 184-215 (2015)
 DOI: 10.1080/00268976.2014.952696

 Q-Chem 5.4.1 for Intel X86 EM64T Linux

 Parts of Q-Chem use Armadillo 9.800.1 (Horizon Scraper).
 http://arma.sourceforge.net/

 Q-Chem begins on Thu Dec  7 15:40:53 2023  

 Host: 
0

     Scratch files written to /scratch/ari.fischer/qChem1854145.hpc-mn1/qchem228392//
 Aug1521 |scratch|qcdevops|jenkins|workspace|build_RNUM 8249   
 Processing $rem in /usr/local/qchem-5.4.1/config/preferences:
 Processing $rem in /home/ari.fischer/.qchemrc:
 Symmetry turned off for PCM/SM12/SMD calculation

 Checking the input file for inconsistencies... 	...done.

--------------------------------------------------------------
User input:
--------------------------------------------------------------
$molecule
-1 1
C         0.5976906250    0.1829920034    0.0003836046
O        -0.2116925879    1.0809780819    0.0002834213
C         2.1394850490    0.4145355110    0.0005056157
O         2.4827968949    1.6120878250    0.0005925006
O         2.8556453186   -0.6050976549    0.0004820653
O         0.2596265223   -1.1065494245    0.0003349708
H        -0.7087105219   -1.1729699418    0.0002458218
$end

$rem
BASIS = def2-TZVP
JOB_TYPE = SP
METHOD = wB97M-V
SCF_ALGORITHM = DIIS_GDM
MAX_SCF_CYCLES = 400
SCF_CONVERGENCE = 7
THRESH = 12
Solvent_method = SMD
$end
--------------------------------------------------------------
 ----------------------------------------------------------------
             Standard Nuclear Orientation (Angstroms)
    I     Atom           X                Y                Z
 ----------------------------------------------------------------
    1      C       0.5976906250     0.1829920034     0.0003836046
    2      O      -0.2116925879     1.0809780819     0.0002834213
    3      C       2.1394850490     0.4145355110     0.0005056157
    4      O       2.4827968949     1.6120878250     0.0005925006
    5      O       2.8556453186    -0.6050976549     0.0004820653
    6      O       0.2596265223    -1.1065494245     0.0003349708
    7      H      -0.7087105219    -1.1729699418     0.0002458218
 ----------------------------------------------------------------
 Nuclear Repulsion Energy =         221.00090303 hartrees
 There are       23 alpha and       23 beta electrons
 Requested basis set is def2-TZVP
 There are 70 shells and 192 basis functions

 Total QAlloc Memory Limit 288000 MB
 Mega-Array Size       188 MB
 MEM_STATIC part       192 MB
 
 Citation of the SMD model:
 Marenich, A.V.; Cramer, C.J.; Truhlar, D.G.
 J. Phys. Chem. B 2009, 113, 6378-6396.
 iSolventCode=           1
 Solvent: water                                                           
 
 vradii
            1           2           3           4           5           6
    1   1.8500000   1.5200000   1.8500000   1.5200000   1.5200000   1.5200000
            7
    1   1.2000000
 Changing PCM_VDW_RADII to SMD_RADIUS
 Discretize the solute cavity surface with Lebedev spheres
	Using 110 Lebedev grid points for each H atom
	Using 194 Lebedev grid points for other atoms
	Atomic van der Waals radii will be scaled by 1.20
 Remove points where switching function is < 1.0e-08
 Keep 748 surface tesserae and discard 526 interior tesserae
 Molecular Surface Area = 92.634 Angst**2

                       Distance Matrix (Angstroms)
             C (  1)   O (  2)   C (  3)   O (  4)   O (  5)   O (  6)
   O (  2)  1.208917
   C (  3)  1.559084  2.443805
   O (  4)  2.365574  2.746334  1.245791
   O (  5)  2.391536  3.500202  1.246009  2.248317
   O (  6)  1.333118  2.237726  2.418174  3.511905  2.644006
   H (  7)  1.882901  2.308096  3.260735  4.235831  3.609309  0.970612

 
 A cutoff of  1.0D-12 yielded   2327 shell pairs
 There are     17927 function pairs (     23994 Cartesian)
 Smallest overlap matrix eigenvalue = 5.77E-04

 Scale SEOQF with 1.000000e-01/1.000000e-01/1.000000e+00

 Standard Electronic Orientation quadrupole field applied
 Nucleus-field energy     =     0.0000000084 hartrees
 Guess from superposition of atomic densities
 Warning:  Energy on first SCF cycle will be non-variational
 SAD guess density has 45.000000 electrons

 -----------------------------------------------------------------------
  General SCF calculation program by
  Eric Jon Sundstrom, Paul Horn, Yuezhi Mao, Dmitri Zuev, Alec White,
  David Stuck, Shaama M.S., Shane Yost, Joonho Lee, David Small,
  Daniel Levine, Susi Lehtola, Hugh Burton, Evgeny Epifanovsky,
  Bang C. Huynh
 -----------------------------------------------------------------------
 Exchange:     0.1500 Hartree-Fock + 1.0000 wB97M-V + LR-HF
 Correlation:  1.0000 wB97M-V
 Using SG-2 standard quadrature grid
 Nonlocal Correlation:  VV10 with C = 0.0100 and b = 6.00 and scale = 1.00000
 Grid used for NLC:  SG-1 standard quadrature
 
 Citation of the SMD model:
 Marenich, A.V.; Cramer, C.J.; Truhlar, D.G.
 J. Phys. Chem. B 2009, 113, 6378-6396.
 iSolventCode=           1
 Solvent: water                                                           
 
 vradii
            1           2           3           4           5           6
    1   1.8500000   1.5200000   1.8500000   1.5200000   1.5200000   1.5200000
            7
    1   1.2000000
 using 4 threads for integral computing
 -------------------------------------------------------
 OpenMP Integral computing Module                
 Release: version 1.0, May 2013, Q-Chem Inc. Pittsburgh 
 -------------------------------------------------------
 -------------------------------------------------------
 OpenMP BLAS3 based DFT computing Module                
 Release: version 1.0, May 2013, Q-Chem Inc. Pittsburgh 
 -------------------------------------------------------
 A restricted SCF calculation will be
 performed using DIIS, GDM
 SCF converges when RMS gradient is below 1.0e-07
 ---------------------------------------
  Cycle       Energy         DIIS error
 ---------------------------------------
    1    -378.7690417273      4.04e-02  
    2    -377.7229936397      8.44e-03  Done DIIS. Switching to GDM
 ---------------------------------------
  Cycle       Energy        RMS Gradient
 ---------------------------------------
    1    -377.7229936397      2.02e-01   Descent step
    2    -377.9580767610      2.06e-02   Normal BFGS step
    3    -377.9669569220      1.62e-02   Normal BFGS step
    4    -377.9677874439      9.76e-03   Normal BFGS step
    5    -377.9682642284      1.37e-03   Normal BFGS step
    6    -377.9682844168      5.67e-04   Normal BFGS step
    7    -377.9682888863      1.49e-04   Normal BFGS step
    8    -377.9682890187      8.35e-05   Normal BFGS step
    9    -377.9682891279      3.05e-05   Normal BFGS step
   10    -377.9682891313      1.82e-05   Normal BFGS step
   11    -377.9682891338      2.86e-06   Normal BFGS step
   12    -377.9682891340      1.61e-06   Normal BFGS step
   13    -377.9682891340      3.91e-07   Normal BFGS step
   14    -377.9682891340      9.46e-08  Convergence criterion met
 ---------------------------------------
 SCF time:   CPU 217.76s  wall 55.00s 
(3)  G-ENP(liq) elect-nuc-pol free energy of system     -377.968289134 a.u.
(4)  G-CDS(liq) cavity-dispersion-solvent structure 
     free energy                                                5.6630 kcal/mol
(6)  G-S(liq) free energy of system                     -377.959264588 a.u.
 SCF   energy in the final basis set =     -377.9592645876
 Total energy in the final basis set =     -377.9592645876
 
 --------------------------------------------------------------
 
                    Orbital Energies (a.u.)
 --------------------------------------------------------------
 
 Alpha MOs
 -- Occupied --
-19.3794 -19.3302 -19.2883 -19.2879 -10.4802 -10.4506  -1.2457  -1.1741
 -1.1545  -1.0873  -0.7930  -0.6688  -0.6135  -0.5892  -0.5800  -0.5372
 -0.5214  -0.5099  -0.4365  -0.4313  -0.3753  -0.3687  -0.3542
 -- Virtual --
  0.0525   0.1268   0.1680   0.2091   0.2208   0.2544   0.2768   0.3039
  0.3351   0.3413   0.3873   0.4018   0.4339   0.4487   0.4662   0.4992
  0.5163   0.5265   0.5639   0.5743   0.5817   0.5869   0.5956   0.6302
  0.6310   0.7002   0.7290   0.7627   0.8122   0.8215   0.8231   0.8309
  0.8931   0.8988   0.9852   1.0296   1.0602   1.1333   1.1368   1.1485
  1.2851   1.3853   1.4021   1.4301   1.4613   1.5140   1.5628   1.5996
  1.6317   1.6428   1.6444   1.7178   1.7240   1.8028   1.8747   1.8826
  1.9038   1.9440   1.9551   2.0038   2.0387   2.1049   2.1359   2.1896
  2.1948   2.2283   2.2826   2.2982   2.3102   2.3351   2.4007   2.4331
  2.5305   2.6272   2.6473   2.6751   2.7288   2.8044   2.8600   2.8920
  2.9283   2.9680   3.0129   3.0262   3.0477   3.0839   3.1024   3.1278
  3.1417   3.2059   3.2206   3.2607   3.3182   3.3424   3.3982   3.4081
  3.4238   3.4675   3.5143   3.5243   3.5669   3.6759   3.6979   3.7698
  3.7945   3.8886   3.9000   4.0622   4.1599   4.3233   4.3909   4.4365
  4.6487   4.6700   4.9218   5.2342   5.2673   5.2750   5.2844   5.3065
  5.3151   5.3274   5.4164   5.4475   5.5079   5.5907   5.6308   5.6410
  5.6892   5.7367   5.8184   5.9380   5.9480   6.0513   6.1449   6.1779
  6.2535   6.3167   6.3364   6.4057   6.4588   6.4758   6.4976   6.5180
  6.5539   6.5618   6.6048   6.6300   6.6716   6.8031   6.8498   6.8829
  6.9051   6.9539   7.0098   7.0263   7.1005   7.1657   7.1990   7.2812
  7.3021   7.3665   7.6960  23.4758  23.8079  44.1024  44.2122  44.3295
 44.5135
 --------------------------------------------------------------
 
          Ground-State Mulliken Net Atomic Charges

     Atom                 Charge (a.u.)
  ----------------------------------------
      1 C                     0.325106
      2 O                    -0.436102
      3 C                     0.313444
      4 O                    -0.592239
      5 O                    -0.587990
      6 O                    -0.412072
      7 H                     0.389853
  ----------------------------------------
  Sum of atomic charges =    -1.000000

 -----------------------------------------------------------------
                    Cartesian Multipole Moments
 -----------------------------------------------------------------
    Charge (ESU x 10^10)
                -4.8032
    Dipole Moment (Debye)
         X     -13.1446      Y      -4.7264      Z      -0.0025
       Tot      13.9685
    Quadrupole Moments (Debye-Ang)
        XX     -70.8484     XY      -1.9606     YY     -48.4374
        XZ      -0.0071     YZ      -0.0022     ZZ     -33.4218
    Octopole Moments (Debye-Ang^2)
       XXX    -254.3532    XXY     -23.1548    XYY     -76.3494
       YYY     -44.8561    XXZ      -0.0352    XYZ      -0.0034
       YYZ      -0.0223    XZZ     -45.9783    YZZ      -8.4112
       ZZZ      -0.0432
    Hexadecapole Moments (Debye-Ang^3)
      XXXX   -1060.7468   XXXY     -77.6811   XXYY    -226.2846
      XYYY     -79.6312   YYYY    -269.3100   XXXZ      -0.1348
      XXYZ      -0.0158   XYYZ      -0.0406   YYYZ      -0.0248
      XXZZ    -124.3516   XYZZ     -16.0337   YYZZ     -45.0704
      XZZZ      -0.0721   YZZZ      -0.0149   ZZZZ     -29.4237
 -----------------------------------------------------------------
 Total job time:  55.87s(wall), 219.68s(cpu) 
 Thu Dec  7 15:41:49 2023

        *************************************************************
        *                                                           *
        *  Thank you very much for using Q-Chem.  Have a nice day.  *
        *                                                           *
        *************************************************************


