
Running Job 1 of 2 Q_in.in
qchem Q_in.in_7903.0 /scratch/ari.fischer/qChem1601583.hpc-mn1/qchem7903/ 0
/usr/local/qchem-5.4.1/exe/qcprog.exe_s Q_in.in_7903.0 /scratch/ari.fischer/qChem1601583.hpc-mn1/qchem7903/
                  Welcome to Q-Chem
     A Quantum Leap Into The Future Of Chemistry


 Q-Chem 5.4, Q-Chem, Inc., Pleasanton, CA (2021)

 License issued to: Nanyang Technological University (site)

 E. Epifanovsky,  A. T. B. Gilbert,  Xintian Feng,  Joonho Lee,  Yuezhi Mao,  
 N. Mardirossian,  P. Pokhilko,  A. White,  M. Wormit,  M. P. Coons,  
 A. L. Dempwolff,  Zhengting Gan,  D. Hait,  P. R. Horn,  L. D. Jacobson,  
 I. Kaliman,  J. Kussmann,  A. W. Lange,  Ka Un Lao,  D. S. Levine,  Jie Liu,  
 S. C. McKenzie,  A. F. Morrison,  K. Nanda,  F. Plasser,  D. R. Rehn,  
 M. L. Vidal,  Zhi-Qiang You,  Ying Zhu,  B. Alam,  B. Albrecht,  
 A. Aldossary,  E. Alguire,  J. H. Andersen,  D. Barton,  K. Begam,  A. Behn,  
 Y. A. Bernard,  E. J. Berquist,  H. Burton,  A. Carreras,  K. Carter-Fenk,  
 R. Chakraborty,  A. D. Chien,  K. D. Closser,  V. Cofer-Shabica,  
 S. Dasgupta,  Jia Deng,  M. de Wergifosse,  M. Diedenhofen,  Hainam Do,  
 S. Ehlert,  Po-Tung Fang,  S. Fatehi,  Qingguo Feng,  T. Friedhoff,  
 J. Gayvert,  Qinghui Ge,  G. Gidofalvi,  M. Goldey,  J. Gomes,  
 C. Gonzalez-Espinoza,  S. Gulania,  A. Gunina,  M. W. D. Hanson-Heine,  
 P. H. P. Harbach,  A. W. Hauser,  M. F. Herbst,  M. Hernandez Vera,  
 M. Hodecker,  Z. C. Holden,  S. Houck,  Xunkun Huang,  Kerwin Hui,  
 B. C. Huynh,  M. Ivanov,  Hyunjun Ji,  Hanjie Jiang,  B. Kaduk,  S. Kaehler,  
 K. Khistyaev,  Jaehoon Kim,  P. Klunzinger,  Z. Koczor-Benda,  
 Joong Hoon Koh,  D. Kosenkov,  L. Koulias,  T. Kowalczyk,  C. M. Krauter,  
 K. Kue,  A. Kunitsa,  T. Kus,  A. Landau,  K. V. Lawler,  D. Lefrancois,  
 S. Lehtola,  Rain Li,  Yi-Pei Li,  Jiashu Liang,  M. Liebenthal,  
 Hung-Hsuan Lin,  You-Sheng Lin,  Fenglai Liu,  Kuan-Yu Liu,  
 M. Loipersberger,  A. Luenser,  A. Manjanath,  P. Manohar,  E. Mansoor,  
 S. F. Manzer,  Shan-Ping Mao,  A. V. Marenich,  T. Markovich,  S. Mason,  
 S. A. Maurer,  P. F. McLaughlin,  M. F. S. J. Menger,  J.-M. Mewes,  
 S. A. Mewes,  P. Morgante,  J. W. Mullinax,  K. J. Oosterbaan,  G. Paran,  
 Alexander C. Paul,  Suranjan K. Paul,  F. Pavosevic,  Zheng Pei,  S. Prager,  
 E. I. Proynov,  E. Ramos,  B. Rana,  A. E. Rask,  A. Rettig,  R. M. Richard,  
 F. Rob,  E. Rossomme,  T. Scheele,  M. Scheurer,  M. Schneider,  
 N. Sergueev,  S. M. Sharada,  W. Skomorowski,  D. W. Small,  C. J. Stein,  
 Yu-Chuan Su,  E. J. Sundstrom,  Zhen Tao,  J. Thirman,  T. Tsuchimochi,  
 N. M. Tubman,  S. P. Veccham,  O. Vydrov,  J. Wenzel,  J. Witte,  A. Yamada,  
 Kun Yao,  S. Yeganeh,  S. R. Yost,  A. Zech,  Igor Ying Zhang,  Xing Zhang,  
 Yu Zhang,  D. Zuev,  A. Aspuru-Guzik,  A. T. Bell,  N. A. Besley,  
 K. B. Bravaya,  B. R. Brooks,  D. Casanova,  Jeng-Da Chai,  S. Coriani,  
 C. J. Cramer,  A. E. DePrince, III,  R. A. DiStasio Jr.,  A. Dreuw,  
 B. D. Dunietz,  T. R. Furlani,  W. A. Goddard III,  S. Grimme,  
 S. Hammes-Schiffer,  T. Head-Gordon,  W. J. Hehre,  Chao-Ping Hsu,  
 T.-C. Jagau,  Yousung Jung,  A. Klamt,  Jing Kong,  D. S. Lambrecht,  
 WanZhen Liang,  N. J. Mayhall,  C. W. McCurdy,  J. B. Neaton,  
 C. Ochsenfeld,  J. A. Parkhill,  R. Peverati,  V. A. Rassolov,  Yihan Shao,  
 L. V. Slipchenko,  T. Stauch,  R. P. Steele,  J. E. Subotnik,  
 A. J. W. Thom,  A. Tkatchenko,  D. G. Truhlar,  T. Van Voorhis,  
 T. A. Wesolowski,  K. B. Whaley,  H. L. Woodcock III,  P. M. Zimmerman,  
 S. Faraji,  P. M. W. Gill,  M. Head-Gordon,  J. M. Herbert,  A. I. Krylov

 Additional authors for Version 5.4.1: 
 S. Kotaru,  Shaozhi Li,  Xiangyuan Li,  F. Matz,  A. Molle,  Haisheng Ren,  
 Yingli Su,  Hung-Yi Tsai,  C. Utku,  Fang Wang

 Contributors to earlier versions of Q-Chem not listed above: 
 R. D. Adamson,  B. Austin,  R. Baer,  J. Baker,  G. J. O. Beran,  
 K. Brandhorst,  S. T. Brown,  E. F. C. Byrd,  A. K. Chakraborty,  
 G. K. L. Chan,  Chun-Min Chang,  Yunqing Chen,  C.-L. Cheng,  
 Siu Hung Chien,  D. M. Chipman,  D. L. Crittenden,  H. Dachsel,  
 R. J. Doerksen,  A. D. Dutoi,  R. G. Edgar,  J. Fosso-Tande,  
 L. Fusti-Molnar,  D. Ghosh,  A. Ghysels,  A. Golubeva-Zadorozhnaya,  
 J. Gonthier,  M. S. Gordon,  S. R. Gwaltney,  G. Hawkins,  J. E. Herr,  
 A. Heyden,  S. Hirata,  E. G. Hohenstein,  G. Kedziora,  F. J. Keil,  
 C. Kelley,  Jihan Kim,  R. A. King,  R. Z. Khaliullin,  P. P. Korambath,  
 W. Kurlancheek,  A. Laurent,  A. M. Lee,  M. S. Lee,  S. V. Levchenko,  
 Ching Yeh Lin,  D. Liotard,  E. Livshits,  R. C. Lochan,  I. Lotan,  
 L. A. Martinez-Martinez,  P. E. Maslen,  N. Nair,  D. P. O'Neill,  
 D. Neuhauser,  E. Neuscamman,  C. M. Oana,  R. Olivares-Amaya,  R. Olson,  
 T. M. Perrine,  B. Peters,  P. A. Pieniazek,  A. Prociuk,  Y. M. Rhee,  
 J. Ritchie,  M. A. Rohrdanz,  E. Rosta,  N. J. Russ,  H. F. Schaefer III,  
 M. W. Schmidt,  N. E. Schultz,  S. Sharma,  N. Shenvi,  C. D. Sherrill,  
 A. C. Simmonett,  A. Sodt,  T. Stein,  D. Stuck,  K. S. Thanthiriwatte,  
 V. Vanovschi,  L. Vogt,  Tao Wang,  A. Warshel,  M. A. Watson,  
 C. F. Williams,  Q. Wu,  X. Xu,  Jun Yang,  W. Zhang,  Yan Zhao

 Please cite Q-Chem as follows:
 Y. Shao et al., Mol. Phys. 113, 184-215 (2015)
 DOI: 10.1080/00268976.2014.952696

 Q-Chem 5.4.1 for Intel X86 EM64T Linux

 Parts of Q-Chem use Armadillo 9.800.1 (Horizon Scraper).
 http://arma.sourceforge.net/

 Q-Chem begins on Tue Jul  4 21:18:06 2023  

 Host: 
0

     Scratch files written to /scratch/ari.fischer/qChem1601583.hpc-mn1/qchem7903//
 Aug1521 |scratch|qcdevops|jenkins|workspace|build_RNUM 8249   
 Processing $rem in /usr/local/qchem-5.4.1/config/preferences:
 Processing $rem in /home/ari.fischer/.qchemrc:
 Now reading second FSM geometry
 Symmetry turned off for PCM/SM12/SMD calculation

 Checking the input file for inconsistencies... 	...done.

--------------------------------------------------------------
User input:
--------------------------------------------------------------
$molecule
0 2
C    0.9218778   -0.5082384   -0.1728241
O    1.9769910   -1.3212937   -0.1322844
H   -1.0972151    1.6037585   -0.0525714
C   -0.4072348   -0.9622271    0.0530754
O   -0.4907646   -2.2857667    0.2966910
O   -1.3989453   -0.2296213    0.0332588
O   -0.9922441    2.5709870   -0.0733451
H   -0.0717680    2.7197601    0.1648464
H   -1.4185314   -2.5181295    0.4511141
H    1.1297785    0.5272120   -0.3874122
H    1.7012417   -2.2284104    0.0717710
****
C    0.8220617    0.0736951   -0.4485307
O    1.6236500   -0.5144265    0.5593127
H   -1.5871128    0.5707949    0.7462737
C   -0.5601480   -0.5226812   -0.4727024
O   -0.5544166   -1.8150708   -0.9042455
O   -1.3470892   -0.3593620    0.6487320
O    0.7859252    1.4761347   -0.3172282
H    0.3901345    1.7050728    0.5336094
H   -1.4412764   -2.1855941   -0.8028489
H    1.3159474   -0.1365639   -1.3929679
H    1.1262613   -0.5067327    1.3877244
$end

$rem
BASIS = 6-311++G(2df,2p)
GUI = 2
JOB_TYPE = FSM
FSM_MODE = 2
METHOD = wB97M-v
MAX_SCF_CYCLES = 120
FSM_NGRAD = 6
FSM_NNODE = 20
SCF_CONVERGENCE = 7
THRESH = 12
SCF_ALGORITHM = DIIS_GDM
solvent_method = SMD
$end

--------------------------------------------------------------
 ----------------------------------------------------------------
             Standard Nuclear Orientation (Angstroms)
    I     Atom           X                Y                Z
 ----------------------------------------------------------------
    1      C       0.9218778000    -0.5082384000    -0.1728241000
    2      O       1.9769910000    -1.3212937000    -0.1322844000
    3      H      -1.0972151000     1.6037585000    -0.0525714000
    4      C      -0.4072348000    -0.9622271000     0.0530754000
    5      O      -0.4907646000    -2.2857667000     0.2966910000
    6      O      -1.3989453000    -0.2296213000     0.0332588000
    7      O      -0.9922441000     2.5709870000    -0.0733451000
    8      H      -0.0717680000     2.7197601000     0.1648464000
    9      H      -1.4185314000    -2.5181295000     0.4511141000
   10      H       1.1297785000     0.5272120000    -0.3874122000
   11      H       1.7012417000    -2.2284104000     0.0717710000
 ----------------------------------------------------------------
 Nuclear Repulsion Energy =         235.87942918 hartrees
 There are       25 alpha and       24 beta electrons
 Requested basis set is 6-311++G(2df,2p)
 There are 78 shells and 254 basis functions

 Total QAlloc Memory Limit 288000 MB
 Mega-Array Size       188 MB
 MEM_STATIC part       192 MB
 beginning FSman 

*******************************************
*******************************************
******** Starting FSM Calculation *********
*******************************************
*******************************************
-FSM parameters:
 Maximum displacement of each coordinate during optimization (Angstrom)      0.05
 Maximum optimization steps for each new node                                6
 The scaling factor for optimization (hartrees/Angstrom^2)                   1.75
 The number of LST interpolations used for reparameterization                100
-Aligning product structure to maximum coincidence with the reactant structure
 Total R --> P Distance 4.331148
 New node interpolation distace (Angstroms): 0.22
-Performing force calculation on reactant structure in state:0
 ----------------------------------------------------------------
             Standard Nuclear Orientation (Angstroms)
    I     Atom           X                Y                Z
 ----------------------------------------------------------------
    1      C       0.9218778000    -0.5082384000    -0.1728241000
    2      O       1.9769910000    -1.3212937000    -0.1322844000
    3      H      -1.0972151000     1.6037585000    -0.0525714000
    4      C      -0.4072348000    -0.9622271000     0.0530754000
    5      O      -0.4907646000    -2.2857667000     0.2966910000
    6      O      -1.3989453000    -0.2296213000     0.0332588000
    7      O      -0.9922441000     2.5709870000    -0.0733451000
    8      H      -0.0717680000     2.7197601000     0.1648464000
    9      H      -1.4185314000    -2.5181295000     0.4511141000
   10      H       1.1297785000     0.5272120000    -0.3874122000
   11      H       1.7012417000    -2.2284104000     0.0717710000
 ----------------------------------------------------------------
 Nuclear Repulsion Energy =         235.87942918 hartrees
 There are       25 alpha and       24 beta electrons
 
 Citation of the SMD model:
 Marenich, A.V.; Cramer, C.J.; Truhlar, D.G.
 J. Phys. Chem. B 2009, 113, 6378-6396.
 iSolventCode=           1
 Solvent: water                                                           
 
 vradii
            1           2           3           4           5           6
    1   1.8500000   1.5200000   1.2000000   1.8500000   1.5200000   1.5200000
            7           8           9          10          11
    1   1.5200000   1.2000000   1.2000000   1.2000000   1.2000000
 Changing PCM_VDW_RADII to SMD_RADIUS
 Discretize the solute cavity surface with Lebedev spheres
	Using 110 Lebedev grid points for each H atom
	Using 194 Lebedev grid points for other atoms
	Atomic van der Waals radii will be scaled by 1.20
 Remove points where switching function is < 1.0e-08
 Keep 970 surface tesserae and discard 744 interior tesserae
 Molecular Surface Area = 117.726 Angst**2

                       Distance Matrix (Angstroms)
             C (  1)   O (  2)   H (  3)   C (  4)   O (  5)   O (  6)
   O (  2)  1.332654
   H (  3)  2.924334  4.244176
   C (  4)  1.422560  2.418227  2.659232
   O (  5)  2.318536  2.684035  3.951983  1.348363
   O (  6)  2.346554  3.551915  1.860024  1.233124  2.263167
   O (  7)  3.627036  4.895884  0.973130  3.583549  4.896577  2.831992
   H (  8)  3.394308  4.540464  1.531102  3.698927  5.024763  3.236907
   H (  9)  3.147456  3.647238  4.164961  1.897890  0.968809  2.326426
   H ( 10)  1.077696  2.049349  2.496111  2.185147  3.317681  2.672865
   H ( 11)  1.904265  0.969813  4.746824  2.459521  2.204262  3.688875
             O (  7)   H (  8)   H (  9)   H ( 10)
   H (  8)  0.962364
   H (  9)  5.133798  5.415829
   H ( 10)  2.962876  2.560463  4.058462
   H ( 11)  5.505465  5.257054  3.156077  2.851469
 
 Requested basis set is 6-311++G(2df,2p)
 There are 78 shells and 254 basis functions
 A cutoff of  1.0D-12 yielded   2775 shell pairs
 There are     29302 function pairs (     36492 Cartesian)
 Smallest overlap matrix eigenvalue = 4.38E-05

 Scale SEOQF with 1.000000e-01/1.000000e-01/1.000000e-01

 Standard Electronic Orientation quadrupole field applied
 Nucleus-field energy     =     0.0000000122 hartrees
 Guess from superposition of atomic densities
 Warning:  Energy on first SCF cycle will be non-variational
 SAD guess density has 49.000000 electrons

 -----------------------------------------------------------------------
  General SCF calculation program by
  Eric Jon Sundstrom, Paul Horn, Yuezhi Mao, Dmitri Zuev, Alec White,
  David Stuck, Shaama M.S., Shane Yost, Joonho Lee, David Small,
  Daniel Levine, Susi Lehtola, Hugh Burton, Evgeny Epifanovsky,
  Bang C. Huynh
 -----------------------------------------------------------------------
 Exchange:     0.1500 Hartree-Fock + 1.0000 wB97M-V + LR-HF
 Correlation:  1.0000 wB97M-V
 Using SG-2 standard quadrature grid
 Nonlocal Correlation:  VV10 with C = 0.0100 and b = 6.00 and scale = 1.00000
 Grid used for NLC:  SG-1 standard quadrature
 
 Citation of the SMD model:
 Marenich, A.V.; Cramer, C.J.; Truhlar, D.G.
 J. Phys. Chem. B 2009, 113, 6378-6396.
 iSolventCode=           1
 Solvent: water                                                           
 
 vradii
            1           2           3           4           5           6
    1   1.8500000   1.5200000   1.2000000   1.8500000   1.5200000   1.5200000
            7           8           9          10          11
    1   1.5200000   1.2000000   1.2000000   1.2000000   1.2000000
 using 16 threads for integral computing
 -------------------------------------------------------
 OpenMP Integral computing Module                
 Release: version 1.0, May 2013, Q-Chem Inc. Pittsburgh 
 -------------------------------------------------------
 -------------------------------------------------------
 OpenMP BLAS3 based DFT computing Module                
 Release: version 1.0, May 2013, Q-Chem Inc. Pittsburgh 
 -------------------------------------------------------
 A unrestricted SCF calculation will be
 performed using DIIS, GDM
 SCF converges when RMS gradient is below 1.0e-07
 ---------------------------------------
  Cycle       Energy         DIIS error
 ---------------------------------------
    1    -381.0319060682      1.59e-02  
    2    -379.9845077935      2.49e-03  Done DIIS. Switching to GDM
 ---------------------------------------
  Cycle       Energy        RMS Gradient
 ---------------------------------------
    1    -379.9845077935      1.10e-01   Descent step
    2    -380.1282032632      1.57e-02   Normal BFGS step
    3    -380.1408095653      1.21e-02   Normal BFGS step
    4    -380.1415423930      8.52e-03   Normal BFGS step
    5    -380.1422503769      2.08e-03   Normal BFGS step
    6    -380.1422879504      1.68e-03   Normal BFGS step
    7    -380.1423021359      6.86e-04   Normal BFGS step
    8    -380.1423043758      2.45e-04   Normal BFGS step
    9    -380.1423048246      7.25e-05   Normal BFGS step
   10    -380.1423049000      6.18e-05   Normal BFGS step
   11    -380.1423049156      2.46e-05   Normal BFGS step
   12    -380.1423049192      1.01e-05   Normal BFGS step
   13    -380.1423049197      2.49e-06   Normal BFGS step
   14    -380.1423049199      1.65e-06   Normal BFGS step
   15    -380.1423049199      8.41e-07   Normal BFGS step
   16    -380.1423049199      2.62e-07   Normal BFGS step
   17    -380.1423049199      8.13e-08  Convergence criterion met
 ---------------------------------------
 SCF time:   CPU 533.74s  wall 34.00s 
<S^2> =          0.754924566
(3)  G-ENP(liq) elect-nuc-pol free energy of system     -380.142304920 a.u.
(4)  G-CDS(liq) cavity-dispersion-solvent structure 
     free energy                                                5.2786 kcal/mol
(6)  G-S(liq) free energy of system                     -380.133892911 a.u.
 SCF   energy in the final basis set =     -380.1338929106
 Total energy in the final basis set =     -380.1338929106
 
 --------------------------------------------------------------
 
                    Orbital Energies (a.u.)
 --------------------------------------------------------------
 
 Alpha MOs
 -- Occupied --
-19.3984 -19.3843 -19.3353 -19.3222 -10.4875 -10.4279  -1.2520  -1.2218
 -1.1570  -1.1275  -0.8755  -0.7614  -0.6799  -0.6447  -0.6123  -0.5945
 -0.5843  -0.5398  -0.5301  -0.5113  -0.5001  -0.4529  -0.4234  -0.4092
 -0.3056
 -- Virtual --
  0.0273   0.0416   0.0514   0.0693   0.0722   0.0910   0.1116   0.1131
  0.1227   0.1331   0.1340   0.1556   0.1640   0.1764   0.2069   0.2201
  0.2275   0.2370   0.2564   0.2612   0.2687   0.2723   0.2881   0.2927
  0.3018   0.3093   0.3223   0.3278   0.3394   0.3494   0.3601   0.3696
  0.3812   0.4152   0.4209   0.4410   0.4965   0.5155   0.5392   0.5805
  0.5862   0.6070   0.6121   0.6166   0.6285   0.6728   0.6785   0.7159
  0.7348   0.7420   0.7824   0.7844   0.8085   0.8146   0.8271   0.8384
  0.8503   0.8747   0.9101   0.9338   0.9917   1.0187   1.0232   1.0424
  1.0549   1.0974   1.1092   1.1182   1.1405   1.1483   1.1544   1.1615
  1.1749   1.1877   1.2289   1.2513   1.2868   1.2979   1.3112   1.3680
  1.4160   1.4463   1.4591   1.5016   1.5242   1.5595   1.5728   1.6035
  1.6358   1.6495   1.6758   1.7733   1.8179   1.8288   1.8686   1.8831
  1.8955   1.9069   1.9615   2.0897   2.1188   2.1745   2.2371   2.2802
  2.2918   2.3201   2.3540   2.3982   2.4192   2.4718   2.5141   2.5803
  2.6337   2.6826   2.7010   2.7415   2.7953   2.8081   2.8339   2.8624
  2.9142   2.9949   3.0248   3.0732   3.1387   3.1674   3.2261   3.2836
  3.2928   3.3147   3.3631   3.3852   3.3984   3.5264   3.5432   3.5731
  3.5900   3.6275   3.6851   3.7027   3.7179   3.7231   3.7271   3.7864
  3.8284   3.8465   3.9032   3.9991   4.0340   4.0854   4.1015   4.1441
  4.2212   4.2413   4.2718   4.2906   4.3232   4.3347   4.4474   4.5230
  4.7805   4.8767   5.1136   5.1208   5.1348   5.1454   5.1639   5.1946
  5.2068   5.2131   5.2148   5.2516   5.2926   5.3016   5.3484   5.3640
  5.4010   5.4514   5.5093   5.5226   5.5779   5.5877   5.5984   5.6145
  5.6514   5.7022   5.7230   5.7704   5.8448   5.8703   5.8731   6.0385
  6.0794   6.3508   6.3511   6.5849   6.8862   6.9046   7.0118   7.0149
  7.0303   7.0693   7.0768   7.1241   7.1708   7.1976   7.2218   7.2610
  7.2784   7.2997   7.3117   7.3638   7.3730   7.4449   7.4582   7.4904
  7.6352   7.6481   7.6817   7.7647   7.8041   7.8555   7.8853  24.7672
 25.1977  50.5020  50.5431  50.6152  50.7375
 
 Beta MOs
 -- Occupied --
-19.3930 -19.3835 -19.3306 -19.3222 -10.4872 -10.4188  -1.2468  -1.2117
 -1.1507  -1.1274  -0.8551  -0.7545  -0.6736  -0.6417  -0.6089  -0.5774
 -0.5720  -0.5351  -0.5059  -0.4986  -0.4942  -0.4329  -0.4220  -0.4032
 -- Virtual --
 -0.0191   0.0273   0.0416   0.0517   0.0691   0.0722   0.0906   0.1119
  0.1137   0.1244   0.1342   0.1560   0.1638   0.1677   0.1757   0.2106
  0.2215   0.2274   0.2375   0.2573   0.2636   0.2697   0.2737   0.2904
  0.2955   0.3058   0.3104   0.3264   0.3309   0.3407   0.3511   0.3648
  0.3727   0.3816   0.4163   0.4242   0.4430   0.4993   0.5226   0.5467
  0.5847   0.5980   0.6092   0.6171   0.6187   0.6363   0.6790   0.6857
  0.7223   0.7417   0.7501   0.7862   0.7895   0.8122   0.8179   0.8337
  0.8419   0.8532   0.8762   0.9112   0.9347   0.9927   1.0206   1.0339
  1.0458   1.0552   1.0987   1.1116   1.1220   1.1428   1.1530   1.1626
  1.1652   1.1776   1.1927   1.2339   1.2562   1.2914   1.3035   1.3140
  1.3716   1.4185   1.4527   1.4620   1.5032   1.5312   1.5637   1.5822
  1.6096   1.6414   1.6563   1.6837   1.7781   1.8231   1.8361   1.8744
  1.8940   1.8973   1.9168   1.9655   2.0921   2.1233   2.1797   2.2428
  2.2873   2.2999   2.3225   2.3583   2.4043   2.4229   2.4771   2.5244
  2.5860   2.6386   2.7002   2.7236   2.7516   2.8170   2.8437   2.8717
  2.8807   2.9275   3.0256   3.0373   3.0963   3.1710   3.1796   3.2491
  3.3014   3.3143   3.3324   3.3925   3.4122   3.4184   3.5482   3.5626
  3.6011   3.6197   3.6428   3.7008   3.7139   3.7232   3.7343   3.7378
  3.7880   3.8356   3.8528   3.9234   4.0022   4.0407   4.0912   4.1095
  4.1553   4.2227   4.2695   4.2798   4.2996   4.3396   4.3731   4.4530
  4.5310   4.8010   4.9149   5.1136   5.1301   5.1449   5.1610   5.1711
  5.2056   5.2231   5.2286   5.2321   5.2527   5.3057   5.3099   5.3576
  5.3713   5.4118   5.4668   5.5163   5.5272   5.5827   5.5888   5.6067
  5.6197   5.6642   5.7206   5.7235   5.7775   5.8524   5.8766   5.8876
  6.0481   6.0906   6.3613   6.3638   6.5921   6.8945   6.9196   7.0140
  7.0333   7.0397   7.0769   7.0860   7.1264   7.1740   7.2135   7.2286
  7.2707   7.2921   7.3110   7.3204   7.3686   7.3898   7.4450   7.4687
  7.4913   7.6407   7.6535   7.6885   7.7689   7.8127   7.8604   7.8877
 24.7740  25.2012  50.5020  50.5457  50.6179  50.7411
 --------------------------------------------------------------
 
          Ground-State Mulliken Net Atomic Charges

     Atom                 Charge (a.u.)    Spin (a.u.)
  --------------------------------------------------------
      1 C                    -0.075163       0.610522
      2 O                    -0.269653       0.147460
      3 H                     0.384302      -0.000903
      4 C                     0.316151       0.067879
      5 O                    -0.359847       0.025417
      6 O                    -0.553096       0.164439
      7 O                    -0.736803       0.000153
      8 H                     0.330072      -0.000015
      9 H                     0.369760      -0.001079
     10 H                     0.245301      -0.010890
     11 H                     0.348976      -0.002983
  --------------------------------------------------------
  Sum of atomic charges =     0.000000
  Sum of spin   charges =     1.000000

 -----------------------------------------------------------------
                    Cartesian Multipole Moments
 -----------------------------------------------------------------
    Charge (ESU x 10^10)
                 0.0000
    Dipole Moment (Debye)
         X       3.5276      Y      -5.3248      Z       0.9485
       Tot       6.4573
    Quadrupole Moments (Debye-Ang)
        XX     -40.8690     XY      10.7866     YY     -34.2785
        XZ      -0.6131     YZ      -0.2435     ZZ     -36.9505
    Octopole Moments (Debye-Ang^2)
       XXX       6.4949    XXY      -5.7592    XYY      22.8461
       YYY     -11.7918    XXZ       2.6713    XYZ       0.9361
       YYZ       8.4303    XZZ       2.9857    YZZ      10.4443
       ZZZ       0.4340
    Hexadecapole Moments (Debye-Ang^3)
      XXXX    -364.5056   XXXY      96.9811   XXYY    -138.4163
      XYYY     146.7139   YYYY    -612.1013   XXXZ      11.5296
      XXYZ      -4.4047   XYYZ      -2.6331   YYYZ      15.3332
      XXZZ     -63.8719   XYZZ      28.4252   YYZZ    -114.2173
      XZZZ      10.6668   YZZZ      13.7750   ZZZZ     -42.2105
 -----------------------------------------------------------------
 Calculating analytic gradient of the SCF energy
 Gradient of CDS energy
            1           2           3           4           5           6
    1   0.0044418  -0.0031920  -0.0002284  -0.0022329   0.0002948   0.0010239
    2  -0.0019996   0.0024950   0.0000209  -0.0031562   0.0038651  -0.0009486
    3  -0.0001359  -0.0001294  -0.0000259   0.0007967  -0.0007176   0.0000260
            7           8           9          10          11
    1  -0.0001149   0.0002875  -0.0002605  -0.0001907   0.0001714
    2   0.0001217   0.0003494  -0.0003497  -0.0000671  -0.0003308
    3  -0.0001115   0.0001493   0.0000933   0.0000098   0.0000452
 Gradient of SCF Energy
            1           2           3           4           5           6
    1   0.0000998   0.0059556   0.0091678   0.0025061   0.0118977  -0.0089161
    2  -0.0103530   0.0158417  -0.0010998  -0.0052647   0.0036486   0.0080023
    3   0.0015622  -0.0038305   0.0012493   0.0014967  -0.0024067  -0.0013185
            7           8           9          10          11
    1  -0.0200028   0.0134114  -0.0146263   0.0024403  -0.0019335
    2   0.0032080  -0.0033007  -0.0080011   0.0142739  -0.0169551
    3  -0.0045338   0.0029454   0.0033826  -0.0021858   0.0036390
 Max gradient component =       2.000E-02
 RMS gradient           =       8.309E-03
 Computing fast CPCM-SWIG gradient
 Updating gradient with PCM contributions...
 -- total gradient after adding PCM contribution --
---------------------------------------------------
  Atom         X              Y              Z     
---------------------------------------------------
   1      -0.000118       0.000104      -0.000024
   2       0.000085      -0.000038      -0.000038
   3      -0.000014       0.000005      -0.000076
   4       0.000070       0.000018      -0.000030
   5       0.000021      -0.000045       0.000015
   6      -0.000016      -0.000036       0.000073
   7      -0.000066       0.000027       0.000094
   8       0.000001      -0.000019       0.000046
   9       0.000020      -0.000014       0.000002
  10       0.000011      -0.000007      -0.000015
  11       0.000006       0.000005      -0.000046
---------------------------------------------------
 Number of fixed atoms: 0
 Gradient time:  CPU 67.70 s  wall 6.42 s
-Performing force calculation on product structure in state0
 ----------------------------------------------------------------
             Standard Nuclear Orientation (Angstroms)
    I     Atom           X                Y                Z
 ----------------------------------------------------------------
    1      C       0.6188510650     0.0022353232    -0.5899009560
    2      O       1.6724677483    -0.4215993304     0.2553417364
    3      H      -1.4616890801     0.5811975826     1.0878782142
    4      C      -0.6896768648    -0.6335861426    -0.2022950512
    5      O      -0.7072717344    -1.9712346812    -0.4609840188
    6      O      -1.1949032549    -0.3459628919     1.0489378957
    7      O       0.5285572615     1.4079114661    -0.6260206886
    8      H       0.3338133298     1.7362625141     0.2612492499
    9      H      -1.5197149790    -2.3515799843    -0.1013140088
   10      H       0.8851822925    -0.3171345695    -1.5934766160
   11      H       1.3875699161    -0.3184787859     1.1729037434
 ----------------------------------------------------------------
 Nuclear Repulsion Energy =         259.79670997 hartrees
 There are       25 alpha and       24 beta electrons
 Discretize the solute cavity surface with Lebedev spheres
	Using 110 Lebedev grid points for each H atom
	Using 194 Lebedev grid points for other atoms
	Atomic van der Waals radii will be scaled by 1.20
 Remove points where switching function is < 1.0e-08
 Keep 918 surface tesserae and discard 796 interior tesserae
 Molecular Surface Area = 107.581 Angst**2

                       Distance Matrix (Angstroms)
             C (  1)   O (  2)   H (  3)   C (  4)   O (  5)   O (  6)
   O (  2)  1.415690
   H (  3)  2.734737  3.394357
   C (  4)  1.505574  2.415388  1.932938
   O (  5)  2.381135  2.928763  3.079453  1.362547
   O (  6)  2.469158  2.976127  0.965566  1.379697  2.271378
   O (  7)  1.409036  2.330760  2.753541  2.414819  3.601824  2.975211
   H (  8)  1.952576  2.539370  2.289393  2.622706  3.918037  2.700572
   H (  9)  3.217550  3.747274  3.165238  1.910671  0.966483  2.334755
   H ( 10)  1.086321  2.012178  3.674843  2.125020  2.560175  3.363026
   H ( 11)  1.949684  0.966292  2.989134  2.511059  3.128826  2.585593
             O (  7)   H (  8)   H (  9)   H ( 10)
   H (  8)  0.965913
   H (  9)  4.313295  4.503052
   H ( 10)  2.009710  2.821428  3.485548
   H ( 11)  2.637130  2.482635  3.769541  2.811629
 
 Applying Cartesian multipole field
    Component          Value
    ---------          -----
     (2,0,0)        1.00000E-11
     (0,2,0)        2.00000E-11
     (0,0,2)       -3.00000E-11
 Nucleus-field energy     =     0.0000000039 hartrees
 Requested basis set is 6-311++G(2df,2p)
 There are 78 shells and 254 basis functions
 A cutoff of  1.0D-12 yielded   2946 shell pairs
 There are     31569 function pairs (     39540 Cartesian)
 Smallest overlap matrix eigenvalue = 6.19E-05
 Guess from superposition of atomic densities
 Warning:  Energy on first SCF cycle will be non-variational
 SAD guess density has 49.000000 electrons

 -----------------------------------------------------------------------
  General SCF calculation program by
  Eric Jon Sundstrom, Paul Horn, Yuezhi Mao, Dmitri Zuev, Alec White,
  David Stuck, Shaama M.S., Shane Yost, Joonho Lee, David Small,
  Daniel Levine, Susi Lehtola, Hugh Burton, Evgeny Epifanovsky,
  Bang C. Huynh
 -----------------------------------------------------------------------
 Exchange:     0.1500 Hartree-Fock + 1.0000 wB97M-V + LR-HF
 Correlation:  1.0000 wB97M-V
 Using SG-2 standard quadrature grid
 Nonlocal Correlation:  VV10 with C = 0.0100 and b = 6.00 and scale = 1.00000
 Grid used for NLC:  SG-1 standard quadrature
 
 Citation of the SMD model:
 Marenich, A.V.; Cramer, C.J.; Truhlar, D.G.
 J. Phys. Chem. B 2009, 113, 6378-6396.
 iSolventCode=           1
 Solvent: water                                                           
 
 vradii
            1           2           3           4           5           6
    1   1.8500000   1.5200000   1.2000000   1.8500000   1.5200000   1.5200000
            7           8           9          10          11
    1   1.5200000   1.2000000   1.2000000   1.2000000   1.2000000
 -------------------------------------------------------
 OpenMP BLAS3 based DFT computing Module                
 Release: version 1.0, May 2013, Q-Chem Inc. Pittsburgh 
 -------------------------------------------------------
 A unrestricted SCF calculation will be
 performed using DIIS, GDM
 SCF converges when RMS gradient is below 1.0e-07
 ---------------------------------------
  Cycle       Energy         DIIS error
 ---------------------------------------
    1    -381.1435834457      1.57e-02  
    2    -379.9710913652      2.28e-03  Done DIIS. Switching to GDM
 ---------------------------------------
  Cycle       Energy        RMS Gradient
 ---------------------------------------
    1    -379.9710913652      6.58e-02   Descent step
    2    -380.0904671813      1.86e-02   Normal BFGS step
    3    -380.1026826521      5.79e-03   Normal BFGS step
    4    -380.1035922949      2.93e-03   Normal BFGS step
    5    -380.1036782840      9.45e-04   Normal BFGS step
    6    -380.1037045452      3.25e-04   Normal BFGS step
    7    -380.1037085347      1.82e-04   Normal BFGS step
    8    -380.1037090588      6.72e-05   Normal BFGS step
    9    -380.1037091558      2.94e-05   Normal BFGS step
   10    -380.1037091663      1.25e-05   Normal BFGS step
   11    -380.1037091705      5.13e-06   Normal BFGS step
   12    -380.1037091708      2.48e-06   Normal BFGS step
   13    -380.1037091708      5.07e-07   Normal BFGS step
   14    -380.1037091708      1.82e-07   Normal BFGS step
   15    -380.1037091708      6.41e-08  Convergence criterion met
 ---------------------------------------
 SCF time:   CPU 516.27s  wall 34.00s 
<S^2> =          0.752380333
(3)  G-ENP(liq) elect-nuc-pol free energy of system     -380.103709171 a.u.
(4)  G-CDS(liq) cavity-dispersion-solvent structure 
     free energy                                                3.6332 kcal/mol
(6)  G-S(liq) free energy of system                     -380.097919374 a.u.
 SCF   energy in the final basis set =     -380.0979193742
 Total energy in the final basis set =     -380.0979193742
 
 --------------------------------------------------------------
 
                    Orbital Energies (a.u.)
 --------------------------------------------------------------
 
 Alpha MOs
 -- Occupied --
-19.3700 -19.3691 -19.3477 -19.3475 -10.4508 -10.4462  -1.2345  -1.1975
 -1.1610  -1.1355  -0.8537  -0.7543  -0.6822  -0.6558  -0.6415  -0.5896
 -0.5740  -0.5312  -0.4997  -0.4895  -0.4748  -0.4668  -0.4204  -0.4111
 -0.2743
 -- Virtual --
  0.0267   0.0428   0.0488   0.0570   0.0750   0.0989   0.1065   0.1104
  0.1343   0.1504   0.1509   0.1581   0.1736   0.2148   0.2154   0.2244
  0.2365   0.2511   0.2532   0.2663   0.2742   0.2891   0.3030   0.3125
  0.3164   0.3248   0.3314   0.3344   0.3372   0.3521   0.3636   0.3788
  0.3916   0.4000   0.4076   0.4284   0.4360   0.4525   0.4767   0.5630
  0.5961   0.5973   0.6102   0.6286   0.6401   0.6618   0.6758   0.6920
  0.7257   0.7369   0.7447   0.7894   0.8253   0.8413   0.8770   0.8968
  0.9057   0.9348   0.9610   0.9907   1.0144   1.0440   1.0696   1.0741
  1.1173   1.1338   1.1545   1.1674   1.1735   1.1965   1.2096   1.2173
  1.2269   1.2322   1.2515   1.2825   1.3075   1.3276   1.3877   1.4110
  1.4299   1.4620   1.4820   1.5088   1.5322   1.5400   1.5633   1.6035
  1.6245   1.6523   1.6586   1.7376   1.7781   1.8674   1.8961   1.9386
  1.9460   1.9891   2.0032   2.1136   2.1392   2.1456   2.1648   2.2588
  2.3070   2.3161   2.3282   2.3480   2.3685   2.4347   2.4568   2.5025
  2.5551   2.6162   2.7349   2.7868   2.8001   2.8605   2.9619   3.0080
  3.0637   3.1134   3.1531   3.1778   3.2987   3.3085   3.3205   3.3343
  3.3857   3.4071   3.4657   3.5250   3.5656   3.5809   3.6115   3.6388
  3.6733   3.6993   3.7407   3.7716   3.7934   3.8138   3.8425   3.8596
  3.8772   3.9180   3.9527   4.0452   4.0954   4.1337   4.1781   4.2286
  4.2363   4.2525   4.2601   4.3051   4.3369   4.3576   4.3807   4.4528
  4.5037   4.7667   5.1651   5.1847   5.1938   5.2138   5.2326   5.2633
  5.2661   5.2841   5.2921   5.3002   5.3263   5.3482   5.3677   5.4202
  5.4435   5.4768   5.5008   5.5276   5.5573   5.5904   5.6228   5.6385
  5.6609   5.6883   5.7105   5.8068   5.8920   5.9518   5.9832   6.0277
  6.0684   6.1475   6.3325   6.4591   6.5182   6.7051   6.8380   7.0422
  7.0657   7.0793   7.1055   7.1960   7.2187   7.2495   7.2714   7.2832
  7.2912   7.3263   7.3399   7.3503   7.3747   7.4078   7.4628   7.6123
  7.6540   7.7116   7.7163   7.7774   7.7900   7.8390   7.8450  24.7033
 24.8807  50.5366  50.5707  50.5981  50.6409
 
 Beta MOs
 -- Occupied --
-19.3666 -19.3661 -19.3473 -19.3465 -10.4504 -10.4332  -1.2261  -1.1947
 -1.1533  -1.1337  -0.8426  -0.7468  -0.6767  -0.6505  -0.6360  -0.5753
 -0.5561  -0.5237  -0.4953  -0.4841  -0.4649  -0.4496  -0.4132  -0.4071
 -- Virtual --
  0.0191   0.0399   0.0433   0.0487   0.0588   0.0749   0.0984   0.1065
  0.1109   0.1352   0.1498   0.1515   0.1577   0.1727   0.2152   0.2170
  0.2246   0.2389   0.2528   0.2541   0.2668   0.2748   0.2904   0.3047
  0.3169   0.3186   0.3258   0.3327   0.3352   0.3395   0.3522   0.3652
  0.3800   0.3953   0.4057   0.4121   0.4322   0.4477   0.4592   0.4792
  0.5649   0.5987   0.5997   0.6128   0.6307   0.6435   0.6671   0.6811
  0.6964   0.7287   0.7385   0.7609   0.7946   0.8368   0.8441   0.8791
  0.8998   0.9105   0.9426   0.9615   0.9944   1.0178   1.0462   1.0722
  1.0780   1.1209   1.1360   1.1585   1.1717   1.1764   1.1992   1.2125
  1.2209   1.2315   1.2344   1.2561   1.2868   1.3137   1.3355   1.3932
  1.4179   1.4341   1.4672   1.4849   1.5109   1.5355   1.5452   1.5664
  1.6052   1.6300   1.6550   1.6619   1.7410   1.7844   1.8735   1.9027
  1.9412   1.9498   1.9929   2.0126   2.1230   2.1435   2.1587   2.1682
  2.2636   2.3116   2.3204   2.3327   2.3559   2.3736   2.4394   2.4633
  2.5076   2.5613   2.6246   2.7442   2.8007   2.8202   2.8753   2.9964
  3.0414   3.0815   3.1248   3.1736   3.1939   3.3106   3.3256   3.3406
  3.3611   3.4070   3.4194   3.4945   3.5649   3.5915   3.5941   3.6347
  3.6633   3.6904   3.7182   3.7637   3.7764   3.8000   3.8205   3.8470
  3.8692   3.8909   3.9323   3.9619   4.0515   4.1034   4.1432   4.1852
  4.2356   4.2499   4.2650   4.2685   4.3084   4.3430   4.3634   4.3931
  4.4546   4.5124   4.7944   5.1769   5.1892   5.2026   5.2171   5.2397
  5.2678   5.2740   5.2872   5.2951   5.3070   5.3333   5.3508   5.3739
  5.4240   5.4480   5.4820   5.5027   5.5320   5.5623   5.5962   5.6260
  5.6442   5.6625   5.6926   5.7158   5.8098   5.9011   5.9640   5.9869
  6.0330   6.0765   6.1529   6.3409   6.4689   6.5248   6.7080   6.8481
  7.0525   7.0723   7.0895   7.1083   7.2022   7.2234   7.2547   7.2809
  7.2907   7.2954   7.3313   7.3462   7.3613   7.3783   7.4164   7.4655
  7.6161   7.6590   7.7150   7.7217   7.7823   7.7937   7.8414   7.8511
 24.7082  24.8881  50.5389  50.5726  50.5989  50.6425
 --------------------------------------------------------------
 
          Ground-State Mulliken Net Atomic Charges

     Atom                 Charge (a.u.)    Spin (a.u.)
  --------------------------------------------------------
      1 C                    -0.104309      -0.053592
      2 O                    -0.429346       0.034130
      3 H                     0.350003      -0.009991
      4 C                     0.057645       0.885676
      5 O                    -0.361750       0.084397
      6 O                    -0.368806       0.059977
      7 O                    -0.426865       0.000373
      8 H                     0.339880       0.002153
      9 H                     0.359015      -0.002460
     10 H                     0.243292      -0.001127
     11 H                     0.341241       0.000463
  --------------------------------------------------------
  Sum of atomic charges =     0.000000
  Sum of spin   charges =     1.000000

 -----------------------------------------------------------------
                    Cartesian Multipole Moments
 -----------------------------------------------------------------
    Charge (ESU x 10^10)
                 0.0000
    Dipole Moment (Debye)
         X      -3.4574      Y       1.2480      Z       3.1456
       Tot       4.8380
    Quadrupole Moments (Debye-Ang)
        XX     -37.6826     XY       1.8171     YY     -35.2376
        XZ       0.4532     YZ       4.4674     ZZ     -34.7491
    Octopole Moments (Debye-Ang^2)
       XXX     -24.2032    XXY       6.6019    XYY     -17.9805
       YYY      29.7295    XXZ       6.1300    XYZ      -0.7879
       YYZ      14.6559    XZZ       5.6522    YZZ      12.9647
       ZZZ      10.3231
    Hexadecapole Moments (Debye-Ang^3)
      XXXX    -275.4680   XXXY     -27.9421   XXYY     -70.8047
      XYYY     -11.9652   YYYY    -261.0824   XXXZ      18.7520
      XXYZ       7.4784   XYYZ       6.1607   YYYZ       8.4343
      XXZZ     -58.4830   XYZZ     -22.7872   YYZZ     -75.5597
      XZZZ      21.2000   YZZZ       8.6012   ZZZZ    -120.7270
 -----------------------------------------------------------------
 Calculating analytic gradient of the SCF energy
 Gradient of CDS energy
            1           2           3           4           5           6
    1   0.0008136  -0.0005250  -0.0003178  -0.0026217   0.0002718   0.0019881
    2   0.0021653   0.0002030   0.0001588  -0.0040231   0.0049719  -0.0011047
    3  -0.0002136  -0.0003939   0.0003132   0.0032650   0.0010292  -0.0045682
            7           8           9          10          11
    1   0.0001942   0.0000919  -0.0002358   0.0000474   0.0002933
    2  -0.0022324   0.0004845  -0.0003973  -0.0001150  -0.0001112
    3   0.0001375   0.0000712   0.0000519  -0.0001018   0.0004094
 Gradient of SCF Energy
            1           2           3           4           5           6
    1  -0.0027805   0.0092256  -0.0035706  -0.0015497   0.0133241   0.0032969
    2   0.0012927  -0.0048859   0.0223387  -0.0006328   0.0032018  -0.0229800
    3   0.0032803  -0.0139444   0.0039567  -0.0008665  -0.0059748  -0.0004555
            7           8           9          10          11
    1   0.0074488  -0.0064747  -0.0118379  -0.0011440  -0.0059381
    2  -0.0029795   0.0049459  -0.0050303  -0.0000654   0.0047946
    3  -0.0226457   0.0197134   0.0047641  -0.0002755   0.0124479
 Max gradient component =       2.298E-02
 RMS gradient           =       9.617E-03
 Computing fast CPCM-SWIG gradient
 Updating gradient with PCM contributions...
 -- total gradient after adding PCM contribution --
---------------------------------------------------
  Atom         X              Y              Z     
---------------------------------------------------
   1      -0.000065      -0.000224      -0.000207
   2       0.000030      -0.000054      -0.000067
   3       0.000029       0.000031      -0.000007
   4      -0.000038      -0.000229       0.000000
   5       0.000006       0.000200       0.000057
   6       0.000242       0.000118       0.000022
   7      -0.000027       0.000090       0.000001
   8       0.000000       0.000120       0.000200
   9      -0.000075      -0.000130      -0.000090
  10      -0.000049       0.000061       0.000070
  11      -0.000052       0.000016       0.000021
---------------------------------------------------
 Number of fixed atoms: 0
 Gradient time:  CPU 77.53 s  wall 6.48 s

STARTING FREEZING STRING ITERATION # 1
 The distance between the innermost nodes (Angstroms): 4.331
-Adding two new nodes
 The distance between the previous and current R_nodes (Angstroms): 0.2280
 The distance between the previous and current P_nodes (Angstroms): 0.2065
-Optimizing new reactant side node
 Using BFGS, step: 2 E_tol 0.0360
 max_steps 6, node_spacing 0.2166, sigma 0.7000
 ----------------------------------------------------------------
             Standard Nuclear Orientation (Angstroms)
    I     Atom           X                Y                Z
 ----------------------------------------------------------------
    1      C       0.9077795929    -0.4949944996    -0.1922503027
    2      O       1.9803390647    -1.2861198336    -0.1126485812
    3      H      -1.1375926584     1.5483902673     0.0426923766
    4      C      -0.4159611329    -0.9605246611     0.0379384816
    5      O      -0.5045429548    -2.2871360978     0.2576553809
    6      O      -1.4174852735    -0.2327638903     0.0788667186
    7      O      -0.9368779578     2.5731101200    -0.1408764839
    8      H      -0.0420739845     2.6680020859     0.1984365903
    9      H      -1.4288902062    -2.5220513609     0.4257679417
   10      H       1.1173792936     0.5179569750    -0.4903990162
   11      H       1.7200014551    -2.1837801448     0.1430919539
 ----------------------------------------------------------------
 Nuclear Repulsion Energy =         235.51461864 hartrees
 There are       25 alpha and       24 beta electrons
 Discretize the solute cavity surface with Lebedev spheres
	Using 110 Lebedev grid points for each H atom
	Using 194 Lebedev grid points for other atoms
	Atomic van der Waals radii will be scaled by 1.20
 Remove points where switching function is < 1.0e-08
 Keep 973 surface tesserae and discard 741 interior tesserae
 Molecular Surface Area = 118.136 Angst**2

                       Distance Matrix (Angstroms)
             C (  1)   O (  2)   H (  3)   C (  4)   O (  5)   O (  6)
   O (  2)  1.335140
   H (  3)  2.900718  4.216643
   C (  4)  1.421969  2.423003  2.610638
   O (  5)  2.325692  2.704403  3.893356  1.347598
   O (  6)  2.355658  3.562506  1.803374  1.238693  2.255188
   O (  7)  3.580317  4.837831  1.060205  3.576298  4.895685  2.855206
   H (  8)  3.325568  4.452191  1.574150  3.651268  4.977025  3.212553
   H (  9)  3.154510  3.666096  4.098792  1.901263  0.968434  2.315450
   H ( 10)  1.076520  2.035212  2.535918  2.194580  3.325472  2.704290
   H ( 11)  1.903722  0.969006  4.701598  2.463686  2.229889  3.695188
             O (  7)   H (  8)   H (  9)   H ( 10)
   H (  8)  0.961671
   H (  9)  5.150129  5.376950
   H ( 10)  2.926738  2.538015  4.069951
   H ( 11)  5.455974  5.162147  3.179599  2.839691
 
 Applying Cartesian multipole field
    Component          Value
    ---------          -----
     (2,0,0)        1.00000E-11
     (0,2,0)        2.00000E-11
     (0,0,2)       -3.00000E-11
 Nucleus-field energy     =     0.0000000121 hartrees
 Requested basis set is 6-311++G(2df,2p)
 There are 78 shells and 254 basis functions
 A cutoff of  1.0D-12 yielded   2775 shell pairs
 There are     29331 function pairs (     36535 Cartesian)
 Smallest overlap matrix eigenvalue = 4.41E-05
 Guess from superposition of atomic densities
 Warning:  Energy on first SCF cycle will be non-variational
 SAD guess density has 49.000000 electrons

 -----------------------------------------------------------------------
  General SCF calculation program by
  Eric Jon Sundstrom, Paul Horn, Yuezhi Mao, Dmitri Zuev, Alec White,
  David Stuck, Shaama M.S., Shane Yost, Joonho Lee, David Small,
  Daniel Levine, Susi Lehtola, Hugh Burton, Evgeny Epifanovsky,
  Bang C. Huynh
 -----------------------------------------------------------------------
 Exchange:     0.1500 Hartree-Fock + 1.0000 wB97M-V + LR-HF
 Correlation:  1.0000 wB97M-V
 Using SG-2 standard quadrature grid
 Nonlocal Correlation:  VV10 with C = 0.0100 and b = 6.00 and scale = 1.00000
 Grid used for NLC:  SG-1 standard quadrature
 
 Citation of the SMD model:
 Marenich, A.V.; Cramer, C.J.; Truhlar, D.G.
 J. Phys. Chem. B 2009, 113, 6378-6396.
 iSolventCode=           1
 Solvent: water                                                           
 
 vradii
            1           2           3           4           5           6
    1   1.8500000   1.5200000   1.2000000   1.8500000   1.5200000   1.5200000
            7           8           9          10          11
    1   1.5200000   1.2000000   1.2000000   1.2000000   1.2000000
 -------------------------------------------------------
 OpenMP BLAS3 based DFT computing Module                
 Release: version 1.0, May 2013, Q-Chem Inc. Pittsburgh 
 -------------------------------------------------------
 A unrestricted SCF calculation will be
 performed using DIIS, GDM
 SCF converges when RMS gradient is below 1.0e-07
 ---------------------------------------
  Cycle       Energy         DIIS error
 ---------------------------------------
    1    -380.9649240911      1.56e-02  
    2    -379.9790924507      2.48e-03  Done DIIS. Switching to GDM
 ---------------------------------------
  Cycle       Energy        RMS Gradient
 ---------------------------------------
    1    -379.9790924507      1.10e-01   Descent step
    2    -380.1225243371      1.61e-02   Normal BFGS step
    3    -380.1350274477      1.25e-02   Normal BFGS step
    4    -380.1356799751      8.39e-03   Normal BFGS step
    5    -380.1363315893      2.24e-03   Normal BFGS step
    6    -380.1363689169      1.62e-03   Normal BFGS step
    7    -380.1363827158      6.86e-04   Normal BFGS step
    8    -380.1363848023      2.10e-04   Normal BFGS step
    9    -380.1363852642      8.92e-05   Normal BFGS step
   10    -380.1363853430      6.54e-05   Normal BFGS step
   11    -380.1363853594      2.70e-05   Normal BFGS step
   12    -380.1363853633      6.60e-06   Normal BFGS step
   13    -380.1363853637      5.01e-06   Normal BFGS step
   14    -380.1363853640      1.99e-06   Normal BFGS step
   15    -380.1363853640      7.18e-07   Normal BFGS step
   16    -380.1363853640      2.31e-07   Normal BFGS step
   17    -380.1363853640      7.35e-08  Convergence criterion met
 ---------------------------------------
 SCF time:   CPU 527.25s  wall 34.00s 
<S^2> =          0.754868729
(3)  G-ENP(liq) elect-nuc-pol free energy of system     -380.136385364 a.u.
(4)  G-CDS(liq) cavity-dispersion-solvent structure 
     free energy                                                5.2642 kcal/mol
(6)  G-S(liq) free energy of system                     -380.127996395 a.u.
 SCF   energy in the final basis set =     -380.1279963952
 Total energy in the final basis set =     -380.1279963952
 
 --------------------------------------------------------------
 
                    Orbital Energies (a.u.)
 --------------------------------------------------------------
 
 Alpha MOs
 -- Occupied --
-19.3995 -19.3852 -19.3380 -19.3240 -10.4906 -10.4302  -1.2527  -1.2226
 -1.1561  -1.1110  -0.8776  -0.7629  -0.6812  -0.6408  -0.5991  -0.5955
 -0.5823  -0.5408  -0.5308  -0.5130  -0.4969  -0.4531  -0.4198  -0.4084
 -0.3077
 -- Virtual --
  0.0272   0.0418   0.0512   0.0668   0.0732   0.0930   0.1105   0.1134
  0.1224   0.1315   0.1328   0.1558   0.1638   0.1762   0.2041   0.2203
  0.2287   0.2357   0.2496   0.2569   0.2651   0.2727   0.2853   0.2927
  0.2999   0.3091   0.3260   0.3278   0.3384   0.3482   0.3627   0.3664
  0.3687   0.4118   0.4183   0.4350   0.4843   0.5099   0.5336   0.5776
  0.5846   0.6026   0.6056   0.6182   0.6278   0.6577   0.6785   0.7024
  0.7312   0.7457   0.7592   0.7796   0.8024   0.8214   0.8260   0.8321
  0.8507   0.8745   0.9071   0.9438   0.9887   1.0077   1.0269   1.0351
  1.0662   1.0944   1.1100   1.1153   1.1409   1.1476   1.1569   1.1604
  1.1752   1.1973   1.2372   1.2508   1.2782   1.2975   1.3092   1.3648
  1.4180   1.4447   1.4638   1.5001   1.5263   1.5621   1.5691   1.5923
  1.6238   1.6524   1.6729   1.7654   1.8076   1.8225   1.8612   1.8761
  1.8983   1.9136   1.9334   2.0341   2.1201   2.1649   2.2432   2.2684
  2.2869   2.3136   2.3480   2.3968   2.4347   2.4957   2.5089   2.5653
  2.6274   2.6949   2.7045   2.7306   2.7951   2.8082   2.8360   2.8610
  2.9089   2.9730   2.9965   3.0633   3.1471   3.1621   3.2281   3.2739
  3.2933   3.3145   3.3580   3.3803   3.3976   3.5174   3.5451   3.5645
  3.5953   3.6219   3.6864   3.7047   3.7204   3.7323   3.7344   3.8113
  3.8341   3.8546   3.8945   3.9676   4.0183   4.0823   4.0918   4.1440
  4.2077   4.2501   4.2630   4.2814   4.3068   4.3499   4.4039   4.4651
  4.7744   4.8788   5.1203   5.1231   5.1348   5.1466   5.1716   5.1891
  5.2060   5.2118   5.2151   5.2488   5.2863   5.2955   5.3430   5.3516
  5.3981   5.4431   5.4501   5.4653   5.5130   5.5589   5.5815   5.6155
  5.6528   5.6866   5.6916   5.7337   5.7760   5.8501   5.8679   6.0282
  6.0686   6.3263   6.3483   6.5769   6.8350   6.8809   6.9178   7.0090
  7.0134   7.0286   7.0501   7.0833   7.1563   7.1852   7.1981   7.2377
  7.2792   7.2895   7.3106   7.3255   7.3552   7.3719   7.4479   7.4572
  7.6324   7.6495   7.6894   7.7750   7.7985   7.8517   7.8797  24.7608
 25.1852  50.4771  50.5403  50.6128  50.7280
 
 Beta MOs
 -- Occupied --
-19.3940 -19.3844 -19.3332 -19.3240 -10.4902 -10.4211  -1.2476  -1.2124
 -1.1497  -1.1109  -0.8572  -0.7559  -0.6748  -0.6362  -0.5957  -0.5795
 -0.5704  -0.5359  -0.5076  -0.4952  -0.4949  -0.4323  -0.4186  -0.4031
 -- Virtual --
 -0.0216   0.0272   0.0418   0.0515   0.0667   0.0731   0.0928   0.1117
  0.1134   0.1263   0.1327   0.1563   0.1611   0.1666   0.1755   0.2067
  0.2217   0.2292   0.2365   0.2509   0.2585   0.2668   0.2743   0.2911
  0.2934   0.3027   0.3104   0.3305   0.3310   0.3409   0.3498   0.3643
  0.3670   0.3725   0.4129   0.4213   0.4369   0.4878   0.5165   0.5407
  0.5852   0.5921   0.6054   0.6101   0.6200   0.6359   0.6605   0.6857
  0.7093   0.7399   0.7519   0.7639   0.7893   0.8077   0.8246   0.8290
  0.8364   0.8528   0.8760   0.9093   0.9445   0.9903   1.0092   1.0335
  1.0420   1.0672   1.0957   1.1115   1.1206   1.1453   1.1522   1.1615
  1.1662   1.1762   1.2028   1.2421   1.2553   1.2815   1.3035   1.3126
  1.3684   1.4214   1.4506   1.4665   1.5019   1.5347   1.5650   1.5778
  1.5994   1.6286   1.6599   1.6805   1.7702   1.8145   1.8277   1.8687
  1.8828   1.9016   1.9209   1.9414   2.0354   2.1257   2.1699   2.2489
  2.2797   2.2908   2.3158   2.3527   2.4027   2.4425   2.5001   2.5173
  2.5711   2.6308   2.7129   2.7247   2.7423   2.8174   2.8452   2.8658
  2.8846   2.9230   2.9769   3.0350   3.0894   3.1750   3.1771   3.2523
  3.2919   3.3162   3.3308   3.3864   3.4065   3.4186   3.5365   3.5644
  3.5959   3.6239   3.6384   3.7060   3.7134   3.7288   3.7387   3.7448
  3.8135   3.8437   3.8580   3.9146   3.9687   4.0274   4.0884   4.0997
  4.1552   4.2105   4.2678   4.2807   4.2889   4.3204   4.3840   4.4109
  4.4784   4.7952   4.9173   5.1204   5.1320   5.1467   5.1626   5.1772
  5.1997   5.2212   5.2285   5.2304   5.2507   5.2984   5.3050   5.3474
  5.3621   5.4084   5.4496   5.4527   5.4750   5.5213   5.5647   5.5936
  5.6205   5.6653   5.6901   5.7042   5.7375   5.7829   5.8625   5.8822
  6.0365   6.0798   6.3379   6.3600   6.5845   6.8359   6.8895   6.9314
  7.0121   7.0296   7.0383   7.0579   7.0926   7.1587   7.1924   7.2141
  7.2482   7.2918   7.3035   7.3150   7.3305   7.3628   7.3864   7.4497
  7.4666   7.6377   7.6568   7.6952   7.7793   7.8068   7.8563   7.8821
 24.7675  25.1888  50.4770  50.5431  50.6155  50.7315
 --------------------------------------------------------------
 
          Ground-State Mulliken Net Atomic Charges

     Atom                 Charge (a.u.)    Spin (a.u.)
  --------------------------------------------------------
      1 C                    -0.065218       0.605307
      2 O                    -0.267959       0.148101
      3 H                     0.378879      -0.000888
      4 C                     0.322048       0.072436
      5 O                    -0.359024       0.026737
      6 O                    -0.545940       0.163040
      7 O                    -0.745289       0.000015
      8 H                     0.326883      -0.000006
      9 H                     0.372163      -0.001019
     10 H                     0.235618      -0.010611
     11 H                     0.347839      -0.003112
  --------------------------------------------------------
  Sum of atomic charges =     0.000000
  Sum of spin   charges =     1.000000

 -----------------------------------------------------------------
                    Cartesian Multipole Moments
 -----------------------------------------------------------------
    Charge (ESU x 10^10)
                 0.0000
    Dipole Moment (Debye)
         X       3.3749      Y      -5.7177      Z       1.3857
       Tot       6.7825
    Quadrupole Moments (Debye-Ang)
        XX     -40.2365     XY      10.3335     YY     -35.7464
        XZ      -0.7102     YZ       0.3932     ZZ     -36.8571
    Octopole Moments (Debye-Ang^2)
       XXX       6.1392    XXY      -5.5740    XYY      21.8902
       YYY     -16.6935    XXZ       3.2916    XYZ      -0.4927
       YYZ      11.9101    XZZ       3.2826    YZZ       9.9537
       ZZZ       1.8749
    Hexadecapole Moments (Debye-Ang^3)
      XXXX    -361.1517   XXXY      89.6245   XXYY    -134.3033
      XYYY     142.5536   YYYY    -627.7695   XXXZ      11.4315
      XXYZ      -3.7389   XYYZ      -2.7057   YYYZ      19.2613
      XXZZ     -63.3297   XYZZ      26.4585   YYZZ    -113.4884
      XZZZ       9.9882   YZZZ      16.0126   ZZZZ     -42.5280
 -----------------------------------------------------------------
 Calculating analytic gradient of the SCF energy
 Gradient of CDS energy
            1           2           3           4           5           6
    1   0.0045792  -0.0033399  -0.0002582  -0.0022930   0.0003101   0.0010840
    2  -0.0020528   0.0024891   0.0000661  -0.0031448   0.0038657  -0.0009716
    3  -0.0000736  -0.0002587   0.0000209   0.0007923  -0.0006511  -0.0000432
            7           8           9          10          11
    1  -0.0000637   0.0002713  -0.0002601  -0.0002128   0.0001832
    2   0.0000457   0.0004003  -0.0003479  -0.0000235  -0.0003263
    3  -0.0001608   0.0001626   0.0000915   0.0000519   0.0000683
 Gradient of SCF Energy
            1           2           3           4           5           6
    1  -0.0038046   0.0095829  -0.0024161   0.0097566   0.0080494  -0.0136073
    2  -0.0075161   0.0163231  -0.0541127  -0.0064100   0.0033505   0.0071024
    3   0.0051969  -0.0045430   0.0151928  -0.0036286  -0.0015991   0.0006499
            7           8           9          10          11
    1  -0.0060838   0.0103728  -0.0146194   0.0049992  -0.0022298
    2   0.0606101  -0.0053371  -0.0091470   0.0113064  -0.0161695
    3  -0.0184042   0.0040717   0.0032155  -0.0047928   0.0046409
 Max gradient component =       6.061E-02
 RMS gradient           =       1.659E-02
 Computing fast CPCM-SWIG gradient
 Updating gradient with PCM contributions...
 -- total gradient after adding PCM contribution --
---------------------------------------------------
  Atom         X              Y              Z     
---------------------------------------------------
   1      -0.003842       0.001472       0.002477
   2       0.003434       0.000144       0.000446
   3      -0.010568      -0.052882       0.012325
   4       0.006947      -0.000877      -0.005333
   5      -0.003873      -0.000071       0.001326
   6      -0.004793      -0.001033       0.002640
   7       0.012040       0.056223      -0.011071
   8      -0.001716      -0.001262      -0.000369
   9       0.000394      -0.000950      -0.000385
  10       0.002350      -0.001798      -0.001739
  11      -0.000372       0.001033      -0.000318
---------------------------------------------------
 Number of fixed atoms: 0
 Gradient time:  CPU 67.12 s  wall 5.66 s
 ----------------------------------------------------------------
             Standard Nuclear Orientation (Angstroms)
    I     Atom           X                Y                Z
 ----------------------------------------------------------------
    1      C       0.9097132923    -0.4949847642    -0.1945113294
    2      O       1.9780854774    -1.2841862574    -0.1117462293
    3      H      -1.1327146483     1.5822098596     0.0409832528
    4      C      -0.4212094679    -0.9596291702     0.0405517887
    5      O      -0.5025711652    -2.2869863243     0.2542645554
    6      O      -1.4150553272    -0.2319141917     0.0796117891
    7      O      -0.9408409218     2.5339012498    -0.1386545568
    8      H      -0.0395454521     2.6664269418     0.2014216526
    9      H      -1.4296035949    -2.5214676142     0.4244312527
   10      H       1.1146415958     0.5184839741    -0.4957456161
   11      H       1.7211646476    -2.1817697559     0.1476079248
 ----------------------------------------------------------------
 Nuclear Repulsion Energy =         236.24405091 hartrees
 There are       25 alpha and       24 beta electrons
 Discretize the solute cavity surface with Lebedev spheres
	Using 110 Lebedev grid points for each H atom
	Using 194 Lebedev grid points for other atoms
	Atomic van der Waals radii will be scaled by 1.20
 Remove points where switching function is < 1.0e-08
 Keep 968 surface tesserae and discard 746 interior tesserae
 Molecular Surface Area = 117.970 Angst**2

                       Distance Matrix (Angstroms)
             C (  1)   O (  2)   H (  3)   C (  4)   O (  5)   O (  6)
   O (  2)  1.330830
   H (  3)  2.922620  4.232804
   C (  4)  1.429162  2.425932  2.639543
   O (  5)  2.325342  2.700598  3.925971  1.346911
   O (  6)  2.355610  3.557710  1.836370  1.232406  2.255316
   O (  7)  3.549904  4.806105  0.987321  3.536508  4.856688  2.814650
   H (  8)  3.324512  4.447050  1.547994  3.649634  4.975288  3.210490
   H (  9)  3.156284  3.664791  4.132232  1.898305  0.971250  2.315419
   H ( 10)  1.076966  2.035340  2.543659  2.198015  3.323937  2.700648
   H ( 11)  1.902825  0.968984  4.724779  2.468776  2.228777  3.693567
             O (  7)   H (  8)   H (  9)   H ( 10)
   H (  8)  0.972393
   H (  9)  5.110060  5.375523
   H ( 10)  2.900764  2.536109  4.069547
   H ( 11)  5.422709  5.158295  3.181095  2.841328
 
 Applying Cartesian multipole field
    Component          Value
    ---------          -----
     (2,0,0)        1.00000E-11
     (0,2,0)        2.00000E-11
     (0,0,2)       -3.00000E-11
 Nucleus-field energy     =     0.0000000120 hartrees
 Requested basis set is 6-311++G(2df,2p)
 There are 78 shells and 254 basis functions
 A cutoff of  1.0D-12 yielded   2779 shell pairs
 There are     29400 function pairs (     36638 Cartesian)
 Smallest overlap matrix eigenvalue = 4.55E-05
 Guess from superposition of atomic densities
 Warning:  Energy on first SCF cycle will be non-variational
 SAD guess density has 49.000000 electrons

 -----------------------------------------------------------------------
  General SCF calculation program by
  Eric Jon Sundstrom, Paul Horn, Yuezhi Mao, Dmitri Zuev, Alec White,
  David Stuck, Shaama M.S., Shane Yost, Joonho Lee, David Small,
  Daniel Levine, Susi Lehtola, Hugh Burton, Evgeny Epifanovsky,
  Bang C. Huynh
 -----------------------------------------------------------------------
 Exchange:     0.1500 Hartree-Fock + 1.0000 wB97M-V + LR-HF
 Correlation:  1.0000 wB97M-V
 Using SG-2 standard quadrature grid
 Nonlocal Correlation:  VV10 with C = 0.0100 and b = 6.00 and scale = 1.00000
 Grid used for NLC:  SG-1 standard quadrature
 
 Citation of the SMD model:
 Marenich, A.V.; Cramer, C.J.; Truhlar, D.G.
 J. Phys. Chem. B 2009, 113, 6378-6396.
 iSolventCode=           1
 Solvent: water                                                           
 
 vradii
            1           2           3           4           5           6
    1   1.8500000   1.5200000   1.2000000   1.8500000   1.5200000   1.5200000
            7           8           9          10          11
    1   1.5200000   1.2000000   1.2000000   1.2000000   1.2000000
 -------------------------------------------------------
 OpenMP BLAS3 based DFT computing Module                
 Release: version 1.0, May 2013, Q-Chem Inc. Pittsburgh 
 -------------------------------------------------------
 A unrestricted SCF calculation will be
 performed using DIIS, GDM
 SCF converges when RMS gradient is below 1.0e-07
 ---------------------------------------
  Cycle       Energy         DIIS error
 ---------------------------------------
    1    -381.0129746763      1.58e-02  
    2    -379.9835715767      2.49e-03  Done DIIS. Switching to GDM
 ---------------------------------------
  Cycle       Energy        RMS Gradient
 ---------------------------------------
    1    -379.9835715767      1.09e-01   Descent step
    2    -380.1273685252      1.62e-02   Normal BFGS step
    3    -380.1399576365      1.06e-02   Normal BFGS step
    4    -380.1406585872      8.45e-03   Normal BFGS step
    5    -380.1413463650      2.06e-03   Normal BFGS step
    6    -380.1413838037      1.45e-03   Normal BFGS step
    7    -380.1413977286      6.57e-04   Normal BFGS step
    8    -380.1413998116      1.90e-04   Normal BFGS step
    9    -380.1414002599      7.57e-05   Normal BFGS step
   10    -380.1414003309      6.11e-05   Normal BFGS step
   11    -380.1414003457      2.42e-05   Normal BFGS step
   12    -380.1414003492      7.97e-06   Normal BFGS step
   13    -380.1414003496      1.70e-06   Normal BFGS step
   14    -380.1414003497      2.26e-06   Normal BFGS step
   15    -380.1414003497      8.03e-07   Normal BFGS step
   16    -380.1414003497      2.24e-07   Normal BFGS step
   17    -380.1414003497      5.41e-08  Convergence criterion met
 ---------------------------------------
 SCF time:   CPU 525.51s  wall 34.00s 
<S^2> =          0.754799748
(3)  G-ENP(liq) elect-nuc-pol free energy of system     -380.141400350 a.u.
(4)  G-CDS(liq) cavity-dispersion-solvent structure 
     free energy                                                5.3066 kcal/mol
(6)  G-S(liq) free energy of system                     -380.132943823 a.u.
 SCF   energy in the final basis set =     -380.1329438230
 Total energy in the final basis set =     -380.1329438230
 
 --------------------------------------------------------------
 
                    Orbital Energies (a.u.)
 --------------------------------------------------------------
 
 Alpha MOs
 -- Occupied --
-19.3984 -19.3844 -19.3354 -19.3227 -10.4888 -10.4281  -1.2523  -1.2228
 -1.1567  -1.1220  -0.8742  -0.7619  -0.6796  -0.6434  -0.6086  -0.5958
 -0.5829  -0.5406  -0.5309  -0.5110  -0.4984  -0.4523  -0.4231  -0.4077
 -0.3047
 -- Virtual --
  0.0274   0.0418   0.0513   0.0668   0.0730   0.0932   0.1108   0.1133
  0.1229   0.1316   0.1329   0.1559   0.1637   0.1764   0.2054   0.2203
  0.2276   0.2368   0.2529   0.2613   0.2658   0.2734   0.2875   0.2922
  0.3005   0.3104   0.3280   0.3295   0.3386   0.3488   0.3653   0.3679
  0.3773   0.4120   0.4189   0.4353   0.4885   0.5111   0.5360   0.5788
  0.5848   0.6032   0.6068   0.6157   0.6280   0.6637   0.6800   0.7072
  0.7333   0.7459   0.7661   0.7805   0.8031   0.8227   0.8297   0.8328
  0.8512   0.8768   0.9107   0.9475   0.9920   1.0076   1.0255   1.0341
  1.0597   1.0952   1.1100   1.1156   1.1429   1.1486   1.1582   1.1603
  1.1773   1.1970   1.2374   1.2539   1.2901   1.2976   1.3101   1.3646
  1.4097   1.4423   1.4610   1.4975   1.5274   1.5548   1.5684   1.5971
  1.6259   1.6567   1.6753   1.7684   1.8115   1.8247   1.8630   1.8872
  1.8899   1.9121   1.9528   2.0464   2.1289   2.1710   2.2604   2.2736
  2.2885   2.3207   2.3513   2.3975   2.4311   2.4608   2.5069   2.5728
  2.6180   2.6916   2.7009   2.7338   2.7987   2.8096   2.8366   2.8676
  2.9096   2.9966   3.0082   3.0647   3.1491   3.1646   3.2270   3.2751
  3.2968   3.3178   3.3612   3.3830   3.4009   3.5226   3.5451   3.5649
  3.5920   3.6247   3.6841   3.7041   3.7219   3.7302   3.7348   3.8043
  3.8343   3.8468   3.8984   3.9909   4.0256   4.0807   4.0940   4.1417
  4.2032   4.2490   4.2617   4.2834   4.3084   4.3428   4.4330   4.4980
  4.7712   4.8742   5.1169   5.1242   5.1369   5.1487   5.1726   5.1924
  5.2089   5.2137   5.2155   5.2494   5.2893   5.2974   5.3496   5.3580
  5.3987   5.4512   5.4944   5.5162   5.5626   5.5722   5.5879   5.6139
  5.6548   5.6908   5.7017   5.7628   5.8216   5.8576   5.8804   6.0348
  6.0774   6.3450   6.3615   6.5896   6.8835   6.9137   7.0097   7.0140
  7.0286   7.0568   7.0722   7.1012   7.1668   7.2007   7.2066   7.2572
  7.2806   7.2997   7.3161   7.3545   7.3728   7.3774   7.4536   7.4681
  7.6328   7.6502   7.6877   7.7645   7.8019   7.8501   7.8809  24.7717
 25.1852  50.4842  50.5428  50.6144  50.7364
 
 Beta MOs
 -- Occupied --
-19.3929 -19.3836 -19.3308 -19.3228 -10.4884 -10.4189  -1.2473  -1.2126
 -1.1506  -1.1219  -0.8538  -0.7550  -0.6732  -0.6399  -0.6056  -0.5797
 -0.5700  -0.5358  -0.5057  -0.4968  -0.4950  -0.4325  -0.4217  -0.4022
 -- Virtual --
 -0.0183   0.0274   0.0418   0.0516   0.0666   0.0729   0.0929   0.1116
  0.1132   0.1262   0.1324   0.1564   0.1618   0.1668   0.1757   0.2083
  0.2217   0.2276   0.2373   0.2543   0.2634   0.2673   0.2753   0.2922
  0.2934   0.3034   0.3115   0.3311   0.3337   0.3415   0.3506   0.3667
  0.3723   0.3777   0.4130   0.4222   0.4374   0.4915   0.5181   0.5431
  0.5867   0.5915   0.6057   0.6111   0.6184   0.6367   0.6665   0.6875
  0.7140   0.7413   0.7524   0.7716   0.7900   0.8084   0.8260   0.8326
  0.8366   0.8535   0.8783   0.9128   0.9484   0.9938   1.0085   1.0309
  1.0415   1.0615   1.0966   1.1115   1.1208   1.1474   1.1536   1.1615
  1.1669   1.1782   1.2026   1.2426   1.2584   1.2933   1.3038   1.3134
  1.3681   1.4122   1.4487   1.4640   1.4990   1.5355   1.5577   1.5784
  1.6036   1.6308   1.6646   1.6825   1.7732   1.8184   1.8298   1.8703
  1.8906   1.8973   1.9213   1.9584   2.0479   2.1345   2.1762   2.2651
  2.2836   2.2933   2.3241   2.3555   2.4031   2.4353   2.4664   2.5176
  2.5782   2.6217   2.7080   2.7239   2.7445   2.8191   2.8482   2.8680
  2.8909   2.9245   3.0079   3.0385   3.0911   3.1769   3.1786   3.2513
  3.2933   3.3191   3.3346   3.3904   3.4091   3.4227   3.5431   3.5650
  3.5956   3.6200   3.6410   3.7035   3.7131   3.7284   3.7392   3.7442
  3.8061   3.8441   3.8508   3.9188   3.9921   4.0343   4.0872   4.1015
  4.1532   4.2043   4.2669   4.2809   4.2929   4.3323   4.3711   4.4376
  4.5080   4.7919   4.9124   5.1170   5.1330   5.1494   5.1646   5.1776
  5.2027   5.2240   5.2286   5.2328   5.2510   5.3010   5.3074   5.3591
  5.3638   5.4092   5.4676   5.4979   5.5237   5.5638   5.5776   5.5974
  5.6192   5.6674   5.6966   5.7145   5.7694   5.8244   5.8691   5.8949
  6.0434   6.0887   6.3558   6.3738   6.5969   6.8921   6.9280   7.0109
  7.0323   7.0393   7.0644   7.0782   7.1046   7.1698   7.2117   7.2185
  7.2668   7.2936   7.3119   7.3251   7.3599   7.3768   7.3899   7.4615
  7.4713   7.6377   7.6568   7.6941   7.7686   7.8106   7.8550   7.8832
 24.7787  25.1886  50.4842  50.5454  50.6172  50.7399
 --------------------------------------------------------------
 
          Ground-State Mulliken Net Atomic Charges

     Atom                 Charge (a.u.)    Spin (a.u.)
  --------------------------------------------------------
      1 C                    -0.071643       0.614251
      2 O                    -0.268050       0.147501
      3 H                     0.373450      -0.000834
      4 C                     0.320006       0.068833
      5 O                    -0.360549       0.025486
      6 O                    -0.549315       0.159506
      7 O                    -0.730419       0.000207
      8 H                     0.331714      -0.000011
      9 H                     0.371836      -0.001031
     10 H                     0.234822      -0.010824
     11 H                     0.348148      -0.003083
  --------------------------------------------------------
  Sum of atomic charges =     0.000000
  Sum of spin   charges =     1.000000

 -----------------------------------------------------------------
                    Cartesian Multipole Moments
 -----------------------------------------------------------------
    Charge (ESU x 10^10)
                 0.0000
    Dipole Moment (Debye)
         X       3.3355      Y      -5.3492      Z       1.4062
       Tot       6.4588
    Quadrupole Moments (Debye-Ang)
        XX     -40.2533     XY      10.1303     YY     -34.6044
        XZ      -0.6908     YZ       0.3561     ZZ     -36.7909
    Octopole Moments (Debye-Ang^2)
       XXX       6.0082    XXY      -5.0574    XYY      21.0735
       YYY     -11.2498    XXZ       3.3212    XYZ      -0.5583
       YYZ      11.9134    XZZ       3.2054    YZZ      10.4334
       ZZZ       1.8756
    Hexadecapole Moments (Debye-Ang^3)
      XXXX    -361.0041   XXXY      88.5392   XXYY    -132.1426
      XYYY     138.5978   YYYY    -606.2985   XXXZ      11.5199
      XXYZ      -3.8140   XYYZ      -2.6052   YYYZ      18.6833
      XXZZ     -63.2260   XYZZ      26.0491   YYZZ    -111.6216
      XZZZ      10.0344   YZZZ      15.6637   ZZZZ     -42.4617
 -----------------------------------------------------------------
 Calculating analytic gradient of the SCF energy
 Gradient of CDS energy
            1           2           3           4           5           6
    1   0.0044259  -0.0031732  -0.0002645  -0.0022129   0.0002861   0.0010124
    2  -0.0019373   0.0023721   0.0000501  -0.0031631   0.0038414  -0.0009321
    3  -0.0000835  -0.0002584   0.0000332   0.0007735  -0.0006300  -0.0000390
            7           8           9          10          11
    1  -0.0000401   0.0002601  -0.0002584  -0.0002154   0.0001799
    2   0.0000598   0.0004035  -0.0003489  -0.0000222  -0.0003232
    3  -0.0001731   0.0001633   0.0000906   0.0000531   0.0000702
 Gradient of SCF Energy
            1           2           3           4           5           6
    1   0.0034845   0.0054587   0.0044637  -0.0004559   0.0121459  -0.0078673
    2  -0.0089834   0.0183601  -0.0118464  -0.0061036   0.0051114   0.0065953
    3   0.0042972  -0.0046067   0.0070049  -0.0010181  -0.0030020  -0.0000694
            7           8           9          10          11
    1  -0.0244918   0.0215159  -0.0168517   0.0044008  -0.0018027
    2   0.0123150  -0.0017353  -0.0088875   0.0112211  -0.0160466
    3  -0.0140362   0.0078718   0.0035530  -0.0046832   0.0046887
 Max gradient component =       2.449E-02
 RMS gradient           =       1.006E-02
 Computing fast CPCM-SWIG gradient
 Updating gradient with PCM contributions...
 -- total gradient after adding PCM contribution --
---------------------------------------------------
  Atom         X              Y              Z     
---------------------------------------------------
   1       0.003453      -0.000032       0.001642
   2      -0.000327       0.002362       0.000397
   3      -0.003733      -0.010986       0.004014
   4      -0.002985      -0.000870      -0.002844
   5       0.000346       0.001710       0.000017
   6       0.000481      -0.001311       0.002001
   7      -0.005835       0.008955      -0.006455
   8       0.008976       0.001693       0.003292
   9      -0.002210      -0.000896      -0.000015
  10       0.001923      -0.001421      -0.001777
  11      -0.000090       0.000796      -0.000272
---------------------------------------------------
 Number of fixed atoms: 0
 Gradient time:  CPU 67.17 s  wall 5.74 s
 FSM gradient convergence criteria satisfied
done with opt_step_by_gradient, Reactant, iter1
-Optimizing new product side node
 Using BFGS, step: 2 E_tol 0.0359735
 max_steps 6, node_spacing 0.2165574, sigma 0.7000000
 ----------------------------------------------------------------
             Standard Nuclear Orientation (Angstroms)
    I     Atom           X                Y                Z
 ----------------------------------------------------------------
    1      C       0.6297683054    -0.0240091317    -0.5734922756
    2      O       1.6977535081    -0.4676773168     0.2320658744
    3      H      -1.4584902318     0.6459089510     1.0428165491
    4      C      -0.6774270850    -0.6584292903    -0.2026296479
    5      O      -0.6935163945    -1.9998757205    -0.4309600861
    6      O      -1.2138553417    -0.3345087183     1.0175582035
    7      O       0.4562015138     1.4839428757    -0.6326848733
    8      H       0.3174410012     1.7868659414     0.2731028643
    9      H      -1.5159097158    -2.3676476984    -0.0802520549
   10      H       0.8836626762    -0.2806832659    -1.5960187221
   11      H       1.4205270681    -0.4206321562     1.1565165508
 ----------------------------------------------------------------
 Nuclear Repulsion Energy =         256.94343674 hartrees
 There are       25 alpha and       24 beta electrons
 Discretize the solute cavity surface with Lebedev spheres
	Using 110 Lebedev grid points for each H atom
	Using 194 Lebedev grid points for other atoms
	Atomic van der Waals radii will be scaled by 1.20
 Remove points where switching function is < 1.0e-08
 Keep 928 surface tesserae and discard 786 interior tesserae
 Molecular Surface Area = 108.612 Angst**2

                       Distance Matrix (Angstroms)
             C (  1)   O (  2)   H (  3)   C (  4)   O (  5)   O (  6)
   O (  2)  1.409382
   H (  3)  2.724347  3.443728
   C (  4)  1.499596  2.422154  1.965323
   O (  5)  2.382320  2.916403  3.123680  1.360835
   O (  6)  2.454954  3.018642  1.010793  1.371692  2.267687
   O (  7)  1.519062  2.469426  2.678740  2.461670  3.674171  2.969707
   H (  8)  2.023250  2.643844  2.246814  2.682453  3.982104  2.720168
   H (  9)  3.215566  3.746340  3.216536  1.907736  0.966738  2.330253
   H ( 10)  1.084391  2.009877  3.647973  2.126318  2.607773  3.351606
   H ( 11)  1.943075  0.966270  3.072325  2.511023  3.079492  2.639450
             O (  7)   H (  8)   H (  9)   H ( 10)
   H (  8)  0.965126
   H (  9)  4.362242  4.554780
   H ( 10)  2.055393  2.844114  3.522913
   H ( 11)  2.785421  2.621119  3.734050  2.807892
 
 Applying Cartesian multipole field
    Component          Value
    ---------          -----
     (2,0,0)        1.00000E-11
     (0,2,0)        2.00000E-11
     (0,0,2)       -3.00000E-11
 Nucleus-field energy     =     0.0000000043 hartrees
 Requested basis set is 6-311++G(2df,2p)
 There are 78 shells and 254 basis functions
 A cutoff of  1.0D-12 yielded   2941 shell pairs
 There are     31495 function pairs (     39442 Cartesian)
 Smallest overlap matrix eigenvalue = 5.93E-05
 Guess from superposition of atomic densities
 Warning:  Energy on first SCF cycle will be non-variational
 SAD guess density has 49.000000 electrons

 -----------------------------------------------------------------------
  General SCF calculation program by
  Eric Jon Sundstrom, Paul Horn, Yuezhi Mao, Dmitri Zuev, Alec White,
  David Stuck, Shaama M.S., Shane Yost, Joonho Lee, David Small,
  Daniel Levine, Susi Lehtola, Hugh Burton, Evgeny Epifanovsky,
  Bang C. Huynh
 -----------------------------------------------------------------------
 Exchange:     0.1500 Hartree-Fock + 1.0000 wB97M-V + LR-HF
 Correlation:  1.0000 wB97M-V
 Using SG-2 standard quadrature grid
 Nonlocal Correlation:  VV10 with C = 0.0100 and b = 6.00 and scale = 1.00000
 Grid used for NLC:  SG-1 standard quadrature
 
 Citation of the SMD model:
 Marenich, A.V.; Cramer, C.J.; Truhlar, D.G.
 J. Phys. Chem. B 2009, 113, 6378-6396.
 iSolventCode=           1
 Solvent: water                                                           
 
 vradii
            1           2           3           4           5           6
    1   1.8500000   1.5200000   1.2000000   1.8500000   1.5200000   1.5200000
            7           8           9          10          11
    1   1.5200000   1.2000000   1.2000000   1.2000000   1.2000000
 -------------------------------------------------------
 OpenMP BLAS3 based DFT computing Module                
 Release: version 1.0, May 2013, Q-Chem Inc. Pittsburgh 
 -------------------------------------------------------
 A unrestricted SCF calculation will be
 performed using DIIS, GDM
 SCF converges when RMS gradient is below 1.0e-07
 ---------------------------------------
  Cycle       Energy         DIIS error
 ---------------------------------------
    1    -380.9840487949      1.53e-02  
    2    -379.9615320551      2.28e-03  Done DIIS. Switching to GDM
 ---------------------------------------
  Cycle       Energy        RMS Gradient
 ---------------------------------------
    1    -379.9615320551      6.67e-02   Descent step
    2    -380.0818371233      1.81e-02   Normal BFGS step
    3    -380.0942664809      6.07e-03   Normal BFGS step
    4    -380.0951834045      2.30e-03   Normal BFGS step
    5    -380.0952712976      1.26e-03   Normal BFGS step
    6    -380.0953229406      4.27e-04   Normal BFGS step
    7    -380.0953265699      1.58e-04   Normal BFGS step
    8    -380.0953272311      6.25e-05   Normal BFGS step
    9    -380.0953273091      2.38e-05   Normal BFGS step
   10    -380.0953273183      8.99e-06   Normal BFGS step
   11    -380.0953273218      6.35e-06   Normal BFGS step
   12    -380.0953273221      2.74e-06   Normal BFGS step
   13    -380.0953273221      8.13e-07   Normal BFGS step
   14    -380.0953273221      2.43e-07   Normal BFGS step
   15    -380.0953273221      1.24e-07   Normal BFGS step
   16    -380.0953273221      6.38e-08  Convergence criterion met
 ---------------------------------------
 SCF time:   CPU 546.63s  wall 35.00s 
<S^2> =          0.752387691
(3)  G-ENP(liq) elect-nuc-pol free energy of system     -380.095327322 a.u.
(4)  G-CDS(liq) cavity-dispersion-solvent structure 
     free energy                                                3.6964 kcal/mol
(6)  G-S(liq) free energy of system                     -380.089436726 a.u.
 SCF   energy in the final basis set =     -380.0894367256
 Total energy in the final basis set =     -380.0894367256
 
 --------------------------------------------------------------
 
                    Orbital Energies (a.u.)
 --------------------------------------------------------------
 
 Alpha MOs
 -- Occupied --
-19.3718 -19.3707 -19.3577 -19.3461 -10.4574 -10.4467  -1.2327  -1.1869
 -1.1576  -1.1261  -0.8557  -0.7489  -0.6771  -0.6557  -0.6312  -0.5873
[...]
  2.2973   2.3151   2.3694   2.3844   2.4182   2.4391   2.4596   2.5055
  2.5916   2.7289   2.7384   2.7622   2.8340   2.8446   2.8743   2.9014
  2.9334   3.0528   3.1321   3.1584   3.2098   3.2518   3.2874   3.3044
  3.3496   3.3828   3.4006   3.4360   3.4719   3.5176   3.5762   3.6034
  3.6258   3.6484   3.7000   3.7102   3.7599   3.7848   3.8185   3.8696
  3.9023   3.9176   3.9633   4.0408   4.0763   4.1297   4.1471   4.1882
  4.2314   4.2700   4.2837   4.3241   4.3397   4.3909   4.4462   4.4842
  4.7685   4.9112   5.1620   5.1673   5.1833   5.1979   5.2126   5.2255
  5.2339   5.2492   5.2792   5.2902   5.2984   5.3061   5.3344   5.3446
  5.3892   5.4211   5.4537   5.4758   5.5163   5.5488   5.5808   5.5999
  5.6474   5.6667   5.7101   5.7287   5.7570   5.7984   5.8974   5.9454
  6.0515   6.1382   6.3226   6.5436   6.8521   6.8810   6.9578   7.0137
  7.0366   7.0621   7.0693   7.1080   7.1333   7.1866   7.2241   7.2538
  7.2997   7.3048   7.3414   7.3537   7.3875   7.4042   7.4248   7.5008
  7.6296   7.6520   7.6978   7.7338   7.7779   7.8214   7.8798  24.7149
 25.1614  50.5474  50.5691  50.6193  50.6405
 
 Beta MOs
 -- Occupied --
-19.3961 -19.3859 -19.3800 -19.2757 -10.4806 -10.4449  -1.2615  -1.2149
 -1.1871  -1.0331  -0.8730  -0.7634  -0.7092  -0.6838  -0.6026  -0.5848
 -0.5491  -0.5296  -0.5105  -0.5001  -0.4817  -0.4555  -0.3720  -0.3597
 -- Virtual --
 -0.0101   0.0242   0.0449   0.0513   0.0575   0.0772   0.0947   0.1076
  0.1122   0.1211   0.1309   0.1481   0.1592   0.1674   0.1763   0.2193
  0.2261   0.2459   0.2507   0.2602   0.2691   0.2696   0.2812   0.2894
  0.3014   0.3159   0.3209   0.3297   0.3328   0.3354   0.3439   0.3512
  0.3570   0.3751   0.4067   0.4154   0.4308   0.4717   0.5099   0.5274
  0.5668   0.5883   0.6020   0.6164   0.6233   0.6590   0.6784   0.6815
  0.7023   0.7287   0.7343   0.7600   0.7844   0.8024   0.8352   0.8444
  0.8936   0.9129   0.9218   0.9704   0.9866   1.0189   1.0508   1.0644
  1.0781   1.0913   1.1253   1.1419   1.1514   1.1663   1.1830   1.1978
  1.2291   1.2359   1.2522   1.2808   1.2877   1.3236   1.3453   1.3743
  1.3880   1.4356   1.4486   1.4708   1.5161   1.5300   1.5626   1.5919
  1.5955   1.6375   1.6576   1.7207   1.7581   1.7936   1.8564   1.8720
  1.9212   1.9579   1.9876   2.0281   2.0672   2.0798   2.1527   2.2073
  2.2771   2.3037   2.3201   2.3732   2.3909   2.4234   2.4452   2.4662
  2.5114   2.6025   2.7357   2.7498   2.7692   2.8544   2.8662   2.8935
  2.9245   2.9542   3.0732   3.1505   3.1774   3.2241   3.2683   3.3053
  3.3193   3.3675   3.4014   3.4190   3.4560   3.4909   3.5379   3.5943
  3.6206   3.6418   3.6696   3.7172   3.7247   3.7706   3.7896   3.8231
  3.8793   3.9080   3.9275   3.9713   4.0494   4.0817   4.1352   4.1537
  4.1962   4.2378   4.2762   4.2878   4.3327   4.3460   4.4042   4.4643
  4.5062   4.7839   4.9394   5.1754   5.1788   5.1937   5.2077   5.2251
  5.2345   5.2435   5.2593   5.2876   5.2980   5.3080   5.3147   5.3454
  5.3610   5.4020   5.4291   5.4703   5.4861   5.5227   5.5552   5.5882
  5.6086   5.6526   5.6717   5.7172   5.7345   5.7694   5.8077   5.9046
  5.9515   6.0629   6.1474   6.3282   6.5507   6.8579   6.8901   6.9649
  7.0263   7.0488   7.0725   7.0894   7.1189   7.1569   7.1996   7.2311
  7.2668   7.3072   7.3154   7.3467   7.3623   7.3992   7.4127   7.4387
  7.5100   7.6441   7.6590   7.7039   7.7375   7.7821   7.8258   7.8835
 24.7184  25.1680  50.5495  50.5740  50.6216  50.6427
 --------------------------------------------------------------
 
          Ground-State Mulliken Net Atomic Charges

     Atom                 Charge (a.u.)    Spin (a.u.)
  --------------------------------------------------------
      1 C                    -0.101565       0.189574
      2 O                    -0.292031       0.044659
      3 H                     0.345782       0.003566
      4 C                     0.260498       0.406919
      5 O                    -0.331492       0.076684
      6 O                    -0.348519       0.056553
      7 O                    -0.858282       0.215262
      8 H                     0.317697       0.001360
      9 H                     0.376360       0.003332
     10 H                     0.284415       0.003622
     11 H                     0.347136      -0.001530
  --------------------------------------------------------
  Sum of atomic charges =     0.000000
  Sum of spin   charges =     1.000000

 -----------------------------------------------------------------
                    Cartesian Multipole Moments
 -----------------------------------------------------------------
    Charge (ESU x 10^10)
                -0.0000
    Dipole Moment (Debye)
         X      -1.6672      Y      -5.8633      Z       2.0016
       Tot       6.4159
    Quadrupole Moments (Debye-Ang)
        XX     -37.1548     XY      -0.5862     YY     -41.6630
        XZ      -0.5004     YZ      -4.3638     ZZ     -30.2391
    Octopole Moments (Debye-Ang^2)
       XXX      -3.3029    XXY       0.7643    XYY     -10.2479
       YYY      -0.2930    XXZ      13.7720    XYZ       2.2113
       YYZ       9.8149    XZZ       0.2578    YZZ       9.2465
       ZZZ      12.0614
    Hexadecapole Moments (Debye-Ang^3)
      XXXX    -320.7038   XXXY     -12.6674   XXYY     -80.7716
      XYYY      -2.0146   YYYY    -361.4103   XXXZ      15.3024
      XXYZ     -16.7538   XYYZ      -2.8518   YYYZ     -14.4443
      XXZZ     -59.0032   XYZZ       3.2917   YYZZ     -55.9063
      XZZZ       6.2541   YZZZ      -1.3834   ZZZZ     -70.8578
 -----------------------------------------------------------------
 Calculating analytic gradient of the SCF energy
 Gradient of CDS energy
            1           2           3           4           5           6
    1   0.0045824  -0.0038316  -0.0002080  -0.0037277  -0.0000518   0.0032739
    2  -0.0014896   0.0015413   0.0002969  -0.0013956   0.0027606  -0.0018060
    3   0.0004033  -0.0010086  -0.0000480   0.0013189  -0.0017595   0.0003277
            7           8           9          10          11
    1  -0.0000191   0.0000943  -0.0002336  -0.0001619   0.0002830
    2  -0.0001528   0.0003706  -0.0002430   0.0002848  -0.0001671
    3  -0.0002151   0.0004195   0.0002545   0.0000757   0.0002316
 Gradient of SCF Energy
            1           2           3           4           5           6
    1   0.0037686   0.0023150  -0.0005526  -0.0008214   0.0176450  -0.0051045
    2   0.0020938   0.0126010  -0.0002558  -0.0042136  -0.0001514   0.0010580
    3   0.0034233  -0.0134392   0.0004424  -0.0001950  -0.0099750  -0.0021593
            7           8           9          10          11
    1   0.0048060  -0.0015161  -0.0184381  -0.0014097  -0.0006923
    2   0.0141037  -0.0069546  -0.0057522  -0.0018469  -0.0106820
    3  -0.0033089   0.0043473   0.0122745  -0.0053466   0.0139364
 Max gradient component =       1.844E-02
 RMS gradient           =       7.796E-03
 Computing fast CPCM-SWIG gradient
 Updating gradient with PCM contributions...
 -- total gradient after adding PCM contribution --
---------------------------------------------------
  Atom         X              Y              Z     
---------------------------------------------------
   1      -0.000104       0.000121       0.000018
   2       0.000038       0.000022      -0.000067
   3      -0.000060      -0.000101       0.000017
   4       0.000051      -0.000015       0.000018
   5       0.000012      -0.000006      -0.000007
   6       0.000020       0.000062       0.000014
   7      -0.000029      -0.000068      -0.000069
   8       0.000042       0.000014       0.000022
   9       0.000038      -0.000003       0.000037
  10      -0.000016       0.000001      -0.000008
  11       0.000009      -0.000027       0.000025
---------------------------------------------------
 Number of fixed atoms: 0
 Gradient time:  CPU 79.76 s  wall 6.65 s
 Geometry Optimization Parameters
   NAtoms,    NIC,     NZ,  NCons,   NDum,   NFix, NCnnct, MaxDiis
       11      61       0       0       0       0       0       0

 Cartesian Hessian Update
 Hessian updated using Powell/Murtagh-Sargent update
  Mixing factors:     0.993752 Powell                      0.006248 Murtagh-Sargent


** GEOMETRY OPTIMIZATION IN DELOCALIZED INTERNAL COORDINATES **
   Searching for a Transition State

   Optimization Cycle:  60

                       Coordinates (Angstroms)
     ATOM                X               Y               Z
      1  C         0.6351553061   -0.1742863456   -0.6538708025
      2  O         1.8434702397   -0.6432654805   -0.3232718598
      3  H        -1.4287005242    0.8027628025   -0.2509602899
      4  C        -0.5305056039   -0.7820560059   -0.1895568093
      5  O        -0.4830446816   -1.9058752682    0.5141032543
      6  O        -1.6935932363   -0.1513290127   -0.3047218387
      7  O         0.1768711803    1.6372030236    0.2406024021
      8  H         0.2119096883    1.3908441728    1.1727454430
      9  H        -1.3220375754   -2.0415584132    0.9806881790
     10  H         0.6163824566    0.4070289141   -1.5587796726
     11  H         1.7900570991   -1.2109540112    0.4591851067
   Point Group: c1    Number of degrees of freedom:    27


   Energy is   -380.063579721

 Hessian updated using Powell/Murtagh-Sargent update
  Mixing factors:     0.993193 Powell                      0.006807 Murtagh-Sargent

 27 Hessian modes will be used to form the next step
  Hessian Eigenvalues:
    -0.185033    0.003141    0.008392    0.017312    0.020305    0.025921
     0.043008    0.053305    0.075735    0.107331    0.148913    0.156667
     0.159295    0.161780    0.183710    0.229229    0.238919    0.303147
     0.361488    0.378797    0.425307    0.468827    0.519211    0.532620
     0.536309    0.562664    0.592085

 Transition state search - taking P-RFO step
 Searching for Lamda that Maximizes Along the Lowest mode
 Value Taken    Lamda =   0.00000006
 Searching for Lamda that Minimizes Along All other modes
 Value Taken    Lamda =  -0.00000018
 Step Taken.  Stepsize is  0.002422

                             Maximum     Tolerance    Cnvgd?
         Gradient           0.000077      0.000300     YES
         Displacement       0.001132      0.001200     YES
         Energy change     -0.000000      0.000001     YES


                       Distance Matrix (Angstroms)
             C (  1)   O (  2)   H (  3)   C (  4)   O (  5)   O (  6)
   O (  2)  1.337633
   H (  3)  2.318720  3.578174
   C (  4)  1.394180  2.381786  1.822684
   O (  5)  2.369163  2.776338  2.969227  1.326785
   O (  6)  2.354889  3.571157  0.991640  1.328101  2.283492
   O (  7)  2.071618  2.880285  1.875043  2.556997  3.614373  2.644780
   H (  8)  2.442396  3.006270  2.250418  2.669933  3.432948  2.862193
   H (  9)  3.160552  3.698104  3.101370  1.892708  0.969547  2.315880
   H ( 10)  1.075704  2.033554  2.459545  2.145704  3.294709  2.687082
   H ( 11)  1.909809  0.968175  3.862611  2.447413  2.377588  3.720508
             O (  7)   H (  8)   H (  9)   H ( 10)
   H (  8)  0.964785
   H (  9)  4.040760  3.764474
   H ( 10)  2.223572  2.931334  4.025164
   H ( 11)  3.280571  3.125551  3.262974  2.840346
 
 Final energy is   -380.063579720703     


 ******************************
 **  OPTIMIZATION CONVERGED  **
 ******************************

                       Coordinates (Angstroms)
     ATOM                X               Y               Z
      1  C         0.6351553061   -0.1742863456   -0.6538708025
      2  O         1.8434702397   -0.6432654805   -0.3232718598
      3  H        -1.4287005242    0.8027628025   -0.2509602899
      4  C        -0.5305056039   -0.7820560059   -0.1895568093
      5  O        -0.4830446816   -1.9058752682    0.5141032543
      6  O        -1.6935932363   -0.1513290127   -0.3047218387
      7  O         0.1768711803    1.6372030236    0.2406024021
      8  H         0.2119096883    1.3908441728    1.1727454430
      9  H        -1.3220375754   -2.0415584132    0.9806881790
     10  H         0.6163824566    0.4070289141   -1.5587796726
     11  H         1.7900570991   -1.2109540112    0.4591851067

Z-matrix Print:
$molecule
0 2
C 
O  1 1.326785
H  2 0.969547 1 110.048030
O  1 1.328101 2 118.657640 3 -9.062582 0
H  4 0.991640 1 102.608576 2 141.691659 0
C  1 1.394180 2 121.061935 3 162.606562 0
H  6 1.075704 1 120.076007 2 150.618434 0
O  6 1.337633 1 121.339594 2 -5.114034 0
H  8 0.968175 6 110.823095 1 -18.787083 0
O  5 1.875043 4 132.153798 1 -11.953608 0
H  10 0.964785 5 99.831516 4 -65.906268 0
$end

 
 --------------------------------------------------------------
 
                    Orbital Energies (a.u.)
 --------------------------------------------------------------
 
 Alpha MOs
 -- Occupied --
-19.3991 -19.3874 -19.3820 -19.2829 -10.4874 -10.4486  -1.2684  -1.2184
 -1.1927  -1.0480  -0.8884  -0.7693  -0.7139  -0.6900  -0.6178  -0.5945
 -0.5552  -0.5395  -0.5227  -0.5082  -0.4911  -0.4690  -0.4049  -0.3803
 -0.2753
 -- Virtual --
  0.0241   0.0450   0.0507   0.0556   0.0769   0.0954   0.1068   0.1077
  0.1136   0.1234   0.1300   0.1590   0.1658   0.1754   0.2174   0.2248
  0.2435   0.2485   0.2569   0.2686   0.2690   0.2794   0.2892   0.2965
  0.3141   0.3180   0.3279   0.3300   0.3340   0.3434   0.3482   0.3556
  0.3718   0.4055   0.4114   0.4274   0.4675   0.5047   0.5215   0.5636
  0.5854   0.5995   0.6100   0.6198   0.6557   0.6729   0.6752   0.6945
  0.7239   0.7282   0.7558   0.7824   0.7991   0.8304   0.8376   0.8920
  0.9077   0.9187   0.9669   0.9829   1.0164   1.0475   1.0586   1.0732
  1.0872   1.1237   1.1386   1.1475   1.1647   1.1792   1.1944   1.2257
  1.2328   1.2467   1.2768   1.2828   1.3174   1.3407   1.3667   1.3833
  1.4299   1.4445   1.4656   1.5083   1.5265   1.5578   1.5869   1.5910
  1.6335   1.6528   1.7149   1.7522   1.7881   1.8522   1.8665   1.9146
  1.9524   1.9827   2.0229   2.0596   2.0697   2.1457   2.2021   2.2727
  2.2973   2.3151   2.3694   2.3844   2.4182   2.4391   2.4596   2.5055
  2.5916   2.7289   2.7384   2.7622   2.8340   2.8446   2.8743   2.9014
  2.9334   3.0528   3.1321   3.1584   3.2098   3.2518   3.2874   3.3044
  3.3496   3.3828   3.4006   3.4360   3.4719   3.5176   3.5762   3.6034
  3.6258   3.6484   3.7000   3.7102   3.7599   3.7848   3.8185   3.8696
  3.9023   3.9176   3.9633   4.0408   4.0763   4.1297   4.1471   4.1882
  4.2314   4.2700   4.2837   4.3241   4.3397   4.3909   4.4462   4.4842
  4.7685   4.9112   5.1620   5.1673   5.1833   5.1979   5.2126   5.2255
  5.2339   5.2492   5.2792   5.2902   5.2984   5.3061   5.3344   5.3446
  5.3892   5.4211   5.4537   5.4758   5.5163   5.5488   5.5808   5.5999
  5.6474   5.6667   5.7101   5.7287   5.7570   5.7984   5.8974   5.9454
  6.0515   6.1382   6.3226   6.5436   6.8521   6.8810   6.9578   7.0137
  7.0366   7.0621   7.0693   7.1080   7.1333   7.1866   7.2241   7.2538
  7.2997   7.3048   7.3414   7.3537   7.3875   7.4042   7.4248   7.5008
  7.6296   7.6520   7.6978   7.7338   7.7779   7.8214   7.8798  24.7149
 25.1614  50.5474  50.5691  50.6193  50.6405
 
 Beta MOs
 -- Occupied --
-19.3961 -19.3859 -19.3800 -19.2757 -10.4806 -10.4449  -1.2615  -1.2149
 -1.1871  -1.0331  -0.8730  -0.7634  -0.7092  -0.6838  -0.6026  -0.5848
 -0.5491  -0.5296  -0.5105  -0.5001  -0.4817  -0.4555  -0.3720  -0.3597
 -- Virtual --
 -0.0101   0.0242   0.0449   0.0513   0.0575   0.0772   0.0947   0.1076
  0.1122   0.1211   0.1309   0.1481   0.1592   0.1674   0.1763   0.2193
  0.2261   0.2459   0.2507   0.2602   0.2691   0.2696   0.2812   0.2894
  0.3014   0.3159   0.3209   0.3297   0.3328   0.3354   0.3439   0.3512
  0.3570   0.3751   0.4067   0.4154   0.4308   0.4717   0.5099   0.5274
  0.5668   0.5883   0.6020   0.6164   0.6233   0.6590   0.6784   0.6815
  0.7023   0.7287   0.7343   0.7600   0.7844   0.8024   0.8352   0.8444
  0.8936   0.9129   0.9218   0.9704   0.9866   1.0189   1.0508   1.0644
  1.0781   1.0913   1.1253   1.1419   1.1514   1.1663   1.1830   1.1978
  1.2291   1.2359   1.2522   1.2808   1.2877   1.3236   1.3453   1.3743
  1.3880   1.4356   1.4486   1.4708   1.5161   1.5300   1.5626   1.5919
  1.5955   1.6375   1.6576   1.7207   1.7581   1.7936   1.8564   1.8720
  1.9212   1.9579   1.9876   2.0281   2.0672   2.0798   2.1527   2.2073
  2.2771   2.3037   2.3201   2.3732   2.3909   2.4234   2.4452   2.4662
  2.5114   2.6025   2.7357   2.7498   2.7692   2.8544   2.8662   2.8935
  2.9245   2.9542   3.0732   3.1505   3.1774   3.2241   3.2683   3.3053
  3.3193   3.3675   3.4014   3.4190   3.4560   3.4909   3.5379   3.5943
  3.6206   3.6418   3.6696   3.7172   3.7247   3.7706   3.7896   3.8231
  3.8793   3.9080   3.9275   3.9713   4.0494   4.0817   4.1352   4.1537
  4.1962   4.2378   4.2762   4.2878   4.3327   4.3460   4.4042   4.4643
  4.5062   4.7839   4.9394   5.1754   5.1788   5.1937   5.2077   5.2251
  5.2345   5.2435   5.2593   5.2876   5.2980   5.3080   5.3147   5.3454
  5.3610   5.4020   5.4291   5.4703   5.4861   5.5227   5.5552   5.5882
  5.6086   5.6526   5.6717   5.7172   5.7345   5.7694   5.8077   5.9046
  5.9515   6.0629   6.1474   6.3282   6.5507   6.8579   6.8901   6.9649
  7.0263   7.0488   7.0725   7.0894   7.1189   7.1569   7.1996   7.2311
  7.2668   7.3072   7.3154   7.3467   7.3623   7.3992   7.4127   7.4387
  7.5100   7.6441   7.6590   7.7039   7.7375   7.7821   7.8258   7.8835
 24.7184  25.1680  50.5495  50.5740  50.6216  50.6427
 --------------------------------------------------------------
 
          Ground-State Mulliken Net Atomic Charges

     Atom                 Charge (a.u.)    Spin (a.u.)
  --------------------------------------------------------
      1 C                    -0.101565       0.189574
      2 O                    -0.292031       0.044659
      3 H                     0.345782       0.003566
      4 C                     0.260498       0.406919
      5 O                    -0.331492       0.076684
      6 O                    -0.348519       0.056553
      7 O                    -0.858282       0.215262
      8 H                     0.317697       0.001360
      9 H                     0.376360       0.003332
     10 H                     0.284415       0.003622
     11 H                     0.347136      -0.001530
  --------------------------------------------------------
  Sum of atomic charges =     0.000000
  Sum of spin   charges =     1.000000

 -----------------------------------------------------------------
                    Cartesian Multipole Moments
 -----------------------------------------------------------------
    Charge (ESU x 10^10)
                -0.0000
    Dipole Moment (Debye)
         X      -1.6672      Y      -5.8633      Z       2.0016
       Tot       6.4159
    Quadrupole Moments (Debye-Ang)
        XX     -37.1548     XY      -0.5862     YY     -41.6630
        XZ      -0.5004     YZ      -4.3638     ZZ     -30.2391
    Octopole Moments (Debye-Ang^2)
       XXX      -3.3029    XXY       0.7643    XYY     -10.2479
       YYY      -0.2930    XXZ      13.7720    XYZ       2.2113
       YYZ       9.8149    XZZ       0.2578    YZZ       9.2465
       ZZZ      12.0614
    Hexadecapole Moments (Debye-Ang^3)
      XXXX    -320.7038   XXXY     -12.6674   XXYY     -80.7716
      XYYY      -2.0146   YYYY    -361.4103   XXXZ      15.3024
      XXYZ     -16.7538   XYYZ      -2.8518   YYYZ     -14.4443
      XXZZ     -59.0032   XYZZ       3.2917   YYZZ     -55.9063
      XZZZ       6.2541   YZZZ      -1.3834   ZZZZ     -70.8578
 -----------------------------------------------------------------
 Total job time:  2954.00s(wall), 43913.58s(cpu) 
 Tue Jul  4 22:53:42 2023

        *************************************************************
        *                                                           *
        *  Thank you very much for using Q-Chem.  Have a nice day.  *
        *                                                           *
        *************************************************************


