
Running Job 1 of 1 Q_in.in
qchem Q_in.in_65669.0 /scratch/ari.fischer/qChem1873554.hpc-mn1/qchem65669/ 0
/usr/local/qchem-5.4.1/exe/qcprog.exe_s Q_in.in_65669.0 /scratch/ari.fischer/qChem1873554.hpc-mn1/qchem65669/
                  Welcome to Q-Chem
     A Quantum Leap Into The Future Of Chemistry


 Q-Chem 5.4, Q-Chem, Inc., Pleasanton, CA (2021)

 License issued to: Nanyang Technological University (site)

 E. Epifanovsky,  A. T. B. Gilbert,  Xintian Feng,  Joonho Lee,  Yuezhi Mao,  
 N. Mardirossian,  P. Pokhilko,  A. White,  M. Wormit,  M. P. Coons,  
 A. L. Dempwolff,  Zhengting Gan,  D. Hait,  P. R. Horn,  L. D. Jacobson,  
 I. Kaliman,  J. Kussmann,  A. W. Lange,  Ka Un Lao,  D. S. Levine,  Jie Liu,  
 S. C. McKenzie,  A. F. Morrison,  K. Nanda,  F. Plasser,  D. R. Rehn,  
 M. L. Vidal,  Zhi-Qiang You,  Ying Zhu,  B. Alam,  B. Albrecht,  
 A. Aldossary,  E. Alguire,  J. H. Andersen,  D. Barton,  K. Begam,  A. Behn,  
 Y. A. Bernard,  E. J. Berquist,  H. Burton,  A. Carreras,  K. Carter-Fenk,  
 R. Chakraborty,  A. D. Chien,  K. D. Closser,  V. Cofer-Shabica,  
 S. Dasgupta,  Jia Deng,  M. de Wergifosse,  M. Diedenhofen,  Hainam Do,  
 S. Ehlert,  Po-Tung Fang,  S. Fatehi,  Qingguo Feng,  T. Friedhoff,  
 J. Gayvert,  Qinghui Ge,  G. Gidofalvi,  M. Goldey,  J. Gomes,  
 C. Gonzalez-Espinoza,  S. Gulania,  A. Gunina,  M. W. D. Hanson-Heine,  
 P. H. P. Harbach,  A. W. Hauser,  M. F. Herbst,  M. Hernandez Vera,  
 M. Hodecker,  Z. C. Holden,  S. Houck,  Xunkun Huang,  Kerwin Hui,  
 B. C. Huynh,  M. Ivanov,  Hyunjun Ji,  Hanjie Jiang,  B. Kaduk,  S. Kaehler,  
 K. Khistyaev,  Jaehoon Kim,  P. Klunzinger,  Z. Koczor-Benda,  
 Joong Hoon Koh,  D. Kosenkov,  L. Koulias,  T. Kowalczyk,  C. M. Krauter,  
 K. Kue,  A. Kunitsa,  T. Kus,  A. Landau,  K. V. Lawler,  D. Lefrancois,  
 S. Lehtola,  Rain Li,  Yi-Pei Li,  Jiashu Liang,  M. Liebenthal,  
 Hung-Hsuan Lin,  You-Sheng Lin,  Fenglai Liu,  Kuan-Yu Liu,  
 M. Loipersberger,  A. Luenser,  A. Manjanath,  P. Manohar,  E. Mansoor,  
 S. F. Manzer,  Shan-Ping Mao,  A. V. Marenich,  T. Markovich,  S. Mason,  
 S. A. Maurer,  P. F. McLaughlin,  M. F. S. J. Menger,  J.-M. Mewes,  
 S. A. Mewes,  P. Morgante,  J. W. Mullinax,  K. J. Oosterbaan,  G. Paran,  
 Alexander C. Paul,  Suranjan K. Paul,  F. Pavosevic,  Zheng Pei,  S. Prager,  
 E. I. Proynov,  E. Ramos,  B. Rana,  A. E. Rask,  A. Rettig,  R. M. Richard,  
 F. Rob,  E. Rossomme,  T. Scheele,  M. Scheurer,  M. Schneider,  
 N. Sergueev,  S. M. Sharada,  W. Skomorowski,  D. W. Small,  C. J. Stein,  
 Yu-Chuan Su,  E. J. Sundstrom,  Zhen Tao,  J. Thirman,  T. Tsuchimochi,  
 N. M. Tubman,  S. P. Veccham,  O. Vydrov,  J. Wenzel,  J. Witte,  A. Yamada,  
 Kun Yao,  S. Yeganeh,  S. R. Yost,  A. Zech,  Igor Ying Zhang,  Xing Zhang,  
 Yu Zhang,  D. Zuev,  A. Aspuru-Guzik,  A. T. Bell,  N. A. Besley,  
 K. B. Bravaya,  B. R. Brooks,  D. Casanova,  Jeng-Da Chai,  S. Coriani,  
 C. J. Cramer,  A. E. DePrince, III,  R. A. DiStasio Jr.,  A. Dreuw,  
 B. D. Dunietz,  T. R. Furlani,  W. A. Goddard III,  S. Grimme,  
 S. Hammes-Schiffer,  T. Head-Gordon,  W. J. Hehre,  Chao-Ping Hsu,  
 T.-C. Jagau,  Yousung Jung,  A. Klamt,  Jing Kong,  D. S. Lambrecht,  
 WanZhen Liang,  N. J. Mayhall,  C. W. McCurdy,  J. B. Neaton,  
 C. Ochsenfeld,  J. A. Parkhill,  R. Peverati,  V. A. Rassolov,  Yihan Shao,  
 L. V. Slipchenko,  T. Stauch,  R. P. Steele,  J. E. Subotnik,  
 A. J. W. Thom,  A. Tkatchenko,  D. G. Truhlar,  T. Van Voorhis,  
 T. A. Wesolowski,  K. B. Whaley,  H. L. Woodcock III,  P. M. Zimmerman,  
 S. Faraji,  P. M. W. Gill,  M. Head-Gordon,  J. M. Herbert,  A. I. Krylov

 Additional authors for Version 5.4.1: 
 S. Kotaru,  Shaozhi Li,  Xiangyuan Li,  F. Matz,  A. Molle,  Haisheng Ren,  
 Yingli Su,  Hung-Yi Tsai,  C. Utku,  Fang Wang

 Contributors to earlier versions of Q-Chem not listed above: 
 R. D. Adamson,  B. Austin,  R. Baer,  J. Baker,  G. J. O. Beran,  
 K. Brandhorst,  S. T. Brown,  E. F. C. Byrd,  A. K. Chakraborty,  
 G. K. L. Chan,  Chun-Min Chang,  Yunqing Chen,  C.-L. Cheng,  
 Siu Hung Chien,  D. M. Chipman,  D. L. Crittenden,  H. Dachsel,  
 R. J. Doerksen,  A. D. Dutoi,  R. G. Edgar,  J. Fosso-Tande,  
 L. Fusti-Molnar,  D. Ghosh,  A. Ghysels,  A. Golubeva-Zadorozhnaya,  
 J. Gonthier,  M. S. Gordon,  S. R. Gwaltney,  G. Hawkins,  J. E. Herr,  
 A. Heyden,  S. Hirata,  E. G. Hohenstein,  G. Kedziora,  F. J. Keil,  
 C. Kelley,  Jihan Kim,  R. A. King,  R. Z. Khaliullin,  P. P. Korambath,  
 W. Kurlancheek,  A. Laurent,  A. M. Lee,  M. S. Lee,  S. V. Levchenko,  
 Ching Yeh Lin,  D. Liotard,  E. Livshits,  R. C. Lochan,  I. Lotan,  
 L. A. Martinez-Martinez,  P. E. Maslen,  N. Nair,  D. P. O'Neill,  
 D. Neuhauser,  E. Neuscamman,  C. M. Oana,  R. Olivares-Amaya,  R. Olson,  
 T. M. Perrine,  B. Peters,  P. A. Pieniazek,  A. Prociuk,  Y. M. Rhee,  
 J. Ritchie,  M. A. Rohrdanz,  E. Rosta,  N. J. Russ,  H. F. Schaefer III,  
 M. W. Schmidt,  N. E. Schultz,  S. Sharma,  N. Shenvi,  C. D. Sherrill,  
 A. C. Simmonett,  A. Sodt,  T. Stein,  D. Stuck,  K. S. Thanthiriwatte,  
 V. Vanovschi,  L. Vogt,  Tao Wang,  A. Warshel,  M. A. Watson,  
 C. F. Williams,  Q. Wu,  X. Xu,  Jun Yang,  W. Zhang,  Yan Zhao

 Please cite Q-Chem as follows:
 Y. Shao et al., Mol. Phys. 113, 184-215 (2015)
 DOI: 10.1080/00268976.2014.952696

 Q-Chem 5.4.1 for Intel X86 EM64T Linux

 Parts of Q-Chem use Armadillo 9.800.1 (Horizon Scraper).
 http://arma.sourceforge.net/

 Q-Chem begins on Fri Jan  5 20:53:52 2024  

 Host: 
0

     Scratch files written to /scratch/ari.fischer/qChem1873554.hpc-mn1/qchem65669//
 Aug1521 |scratch|qcdevops|jenkins|workspace|build_RNUM 8249   
 Processing $rem in /usr/local/qchem-5.4.1/config/preferences:
 Processing $rem in /home/ari.fischer/.qchemrc:
 Symmetry turned off for PCM/SM12/SMD calculation


!!********************************************.
!!******************Warning*******************.
!!Desired Analytical derivatives not available.
!!Finite difference job might take a long time.
!!********************************************.
!!********************************************.


 2-order derivative to be evaluated numerically with 1-order analytical derivatives

 Checking the input file for inconsistencies... 	...done.

--------------------------------------------------------------
User input:
--------------------------------------------------------------
$molecule
0 2
C    2.1846777    0.9027811   -1.3249809
C   -0.1591031   -0.3642855   -2.5386952
O    0.2376495   -1.6726042   -2.7025111
O    0.0019772    0.3772120   -3.6728694
O    2.8724641    0.5098424   -2.3966387
H    0.0631989   -2.1499356   -1.8818740
H    0.8797612    0.2060870   -4.0417697
H    2.0838842    0.0909999   -0.6028209
H   -1.1113566   -0.1912311   -2.0477713
O    1.7655028    2.0250668   -1.1586363
H    2.9413161    1.2522535   -3.0195787
$end

$rem
BASIS = 6-311++G(2df,2p)
GUI = 2
JOB_TYPE = Frequency
METHOD = wB97M-V
SOLVENT_METHOD = SMD
SCF_ALGORITHM = DIIS_GDM
MAX_SCF_CYCLES = 400
SCF_CONVERGENCE = 7
THRESH = 12
$end
--------------------------------------------------------------
 ----------------------------------------------------------------
             Standard Nuclear Orientation (Angstroms)
    I     Atom           X                Y                Z
 ----------------------------------------------------------------
    1      C       2.1846777000     0.9027811000    -1.3249809000
    2      C      -0.1591031000    -0.3642855000    -2.5386952000
    3      O       0.2376495000    -1.6726042000    -2.7025111000
    4      O       0.0019772000     0.3772120000    -3.6728694000
    5      O       2.8724641000     0.5098424000    -2.3966387000
    6      H       0.0631989000    -2.1499356000    -1.8818740000
    7      H       0.8797612000     0.2060870000    -4.0417697000
    8      H       2.0838842000     0.0909999000    -0.6028209000
    9      H      -1.1113566000    -0.1912311000    -2.0477713000
   10      O       1.7655028000     2.0250668000    -1.1586363000
   11      H       2.9413161000     1.2522535000    -3.0195787000
 ----------------------------------------------------------------
 Nuclear Repulsion Energy =         237.84180763 hartrees
 There are       25 alpha and       24 beta electrons
 Requested basis set is 6-311++G(2df,2p)
 There are 78 shells and 254 basis functions

 Total QAlloc Memory Limit 288000 MB
 Mega-Array Size       188 MB
 MEM_STATIC part       192 MB
 
 Citation of the SMD model:
 Marenich, A.V.; Cramer, C.J.; Truhlar, D.G.
 J. Phys. Chem. B 2009, 113, 6378-6396.
 iSolventCode=           1
 Solvent: water                                                           
 
 vradii
            1           2           3           4           5           6
    1   1.8500000   1.8500000   1.5200000   1.5200000   1.5200000   1.2000000
            7           8           9          10          11
    1   1.2000000   1.2000000   1.2000000   1.5200000   1.2000000
 Changing PCM_VDW_RADII to SMD_RADIUS
 Discretize the solute cavity surface with Lebedev spheres
	Using 110 Lebedev grid points for each H atom
	Using 194 Lebedev grid points for other atoms
	Atomic van der Waals radii will be scaled by 1.20
 Remove points where switching function is < 1.0e-08
 Keep 996 surface tesserae and discard 718 interior tesserae
 Molecular Surface Area = 120.088 Angst**2

                       Distance Matrix (Angstroms)
             C (  1)   C (  2)   O (  3)   O (  4)   O (  5)   H (  6)
   C (  2)  2.927775
   O (  3)  3.510145  1.376934
   O (  4)  3.248536  1.364594  2.280106
   O (  5)  1.332630  3.158272  3.434950  3.144209
   H (  6)  3.758973  1.915562  0.965258  3.098046  3.902739
   H (  7)  3.093401  1.914105  2.394870  0.967407  2.601843  3.298904
   H (  8)  1.091175  2.997647  3.305689  3.720410  2.003764  3.277337
   H (  9)  3.547271  1.085238  2.107835  2.050264  4.060054  2.289896
   O ( 10)  1.209505  3.364175  4.288433  3.485228  2.248092  4.566350
   H ( 11)  1.888463  3.529454  3.995640  3.135634  0.971581  4.599220
             H (  7)   H (  8)   H (  9)   O ( 10)
   H (  8)  3.645480
   H (  9)  2.845776  3.518110
   O ( 10)  3.522170  2.037379  3.738831
   H ( 11)  2.527716  2.815034  4.410466  2.332999
 
 A cutoff of  1.0D-12 yielded   2835 shell pairs
 There are     30081 function pairs (     37517 Cartesian)
 Smallest overlap matrix eigenvalue = 3.52E-04
 Guess from superposition of atomic densities
 Warning:  Energy on first SCF cycle will be non-variational
 SAD guess density has 49.000000 electrons

 -----------------------------------------------------------------------
  General SCF calculation program by
  Eric Jon Sundstrom, Paul Horn, Yuezhi Mao, Dmitri Zuev, Alec White,
  David Stuck, Shaama M.S., Shane Yost, Joonho Lee, David Small,
  Daniel Levine, Susi Lehtola, Hugh Burton, Evgeny Epifanovsky,
  Bang C. Huynh
 -----------------------------------------------------------------------
 Exchange:     0.1500 Hartree-Fock + 1.0000 wB97M-V + LR-HF
 Correlation:  1.0000 wB97M-V
 Using SG-2 standard quadrature grid
 Nonlocal Correlation:  VV10 with C = 0.0100 and b = 6.00 and scale = 1.00000
 Grid used for NLC:  SG-1 standard quadrature
 using 8 threads for integral computing
 -------------------------------------------------------
 OpenMP Integral computing Module                
 Release: version 1.0, May 2013, Q-Chem Inc. Pittsburgh 
 -------------------------------------------------------
 
 Citation of the SMD model:
 Marenich, A.V.; Cramer, C.J.; Truhlar, D.G.
 J. Phys. Chem. B 2009, 113, 6378-6396.
 iSolventCode=           1
 Solvent: water                                                           
 
 vradii
            1           2           3           4           5           6
    1   1.8500000   1.8500000   1.5200000   1.5200000   1.5200000   1.2000000
            7           8           9          10          11
    1   1.2000000   1.2000000   1.2000000   1.5200000   1.2000000
 -------------------------------------------------------
 OpenMP BLAS3 based DFT computing Module                
 Release: version 1.0, May 2013, Q-Chem Inc. Pittsburgh 
 -------------------------------------------------------
 A unrestricted SCF calculation will be
 performed using DIIS, GDM
 SCF converges when RMS gradient is below 1.0e-07
 ---------------------------------------
  Cycle       Energy         DIIS error
 ---------------------------------------
    1    -380.9018035235      1.57e-02  
    2    -379.9472304927      2.44e-03  Done DIIS. Switching to GDM
 ---------------------------------------
  Cycle       Energy        RMS Gradient
 ---------------------------------------
    1    -379.9472304927      1.13e-01   Descent step
    2    -380.0867166590      3.45e-02   Normal BFGS step
    3    -380.1003560708      1.90e-02   Normal BFGS step
    4    -380.1016415586      1.23e-02   Normal BFGS step
    5    -380.1025925248      3.77e-03   Normal BFGS step
    6    -380.1026630799      1.80e-03   Normal BFGS step
    7    -380.1026758252      1.47e-04   Normal BFGS step
    8    -380.1026762955      7.82e-05   Normal BFGS step
    9    -380.1026764789      3.76e-05   Normal BFGS step
   10    -380.1026764993      1.77e-05   Normal BFGS step
   11    -380.1026765047      8.89e-06   Normal BFGS step
   12    -380.1026765053      3.03e-06   Normal BFGS step
   13    -380.1026765053      1.11e-06   Normal BFGS step
   14    -380.1026765054      5.15e-07   Normal BFGS step
   15    -380.1026765054      3.25e-07   Normal BFGS step
   16    -380.1026765054      9.26e-08  Convergence criterion met
 ---------------------------------------
 SCF time:   CPU 418.99s  wall 53.00s 
<S^2> =          0.752367273
(3)  G-ENP(liq) elect-nuc-pol free energy of system     -380.102676505 a.u.
(4)  G-CDS(liq) cavity-dispersion-solvent structure 
     free energy                                                5.9496 kcal/mol
(6)  G-S(liq) free energy of system                     -380.093195257 a.u.
 SCF   energy in the final basis set =     -380.0931952574
 Total energy in the final basis set =     -380.0931952574
 
 --------------------------------------------------------------
 
                    Orbital Energies (a.u.)
 --------------------------------------------------------------
 
 Alpha MOs
 -- Occupied --
-19.3864 -19.3651 -19.3646 -19.3371 -10.4844 -10.4346  -1.2475  -1.2202
 -1.1598  -1.1560  -0.7864  -0.7782  -0.6752  -0.6333  -0.6167  -0.6129
 -0.5837  -0.5485  -0.5161  -0.5032  -0.4902  -0.4490  -0.4422  -0.4061
 -0.2639
 -- Virtual --
  0.0301   0.0410   0.0506   0.0548   0.0700   0.0874   0.0915   0.0989
  0.1129   0.1310   0.1365   0.1460   0.1621   0.1741   0.1967   0.2142
  0.2265   0.2425   0.2477   0.2554   0.2675   0.2804   0.2885   0.2973
  0.2981   0.3214   0.3260   0.3282   0.3374   0.3409   0.3425   0.3628
  0.3748   0.4008   0.4104   0.4152   0.4450   0.4578   0.4920   0.5769
  0.5792   0.5880   0.5963   0.6188   0.6360   0.6667   0.6697   0.6943
  0.7074   0.7166   0.7498   0.7706   0.7999   0.8109   0.8365   0.8514
  0.8706   0.9148   0.9506   0.9652   0.9827   1.0491   1.0507   1.0877
  1.0959   1.1041   1.1227   1.1260   1.1413   1.1588   1.1626   1.1771
  1.1907   1.1984   1.2213   1.2356   1.2677   1.2852   1.3072   1.3400
  1.3645   1.4192   1.4363   1.4783   1.4940   1.5135   1.5400   1.5780
  1.5849   1.6313   1.6715   1.6753   1.7246   1.7696   1.8282   1.8544
  1.8713   1.9217   1.9550   2.0144   2.0539   2.1316   2.1452   2.1516
  2.2492   2.2593   2.3054   2.3306   2.3983   2.4159   2.4219   2.4947
  2.5428   2.5861   2.7265   2.7530   2.8079   2.8505   2.8912   2.9226
  3.0349   3.0770   3.0922   3.1022   3.1426   3.2404   3.2451   3.2742
  3.2868   3.2976   3.3544   3.3558   3.4122   3.4407   3.4490   3.4958
  3.5033   3.5518   3.6125   3.6256   3.6757   3.7047   3.7673   3.7979
  3.8181   3.8443   3.8524   3.8725   3.9100   3.9120   4.0288   4.1242
  4.1322   4.2026   4.2222   4.2396   4.2895   4.3383   4.3951   4.4236
  4.4702   5.0546   5.1337   5.1476   5.1753   5.1816   5.1923   5.1981
  5.2046   5.2133   5.2490   5.2540   5.2587   5.2826   5.2967   5.3336
  5.3982   5.4178   5.4260   5.4950   5.5140   5.5178   5.5922   5.6209
  5.6310   5.6368   5.7140   5.9179   5.9260   5.9432   5.9805   6.0292
  6.0621   6.2872   6.4082   6.4912   6.7032   6.8083   6.9121   6.9510
  7.0278   7.0367   7.0606   7.0701   7.1586   7.2099   7.2406   7.2568
  7.2723   7.2765   7.3040   7.3165   7.3357   7.3597   7.3902   7.5745
  7.6023   7.6740   7.7048   7.7433   7.7653   7.7987   7.8206  24.7869
 25.1318  50.5266  50.5537  50.5906  50.7326
 
 Beta MOs
 -- Occupied --
-19.3863 -19.3616 -19.3612 -19.3365 -10.4844 -10.4218  -1.2471  -1.2105
 -1.1590  -1.1479  -0.7799  -0.7658  -0.6681  -0.6325  -0.6160  -0.6004
 -0.5734  -0.5282  -0.5156  -0.4884  -0.4798  -0.4406  -0.4289  -0.4053
 -- Virtual --
  0.0292   0.0386   0.0422   0.0503   0.0549   0.0716   0.0914   0.0966
  0.1024   0.1129   0.1330   0.1366   0.1459   0.1647   0.1745   0.1974
  0.2151   0.2273   0.2453   0.2495   0.2562   0.2681   0.2808   0.2892
  0.2981   0.3018   0.3226   0.3260   0.3297   0.3375   0.3429   0.3514
  0.3642   0.3769   0.4071   0.4130   0.4234   0.4468   0.4590   0.4926
  0.5794   0.5814   0.5951   0.6082   0.6215   0.6377   0.6716   0.6752
  0.7006   0.7164   0.7260   0.7554   0.7738   0.8015   0.8225   0.8390
  0.8540   0.8728   0.9202   0.9530   0.9669   0.9916   1.0504   1.0541
  1.0905   1.0986   1.1131   1.1256   1.1292   1.1428   1.1604   1.1640
  1.1820   1.1917   1.2013   1.2261   1.2434   1.2735   1.2880   1.3152
  1.3454   1.3716   1.4226   1.4428   1.4813   1.4986   1.5169   1.5414
  1.5797   1.6017   1.6356   1.6732   1.6779   1.7301   1.7726   1.8304
  1.8598   1.8723   1.9284   1.9662   2.0223   2.0569   2.1347   2.1471
  2.1595   2.2562   2.2659   2.3076   2.3391   2.4100   2.4187   2.4258
  2.4965   2.5594   2.5971   2.7348   2.7654   2.8219   2.8569   2.9018
  2.9513   3.0722   3.0978   3.1046   3.1445   3.1585   3.2526   3.2685
  3.2877   3.3081   3.3310   3.3746   3.3881   3.4288   3.4474   3.4603
  3.5379   3.5563   3.5717   3.6171   3.6269   3.7116   3.7362   3.7774
  3.8050   3.8290   3.8519   3.8614   3.8860   3.9174   3.9418   4.0299
  4.1349   4.1425   4.2042   4.2275   4.2500   4.3006   4.3395   4.4173
  4.4466   4.4715   5.0554   5.1350   5.1559   5.1844   5.1941   5.1996
  5.2117   5.2152   5.2229   5.2561   5.2610   5.2668   5.2909   5.3000
  5.3558   5.4083   5.4204   5.4320   5.5052   5.5173   5.5193   5.5996
  5.6215   5.6358   5.6397   5.7290   5.9250   5.9357   5.9543   5.9807
  6.0432   6.0628   6.2975   6.4096   6.5074   6.7034   6.8197   6.9143
  6.9532   7.0382   7.0437   7.0631   7.0794   7.1592   7.2183   7.2454
  7.2606   7.2788   7.2877   7.3146   7.3256   7.3426   7.3665   7.3921
  7.5822   7.6034   7.6768   7.7102   7.7500   7.7658   7.8015   7.8250
 24.7986  25.1318  50.5295  50.5539  50.5935  50.7330
 --------------------------------------------------------------
 
          Ground-State Mulliken Net Atomic Charges

     Atom                 Charge (a.u.)    Spin (a.u.)
  --------------------------------------------------------
      1 C                     0.067697      -0.000339
      2 C                    -0.161539       0.839430
      3 O                    -0.363905       0.081993
      4 O                    -0.362902       0.068970
      5 O                    -0.283663      -0.001231
      6 H                     0.336876      -0.006363
      7 H                     0.340949      -0.002872
      8 H                     0.271280      -0.002840
      9 H                     0.245530       0.005142
     10 O                    -0.448147       0.017940
     11 H                     0.357823       0.000170
  --------------------------------------------------------
  Sum of atomic charges =     0.000000
  Sum of spin   charges =     1.000000

 -----------------------------------------------------------------
                    Cartesian Multipole Moments
 -----------------------------------------------------------------
    Charge (ESU x 10^10)
                -0.0000
    Dipole Moment (Debye)
         X       1.1768      Y      -3.1409      Z       0.3729
       Tot       3.3748
    Quadrupole Moments (Debye-Ang)
        XX     -30.5539     XY       1.3307     YY     -41.8548
        XZ      -8.5265     YZ      -2.5974     ZZ     -35.8026
    Octopole Moments (Debye-Ang^2)
       XXX    -110.0993    XXY      -0.0741    XYY     -49.2771
       YYY     -55.4347    XXZ      62.4740    XYZ     -16.9101
       YYZ      92.1543    XZZ       5.1350    YZZ      13.6182
       ZZZ     238.3835
    Hexadecapole Moments (Debye-Ang^3)
      XXXX    -586.9597   XXXY     -76.6985   XXYY    -160.5522
      XYYY    -141.4991   YYYY    -360.0596   XXXZ     170.0499
      XXYZ     -45.7055   XYYZ      66.9726   YYYZ      25.5157
      XXZZ    -236.6191   XYZZ      29.5382   YYZZ    -306.3969
      XZZZ      10.2697   YZZZ     -82.0014   ZZZZ   -1268.8363
 -----------------------------------------------------------------
 Calculating analytic gradient of the SCF energy
 Gradient of CDS energy
            1           2           3           4           5           6
    1   0.0020325   0.0005810  -0.0013505  -0.0003041  -0.0019526   0.0001169
    2   0.0006896  -0.0022862   0.0053792  -0.0030014   0.0009613  -0.0005519
    3  -0.0011355  -0.0049750   0.0005975   0.0043302   0.0024251   0.0000700
            7           8           9          10          11
    1   0.0000352  -0.0000791   0.0000864   0.0005107   0.0003237
    2  -0.0000254  -0.0001025  -0.0000157  -0.0011674   0.0001203
    3  -0.0003868  -0.0002340  -0.0000445  -0.0003976  -0.0002494
 Gradient of SCF Energy
            1           2           3           4           5           6
    1   0.0013846   0.0066312   0.0034864  -0.0146147   0.0005560  -0.0033485
    2   0.0089456   0.0017599   0.0066792   0.0037493  -0.0152692  -0.0082935
    3  -0.0065808  -0.0044398  -0.0163186   0.0051129   0.0116852   0.0158628
            7           8           9          10          11
    1   0.0131642  -0.0005304  -0.0048464  -0.0037174   0.0018351
    2  -0.0004676  -0.0083199  -0.0016166   0.0036441   0.0091887
    3  -0.0048582   0.0057109   0.0044271   0.0033952  -0.0139968
 Max gradient component =       1.632E-02
 RMS gradient           =       8.049E-03
 Computing fast CPCM-SWIG gradient
 Updating gradient with PCM contributions...
 -- total gradient after adding PCM contribution --
---------------------------------------------------
  Atom         X              Y              Z     
---------------------------------------------------
   1      -0.000032       0.000016       0.000062
   2      -0.000024       0.000007       0.000054
   3       0.000009      -0.000019       0.000024
   4       0.000040       0.000036      -0.000087
   5       0.000013      -0.000036      -0.000024
   6      -0.000030       0.000011      -0.000006
   7       0.000014      -0.000040       0.000007
   8      -0.000035       0.000028       0.000019
   9       0.000014       0.000015      -0.000041
  10       0.000003      -0.000013      -0.000028
  11       0.000027      -0.000006       0.000020
---------------------------------------------------
 Number of fixed atoms: 0
 Gradient time:  CPU 59.33 s  wall 9.68 s
 ######################################################
 ######################################################
 # Starting finite difference calculation for IDERIV  #
 Finite diff step size:  1.88973e-03 a.u.
 ----------------------------------------------------------------
             Standard Nuclear Orientation (Angstroms)
    I     Atom           X                Y                Z
 ----------------------------------------------------------------
    1      C       2.1856777000     0.9027811000    -1.3249809000
    2      C      -0.1591031000    -0.3642855000    -2.5386952000
    3      O       0.2376495000    -1.6726042000    -2.7025111000
    4      O       0.0019772000     0.3772120000    -3.6728694000
    5      O       2.8724641000     0.5098424000    -2.3966387000
    6      H       0.0631989000    -2.1499356000    -1.8818740000
    7      H       0.8797612000     0.2060870000    -4.0417697000
    8      H       2.0838842000     0.0909999000    -0.6028209000
    9      H      -1.1113566000    -0.1912311000    -2.0477713000
   10      O       1.7655028000     2.0250668000    -1.1586363000
   11      H       2.9413161000     1.2522535000    -3.0195787000
 ----------------------------------------------------------------
 Nuclear Repulsion Energy =         237.83823483 hartrees
 There are       25 alpha and       24 beta electrons
 Discretize the solute cavity surface with Lebedev spheres
	Using 110 Lebedev grid points for each H atom
	Using 194 Lebedev grid points for other atoms
	Atomic van der Waals radii will be scaled by 1.20
 Remove points where switching function is < 1.0e-08
 Keep 996 surface tesserae and discard 718 interior tesserae
 Molecular Surface Area = 120.093 Angst**2

                       Distance Matrix (Angstroms)
             C (  1)   C (  2)   O (  3)   O (  4)   O (  5)   H (  6)
   C (  2)  2.928576
   O (  3)  3.510700  1.376934
   O (  4)  3.249208  1.364594  2.280106
   O (  5)  1.332114  3.158272  3.434950  3.144209
   H (  6)  3.759538  1.915562  0.965258  3.098046  3.902739
   H (  7)  3.093823  1.914105  2.394870  0.967407  2.601843  3.298904
   H (  8)  1.091268  2.997647  3.305689  3.720410  2.003764  3.277337
   H (  9)  3.548200  1.085238  2.107835  2.050264  4.060054  2.289896
   O ( 10)  1.209852  3.364175  4.288433  3.485228  2.248092  4.566350
   H ( 11)  1.888063  3.529454  3.995640  3.135634  0.971581  4.599220
             H (  7)   H (  8)   H (  9)   O ( 10)
   H (  8)  3.645480
   H (  9)  2.845776  3.518110
   O ( 10)  3.522170  2.037379  3.738831
   H ( 11)  2.527716  2.815034  4.410466  2.332999
 
 Requested basis set is 6-311++G(2df,2p)
 There are 78 shells and 254 basis functions
 A cutoff of  1.0D-12 yielded   2835 shell pairs
 There are     30081 function pairs (     37517 Cartesian)
 Smallest overlap matrix eigenvalue = 3.53E-04
 Guess MOs from SCF MO coefficient file

 -----------------------------------------------------------------------
  General SCF calculation program by
  Eric Jon Sundstrom, Paul Horn, Yuezhi Mao, Dmitri Zuev, Alec White,
  David Stuck, Shaama M.S., Shane Yost, Joonho Lee, David Small,
  Daniel Levine, Susi Lehtola, Hugh Burton, Evgeny Epifanovsky,
  Bang C. Huynh
 -----------------------------------------------------------------------
 Exchange:     0.1500 Hartree-Fock + 1.0000 wB97M-V + LR-HF
 Correlation:  1.0000 wB97M-V
 Using SG-2 standard quadrature grid
 Nonlocal Correlation:  VV10 with C = 0.0100 and b = 6.00 and scale = 1.00000
 Grid used for NLC:  SG-1 standard quadrature
 
 Citation of the SMD model:
 Marenich, A.V.; Cramer, C.J.; Truhlar, D.G.
 J. Phys. Chem. B 2009, 113, 6378-6396.
 iSolventCode=           1
 Solvent: water                                                           
 
 vradii
            1           2           3           4           5           6
    1   1.8500000   1.8500000   1.5200000   1.5200000   1.5200000   1.2000000
            7           8           9          10          11
    1   1.2000000   1.2000000   1.2000000   1.5200000   1.2000000
 -------------------------------------------------------
 OpenMP BLAS3 based DFT computing Module                
 Release: version 1.0, May 2013, Q-Chem Inc. Pittsburgh 
 -------------------------------------------------------
 A unrestricted SCF calculation will be
 performed using Roothaan-Hall, DIIS, GDM
 SCF converges when RMS gradient is below 1.0e-07
 ---------------------------------------
  Cycle       Energy         DIIS error
 ---------------------------------------
    1    -380.0606173023      3.35e-04  Roothaan Step
 ---------------------------------------
  Cycle       Energy         DIIS error
 ---------------------------------------
    1    -380.0951568153      4.08e-04  
    2    -380.0985570220      4.42e-04  Done DIIS. Switching to GDM
 ---------------------------------------
  Cycle       Energy        RMS Gradient
 ---------------------------------------
    1    -380.0985570220      2.10e-02   Normal BFGS step
    2    -380.0965651710      3.46e-02  Line search: overstep
    3    -380.1024881345      3.74e-03   Normal BFGS step
    4    -380.1026458275      8.18e-04   Normal BFGS step
    5    -380.1026715053      5.04e-04   Normal BFGS step
    6    -380.1026793223      1.12e-04   Normal BFGS step
    7    -380.1026797416      6.70e-05   Normal BFGS step
    8    -380.1026798361      2.88e-05   Normal BFGS step
    9    -380.1026798460      7.59e-06   Normal BFGS step
   10    -380.1026798474      7.72e-06   Normal BFGS step
   11    -380.1026798480      3.74e-06   Normal BFGS step
   12    -380.1026798481      1.78e-06   Normal BFGS step
   13    -380.1026798481      4.23e-07   Normal BFGS step
   14    -380.1026798481      2.41e-07   Normal BFGS step
   15    -380.1026798481      6.71e-08  Convergence criterion met
 ---------------------------------------
 SCF time:   CPU 426.35s  wall 54.00s 
<S^2> =          0.752367238
(3)  G-ENP(liq) elect-nuc-pol free energy of system     -380.102679848 a.u.
(4)  G-CDS(liq) cavity-dispersion-solvent structure 
     free energy                                                5.9520 kcal/mol
(6)  G-S(liq) free energy of system                     -380.093194772 a.u.
 SCF   energy in the final basis set =     -380.0931947718
 Total energy in the final basis set =     -380.0931947718
 
 --------------------------------------------------------------
 
                    Orbital Energies (a.u.)
 --------------------------------------------------------------
 
 Alpha MOs
 -- Occupied --
-19.3865 -19.3651 -19.3646 -19.3371 -10.4844 -10.4345  -1.2476  -1.2202
 -1.1597  -1.1560  -0.7864  -0.7783  -0.6752  -0.6333  -0.6167  -0.6129
 -0.5837  -0.5485  -0.5160  -0.5032  -0.4902  -0.4490  -0.4422  -0.4060
 -0.2639
 -- Virtual --
  0.0301   0.0410   0.0506   0.0548   0.0700   0.0874   0.0915   0.0989
  0.1129   0.1310   0.1365   0.1460   0.1621   0.1741   0.1967   0.2142
  0.2265   0.2425   0.2477   0.2554   0.2675   0.2804   0.2885   0.2972
  0.2981   0.3214   0.3260   0.3282   0.3374   0.3408   0.3425   0.3628
  0.3748   0.4008   0.4106   0.4152   0.4450   0.4578   0.4919   0.5768
  0.5792   0.5880   0.5963   0.6188   0.6359   0.6668   0.6697   0.6943
  0.7074   0.7166   0.7499   0.7705   0.7997   0.8109   0.8364   0.8514
  0.8706   0.9149   0.9506   0.9652   0.9827   1.0491   1.0508   1.0876
  1.0959   1.1041   1.1226   1.1260   1.1412   1.1587   1.1627   1.1771
  1.1906   1.1984   1.2213   1.2357   1.2676   1.2851   1.3073   1.3400
  1.3645   1.4192   1.4362   1.4782   1.4940   1.5135   1.5400   1.5778
  1.5849   1.6312   1.6716   1.6753   1.7246   1.7694   1.8281   1.8544
  1.8714   1.9217   1.9550   2.0144   2.0540   2.1312   2.1453   2.1516
  2.2492   2.2593   2.3054   2.3306   2.3983   2.4159   2.4219   2.4945
  2.5428   2.5863   2.7267   2.7531   2.8078   2.8505   2.8912   2.9226
  3.0348   3.0771   3.0921   3.1021   3.1425   3.2405   3.2453   3.2742
  3.2869   3.2977   3.3544   3.3557   3.4122   3.4410   3.4490   3.4959
  3.5033   3.5518   3.6122   3.6256   3.6757   3.7046   3.7674   3.7980
  3.8185   3.8440   3.8525   3.8725   3.9100   3.9120   4.0285   4.1242
  4.1322   4.2022   4.2221   4.2395   4.2894   4.3382   4.3951   4.4236
  4.4701   5.0546   5.1338   5.1476   5.1753   5.1816   5.1924   5.1981
  5.2046   5.2133   5.2490   5.2539   5.2588   5.2826   5.2966   5.3336
  5.3982   5.4177   5.4260   5.4950   5.5140   5.5176   5.5922   5.6208
  5.6310   5.6368   5.7140   5.9179   5.9258   5.9432   5.9808   6.0293
  6.0628   6.2872   6.4073   6.4912   6.7037   6.8083   6.9121   6.9509
  7.0278   7.0367   7.0600   7.0700   7.1585   7.2099   7.2407   7.2568
  7.2722   7.2766   7.3040   7.3166   7.3356   7.3599   7.3905   7.5745
  7.6023   7.6739   7.7047   7.7433   7.7654   7.7987   7.8206  24.7869
 25.1322  50.5266  50.5538  50.5906  50.7323
 
 Beta MOs
 -- Occupied --
-19.3864 -19.3616 -19.3612 -19.3365 -10.4845 -10.4217  -1.2472  -1.2105
 -1.1589  -1.1479  -0.7800  -0.7658  -0.6681  -0.6326  -0.6160  -0.6004
 -0.5734  -0.5282  -0.5156  -0.4884  -0.4798  -0.4405  -0.4289  -0.4052
 -- Virtual --
  0.0292   0.0387   0.0422   0.0503   0.0549   0.0716   0.0914   0.0966
  0.1024   0.1129   0.1330   0.1366   0.1459   0.1647   0.1744   0.1974
  0.2152   0.2273   0.2453   0.2495   0.2562   0.2681   0.2808   0.2892
  0.2981   0.3018   0.3226   0.3260   0.3297   0.3375   0.3428   0.3514
  0.3642   0.3769   0.4072   0.4131   0.4234   0.4468   0.4591   0.4926
  0.5793   0.5814   0.5951   0.6081   0.6215   0.6377   0.6716   0.6752
  0.7006   0.7164   0.7260   0.7555   0.7737   0.8014   0.8226   0.8389
  0.8540   0.8727   0.9203   0.9530   0.9669   0.9915   1.0504   1.0542
  1.0905   1.0986   1.1131   1.1256   1.1290   1.1427   1.1603   1.1641
  1.1820   1.1917   1.2013   1.2262   1.2434   1.2735   1.2880   1.3153
  1.3454   1.3716   1.4226   1.4427   1.4812   1.4985   1.5169   1.5414
  1.5795   1.6017   1.6355   1.6732   1.6779   1.7301   1.7724   1.8303
  1.8598   1.8723   1.9284   1.9663   2.0223   2.0570   2.1343   2.1473
  2.1595   2.2562   2.2659   2.3076   2.3391   2.4100   2.4188   2.4258
  2.4964   2.5594   2.5973   2.7350   2.7654   2.8218   2.8570   2.9016
  2.9513   3.0721   3.0977   3.1047   3.1445   3.1585   3.2526   3.2687
  3.2878   3.3081   3.3311   3.3746   3.3881   3.4286   3.4477   3.4604
  3.5379   3.5563   3.5717   3.6168   3.6269   3.7115   3.7361   3.7774
  3.8051   3.8294   3.8517   3.8614   3.8860   3.9174   3.9418   4.0296
  4.1349   4.1425   4.2037   4.2273   4.2499   4.3006   4.3394   4.4173
  4.4466   4.4714   5.0554   5.1350   5.1559   5.1844   5.1941   5.1996
  5.2117   5.2152   5.2229   5.2561   5.2609   5.2668   5.2909   5.2999
  5.3558   5.4083   5.4203   5.4320   5.5053   5.5172   5.5193   5.5996
  5.6214   5.6358   5.6397   5.7290   5.9248   5.9356   5.9543   5.9811
  6.0432   6.0634   6.2975   6.4086   6.5074   6.7039   6.8197   6.9143
  6.9530   7.0382   7.0437   7.0625   7.0793   7.1590   7.2183   7.2455
  7.2606   7.2788   7.2877   7.3145   7.3256   7.3425   7.3667   7.3924
  7.5822   7.6034   7.6767   7.7102   7.7500   7.7659   7.8015   7.8249
 24.7987  25.1323  50.5295  50.5540  50.5935  50.7327
 --------------------------------------------------------------
 
          Ground-State Mulliken Net Atomic Charges

     Atom                 Charge (a.u.)    Spin (a.u.)
  --------------------------------------------------------
      1 C                     0.067757      -0.000395
      2 C                    -0.161713       0.839578
      3 O                    -0.363913       0.081984
      4 O                    -0.362893       0.068962
      5 O                    -0.283075      -0.001239
      6 H                     0.336881      -0.006367
      7 H                     0.340956      -0.002873
      8 H                     0.271175      -0.002841
      9 H                     0.245526       0.005136
     10 O                    -0.448604       0.017885
     11 H                     0.357903       0.000169
  --------------------------------------------------------
  Sum of atomic charges =    -0.000000
  Sum of spin   charges =     1.000000

 -----------------------------------------------------------------
                    Cartesian Multipole Moments
 -----------------------------------------------------------------
    Charge (ESU x 10^10)
                -0.0000
    Dipole Moment (Debye)
         X       1.1829      Y      -3.1436      Z       0.3697
       Tot       3.3791
    Quadrupole Moments (Debye-Ang)
        XX     -30.5290     XY       1.3291     YY     -41.8641
        XZ      -8.5458     YZ      -2.5966     ZZ     -35.7919
    Octopole Moments (Debye-Ang^2)
       XXX    -110.0204    XXY      -0.0675    XYY     -49.2937
       YYY     -55.4591    XXZ      62.4087    XYZ     -16.9153
       YYZ      92.1631    XZZ       5.1825    YZZ      13.6204
       ZZZ     238.3485
    Hexadecapole Moments (Debye-Ang^3)
      XXXX    -586.7586   XXXY     -76.6720   XXYY    -160.5884
      XYYY    -141.5591   YYYY    -360.1400   XXXZ     169.8435
      XXYZ     -45.7364   XYYZ      66.9808   YYYZ      25.5391
      XXZZ    -236.4746   XYZZ      29.5517   YYZZ    -306.4106
      XZZZ      10.1325   YZZZ     -82.0176   ZZZZ   -1268.7252
 -----------------------------------------------------------------
 Calculating analytic gradient of the SCF energy
 Gradient of CDS energy
            1           2           3           4           5           6
    1   0.0020192   0.0005810  -0.0013507  -0.0003041  -0.0019400   0.0001169
    2   0.0006963  -0.0022861   0.0053792  -0.0030014   0.0009572  -0.0005519
    3  -0.0011211  -0.0049748   0.0005975   0.0043303   0.0024103   0.0000700
            7           8           9          10          11
    1   0.0000350  -0.0000801   0.0000864   0.0005134   0.0003229
    2  -0.0000253  -0.0001012  -0.0000157  -0.0011716   0.0001204
    3  -0.0003869  -0.0002332  -0.0000445  -0.0003983  -0.0002493
 Gradient of SCF Energy
            1           2           3           4           5           6
    1   0.0019730   0.0066336   0.0034805  -0.0146266   0.0003463  -0.0033467
    2   0.0086214   0.0017625   0.0066866   0.0037491  -0.0152466  -0.0082937
    3  -0.0068353  -0.0044459  -0.0163133   0.0051232   0.0118404   0.0158611
            7           8           9          10          11
    1   0.0131768  -0.0006540  -0.0048380  -0.0039847   0.0018398
    2  -0.0004704  -0.0083698  -0.0016180   0.0039889   0.0091900
    3  -0.0048600   0.0057356   0.0044250   0.0034611  -0.0139918
 Max gradient component =       1.631E-02
 RMS gradient           =       8.066E-03
 Computing fast CPCM-SWIG gradient
 Updating gradient with PCM contributions...
 -- total gradient after adding PCM contribution --
---------------------------------------------------
  Atom         X              Y              Z     
---------------------------------------------------
   1       0.000546      -0.000318      -0.000201
   2      -0.000015       0.000005       0.000042
   3       0.000007      -0.000008       0.000027
   4       0.000035       0.000033      -0.000081
   5      -0.000185      -0.000001       0.000126
   6      -0.000031       0.000010      -0.000005
   7       0.000016      -0.000041       0.000008
   8      -0.000152      -0.000018       0.000049
   9       0.000016       0.000016      -0.000038
  10      -0.000260       0.000331       0.000032
  11       0.000022      -0.000010       0.000042
---------------------------------------------------
 Number of fixed atoms: 0
 Gradient time:  CPU 59.45 s  wall 9.07 s
 ----------------------------------------------------------------
             Standard Nuclear Orientation (Angstroms)
    I     Atom           X                Y                Z
 ----------------------------------------------------------------
    1      C       2.1836777000     0.9027811000    -1.3249809000
    2      C      -0.1591031000    -0.3642855000    -2.5386952000
    3      O       0.2376495000    -1.6726042000    -2.7025111000
    4      O       0.0019772000     0.3772120000    -3.6728694000
    5      O       2.8724641000     0.5098424000    -2.3966387000
    6      H       0.0631989000    -2.1499356000    -1.8818740000
    7      H       0.8797612000     0.2060870000    -4.0417697000
    8      H       2.0838842000     0.0909999000    -0.6028209000
    9      H      -1.1113566000    -0.1912311000    -2.0477713000
   10      O       1.7655028000     2.0250668000    -1.1586363000
   11      H       2.9413161000     1.2522535000    -3.0195787000
 ----------------------------------------------------------------
 Nuclear Repulsion Energy =         237.84536745 hartrees
 There are       25 alpha and       24 beta electrons
 Discretize the solute cavity surface with Lebedev spheres
	Using 110 Lebedev grid points for each H atom
	Using 194 Lebedev grid points for other atoms
	Atomic van der Waals radii will be scaled by 1.20
 Remove points where switching function is < 1.0e-08
 Keep 994 surface tesserae and discard 720 interior tesserae
 Molecular Surface Area = 120.084 Angst**2

                       Distance Matrix (Angstroms)
             C (  1)   C (  2)   O (  3)   O (  4)   O (  5)   H (  6)
   C (  2)  2.926975
   O (  3)  3.509590  1.376934
   O (  4)  3.247864  1.364594  2.280106
   O (  5)  1.333146  3.158272  3.434950  3.144209
   H (  6)  3.758409  1.915562  0.965258  3.098046  3.902739
   H (  7)  3.092980  1.914105  2.394870  0.967407  2.601843  3.298904
   H (  8)  1.091083  2.997647  3.305689  3.720410  2.003764  3.277337
   H (  9)  3.546342  1.085238  2.107835  2.050264  4.060054  2.289896
   O ( 10)  1.209159  3.364175  4.288433  3.485228  2.248092  4.566350
   H ( 11)  1.888864  3.529454  3.995640  3.135634  0.971581  4.599220
             H (  7)   H (  8)   H (  9)   O ( 10)
   H (  8)  3.645480
   H (  9)  2.845776  3.518110
   O ( 10)  3.522170  2.037379  3.738831
   H ( 11)  2.527716  2.815034  4.410466  2.332999
 
 Requested basis set is 6-311++G(2df,2p)
 There are 78 shells and 254 basis functions
 A cutoff of  1.0D-12 yielded   2835 shell pairs
 There are     30081 function pairs (     37517 Cartesian)
 Smallest overlap matrix eigenvalue = 3.52E-04
 Guess MOs from SCF MO coefficient file

 -----------------------------------------------------------------------
  General SCF calculation program by
  Eric Jon Sundstrom, Paul Horn, Yuezhi Mao, Dmitri Zuev, Alec White,
  David Stuck, Shaama M.S., Shane Yost, Joonho Lee, David Small,
  Daniel Levine, Susi Lehtola, Hugh Burton, Evgeny Epifanovsky,
  Bang C. Huynh
 -----------------------------------------------------------------------
 Exchange:     0.1500 Hartree-Fock + 1.0000 wB97M-V + LR-HF
 Correlation:  1.0000 wB97M-V
 Using SG-2 standard quadrature grid
 Nonlocal Correlation:  VV10 with C = 0.0100 and b = 6.00 and scale = 1.00000
 Grid used for NLC:  SG-1 standard quadrature
 
 Citation of the SMD model:
 Marenich, A.V.; Cramer, C.J.; Truhlar, D.G.
 J. Phys. Chem. B 2009, 113, 6378-6396.
 iSolventCode=           1
 Solvent: water                                                           
 
 vradii
            1           2           3           4           5           6
    1   1.8500000   1.8500000   1.5200000   1.5200000   1.5200000   1.2000000
            7           8           9          10          11
    1   1.2000000   1.2000000   1.2000000   1.5200000   1.2000000
 -------------------------------------------------------
 OpenMP BLAS3 based DFT computing Module                
 Release: version 1.0, May 2013, Q-Chem Inc. Pittsburgh 
 -------------------------------------------------------
 A unrestricted SCF calculation will be
 performed using Roothaan-Hall, DIIS, GDM
 SCF converges when RMS gradient is below 1.0e-07
 ---------------------------------------
  Cycle       Energy         DIIS error
 ---------------------------------------
    1    -380.0606130813      3.36e-04  Roothaan Step
 ---------------------------------------
  Cycle       Energy         DIIS error
 ---------------------------------------
    1    -380.0951944549      4.07e-04  
    2    -380.0986105106      4.39e-04  Done DIIS. Switching to GDM
 ---------------------------------------
  Cycle       Energy        RMS Gradient
 ---------------------------------------
    1    -380.0986105106      2.07e-02   Normal BFGS step
    2    -380.0966672424      3.41e-02  Line search: overstep
    3    -380.1024818703      3.70e-03   Normal BFGS step
    4    -380.1026383106      8.14e-04   Normal BFGS step
    5    -380.1026637615      5.09e-04   Normal BFGS step
    6    -380.1026715260      1.11e-04   Normal BFGS step
    7    -380.1026719421      6.58e-05   Normal BFGS step
    8    -380.1026720359      2.82e-05   Normal BFGS step
    9    -380.1026720457      7.56e-06   Normal BFGS step
   10    -380.1026720471      7.42e-06   Normal BFGS step
   11    -380.1026720477      3.56e-06   Normal BFGS step
   12    -380.1026720478      1.70e-06   Normal BFGS step
   13    -380.1026720478      4.04e-07   Normal BFGS step
   14    -380.1026720478      2.39e-07   Normal BFGS step
   15    -380.1026720478      7.18e-08  Convergence criterion met
 ---------------------------------------
 SCF time:   CPU 420.92s  wall 53.00s 
<S^2> =          0.752367308
(3)  G-ENP(liq) elect-nuc-pol free energy of system     -380.102672048 a.u.
(4)  G-CDS(liq) cavity-dispersion-solvent structure 
     free energy                                                5.9472 kcal/mol
(6)  G-S(liq) free energy of system                     -380.093194653 a.u.
 SCF   energy in the final basis set =     -380.0931946532
 Total energy in the final basis set =     -380.0931946532
 
 --------------------------------------------------------------
 
                    Orbital Energies (a.u.)
 --------------------------------------------------------------
 
 Alpha MOs
 -- Occupied --
-19.3862 -19.3651 -19.3646 -19.3372 -10.4844 -10.4346  -1.2474  -1.2202
 -1.1598  -1.1560  -0.7864  -0.7781  -0.6752  -0.6332  -0.6166  -0.6129
 -0.5837  -0.5484  -0.5161  -0.5032  -0.4902  -0.4490  -0.4423  -0.4061
 -0.2639
 -- Virtual --
  0.0301   0.0410   0.0506   0.0548   0.0700   0.0874   0.0915   0.0988
  0.1129   0.1310   0.1365   0.1460   0.1621   0.1741   0.1967   0.2142
  0.2265   0.2425   0.2477   0.2555   0.2675   0.2804   0.2885   0.2973
  0.2981   0.3214   0.3260   0.3283   0.3374   0.3409   0.3425   0.3628
  0.3747   0.4008   0.4102   0.4152   0.4450   0.4577   0.4920   0.5769
  0.5792   0.5880   0.5963   0.6189   0.6361   0.6667   0.6697   0.6944
  0.7074   0.7166   0.7497   0.7706   0.8000   0.8108   0.8365   0.8514
  0.8707   0.9148   0.9507   0.9652   0.9827   1.0490   1.0507   1.0877
  1.0960   1.1042   1.1229   1.1261   1.1413   1.1588   1.1626   1.1771
  1.1907   1.1985   1.2213   1.2356   1.2677   1.2852   1.3072   1.3400
  1.3646   1.4191   1.4363   1.4784   1.4940   1.5135   1.5401   1.5782
  1.5849   1.6314   1.6715   1.6752   1.7246   1.7697   1.8282   1.8544
  1.8713   1.9217   1.9549   2.0143   2.0537   2.1319   2.1450   2.1516
  2.2492   2.2593   2.3054   2.3306   2.3983   2.4158   2.4219   2.4948
  2.5428   2.5859   2.7264   2.7530   2.8079   2.8505   2.8912   2.9226
  3.0349   3.0769   3.0922   3.1022   3.1426   3.2404   3.2450   3.2742
  3.2867   3.2975   3.3544   3.3558   3.4123   3.4404   3.4490   3.4958
  3.5034   3.5518   3.6128   3.6255   3.6758   3.7049   3.7673   3.7978
  3.8177   3.8445   3.8524   3.8726   3.9099   3.9119   4.0292   4.1242
  4.1322   4.2030   4.2223   4.2397   4.2895   4.3384   4.3951   4.4236
  4.4702   5.0545   5.1337   5.1476   5.1753   5.1816   5.1923   5.1981
  5.2046   5.2133   5.2490   5.2540   5.2586   5.2826   5.2968   5.3336
  5.3982   5.4178   5.4260   5.4950   5.5140   5.5179   5.5922   5.6211
  5.6310   5.6368   5.7140   5.9179   5.9262   5.9433   5.9801   6.0292
  6.0615   6.2872   6.4091   6.4912   6.7027   6.8083   6.9121   6.9512
  7.0278   7.0367   7.0611   7.0703   7.1587   7.2099   7.2406   7.2567
  7.2724   7.2765   7.3041   7.3165   7.3357   7.3596   7.3899   7.5745
  7.6022   7.6741   7.7048   7.7433   7.7652   7.7988   7.8207  24.7869
 25.1313  50.5266  50.5535  50.5906  50.7329
 
 Beta MOs
 -- Occupied --
-19.3862 -19.3616 -19.3612 -19.3366 -10.4844 -10.4218  -1.2470  -1.2106
 -1.1591  -1.1480  -0.7798  -0.7658  -0.6681  -0.6325  -0.6160  -0.6004
 -0.5733  -0.5282  -0.5157  -0.4884  -0.4798  -0.4406  -0.4289  -0.4053
 -- Virtual --
  0.0292   0.0386   0.0421   0.0503   0.0549   0.0717   0.0914   0.0967
  0.1025   0.1129   0.1329   0.1366   0.1459   0.1647   0.1745   0.1974
  0.2151   0.2273   0.2453   0.2495   0.2562   0.2681   0.2808   0.2892
  0.2981   0.3018   0.3226   0.3260   0.3297   0.3375   0.3429   0.3514
  0.3642   0.3769   0.4070   0.4129   0.4234   0.4469   0.4590   0.4926
  0.5795   0.5814   0.5951   0.6082   0.6216   0.6378   0.6716   0.6752
  0.7007   0.7165   0.7260   0.7553   0.7738   0.8016   0.8225   0.8390
  0.8541   0.8728   0.9202   0.9531   0.9669   0.9916   1.0503   1.0541
  1.0905   1.0987   1.1131   1.1257   1.1294   1.1428   1.1604   1.1640
  1.1820   1.1918   1.2013   1.2261   1.2434   1.2736   1.2881   1.3152
  1.3454   1.3716   1.4226   1.4428   1.4814   1.4986   1.5170   1.5414
  1.5799   1.6017   1.6357   1.6731   1.6779   1.7301   1.7728   1.8305
  1.8598   1.8722   1.9284   1.9662   2.0222   2.0567   2.1351   2.1469
  2.1595   2.2561   2.2659   2.3077   2.3391   2.4100   2.4186   2.4259
  2.4967   2.5593   2.5970   2.7346   2.7654   2.8220   2.8568   2.9019
  2.9512   3.0722   3.0979   3.1045   3.1445   3.1586   3.2526   3.2683
  3.2877   3.3080   3.3309   3.3746   3.3881   3.4289   3.4470   3.4603
  3.5378   3.5563   3.5718   3.6174   3.6268   3.7116   3.7364   3.7774
  3.8048   3.8286   3.8521   3.8613   3.8861   3.9174   3.9418   4.0303
  4.1349   4.1425   4.2046   4.2277   4.2501   4.3007   4.3396   4.4173
  4.4466   4.4716   5.0553   5.1350   5.1559   5.1844   5.1941   5.1996
  5.2118   5.2153   5.2229   5.2560   5.2610   5.2668   5.2910   5.3001
  5.3558   5.4083   5.4204   5.4320   5.5052   5.5174   5.5193   5.5996
  5.6217   5.6358   5.6397   5.7290   5.9253   5.9357   5.9543   5.9804
  6.0431   6.0622   6.2975   6.4105   6.5074   6.7029   6.8197   6.9143
  6.9534   7.0383   7.0437   7.0638   7.0794   7.1593   7.2183   7.2454
  7.2605   7.2789   7.2877   7.3146   7.3255   7.3426   7.3663   7.3919
  7.5822   7.6034   7.6768   7.7102   7.7501   7.7658   7.8016   7.8250
 24.7986  25.1314  50.5294  50.5537  50.5935  50.7333
 --------------------------------------------------------------
 
          Ground-State Mulliken Net Atomic Charges

     Atom                 Charge (a.u.)    Spin (a.u.)
  --------------------------------------------------------
      1 C                     0.067636      -0.000284
      2 C                    -0.161365       0.839282
      3 O                    -0.363898       0.082002
      4 O                    -0.362910       0.068978
      5 O                    -0.284250      -0.001223
      6 H                     0.336872      -0.006359
      7 H                     0.340942      -0.002871
      8 H                     0.271384      -0.002840
      9 H                     0.245534       0.005147
     10 O                    -0.447689       0.017996
     11 H                     0.357743       0.000171
  --------------------------------------------------------
  Sum of atomic charges =     0.000000
  Sum of spin   charges =     1.000000

 -----------------------------------------------------------------
                    Cartesian Multipole Moments
 -----------------------------------------------------------------
    Charge (ESU x 10^10)
                -0.0000
    Dipole Moment (Debye)
         X       1.1707      Y      -3.1381      Z       0.3761
       Tot       3.3704
    Quadrupole Moments (Debye-Ang)
        XX     -30.5788     XY       1.3323     YY     -41.8456
        XZ      -8.5073     YZ      -2.5981     ZZ     -35.8133
    Octopole Moments (Debye-Ang^2)
       XXX    -110.1781    XXY      -0.0807    XYY     -49.2606
       YYY     -55.4104    XXZ      62.5394    XYZ     -16.9050
       YYZ      92.1456    XZZ       5.0875    YZZ      13.6159
       ZZZ     238.4185
    Hexadecapole Moments (Debye-Ang^3)
      XXXX    -587.1608   XXXY     -76.7251   XXYY    -160.5160
      XYYY    -141.4391   YYYY    -359.9792   XXXZ     170.2564
      XXYZ     -45.6747   XYYZ      66.9645   YYYZ      25.4923
      XXZZ    -236.7636   XYZZ      29.5247   YYZZ    -306.3832
      XZZZ      10.4071   YZZZ     -81.9851   ZZZZ   -1268.9475
 -----------------------------------------------------------------
 Calculating analytic gradient of the SCF energy
 Gradient of CDS energy
            1           2           3           4           5           6
    1   0.0020458   0.0005810  -0.0013503  -0.0003042  -0.0019653   0.0001169
    2   0.0006828  -0.0022863   0.0053793  -0.0030015   0.0009654  -0.0005519
    3  -0.0011499  -0.0049752   0.0005974   0.0043301   0.0024400   0.0000700
            7           8           9          10          11
    1   0.0000353  -0.0000781   0.0000864   0.0005080   0.0003245
    2  -0.0000255  -0.0001037  -0.0000157  -0.0011633   0.0001202
    3  -0.0003868  -0.0002347  -0.0000445  -0.0003969  -0.0002495
 Gradient of SCF Energy
            1           2           3           4           5           6
    1   0.0007971   0.0066287   0.0034923  -0.0146028   0.0007652  -0.0033502
    2   0.0092703   0.0017572   0.0066717   0.0037494  -0.0152913  -0.0082934
    3  -0.0063273  -0.0044337  -0.0163239   0.0051025   0.0115311   0.0158645
            7           8           9          10          11
    1   0.0131515  -0.0004070  -0.0048549  -0.0034504   0.0018305
    2  -0.0004647  -0.0082701  -0.0016151   0.0032986   0.0091874
    3  -0.0048563   0.0056865   0.0044291   0.0033292  -0.0140016
 Max gradient component =       1.632E-02
 RMS gradient           =       8.034E-03
 Computing fast CPCM-SWIG gradient
 Updating gradient with PCM contributions...
 -- total gradient after adding PCM contribution --
---------------------------------------------------
  Atom         X              Y              Z     
---------------------------------------------------
   1      -0.000608       0.000352       0.000324
   2      -0.000032       0.000010       0.000066
   3       0.000010      -0.000029       0.000021
   4       0.000044       0.000039      -0.000094
   5       0.000212      -0.000070      -0.000173
   6      -0.000030       0.000012      -0.000007
   7       0.000012      -0.000040       0.000007
   8       0.000083       0.000073      -0.000010
   9       0.000012       0.000013      -0.000044
  10       0.000265      -0.000357      -0.000088
  11       0.000032      -0.000002      -0.000002
---------------------------------------------------
 Number of fixed atoms: 0
 Gradient time:  CPU 58.89 s  wall 9.05 s
 ----------------------------------------------------------------
             Standard Nuclear Orientation (Angstroms)
    I     Atom           X                Y                Z
 ----------------------------------------------------------------
    1      C       2.1846777000     0.9037811000    -1.3249809000
    2      C      -0.1591031000    -0.3642855000    -2.5386952000
    3      O       0.2376495000    -1.6726042000    -2.7025111000
    4      O       0.0019772000     0.3772120000    -3.6728694000
    5      O       2.8724641000     0.5098424000    -2.3966387000
    6      H       0.0631989000    -2.1499356000    -1.8818740000
    7      H       0.8797612000     0.2060870000    -4.0417697000
    8      H       2.0838842000     0.0909999000    -0.6028209000
    9      H      -1.1113566000    -0.1912311000    -2.0477713000
   10      O       1.7655028000     2.0250668000    -1.1586363000
   11      H       2.9413161000     1.2522535000    -3.0195787000
 ----------------------------------------------------------------
 Nuclear Repulsion Energy =         237.84869102 hartrees
 There are       25 alpha and       24 beta electrons
 Discretize the solute cavity surface with Lebedev spheres
	Using 110 Lebedev grid points for each H atom
	Using 194 Lebedev grid points for other atoms
	Atomic van der Waals radii will be scaled by 1.20
 Remove points where switching function is < 1.0e-08
 Keep 996 surface tesserae and discard 718 interior tesserae
 Molecular Surface Area = 120.089 Angst**2

                       Distance Matrix (Angstroms)
             C (  1)   C (  2)   O (  3)   O (  4)   O (  5)   H (  6)
   C (  2)  2.928208
   O (  3)  3.510879  1.376934
   O (  4)  3.248698  1.364594  2.280106
   O (  5)  1.332925  3.158272  3.434950  3.144209
   H (  6)  3.759786  1.915562  0.965258  3.098046  3.902739
   H (  7)  3.093627  1.914105  2.394870  0.967407  2.601843  3.298904
   H (  8)  1.091919  2.997647  3.305689  3.720410  2.003764  3.277337
   H (  9)  3.547579  1.085238  2.107835  2.050264  4.060054  2.289896
   O ( 10)  1.208578  3.364175  4.288433  3.485228  2.248092  4.566350
   H ( 11)  1.888279  3.529454  3.995640  3.135634  0.971581  4.599220
             H (  7)   H (  8)   H (  9)   O ( 10)
   H (  8)  3.645480
   H (  9)  2.845776  3.518110
   O ( 10)  3.522170  2.037379  3.738831
   H ( 11)  2.527716  2.815034  4.410466  2.332999
 
 Requested basis set is 6-311++G(2df,2p)
 There are 78 shells and 254 basis functions
 A cutoff of  1.0D-12 yielded   2835 shell pairs
 There are     30081 function pairs (     37517 Cartesian)
 Smallest overlap matrix eigenvalue = 3.53E-04
 Guess MOs from SCF MO coefficient file

 -----------------------------------------------------------------------
  General SCF calculation program by
  Eric Jon Sundstrom, Paul Horn, Yuezhi Mao, Dmitri Zuev, Alec White,
  David Stuck, Shaama M.S., Shane Yost, Joonho Lee, David Small,
  Daniel Levine, Susi Lehtola, Hugh Burton, Evgeny Epifanovsky,
  Bang C. Huynh
 -----------------------------------------------------------------------
 Exchange:     0.1500 Hartree-Fock + 1.0000 wB97M-V + LR-HF
 Correlation:  1.0000 wB97M-V
 Using SG-2 standard quadrature grid
 Nonlocal Correlation:  VV10 with C = 0.0100 and b = 6.00 and scale = 1.00000
 Grid used for NLC:  SG-1 standard quadrature
 
 Citation of the SMD model:
 Marenich, A.V.; Cramer, C.J.; Truhlar, D.G.
 J. Phys. Chem. B 2009, 113, 6378-6396.
 iSolventCode=           1
 Solvent: water                                                           
 
 vradii
            1           2           3           4           5           6
    1   1.8500000   1.8500000   1.5200000   1.5200000   1.5200000   1.2000000
            7           8           9          10          11
    1   1.2000000   1.2000000   1.2000000   1.5200000   1.2000000
 -------------------------------------------------------
 OpenMP BLAS3 based DFT computing Module                
 Release: version 1.0, May 2013, Q-Chem Inc. Pittsburgh 
 -------------------------------------------------------
 A unrestricted SCF calculation will be
 performed using Roothaan-Hall, DIIS, GDM
 SCF converges when RMS gradient is below 1.0e-07
 ---------------------------------------
  Cycle       Energy         DIIS error
 ---------------------------------------
    1    -380.0606662639      3.35e-04  Roothaan Step
 ---------------------------------------
  Cycle       Energy         DIIS error
 ---------------------------------------
    1    -380.0952104671      4.06e-04  
    2    -380.0986235515      4.38e-04  Done DIIS. Switching to GDM
 ---------------------------------------
  Cycle       Energy        RMS Gradient
 ---------------------------------------
    1    -380.0986235515      2.06e-02   Normal BFGS step
    2    -380.0966890350      3.39e-02  Line search: overstep
    3    -380.1024862766      3.69e-03   Normal BFGS step
    4    -380.1026424969      8.14e-04   Normal BFGS step
    5    -380.1026678740      5.09e-04   Normal BFGS step
    6    -380.1026756164      1.12e-04   Normal BFGS step
    7    -380.1026760317      6.70e-05   Normal BFGS step
    8    -380.1026761254      2.91e-05   Normal BFGS step
    9    -380.1026761353      7.55e-06   Normal BFGS step
   10    -380.1026761367      7.75e-06   Normal BFGS step
   11    -380.1026761373      3.79e-06   Normal BFGS step
   12    -380.1026761374      1.79e-06   Normal BFGS step
   13    -380.1026761374      4.30e-07   Normal BFGS step
   14    -380.1026761374      2.42e-07   Normal BFGS step
   15    -380.1026761374      6.76e-08  Convergence criterion met
 ---------------------------------------
 SCF time:   CPU 422.43s  wall 53.00s 
<S^2> =          0.752366452
(3)  G-ENP(liq) elect-nuc-pol free energy of system     -380.102676137 a.u.
(4)  G-CDS(liq) cavity-dispersion-solvent structure 
     free energy                                                5.9504 kcal/mol
(6)  G-S(liq) free energy of system                     -380.093193595 a.u.
 SCF   energy in the final basis set =     -380.0931935949
 Total energy in the final basis set =     -380.0931935949
 
 --------------------------------------------------------------
 
                    Orbital Energies (a.u.)
 --------------------------------------------------------------
 
 Alpha MOs
 -- Occupied --
-19.3862 -19.3651 -19.3646 -19.3372 -10.4843 -10.4345  -1.2475  -1.2202
 -1.1601  -1.1560  -0.7863  -0.7780  -0.6752  -0.6331  -0.6167  -0.6129
 -0.5837  -0.5485  -0.5161  -0.5032  -0.4902  -0.4490  -0.4424  -0.4061
 -0.2639
 -- Virtual --
  0.0301   0.0410   0.0506   0.0548   0.0701   0.0875   0.0915   0.0989
  0.1129   0.1311   0.1365   0.1459   0.1621   0.1741   0.1967   0.2142
  0.2265   0.2425   0.2476   0.2555   0.2675   0.2804   0.2885   0.2973
  0.2981   0.3214   0.3260   0.3282   0.3373   0.3409   0.3425   0.3628
  0.3748   0.4008   0.4104   0.4152   0.4450   0.4578   0.4923   0.5769
  0.5792   0.5880   0.5963   0.6188   0.6360   0.6668   0.6697   0.6943
  0.7074   0.7167   0.7499   0.7705   0.8002   0.8109   0.8365   0.8515
  0.8707   0.9149   0.9505   0.9652   0.9828   1.0491   1.0508   1.0875
  1.0959   1.1041   1.1226   1.1260   1.1411   1.1587   1.1627   1.1771
  1.1906   1.1985   1.2213   1.2357   1.2676   1.2851   1.3073   1.3400
  1.3645   1.4192   1.4363   1.4784   1.4940   1.5134   1.5401   1.5781
  1.5849   1.6313   1.6717   1.6753   1.7246   1.7697   1.8282   1.8544
  1.8715   1.9217   1.9550   2.0144   2.0539   2.1318   2.1454   2.1517
  2.2493   2.2594   2.3054   2.3306   2.3983   2.4159   2.4219   2.4953
  2.5430   2.5866   2.7263   2.7529   2.8080   2.8507   2.8913   2.9226
  3.0349   3.0770   3.0922   3.1023   3.1424   3.2404   3.2450   3.2742
  3.2866   3.2975   3.3543   3.3557   3.4122   3.4404   3.4488   3.4958
  3.5034   3.5520   3.6135   3.6258   3.6757   3.7048   3.7673   3.7977
  3.8174   3.8435   3.8524   3.8724   3.9099   3.9119   4.0293   4.1242
  4.1322   4.2034   4.2217   4.2393   4.2896   4.3389   4.3951   4.4236
  4.4693   5.0534   5.1337   5.1477   5.1754   5.1816   5.1922   5.1981
  5.2047   5.2133   5.2490   5.2540   5.2590   5.2826   5.2970   5.3336
  5.3982   5.4178   5.4261   5.4951   5.5143   5.5182   5.5922   5.6209
  5.6311   5.6373   5.7140   5.9179   5.9257   5.9432   5.9812   6.0293
  6.0625   6.2872   6.4114   6.4913   6.7039   6.8083   6.9121   6.9516
  7.0278   7.0368   7.0612   7.0705   7.1600   7.2099   7.2406   7.2570
  7.2723   7.2765   7.3040   7.3166   7.3357   7.3598   7.3909   7.5745
  7.6018   7.6739   7.7047   7.7433   7.7658   7.7990   7.8208  24.7870
 25.1320  50.5266  50.5538  50.5906  50.7337
 
 Beta MOs
 -- Occupied --
-19.3862 -19.3616 -19.3612 -19.3366 -10.4844 -10.4217  -1.2471  -1.2105
 -1.1594  -1.1479  -0.7797  -0.7658  -0.6681  -0.6324  -0.6161  -0.6004
 -0.5735  -0.5282  -0.5157  -0.4884  -0.4798  -0.4407  -0.4289  -0.4053
 -- Virtual --
  0.0292   0.0387   0.0422   0.0503   0.0549   0.0717   0.0914   0.0966
  0.1025   0.1129   0.1330   0.1366   0.1458   0.1647   0.1744   0.1974
  0.2151   0.2273   0.2453   0.2494   0.2562   0.2681   0.2808   0.2892
  0.2981   0.3018   0.3226   0.3260   0.3297   0.3374   0.3429   0.3514
  0.3642   0.3769   0.4071   0.4129   0.4234   0.4469   0.4590   0.4929
  0.5794   0.5814   0.5951   0.6081   0.6215   0.6377   0.6715   0.6752
  0.7006   0.7165   0.7261   0.7555   0.7737   0.8018   0.8225   0.8390
  0.8542   0.8728   0.9203   0.9529   0.9669   0.9916   1.0504   1.0542
  1.0903   1.0986   1.1131   1.1256   1.1291   1.1426   1.1602   1.1641
  1.1820   1.1917   1.2013   1.2261   1.2435   1.2735   1.2880   1.3153
  1.3454   1.3716   1.4227   1.4427   1.4814   1.4986   1.5169   1.5415
  1.5797   1.6017   1.6356   1.6733   1.6780   1.7301   1.7727   1.8304
  1.8598   1.8724   1.9284   1.9662   2.0224   2.0569   2.1349   2.1474
  2.1596   2.2562   2.2659   2.3076   2.3391   2.4100   2.4186   2.4258
  2.4971   2.5597   2.5974   2.7345   2.7654   2.8221   2.8571   2.9019
  2.9512   3.0722   3.0980   3.1046   3.1445   3.1584   3.2524   3.2684
  3.2876   3.3081   3.3310   3.3745   3.3881   3.4286   3.4471   3.4603
  3.5379   3.5564   3.5719   3.6181   3.6270   3.7116   3.7362   3.7775
  3.8046   3.8285   3.8511   3.8613   3.8860   3.9175   3.9417   4.0304
  4.1349   4.1425   4.2050   4.2268   4.2499   4.3007   4.3401   4.4173
  4.4466   4.4706   5.0542   5.1349   5.1560   5.1843   5.1941   5.1997
  5.2118   5.2153   5.2230   5.2562   5.2610   5.2669   5.2910   5.3002
  5.3558   5.4083   5.4204   5.4321   5.5056   5.5174   5.5197   5.5996
  5.6215   5.6361   5.6398   5.7290   5.9247   5.9356   5.9543   5.9815
  6.0432   6.0632   6.2975   6.4128   6.5074   6.7042   6.8198   6.9143
  6.9537   7.0383   7.0437   7.0639   7.0795   7.1606   7.2183   7.2454
  7.2608   7.2789   7.2877   7.3145   7.3256   7.3426   7.3667   7.3928
  7.5822   7.6030   7.6767   7.7102   7.7500   7.7663   7.8019   7.8251
 24.7987  25.1321  50.5295  50.5540  50.5935  50.7341
 --------------------------------------------------------------
 
          Ground-State Mulliken Net Atomic Charges

     Atom                 Charge (a.u.)    Spin (a.u.)
  --------------------------------------------------------
      1 C                     0.067713      -0.000358
      2 C                    -0.161610       0.839539
      3 O                    -0.363953       0.081981
      4 O                    -0.362910       0.068975
      5 O                    -0.283939      -0.001233
      6 H                     0.336882      -0.006362
      7 H                     0.340958      -0.002874
      8 H                     0.270813      -0.002833
      9 H                     0.245509       0.005138
     10 O                    -0.447108       0.017856
     11 H                     0.357645       0.000171
  --------------------------------------------------------
  Sum of atomic charges =     0.000000
  Sum of spin   charges =     1.000000

 -----------------------------------------------------------------
                    Cartesian Multipole Moments
 -----------------------------------------------------------------
    Charge (ESU x 10^10)
                 0.0000
    Dipole Moment (Debye)
         X       1.1744      Y      -3.1310      Z       0.3760
       Tot       3.3650
    Quadrupole Moments (Debye-Ang)
        XX     -30.5669     XY       1.3466     YY     -41.8336
        XZ      -8.5166     YZ      -2.6064     ZZ     -35.8157
    Octopole Moments (Debye-Ang^2)
       XXX    -110.1488    XXY      -0.0471    XYY     -49.2381
       YYY     -55.3922    XXZ      62.5142    XYZ     -16.9199
       YYZ      92.1347    XZZ       5.1005    YZZ      13.6243
       ZZZ     238.4329
    Hexadecapole Moments (Debye-Ang^3)
      XXXX    -587.1567   XXXY     -76.6655   XXYY    -160.4779
      XYYY    -141.4276   YYYY    -359.9772   XXXZ     170.1904
      XXYZ     -45.7075   XYYZ      66.9384   YYYZ      25.4724
      XXZZ    -236.7470   XYZZ      29.5260   YYZZ    -306.3808
      XZZZ      10.3861   YZZZ     -81.9857   ZZZZ   -1269.0219
 -----------------------------------------------------------------
 Calculating analytic gradient of the SCF energy
 Gradient of CDS energy
            1           2           3           4           5           6
    1   0.0020393   0.0005811  -0.0013501  -0.0003042  -0.0019584   0.0001169
    2   0.0006804  -0.0022864   0.0053795  -0.0030015   0.0009635  -0.0005519
    3  -0.0011461  -0.0049750   0.0005976   0.0043301   0.0024353   0.0000700
            7           8           9          10          11
    1   0.0000353  -0.0000767   0.0000864   0.0005065   0.0003241
    2  -0.0000254  -0.0001072  -0.0000157  -0.0011550   0.0001198
    3  -0.0003868  -0.0002352  -0.0000445  -0.0003957  -0.0002497
 Gradient of SCF Energy
            1           2           3           4           5           6
    1   0.0010570   0.0066383   0.0034873  -0.0146084   0.0005990  -0.0033503
    2   0.0106492   0.0017534   0.0066837   0.0037393  -0.0155018  -0.0082878
    3  -0.0067826  -0.0044457  -0.0163083   0.0051151   0.0116822   0.0158549
            7           8           9          10          11
    1   0.0131534  -0.0005669  -0.0048412  -0.0033556   0.0017874
    2  -0.0004635  -0.0086634  -0.0016130   0.0024743   0.0092296
    3  -0.0048579   0.0059289   0.0044284   0.0033066  -0.0139216
 Max gradient component =       1.631E-02
 RMS gradient           =       8.120E-03
 Computing fast CPCM-SWIG gradient
 Updating gradient with PCM contributions...
 -- total gradient after adding PCM contribution --
---------------------------------------------------
  Atom         X              Y              Z     
---------------------------------------------------
   1      -0.000368       0.001744      -0.000148
   2      -0.000015       0.000004       0.000045
   3       0.000008      -0.000011       0.000025
   4       0.000039       0.000033      -0.000078
   5       0.000053      -0.000259      -0.000024
   6      -0.000031       0.000010      -0.000005
   7       0.000014      -0.000041       0.000004
   8      -0.000069      -0.000336       0.000254
   9       0.000017       0.000016      -0.000038
  10       0.000364      -0.001185      -0.000114
  11      -0.000011       0.000025       0.000079
---------------------------------------------------
 Number of fixed atoms: 0
 Gradient time:  CPU 58.84 s  wall 9.04 s
 ----------------------------------------------------------------
             Standard Nuclear Orientation (Angstroms)
    I     Atom           X                Y                Z
 ----------------------------------------------------------------
    1      C       2.1846777000     0.9017811000    -1.3249809000
    2      C      -0.1591031000    -0.3642855000    -2.5386952000
    3      O       0.2376495000    -1.6726042000    -2.7025111000
    4      O       0.0019772000     0.3772120000    -3.6728694000
    5      O       2.8724641000     0.5098424000    -2.3966387000
    6      H       0.0631989000    -2.1499356000    -1.8818740000
    7      H       0.8797612000     0.2060870000    -4.0417697000
    8      H       2.0838842000     0.0909999000    -0.6028209000
    9      H      -1.1113566000    -0.1912311000    -2.0477713000
   10      O       1.7655028000     2.0250668000    -1.1586363000
   11      H       2.9413161000     1.2522535000    -3.0195787000
 ----------------------------------------------------------------
 Nuclear Repulsion Energy =         237.83493949 hartrees
 There are       25 alpha and       24 beta electrons
 Discretize the solute cavity surface with Lebedev spheres
	Using 110 Lebedev grid points for each H atom
	Using 194 Lebedev grid points for other atoms
	Atomic van der Waals radii will be scaled by 1.20
 Remove points where switching function is < 1.0e-08
 Keep 996 surface tesserae and discard 718 interior tesserae
 Molecular Surface Area = 120.088 Angst**2

                       Distance Matrix (Angstroms)
             C (  1)   C (  2)   O (  3)   O (  4)   O (  5)   H (  6)
   C (  2)  2.927343
   O (  3)  3.509411  1.376934
   O (  4)  3.248374  1.364594  2.280106
   O (  5)  1.332335  3.158272  3.434950  3.144209
   H (  6)  3.758161  1.915562  0.965258  3.098046  3.902739
   H (  7)  3.093176  1.914105  2.394870  0.967407  2.601843  3.298904
   H (  8)  1.090431  2.997647  3.305689  3.720410  2.003764  3.277337
   H (  9)  3.546963  1.085238  2.107835  2.050264  4.060054  2.289896
   O ( 10)  1.210433  3.364175  4.288433  3.485228  2.248092  4.566350
   H ( 11)  1.888649  3.529454  3.995640  3.135634  0.971581  4.599220
             H (  7)   H (  8)   H (  9)   O ( 10)
   H (  8)  3.645480
   H (  9)  2.845776  3.518110
   O ( 10)  3.522170  2.037379  3.738831
   H ( 11)  2.527716  2.815034  4.410466  2.332999
 
 Requested basis set is 6-311++G(2df,2p)
 There are 78 shells and 254 basis functions
 A cutoff of  1.0D-12 yielded   2835 shell pairs
 There are     30081 function pairs (     37517 Cartesian)
 Smallest overlap matrix eigenvalue = 3.52E-04
 Guess MOs from SCF MO coefficient file

 -----------------------------------------------------------------------
  General SCF calculation program by
  Eric Jon Sundstrom, Paul Horn, Yuezhi Mao, Dmitri Zuev, Alec White,
  David Stuck, Shaama M.S., Shane Yost, Joonho Lee, David Small,
  Daniel Levine, Susi Lehtola, Hugh Burton, Evgeny Epifanovsky,
  Bang C. Huynh
 -----------------------------------------------------------------------
 Exchange:     0.1500 Hartree-Fock + 1.0000 wB97M-V + LR-HF
 Correlation:  1.0000 wB97M-V
 Using SG-2 standard quadrature grid
 Nonlocal Correlation:  VV10 with C = 0.0100 and b = 6.00 and scale = 1.00000
 Grid used for NLC:  SG-1 standard quadrature
 
 Citation of the SMD model:
 Marenich, A.V.; Cramer, C.J.; Truhlar, D.G.
 J. Phys. Chem. B 2009, 113, 6378-6396.
 iSolventCode=           1
 Solvent: water                                                           
 
 vradii
            1           2           3           4           5           6
    1   1.8500000   1.8500000   1.5200000   1.5200000   1.5200000   1.2000000
            7           8           9          10          11
    1   1.2000000   1.2000000   1.2000000   1.5200000   1.2000000
 -------------------------------------------------------
 OpenMP BLAS3 based DFT computing Module                
 Release: version 1.0, May 2013, Q-Chem Inc. Pittsburgh 
 -------------------------------------------------------
 A unrestricted SCF calculation will be
 performed using Roothaan-Hall, DIIS, GDM
 SCF converges when RMS gradient is below 1.0e-07
 ---------------------------------------
  Cycle       Energy         DIIS error
 ---------------------------------------
    1    -380.0606482149      3.34e-04  Roothaan Step
 ---------------------------------------
  Cycle       Energy         DIIS error
 ---------------------------------------
    1    -380.0951094226      4.09e-04  
    2    -380.0984956722      4.45e-04  Done DIIS. Switching to GDM
 ---------------------------------------
  Cycle       Energy        RMS Gradient
 ---------------------------------------
    1    -380.0984956722      2.13e-02   Normal BFGS step
    2    -380.0964621364      3.51e-02  Line search: overstep
    3    -380.1024803474      3.76e-03   Normal BFGS step
    4    -380.1026392352      8.19e-04   Normal BFGS step
    5    -380.1026651754      5.04e-04   Normal BFGS step
    6    -380.1026730676      1.12e-04   Normal BFGS step
    7    -380.1026734897      6.61e-05   Normal BFGS step
    8    -380.1026735849      2.81e-05   Normal BFGS step
    9    -380.1026735947      7.60e-06   Normal BFGS step
   10    -380.1026735961      7.42e-06   Normal BFGS step
   11    -380.1026735967      3.53e-06   Normal BFGS step
   12    -380.1026735967      1.69e-06   Normal BFGS step
   13    -380.1026735967      3.98e-07   Normal BFGS step
   14    -380.1026735967      2.37e-07   Normal BFGS step
   15    -380.1026735967      7.14e-08  Convergence criterion met
 ---------------------------------------
 SCF time:   CPU 421.87s  wall 53.00s 
<S^2> =          0.752368104
(3)  G-ENP(liq) elect-nuc-pol free energy of system     -380.102673597 a.u.
(4)  G-CDS(liq) cavity-dispersion-solvent structure 
     free energy                                                5.9487 kcal/mol
(6)  G-S(liq) free energy of system                     -380.093193660 a.u.
 SCF   energy in the final basis set =     -380.0931936605
 Total energy in the final basis set =     -380.0931936605
 
 --------------------------------------------------------------
 
                    Orbital Energies (a.u.)
 --------------------------------------------------------------
 
 Alpha MOs
 -- Occupied --
-19.3865 -19.3651 -19.3646 -19.3370 -10.4845 -10.4346  -1.2474  -1.2202
 -1.1594  -1.1560  -0.7864  -0.7784  -0.6752  -0.6334  -0.6166  -0.6129
 -0.5837  -0.5484  -0.5160  -0.5032  -0.4902  -0.4490  -0.4421  -0.4060
 -0.2639
 -- Virtual --
  0.0301   0.0410   0.0506   0.0548   0.0699   0.0873   0.0915   0.0988
  0.1129   0.1310   0.1365   0.1460   0.1621   0.1741   0.1967   0.2142
  0.2265   0.2425   0.2477   0.2554   0.2675   0.2804   0.2885   0.2973
  0.2981   0.3214   0.3259   0.3283   0.3374   0.3408   0.3425   0.3628
  0.3748   0.4008   0.4104   0.4152   0.4450   0.4578   0.4916   0.5769
  0.5793   0.5880   0.5963   0.6188   0.6360   0.6667   0.6698   0.6944
  0.7074   0.7164   0.7497   0.7706   0.7995   0.8109   0.8364   0.8513
  0.8706   0.9148   0.9507   0.9652   0.9827   1.0491   1.0506   1.0878
  1.0959   1.1041   1.1228   1.1261   1.1414   1.1589   1.1626   1.1771
  1.1908   1.1984   1.2213   1.2356   1.2677   1.2852   1.3072   1.3399
  1.3645   1.4191   1.4363   1.4782   1.4939   1.5136   1.5400   1.5780
  1.5849   1.6314   1.6714   1.6752   1.7246   1.7694   1.8282   1.8544
  1.8712   1.9217   1.9549   2.0143   2.0538   2.1313   2.1449   2.1515
  2.2492   2.2593   2.3054   2.3305   2.3983   2.4158   2.4219   2.4941
  2.5426   2.5857   2.7267   2.7532   2.8078   2.8503   2.8911   2.9225
  3.0349   3.0770   3.0921   3.1021   3.1427   3.2405   3.2452   3.2742
  3.2870   3.2976   3.3545   3.3558   3.4123   3.4410   3.4492   3.4959
  3.5033   3.5517   3.6114   3.6254   3.6757   3.7047   3.7673   3.7981
  3.8189   3.8450   3.8525   3.8727   3.9100   3.9120   4.0284   4.1242
  4.1322   4.2018   4.2227   4.2399   4.2894   4.3378   4.3951   4.4236
  4.4710   5.0557   5.1338   5.1476   5.1752   5.1817   5.1924   5.1980
  5.2045   5.2132   5.2490   5.2539   5.2585   5.2825   5.2964   5.3336
  5.3982   5.4178   5.4260   5.4948   5.5137   5.5173   5.5922   5.6210
  5.6310   5.6363   5.7140   5.9180   5.9263   5.9433   5.9798   6.0292
  6.0618   6.2872   6.4049   6.4912   6.7025   6.8083   6.9121   6.9505
  7.0278   7.0367   7.0599   7.0698   7.1572   7.2099   7.2406   7.2565
  7.2722   7.2765   7.3041   7.3165   7.3356   7.3596   7.3895   7.5745
  7.6027   7.6740   7.7048   7.7433   7.7648   7.7984   7.8204  24.7869
 25.1316  50.5266  50.5536  50.5906  50.7315
 
 Beta MOs
 -- Occupied --
-19.3864 -19.3616 -19.3612 -19.3364 -10.4845 -10.4218  -1.2470  -1.2106
 -1.1586  -1.1480  -0.7801  -0.7658  -0.6681  -0.6326  -0.6159  -0.6004
 -0.5733  -0.5281  -0.5155  -0.4884  -0.4798  -0.4404  -0.4289  -0.4052
 -- Virtual --
  0.0292   0.0386   0.0421   0.0503   0.0549   0.0716   0.0914   0.0966
  0.1023   0.1129   0.1329   0.1366   0.1459   0.1647   0.1745   0.1974
  0.2151   0.2273   0.2453   0.2495   0.2562   0.2681   0.2808   0.2892
  0.2981   0.3018   0.3226   0.3260   0.3297   0.3375   0.3428   0.3514
  0.3642   0.3769   0.4071   0.4130   0.4234   0.4468   0.4590   0.4923
  0.5794   0.5814   0.5951   0.6082   0.6216   0.6378   0.6717   0.6752
  0.7007   0.7164   0.7259   0.7554   0.7738   0.8012   0.8225   0.8389
  0.8539   0.8727   0.9202   0.9531   0.9669   0.9915   1.0503   1.0541
  1.0907   1.0986   1.1130   1.1257   1.1293   1.1429   1.1605   1.1640
  1.1820   1.1918   1.2013   1.2261   1.2433   1.2736   1.2880   1.3152
  1.3454   1.3716   1.4225   1.4428   1.4812   1.4985   1.5170   1.5413
  1.5796   1.6017   1.6356   1.6730   1.6779   1.7301   1.7725   1.8304
  1.8598   1.8721   1.9284   1.9662   2.0222   2.0568   2.1345   2.1468
  2.1595   2.2561   2.2658   2.3077   2.3391   2.4099   2.4187   2.4258
  2.4959   2.5591   2.5968   2.7350   2.7654   2.8218   2.8567   2.9017
  2.9513   3.0721   3.0976   3.1046   3.1445   3.1586   3.2528   3.2686
  3.2879   3.3081   3.3310   3.3747   3.3881   3.4289   3.4477   3.4604
  3.5379   3.5562   3.5715   3.6162   3.6267   3.7116   3.7363   3.7774
  3.8054   3.8296   3.8526   3.8614   3.8861   3.9174   3.9418   4.0295
[...]
     5    3.843577330647413e-02  -6.221060996159802e-02  -1.183337163362049e-02
     6    4.124221597972410e-05   6.909509942987476e-05  -6.535829567208055e-05
     7    2.606389753718626e-04   1.074921478263197e-04   3.254526375230629e-04
     8   -3.201336122052308e-03   1.833025235209383e-02   1.608280623076222e-02
     9   -1.745152310629310e-04  -5.995056094234641e-05  -1.827178939074156e-04
    10   -6.049030146074082e-02   9.159340658786008e-02   9.298461803021829e-02
    11   -5.721990192146536e-03  -1.493623470251055e-03   7.065864694299570e-03


    11 Order 1, Length 33
    Atom      X          Y          Z
     1   -2.588638307661568e-03  -1.987954866338976e-02   2.397661104301890e-02
     2    4.569273600639295e-06  -2.855574543521049e-04   9.449604429338690e-05
     3   -4.297947301325677e-05   3.098093105418921e-04   1.646316043578305e-05
     4    2.762681899543080e-04   1.525364161471537e-04   1.999536240287087e-04
     5   -2.384887419677665e-02  -7.726616583965907e-04   1.790261729322848e-02
     6   -2.311424664317080e-06  -1.204245371216395e-05   2.698095108327340e-05
     7   -6.737240303422619e-04  -4.184636306699763e-04  -9.153334525604049e-04
     8    2.699484059956643e-03   2.318692954090504e-03   4.258607127466943e-03
     9    4.418282669155408e-05   3.504153659650205e-05   2.323397706374082e-05
    10   -1.832953003467158e-03  -1.269220828804276e-03  -5.721990192146536e-03
    11    2.596498748436084e-02   1.982141858612738e-02  -3.986163287838078e-02

Order 1, Length 33
    Atom      X          Y          Z
     1   -2.126257525295259e-03   1.664079807032175e-02  -4.183898151195726e-03
     2    2.479654530365195e-04  -2.649958118316030e-04   6.490456078185180e-05
     3   -7.584456419910612e-05   1.836107353319140e-04   6.428563491519562e-06
     4    2.112760212367153e-04   1.049482558965894e-04   8.545360178000165e-05
     5   -2.015976246406630e-02  -3.113519875831290e-01   2.345015659415871e-01
     6   -1.252698008709486e-05  -1.719243163657723e-05   1.600811852643503e-05
     7   -6.746514912583706e-04  -2.505885357761494e-04  -7.369647147080007e-04
     8    2.290748168744165e-03   1.208868614343019e-03  -1.503670935830795e-03
     9    4.143389436283217e-05   3.681339542183169e-05   4.271392883730055e-05
    10    4.362033033584192e-04  -4.031444196283436e-03  -1.493623470251055e-03
    11    1.982141858612738e-02   2.977411956374090e-01  -2.267989232989454e-01

Order 1, Length 33
    Atom      X          Y          Z
     1    1.151625024891808e-02   3.153232471772272e-02  -3.822291495099542e-02
     2   -2.250456766065911e-04   7.116380451994729e-05   7.848215482764764e-05
     3   -2.913451192545239e-05  -1.328985803263189e-04  -4.448003511667027e-05
     4   -8.121199903946057e-05  -7.223227558328382e-05  -7.660888111663485e-05
     5    3.128978173344375e-02   1.957361085559388e-01  -2.053176118995280e-01
     6    2.610402755555921e-05   2.827628713837572e-05  -1.454233289649639e-05
     7   -2.372366954174833e-05  -1.003251148703037e-04   4.456765350133191e-05
     8    4.251475354815555e-03  -1.915416567300680e-03  -1.515929879317689e-03
     9   -3.015882105225362e-05  -9.334771217930005e-06  -5.140354368201768e-05
    10   -6.832714855418316e-03   1.661294124065906e-03   7.065864694299570e-03
    11   -3.986163287838078e-02  -2.267989232989454e-01   2.380546047512952e-01




 # Finishing finite difference calculation for IDERIV #
 ######################################################
 ######################################################
 Requested basis set is 6-311++G(2df,2p)
 There are 78 shells and 254 basis functions
 **********************************************************************
 **                                                                  **
 **                       VIBRATIONAL ANALYSIS                       **
 **                       --------------------                       **
 **                                                                  **
 **        VIBRATIONAL FREQUENCIES (CM**-1) AND NORMAL MODES         **
 **     FORCE CONSTANTS (mDYN/ANGSTROM) AND REDUCED MASSES (AMU)     **
 **                  INFRARED INTENSITIES (KM/MOL)                   **
 **                                                                  **
 **********************************************************************
 

 Mode:                 1                      2                      3
 Frequency:        33.47                  55.67                  78.82
 Force Cnst:      0.0039                 0.0131                 0.0281
 Red. Mass:       5.9772                 7.1980                 7.6686
 IR Active:          YES                    YES                    YES
 IR Intens:        4.247                  1.011                  0.739
 Raman Active:       YES                    YES                    YES
               X      Y      Z        X      Y      Z        X      Y      Z
 C          0.009 -0.088 -0.045   -0.105 -0.075  0.022    0.138  0.188  0.126
 C         -0.007  0.104 -0.074   -0.100  0.065 -0.079   -0.225 -0.193 -0.132
 O         -0.076  0.045  0.233    0.413  0.199  0.123   -0.097 -0.160 -0.127
 O          0.085 -0.154 -0.231   -0.204  0.005 -0.135   -0.093 -0.140 -0.082
 O         -0.031  0.203 -0.177   -0.184 -0.206  0.019   -0.060  0.067  0.050
 H         -0.101  0.245  0.344    0.394  0.202  0.121   -0.228 -0.219 -0.190
 H          0.114 -0.237 -0.123   -0.121  0.214 -0.036   -0.015 -0.053  0.065
 H          0.038 -0.280 -0.258   -0.290 -0.066  0.006    0.037  0.192  0.119
 H         -0.017  0.270 -0.151   -0.239 -0.237 -0.242   -0.340 -0.305 -0.313
 O          0.023 -0.129  0.275    0.145  0.015  0.043    0.348  0.256  0.180
 H         -0.054  0.377  0.028   -0.001 -0.206  0.040    0.024  0.057  0.047
 TransDip  -0.007  0.065 -0.009   -0.030 -0.012 -0.002   -0.025 -0.004 -0.010

 Mode:                 4                      5                      6
 Frequency:       115.77                 148.01                 159.53
 Force Cnst:      0.0532                 0.0327                 0.0295
 Red. Mass:       6.7423                 2.5307                 1.9661
 IR Active:          YES                    YES                    YES
 IR Intens:        7.497                 15.986                  1.906
 Raman Active:       YES                    YES                    YES
               X      Y      Z        X      Y      Z        X      Y      Z
 C          0.147 -0.032  0.001   -0.105 -0.033 -0.107    0.171  0.034  0.087
 C         -0.277 -0.009 -0.063   -0.177 -0.066  0.001   -0.100 -0.001 -0.032
 O          0.026  0.064  0.065    0.054  0.001  0.043    0.034  0.032  0.026
 O         -0.238 -0.023 -0.073    0.164  0.059  0.131    0.080  0.027  0.009
 O          0.420  0.101  0.130   -0.001  0.030 -0.065   -0.074 -0.027 -0.044
 H         -0.066  0.055  0.040   -0.289 -0.118 -0.099   -0.121 -0.003 -0.028
 H         -0.109  0.202  0.127    0.246  0.056  0.330    0.091 -0.052  0.076
 H          0.139 -0.065 -0.035   -0.334 -0.126 -0.245    0.590  0.155  0.284
 H         -0.413 -0.201 -0.256   -0.389 -0.228 -0.352   -0.228 -0.085 -0.247
 O         -0.108 -0.119 -0.078    0.028  0.002 -0.013   -0.083 -0.048 -0.022
 H          0.414  0.123  0.154    0.248  0.136  0.088   -0.482 -0.157 -0.246
 TransDip   0.059  0.054  0.036   -0.108 -0.054 -0.044   -0.024 -0.018 -0.033

 Mode:                 7                      8                      9
 Frequency:       306.05                 408.21                 543.53
 Force Cnst:      0.0621                 0.1093                 0.7456
 Red. Mass:       1.1260                 1.1127                 4.2838
 IR Active:          YES                    YES                    YES
 IR Intens:      174.658                340.826                 53.262
 Raman Active:       YES                    YES                    YES
               X      Y      Z        X      Y      Z        X      Y      Z
 C         -0.001 -0.000 -0.002    0.012  0.003  0.008   -0.013 -0.001 -0.009
 C         -0.062 -0.008 -0.010    0.035 -0.009 -0.029    0.052 -0.102 -0.212
 O         -0.045 -0.005 -0.030   -0.027 -0.043  0.026    0.009 -0.234  0.174
 O          0.038  0.005  0.024   -0.016  0.003 -0.028   -0.032  0.298 -0.002
 O          0.001 -0.001  0.001   -0.022 -0.009 -0.014    0.019  0.005  0.013
 H          0.899  0.237  0.312    0.067  0.057  0.106   -0.103  0.217  0.418
 H          0.020 -0.108  0.032    0.339  0.806  0.444   -0.339 -0.010 -0.588
 H         -0.016 -0.004 -0.008    0.045  0.013  0.024   -0.037 -0.007 -0.018
 H         -0.100 -0.001 -0.078    0.073  0.016  0.029    0.087 -0.084 -0.168
 O          0.002  0.000 -0.002   -0.006 -0.003 -0.008    0.008  0.005  0.009
 H          0.011  0.001  0.003    0.043  0.016  0.022   -0.140 -0.058 -0.078
 TransDip   0.396  0.088  0.121    0.278  0.422  0.307   -0.092  0.021 -0.214

 Mode:                10                     11                     12
 Frequency:       630.28                 636.52                 885.46
 Force Cnst:      0.4652                 0.4224                 0.6369
 Red. Mass:       1.9876                 1.7695                 1.3788
 IR Active:          YES                    YES                    YES
 IR Intens:      128.974                184.326                 59.329
 Raman Active:       YES                    YES                    YES
               X      Y      Z        X      Y      Z        X      Y      Z
 C          0.054 -0.083  0.121    0.082  0.106 -0.039   -0.002 -0.001  0.002
 C          0.005 -0.001 -0.007    0.005  0.000 -0.003   -0.136 -0.064 -0.083
 O          0.002 -0.009  0.004    0.002 -0.009  0.005    0.040  0.013  0.010
 O         -0.003  0.015 -0.001   -0.002  0.014 -0.001    0.028  0.021 -0.008
 O         -0.120  0.082  0.009   -0.029 -0.111 -0.066    0.002 -0.001 -0.002
 H         -0.009  0.008  0.012   -0.008  0.006  0.011   -0.007 -0.021 -0.021
 H         -0.054 -0.090 -0.075   -0.048 -0.085 -0.066    0.079 -0.149  0.185
 H          0.113 -0.026  0.190    0.167  0.105 -0.025    0.032  0.009  0.018
 H          0.006 -0.001 -0.005    0.002 -0.003 -0.007    0.419  0.360  0.773
 O          0.047 -0.054 -0.144   -0.101  0.026  0.089    0.000  0.002  0.001
 H          0.417  0.549  0.621    0.931 -0.019  0.154    0.003  0.003  0.002
 TransDip   0.190  0.050  0.306    0.415  0.125 -0.030   -0.038 -0.067  0.234

 Mode:                13                     14                     15
 Frequency:      1041.99                1061.76                1110.51
 Force Cnst:      1.6126                 1.1404                 2.7494
 Red. Mass:       2.5208                 1.7169                 3.7839
 IR Active:          YES                    YES                    YES
 IR Intens:       98.133                 61.571                588.531
 Raman Active:       YES                    YES                    YES
               X      Y      Z        X      Y      Z        X      Y      Z
 C          0.113  0.035  0.032   -0.170 -0.051 -0.062    0.092 -0.010 -0.259
 C         -0.052  0.044  0.202   -0.021  0.004  0.091    0.015 -0.091  0.003
 O          0.019 -0.103  0.019    0.001 -0.036  0.013   -0.026  0.064  0.019
 O          0.011  0.116 -0.172    0.005  0.055 -0.080    0.012  0.006 -0.011
 O         -0.031  0.004  0.010    0.040 -0.000 -0.005   -0.165  0.132  0.251
 H          0.242 -0.566 -0.204    0.134 -0.294 -0.109    0.047 -0.066 -0.046
 H          0.110 -0.147  0.166    0.048 -0.056  0.063   -0.016  0.107 -0.112
 H         -0.508 -0.168 -0.283    0.752  0.250  0.407    0.382 -0.084 -0.300
 H         -0.116  0.024  0.106   -0.078 -0.023  0.003    0.032 -0.064  0.021
 O         -0.023 -0.019 -0.016    0.039  0.020  0.022    0.047 -0.090 -0.015
 H         -0.063 -0.051 -0.059    0.083  0.056  0.067    0.373 -0.473 -0.385
 TransDip   0.054 -0.195  0.245   -0.048 -0.169  0.180    0.422 -0.379 -0.531

 Mode:                16                     17                     18
 Frequency:      1112.94                1178.69                1295.58
 Force Cnst:      3.5401                 0.9105                 1.6143
 Red. Mass:       4.8509                 1.1124                 1.6324
 IR Active:          YES                    YES                    YES
 IR Intens:      374.589                 92.764                 14.529
 Raman Active:       YES                    YES                    YES
               X      Y      Z        X      Y      Z        X      Y      Z
 C          0.001 -0.009 -0.080    0.003  0.000  0.003   -0.081 -0.022  0.185
 C         -0.086  0.410 -0.042   -0.032  0.017 -0.038    0.007 -0.000 -0.010
 O          0.121 -0.276 -0.088    0.007 -0.003  0.029   -0.002  0.002  0.005
 O         -0.037 -0.066  0.090    0.012 -0.037  0.050   -0.004  0.002  0.003
 O         -0.040  0.038  0.069    0.002 -0.003 -0.003    0.004  0.074 -0.058
 H         -0.233  0.338  0.211    0.209 -0.490 -0.222    0.017 -0.041 -0.018
 H          0.047 -0.234  0.349   -0.117  0.332 -0.397    0.002 -0.035  0.032
 H          0.194  0.007 -0.035   -0.014  0.001  0.002    0.043 -0.218  0.005
 H         -0.092  0.458 -0.057   -0.012  0.579 -0.202    0.002  0.014 -0.024
 O          0.019 -0.025 -0.002   -0.002  0.002  0.001    0.023 -0.013 -0.041
 H          0.106 -0.135 -0.115   -0.005  0.015  0.017    0.502 -0.493 -0.630
 TransDip  -0.038  0.583 -0.207    0.057  0.041 -0.300   -0.055 -0.024  0.106

 Mode:                19                     20                     21
 Frequency:      1348.35                1387.98                1416.86
 Force Cnst:      1.6138                 1.5019                 1.3630
 Red. Mass:       1.5066                 1.3232                 1.1524
 IR Active:          YES                    YES                    YES
 IR Intens:       86.752                 99.250                 13.867
 Raman Active:       YES                    YES                    YES
               X      Y      Z        X      Y      Z        X      Y      Z
 C          0.010  0.003 -0.014   -0.000  0.001 -0.003    0.012  0.014 -0.035
 C          0.095  0.024 -0.145    0.031 -0.128  0.071    0.001  0.001 -0.003
 O         -0.032  0.026  0.055    0.025  0.009 -0.032   -0.001  0.001  0.001
 O         -0.063  0.017  0.041   -0.038  0.032 -0.021   -0.000 -0.000  0.001
 O         -0.003 -0.004  0.007   -0.000  0.000  0.001   -0.004  0.035 -0.013
 H          0.194 -0.470 -0.205   -0.143  0.312  0.124    0.003 -0.008 -0.004
 H          0.105 -0.465  0.614    0.052 -0.189  0.279    0.000 -0.004  0.005
 H         -0.002 -0.003 -0.023   -0.003  0.008  0.005   -0.480  0.633  0.568
 H          0.072 -0.024 -0.210   -0.061  0.750 -0.396    0.004 -0.006  0.003
 O         -0.002  0.000  0.002    0.001 -0.001  0.000    0.019 -0.081  0.012
 H         -0.037  0.024  0.033   -0.005  0.002  0.002    0.100 -0.084 -0.137
 TransDip   0.130 -0.262 -0.056   -0.011 -0.197  0.250    0.001  0.119 -0.008

 Mode:                22                     23                     24
 Frequency:      1720.82                3128.47                3151.27
 Force Cnst:     12.5597                 6.3035                 6.3669
 Red. Mass:       7.1987                 1.0931                 1.0882
 IR Active:          YES                    YES                    YES
 IR Intens:      791.874                 31.963                 31.300
 Raman Active:       YES                    YES                    YES
               X      Y      Z        X      Y      Z        X      Y      Z
 C         -0.211  0.542  0.080   -0.007 -0.066  0.057   -0.000 -0.001  0.001
 C          0.001 -0.001 -0.003    0.001 -0.000 -0.001   -0.072  0.014  0.044
 O         -0.000  0.002  0.001    0.000 -0.000 -0.000   -0.000 -0.001 -0.002
 O          0.001 -0.001  0.003   -0.000  0.000 -0.000    0.001 -0.001 -0.002
 O          0.014 -0.050  0.007    0.000  0.001 -0.001    0.000  0.000 -0.000
 H          0.000 -0.001 -0.002    0.000 -0.000  0.000   -0.000  0.005  0.006
 H         -0.010  0.002 -0.022    0.001 -0.000 -0.000   -0.019  0.007 -0.000
 H          0.286  0.003 -0.528    0.099  0.734 -0.666    0.002  0.012 -0.010
 H          0.009  0.003  0.009   -0.014  0.002  0.007    0.863 -0.162 -0.470
 O          0.137 -0.368 -0.050   -0.001  0.004 -0.000   -0.000  0.000 -0.000
 H         -0.186  0.179  0.258    0.003 -0.022  0.008    0.000 -0.000  0.000
 TransDip  -0.347  0.747  0.366   -0.012 -0.170  0.062   -0.106  0.073  0.125

 Mode:                25                     26                     27
 Frequency:      3727.27                3774.70                3814.07
 Force Cnst:      8.7129                 8.9427                 9.1371
 Red. Mass:       1.0645                 1.0653                 1.0661
 IR Active:          YES                    YES                    YES
 IR Intens:      184.091                150.621                196.932
 Raman Active:       YES                    YES                    YES
               X      Y      Z        X      Y      Z        X      Y      Z
 C         -0.001 -0.002  0.003    0.000  0.000 -0.000    0.000  0.000  0.000
 C          0.000 -0.000  0.000   -0.002 -0.000  0.001    0.001  0.000 -0.002
 O         -0.000 -0.000  0.000   -0.000  0.000  0.000    0.011  0.032 -0.052
 O         -0.001  0.000  0.000   -0.056  0.010  0.025   -0.001 -0.000  0.001
 O         -0.005 -0.046  0.040   -0.000  0.001 -0.001   -0.000 -0.000  0.000
 H          0.000  0.001 -0.002    0.001  0.006 -0.008   -0.174 -0.508  0.841
 H          0.013 -0.003 -0.008    0.901 -0.165 -0.395    0.008 -0.002 -0.004
 H          0.003  0.014 -0.014   -0.000 -0.001  0.001   -0.000 -0.000  0.000
 H          0.000  0.000  0.000    0.015 -0.002 -0.008   -0.001 -0.003  0.002
 O          0.001 -0.001 -0.001   -0.000 -0.000  0.000   -0.000 -0.000 -0.000
 H          0.083  0.749 -0.654   -0.002 -0.012  0.010    0.000  0.002 -0.001
 TransDip   0.119  0.241 -0.342    0.323  0.007 -0.224   -0.049 -0.319  0.313

 STANDARD THERMODYNAMIC QUANTITIES AT   298.15 K  AND     1.00 ATM

   This Molecule has  0 Imaginary Frequencies
   Zero point vibrational energy:       48.995 kcal/mol

   Atom    1 Element C  Has Mass   12.00000
   Atom    2 Element C  Has Mass   12.00000
   Atom    3 Element O  Has Mass   15.99491
   Atom    4 Element O  Has Mass   15.99491
   Atom    5 Element O  Has Mass   15.99491
   Atom    6 Element H  Has Mass    1.00783
   Atom    7 Element H  Has Mass    1.00783
   Atom    8 Element H  Has Mass    1.00783
   Atom    9 Element H  Has Mass    1.00783
   Atom   10 Element O  Has Mass   15.99491
   Atom   11 Element H  Has Mass    1.00783
   Molecular Mass:    93.018790 amu
   Principal axes and moments of inertia in amu*Bohr^2:
                             1           2           3
    Eigenvalues --      340.82315   982.19807  1046.63083
          X               0.65950    -0.63120    -0.40822
          Y               0.62963     0.76051    -0.15872
          Z               0.41064    -0.15236     0.89898
   Rotational Symmetry Number is   1
   The Molecule is an Asymmetric Top
   Translational Enthalpy:        0.889 kcal/mol
   Rotational Enthalpy:           0.889 kcal/mol
   Vibrational Enthalpy:         52.673 kcal/mol
   gas constant (RT):             0.592 kcal/mol
   Translational Entropy:        39.502  cal/mol.K
   Rotational Entropy:           27.351  cal/mol.K
   Vibrational Entropy:          26.779  cal/mol.K

   Total Enthalpy:               55.043 kcal/mol
   Total Entropy:                93.633  cal/mol.K
 Total job time:  4226.18s(wall), 32514.99s(cpu) 
 Fri Jan  5 22:04:18 2024

        *************************************************************
        *                                                           *
        *  Thank you very much for using Q-Chem.  Have a nice day.  *
        *                                                           *
        *************************************************************


