
Running Job 1 of 1 Q_in.in
qchem Q_in.in_115554.0 /scratch/ari.fischer/qChem1789412.hpc-mn1/qchem115554/ 0
/usr/local/qchem-5.4.1/exe/qcprog.exe_s Q_in.in_115554.0 /scratch/ari.fischer/qChem1789412.hpc-mn1/qchem115554/
                  Welcome to Q-Chem
     A Quantum Leap Into The Future Of Chemistry


 Q-Chem 5.4, Q-Chem, Inc., Pleasanton, CA (2021)

 License issued to: Nanyang Technological University (site)

 E. Epifanovsky,  A. T. B. Gilbert,  Xintian Feng,  Joonho Lee,  Yuezhi Mao,  
 N. Mardirossian,  P. Pokhilko,  A. White,  M. Wormit,  M. P. Coons,  
 A. L. Dempwolff,  Zhengting Gan,  D. Hait,  P. R. Horn,  L. D. Jacobson,  
 I. Kaliman,  J. Kussmann,  A. W. Lange,  Ka Un Lao,  D. S. Levine,  Jie Liu,  
 S. C. McKenzie,  A. F. Morrison,  K. Nanda,  F. Plasser,  D. R. Rehn,  
 M. L. Vidal,  Zhi-Qiang You,  Ying Zhu,  B. Alam,  B. Albrecht,  
 A. Aldossary,  E. Alguire,  J. H. Andersen,  D. Barton,  K. Begam,  A. Behn,  
 Y. A. Bernard,  E. J. Berquist,  H. Burton,  A. Carreras,  K. Carter-Fenk,  
 R. Chakraborty,  A. D. Chien,  K. D. Closser,  V. Cofer-Shabica,  
 S. Dasgupta,  Jia Deng,  M. de Wergifosse,  M. Diedenhofen,  Hainam Do,  
 S. Ehlert,  Po-Tung Fang,  S. Fatehi,  Qingguo Feng,  T. Friedhoff,  
 J. Gayvert,  Qinghui Ge,  G. Gidofalvi,  M. Goldey,  J. Gomes,  
 C. Gonzalez-Espinoza,  S. Gulania,  A. Gunina,  M. W. D. Hanson-Heine,  
 P. H. P. Harbach,  A. W. Hauser,  M. F. Herbst,  M. Hernandez Vera,  
 M. Hodecker,  Z. C. Holden,  S. Houck,  Xunkun Huang,  Kerwin Hui,  
 B. C. Huynh,  M. Ivanov,  Hyunjun Ji,  Hanjie Jiang,  B. Kaduk,  S. Kaehler,  
 K. Khistyaev,  Jaehoon Kim,  P. Klunzinger,  Z. Koczor-Benda,  
 Joong Hoon Koh,  D. Kosenkov,  L. Koulias,  T. Kowalczyk,  C. M. Krauter,  
 K. Kue,  A. Kunitsa,  T. Kus,  A. Landau,  K. V. Lawler,  D. Lefrancois,  
 S. Lehtola,  Rain Li,  Yi-Pei Li,  Jiashu Liang,  M. Liebenthal,  
 Hung-Hsuan Lin,  You-Sheng Lin,  Fenglai Liu,  Kuan-Yu Liu,  
 M. Loipersberger,  A. Luenser,  A. Manjanath,  P. Manohar,  E. Mansoor,  
 S. F. Manzer,  Shan-Ping Mao,  A. V. Marenich,  T. Markovich,  S. Mason,  
 S. A. Maurer,  P. F. McLaughlin,  M. F. S. J. Menger,  J.-M. Mewes,  
 S. A. Mewes,  P. Morgante,  J. W. Mullinax,  K. J. Oosterbaan,  G. Paran,  
 Alexander C. Paul,  Suranjan K. Paul,  F. Pavosevic,  Zheng Pei,  S. Prager,  
 E. I. Proynov,  E. Ramos,  B. Rana,  A. E. Rask,  A. Rettig,  R. M. Richard,  
 F. Rob,  E. Rossomme,  T. Scheele,  M. Scheurer,  M. Schneider,  
 N. Sergueev,  S. M. Sharada,  W. Skomorowski,  D. W. Small,  C. J. Stein,  
 Yu-Chuan Su,  E. J. Sundstrom,  Zhen Tao,  J. Thirman,  T. Tsuchimochi,  
 N. M. Tubman,  S. P. Veccham,  O. Vydrov,  J. Wenzel,  J. Witte,  A. Yamada,  
 Kun Yao,  S. Yeganeh,  S. R. Yost,  A. Zech,  Igor Ying Zhang,  Xing Zhang,  
 Yu Zhang,  D. Zuev,  A. Aspuru-Guzik,  A. T. Bell,  N. A. Besley,  
 K. B. Bravaya,  B. R. Brooks,  D. Casanova,  Jeng-Da Chai,  S. Coriani,  
 C. J. Cramer,  A. E. DePrince, III,  R. A. DiStasio Jr.,  A. Dreuw,  
 B. D. Dunietz,  T. R. Furlani,  W. A. Goddard III,  S. Grimme,  
 S. Hammes-Schiffer,  T. Head-Gordon,  W. J. Hehre,  Chao-Ping Hsu,  
 T.-C. Jagau,  Yousung Jung,  A. Klamt,  Jing Kong,  D. S. Lambrecht,  
 WanZhen Liang,  N. J. Mayhall,  C. W. McCurdy,  J. B. Neaton,  
 C. Ochsenfeld,  J. A. Parkhill,  R. Peverati,  V. A. Rassolov,  Yihan Shao,  
 L. V. Slipchenko,  T. Stauch,  R. P. Steele,  J. E. Subotnik,  
 A. J. W. Thom,  A. Tkatchenko,  D. G. Truhlar,  T. Van Voorhis,  
 T. A. Wesolowski,  K. B. Whaley,  H. L. Woodcock III,  P. M. Zimmerman,  
 S. Faraji,  P. M. W. Gill,  M. Head-Gordon,  J. M. Herbert,  A. I. Krylov

 Additional authors for Version 5.4.1: 
 S. Kotaru,  Shaozhi Li,  Xiangyuan Li,  F. Matz,  A. Molle,  Haisheng Ren,  
 Yingli Su,  Hung-Yi Tsai,  C. Utku,  Fang Wang

 Contributors to earlier versions of Q-Chem not listed above: 
 R. D. Adamson,  B. Austin,  R. Baer,  J. Baker,  G. J. O. Beran,  
 K. Brandhorst,  S. T. Brown,  E. F. C. Byrd,  A. K. Chakraborty,  
 G. K. L. Chan,  Chun-Min Chang,  Yunqing Chen,  C.-L. Cheng,  
 Siu Hung Chien,  D. M. Chipman,  D. L. Crittenden,  H. Dachsel,  
 R. J. Doerksen,  A. D. Dutoi,  R. G. Edgar,  J. Fosso-Tande,  
 L. Fusti-Molnar,  D. Ghosh,  A. Ghysels,  A. Golubeva-Zadorozhnaya,  
 J. Gonthier,  M. S. Gordon,  S. R. Gwaltney,  G. Hawkins,  J. E. Herr,  
 A. Heyden,  S. Hirata,  E. G. Hohenstein,  G. Kedziora,  F. J. Keil,  
 C. Kelley,  Jihan Kim,  R. A. King,  R. Z. Khaliullin,  P. P. Korambath,  
 W. Kurlancheek,  A. Laurent,  A. M. Lee,  M. S. Lee,  S. V. Levchenko,  
 Ching Yeh Lin,  D. Liotard,  E. Livshits,  R. C. Lochan,  I. Lotan,  
 L. A. Martinez-Martinez,  P. E. Maslen,  N. Nair,  D. P. O'Neill,  
 D. Neuhauser,  E. Neuscamman,  C. M. Oana,  R. Olivares-Amaya,  R. Olson,  
 T. M. Perrine,  B. Peters,  P. A. Pieniazek,  A. Prociuk,  Y. M. Rhee,  
 J. Ritchie,  M. A. Rohrdanz,  E. Rosta,  N. J. Russ,  H. F. Schaefer III,  
 M. W. Schmidt,  N. E. Schultz,  S. Sharma,  N. Shenvi,  C. D. Sherrill,  
 A. C. Simmonett,  A. Sodt,  T. Stein,  D. Stuck,  K. S. Thanthiriwatte,  
 V. Vanovschi,  L. Vogt,  Tao Wang,  A. Warshel,  M. A. Watson,  
 C. F. Williams,  Q. Wu,  X. Xu,  Jun Yang,  W. Zhang,  Yan Zhao

 Please cite Q-Chem as follows:
 Y. Shao et al., Mol. Phys. 113, 184-215 (2015)
 DOI: 10.1080/00268976.2014.952696

 Q-Chem 5.4.1 for Intel X86 EM64T Linux

 Parts of Q-Chem use Armadillo 9.800.1 (Horizon Scraper).
 http://arma.sourceforge.net/

 Q-Chem begins on Tue Oct  3 07:55:47 2023  

 Host: 
0

     Scratch files written to /scratch/ari.fischer/qChem1789412.hpc-mn1/qchem115554//
 Aug1521 |scratch|qcdevops|jenkins|workspace|build_RNUM 8249   
 Processing $rem in /usr/local/qchem-5.4.1/config/preferences:
 Processing $rem in /home/ari.fischer/.qchemrc:
 Symmetry turned off for PCM/SM12/SMD calculation

 Checking the input file for inconsistencies... 	...done.

--------------------------------------------------------------
User input:
--------------------------------------------------------------
$molecule
0 2
C         2.2386144340    0.7695224873   -1.3971454600
C        -0.2348992047   -0.3391104705   -2.6138848497
O         0.2642667864   -1.6038452992   -2.3562289160
O         0.1488846076    0.1346771311   -3.8403319592
O         2.6912587827    0.7502592036   -2.6630441634
H        -0.0639802103   -1.8719187628   -1.4808095420
H         1.1256378833    0.1233827784   -3.8589805833
H         2.1739516599   -0.2474203550   -0.9965852203
H        -1.2976564883   -0.1855275750   -2.4185166931
O         1.9752392391    1.7800699178   -0.7835938983
H         2.7386546102    1.6760973442   -2.9790248146
$end

$rem
BASIS = 6-311++G(2df,2p)
GUI = 2
JOB_TYPE = Optimization
METHOD = wB97M-V
SCF_ALGORITHM = DIIS_GDM
MAX_SCF_CYCLES = 400
GEOM_OPT_MAX_CYCLES = 150
SCF_CONVERGENCE = 7
THRESH = 12
UNRESTRICTED = 1
Solvent_method = SMD
$end
--------------------------------------------------------------
 ----------------------------------------------------------------
             Standard Nuclear Orientation (Angstroms)
    I     Atom           X                Y                Z
 ----------------------------------------------------------------
    1      C       2.2386144340     0.7695224873    -1.3971454600
    2      C      -0.2348992047    -0.3391104705    -2.6138848497
    3      O       0.2642667864    -1.6038452992    -2.3562289160
    4      O       0.1488846076     0.1346771311    -3.8403319592
    5      O       2.6912587827     0.7502592036    -2.6630441634
    6      H      -0.0639802103    -1.8719187628    -1.4808095420
    7      H       1.1256378833     0.1233827784    -3.8589805833
    8      H       2.1739516599    -0.2474203550    -0.9965852203
    9      H      -1.2976564883    -0.1855275750    -2.4185166931
   10      O       1.9752392391     1.7800699178    -0.7835938983
   11      H       2.7386546102     1.6760973442    -2.9790248146
 ----------------------------------------------------------------
 Nuclear Repulsion Energy =         238.51621396 hartrees
 There are       25 alpha and       24 beta electrons
 Requested basis set is 6-311++G(2df,2p)
 There are 78 shells and 254 basis functions

 Total QAlloc Memory Limit 288000 MB
 Mega-Array Size       188 MB
 MEM_STATIC part       192 MB
 
 Citation of the SMD model:
 Marenich, A.V.; Cramer, C.J.; Truhlar, D.G.
 J. Phys. Chem. B 2009, 113, 6378-6396.
 iSolventCode=           1
 Solvent: water                                                           
 
 vradii
            1           2           3           4           5           6
    1   1.8500000   1.8500000   1.5200000   1.5200000   1.5200000   1.2000000
            7           8           9          10          11
    1   1.2000000   1.2000000   1.2000000   1.5200000   1.2000000
 Changing PCM_VDW_RADII to SMD_RADIUS
 Discretize the solute cavity surface with Lebedev spheres
	Using 110 Lebedev grid points for each H atom
	Using 194 Lebedev grid points for other atoms
	Atomic van der Waals radii will be scaled by 1.20
 Remove points where switching function is < 1.0e-08
 Keep 985 surface tesserae and discard 729 interior tesserae
 Molecular Surface Area = 117.244 Angst**2
 A cutoff of  1.0D-12 yielded   2840 shell pairs
 There are     30147 function pairs (     37645 Cartesian)
 Smallest overlap matrix eigenvalue = 3.42E-04

 Scale SEOQF with 1.000000e-01/1.000000e-01/1.000000e-01

 Standard Electronic Orientation quadrupole field applied
 Nucleus-field energy     =    -0.0000000240 hartrees
 Guess from superposition of atomic densities
 Warning:  Energy on first SCF cycle will be non-variational
 SAD guess density has 49.000000 electrons

 -----------------------------------------------------------------------
  General SCF calculation program by
  Eric Jon Sundstrom, Paul Horn, Yuezhi Mao, Dmitri Zuev, Alec White,
  David Stuck, Shaama M.S., Shane Yost, Joonho Lee, David Small,
  Daniel Levine, Susi Lehtola, Hugh Burton, Evgeny Epifanovsky,
  Bang C. Huynh
 -----------------------------------------------------------------------
 Exchange:     0.1500 Hartree-Fock + 1.0000 wB97M-V + LR-HF
 Correlation:  1.0000 wB97M-V
 Using SG-2 standard quadrature grid
 Nonlocal Correlation:  VV10 with C = 0.0100 and b = 6.00 and scale = 1.00000
 Grid used for NLC:  SG-1 standard quadrature
 
 Citation of the SMD model:
 Marenich, A.V.; Cramer, C.J.; Truhlar, D.G.
 J. Phys. Chem. B 2009, 113, 6378-6396.
 iSolventCode=           1
 Solvent: water                                                           
 
 vradii
            1           2           3           4           5           6
    1   1.8500000   1.8500000   1.5200000   1.5200000   1.5200000   1.2000000
            7           8           9          10          11
    1   1.2000000   1.2000000   1.2000000   1.5200000   1.2000000
 using 8 threads for integral computing
 -------------------------------------------------------
 OpenMP Integral computing Module                
 Release: version 1.0, May 2013, Q-Chem Inc. Pittsburgh 
 -------------------------------------------------------
 -------------------------------------------------------
 OpenMP BLAS3 based DFT computing Module                
 Release: version 1.0, May 2013, Q-Chem Inc. Pittsburgh 
 -------------------------------------------------------
 A unrestricted SCF calculation will be
 performed using DIIS, GDM
 SCF converges when RMS gradient is below 1.0e-07
 ---------------------------------------
  Cycle       Energy         DIIS error
 ---------------------------------------
    1    -380.8638931445      1.55e-02  
    2    -379.9470341192      2.43e-03  Done DIIS. Switching to GDM
 ---------------------------------------
  Cycle       Energy        RMS Gradient
 ---------------------------------------
    1    -379.9470341192      8.87e-02   Descent step
    2    -380.0861793080      3.33e-02   Normal BFGS step
    3    -380.0992841218      1.52e-02   Normal BFGS step
    4    -380.1005075087      9.30e-03   Normal BFGS step
    5    -380.1014320086      3.12e-03   Normal BFGS step
    6    -380.1014900371      1.50e-03   Normal BFGS step
    7    -380.1015011549      2.24e-04   Normal BFGS step
    8    -380.1015018228      1.10e-04   Normal BFGS step
    9    -380.1015021767      4.91e-05   Normal BFGS step
   10    -380.1015022088      2.19e-05   Normal BFGS step
   11    -380.1015022170      1.03e-05   Normal BFGS step
   12    -380.1015022178      3.06e-06   Normal BFGS step
   13    -380.1015022179      1.09e-06   Normal BFGS step
   14    -380.1015022180      5.95e-07   Normal BFGS step
   15    -380.1015022179      3.90e-07   Normal BFGS step
   16    -380.1015022179      1.24e-07   Normal BFGS step
   17    -380.1015022180      4.91e-08  Convergence criterion met
 ---------------------------------------
 SCF time:   CPU 432.12s  wall 54.00s 
<S^2> =          0.752450331
(3)  G-ENP(liq) elect-nuc-pol free energy of system     -380.101502218 a.u.
(4)  G-CDS(liq) cavity-dispersion-solvent structure 
     free energy                                                6.0665 kcal/mol
(6)  G-S(liq) free energy of system                     -380.091834612 a.u.
 SCF   energy in the final basis set =     -380.0918346120
 Total energy in the final basis set =     -380.0918346120
 
 --------------------------------------------------------------
 
                    Orbital Energies (a.u.)
 --------------------------------------------------------------
 
 Alpha MOs
 -- Occupied --
-19.3914 -19.3659 -19.3621 -19.3424 -10.4886 -10.4370  -1.2480  -1.2162
 -1.1626  -1.1528  -0.7829  -0.7768  -0.6696  -0.6338  -0.6203  -0.6123
 -0.5828  -0.5501  -0.5245  -0.5025  -0.4868  -0.4464  -0.4432  -0.4086
 -0.2714
 -- Virtual --
  0.0310   0.0416   0.0483   0.0606   0.0689   0.0844   0.0892   0.0996
  0.1128   0.1248   0.1334   0.1513   0.1679   0.1764   0.2062   0.2152
  0.2237   0.2373   0.2503   0.2594   0.2643   0.2753   0.2875   0.2953
  0.3041   0.3206   0.3233   0.3341   0.3394   0.3412   0.3566   0.3591
  0.3777   0.3933   0.4067   0.4159   0.4321   0.4760   0.4943   0.5673
  0.5801   0.5857   0.5888   0.6366   0.6382   0.6575   0.6764   0.7020
  0.7044   0.7198   0.7439   0.7916   0.7956   0.8176   0.8351   0.8645
  0.8886   0.9072   0.9344   0.9590   0.9898   1.0302   1.0381   1.0811
  1.0968   1.1073   1.1292   1.1374   1.1486   1.1582   1.1721   1.1785
  1.1849   1.2044   1.2318   1.2529   1.2688   1.2770   1.3251   1.3438
  1.3734   1.4083   1.4461   1.4818   1.4936   1.5108   1.5173   1.5861
  1.6025   1.6323   1.6756   1.7057   1.7309   1.7904   1.8390   1.8488
  1.8729   1.9181   2.0160   2.0410   2.0649   2.1205   2.1349   2.1863
  2.2402   2.2828   2.3174   2.3468   2.4003   2.4208   2.4387   2.4956
  2.5504   2.5880   2.7221   2.7432   2.8259   2.8799   2.9001   2.9524
  3.0291   3.0614   3.0923   3.1187   3.1466   3.2411   3.2618   3.2747
  3.2913   3.3021   3.3359   3.3575   3.4050   3.4389   3.4529   3.4881
  3.5275   3.5443   3.6020   3.6187   3.6720   3.7135   3.7776   3.7982
  3.8078   3.8413   3.8568   3.8791   3.9138   3.9332   4.0214   4.1192
  4.1472   4.1950   4.2169   4.2458   4.2850   4.3338   4.3823   4.4170
  4.4824   5.0414   5.1282   5.1366   5.1750   5.1821   5.1894   5.1944
  5.2045   5.2308   5.2439   5.2576   5.2731   5.2922   5.2975   5.3550
  5.3964   5.4171   5.4246   5.4967   5.5031   5.5136   5.5842   5.6064
  5.6108   5.6362   5.6880   5.9027   5.9167   5.9239   5.9457   6.0174
  6.0361   6.2398   6.3984   6.4811   6.6911   6.7828   6.9044   6.9381
  7.0197   7.0327   7.0394   7.0844   7.1461   7.1980   7.2056   7.2626
  7.2783   7.2835   7.3034   7.3238   7.3339   7.3388   7.3695   7.5591
  7.6031   7.6750   7.7018   7.7293   7.7758   7.7987   7.8316  24.7510
 25.0885  50.5193  50.5443  50.6009  50.7183
 
 Beta MOs
 -- Occupied --
-19.3914 -19.3619 -19.3593 -19.3418 -10.4887 -10.4242  -1.2477  -1.2066
 -1.1618  -1.1449  -0.7797  -0.7615  -0.6624  -0.6326  -0.6195  -0.5994
 -0.5742  -0.5306  -0.5230  -0.4878  -0.4748  -0.4439  -0.4272  -0.4073
 -- Virtual --
  0.0273   0.0367   0.0415   0.0481   0.0599   0.0718   0.0858   0.0952
  0.0995   0.1123   0.1275   0.1329   0.1512   0.1712   0.1767   0.2063
  0.2161   0.2250   0.2405   0.2520   0.2605   0.2640   0.2752   0.2883
  0.2984   0.3057   0.3219   0.3238   0.3337   0.3398   0.3506   0.3580
  0.3617   0.3804   0.3976   0.4145   0.4162   0.4358   0.4776   0.4952
  0.5699   0.5814   0.5897   0.5983   0.6377   0.6499   0.6602   0.6825
  0.7060   0.7173   0.7258   0.7480   0.7932   0.7996   0.8274   0.8400
  0.8676   0.8910   0.9140   0.9392   0.9623   0.9912   1.0344   1.0425
  1.0865   1.0991   1.1096   1.1338   1.1375   1.1490   1.1616   1.1766
  1.1821   1.1876   1.2066   1.2390   1.2592   1.2757   1.2815   1.3328
  1.3476   1.3794   1.4103   1.4524   1.4831   1.4994   1.5134   1.5189
  1.6001   1.6045   1.6389   1.6772   1.7079   1.7365   1.7959   1.8423
  1.8541   1.8744   1.9243   2.0248   2.0454   2.0703   2.1217   2.1391
  2.1931   2.2470   2.2905   2.3230   2.3524   2.4031   2.4298   2.4446
  2.4965   2.5691   2.5982   2.7230   2.7582   2.8342   2.8909   2.9107
  2.9905   3.0591   3.0931   3.1034   3.1516   3.1598   3.2650   3.2805
  3.2934   3.3054   3.3335   3.3625   3.3897   3.4204   3.4478   3.4716
  3.5274   3.5533   3.5789   3.6077   3.6206   3.7054   3.7488   3.7841
  3.8052   3.8187   3.8474   3.8652   3.8897   3.9287   3.9564   4.0233
  4.1281   4.1607   4.1964   4.2302   4.2487   4.2936   4.3420   4.4003
  4.4388   4.4843   5.0421   5.1310   5.1472   5.1821   5.1883   5.2014
  5.2057   5.2157   5.2407   5.2495   5.2717   5.2793   5.2935   5.3023
  5.3755   5.4061   5.4199   5.4321   5.5033   5.5060   5.5182   5.5914
  5.6098   5.6140   5.6373   5.7017   5.9123   5.9228   5.9338   5.9463
  6.0240   6.0446   6.2501   6.3997   6.4973   6.6914   6.7944   6.9064
  6.9399   7.0241   7.0399   7.0467   7.0915   7.1483   7.2060   7.2096
  7.2655   7.2902   7.2926   7.3090   7.3324   7.3371   7.3445   7.3784
  7.5670   7.6036   7.6791   7.7056   7.7362   7.7770   7.8003   7.8372
 24.7626  25.0885  50.5222  50.5445  50.6034  50.7187
 --------------------------------------------------------------
 
          Ground-State Mulliken Net Atomic Charges

     Atom                 Charge (a.u.)    Spin (a.u.)
  --------------------------------------------------------
      1 C                     0.102659      -0.013545
      2 C                    -0.168902       0.854461
      3 O                    -0.361037       0.082567
      4 O                    -0.380541       0.062410
      5 O                    -0.331921      -0.002844
      6 H                     0.334204      -0.006592
      7 H                     0.352698      -0.000903
      8 H                     0.270342      -0.000845
      9 H                     0.245885       0.005589
     10 O                    -0.438225       0.019332
     11 H                     0.374837       0.000371
  --------------------------------------------------------
  Sum of atomic charges =     0.000000
  Sum of spin   charges =     1.000000

 -----------------------------------------------------------------
                    Cartesian Multipole Moments
 -----------------------------------------------------------------
    Charge (ESU x 10^10)
                 0.0000
    Dipole Moment (Debye)
         X       0.6654      Y      -1.7491      Z       0.3957
       Tot       1.9127
    Quadrupole Moments (Debye-Ang)
        XX     -29.9326     XY       1.7672     YY     -38.8983
        XZ      -7.7605     YZ      -7.4839     ZZ     -41.6407
    Octopole Moments (Debye-Ang^2)
       XXX    -113.3357    XXY      -1.6621    XYY     -43.9106
       YYY     -30.5888    XXZ      58.9527    XYZ     -21.2163
       YYZ      81.2015    XZZ      -8.2882    YZZ      23.3004
       ZZZ     276.5201
    Hexadecapole Moments (Debye-Ang^3)
      XXXX    -586.8633   XXXY     -93.9317   XXYY    -141.2437
      XYYY    -119.9382   YYYY    -305.1375   XXXZ     184.1581
      XXYZ     -49.8885   XYYZ      45.1080   YYYZ     -25.2056
      XXZZ    -254.0264   XYZZ      33.6716   YYZZ    -269.5049
      XZZZ      83.0552   YZZZ     -93.5853   ZZZZ   -1511.3360
 -----------------------------------------------------------------
 Calculating analytic gradient of the SCF energy
 Gradient of CDS energy
            1           2           3           4           5           6
    1   0.0017434   0.0017484  -0.0014603  -0.0012804  -0.0013482   0.0000503
    2   0.0012338  -0.0024151   0.0048147  -0.0021573   0.0000410  -0.0005728
    3  -0.0009692  -0.0045030  -0.0008434   0.0051369   0.0028953   0.0001693
            7           8           9          10          11
    1   0.0001320  -0.0002123   0.0000782   0.0003392   0.0002097
    2  -0.0000719  -0.0000696  -0.0000113  -0.0010211   0.0002297
    3  -0.0003198  -0.0004169  -0.0000144  -0.0008315  -0.0003034
 Gradient of SCF Energy
            1           2           3           4           5           6
    1  -0.0002635   0.0123730   0.0093566  -0.0188613   0.0033147  -0.0081793
    2   0.0075363   0.0046336  -0.0002528   0.0015460  -0.0258492  -0.0050731
    3  -0.0050574   0.0029106  -0.0247977  -0.0059419   0.0016226   0.0230761
            7           8           9          10          11
    1   0.0168194  -0.0005081  -0.0096449  -0.0045339   0.0001273
    2   0.0014270  -0.0128546  -0.0005219   0.0101940   0.0192148
    3   0.0026493   0.0033274   0.0022013   0.0101364  -0.0101267
 Max gradient component =       2.585E-02
 RMS gradient           =       1.092E-02
 Computing fast CPCM-SWIG gradient
 Updating gradient with PCM contributions...
 -- total gradient after adding PCM contribution --
---------------------------------------------------
  Atom         X              Y              Z     
---------------------------------------------------
   1      -0.001118      -0.001268       0.000394
   2       0.004595       0.002542       0.004707
   3       0.003947      -0.003222      -0.005892
   4      -0.007179       0.002271      -0.004847
   5       0.001413      -0.009179      -0.005295
   6      -0.002445      -0.000577       0.005925
   7       0.006822      -0.000597       0.002272
   8       0.000040      -0.003012      -0.000262
   9      -0.003754       0.000301      -0.000862
  10      -0.001757       0.006401       0.004431
  11      -0.000564       0.006341      -0.000571
---------------------------------------------------
 Number of fixed atoms: 0
 Gradient time:  CPU 59.78 s  wall 9.18 s
 Geometry Optimization Parameters
   NAtoms,    NIC,     NZ,  NCons,   NDum,   NFix, NCnnct, MaxDiis
       11      55       0       0       0       0       0       0


** GEOMETRY OPTIMIZATION IN DELOCALIZED INTERNAL COORDINATES **
   Searching for a Minimum

   Optimization Cycle:   1

                       Coordinates (Angstroms)
     ATOM                X               Y               Z
      1  C         2.2386144340    0.7695224873   -1.3971454600
      2  C        -0.2348992047   -0.3391104705   -2.6138848497
      3  O         0.2642667864   -1.6038452992   -2.3562289160
      4  O         0.1488846076    0.1346771311   -3.8403319592
      5  O         2.6912587827    0.7502592036   -2.6630441634
      6  H        -0.0639802103   -1.8719187628   -1.4808095420
      7  H         1.1256378833    0.1233827784   -3.8589805833
      8  H         2.1739516599   -0.2474203550   -0.9965852203
      9  H        -1.2976564883   -0.1855275750   -2.4185166931
     10  O         1.9752392391    1.7800699178   -0.7835938983
     11  H         2.7386546102    1.6760973442   -2.9790248146
   Point Group: c1    Number of degrees of freedom:    27


   Energy is   -380.091834612


 Attempting to generate delocalized internal coordinates
 Initial Hessian constructed with Jon Baker's OPTIMIZE code

 27 Hessian modes will be used to form the next step
  Hessian Eigenvalues:
     0.002000    0.011338    0.017779    0.019660    0.022983    0.023028
     0.038597    0.049191    0.065773    0.123081    0.144915    0.160000
     0.160000    0.160000    0.160000    0.160000    0.220018    0.229055
     0.342526    0.346484    0.484009    0.510442    0.514973    0.519726
     0.528474    0.562020    0.993885

 Minimum search - taking simple RFO step
 Searching for Lamda that Minimizes Along All modes
 Value Taken    Lamda =  -0.00152882
 Step Taken.  Stepsize is  0.261305

                             Maximum     Tolerance    Cnvgd?
         Gradient           0.007335      0.000300      NO
         Displacement       0.158836      0.001200      NO
         Energy change     *********      0.000001      NO


 New Cartesian Coordinates Obtained by Inverse Iteration

 Displacement from previous Coordinates is:  1.403271
 ----------------------------------------------------------------
             Standard Nuclear Orientation (Angstroms)
    I     Atom           X                Y                Z
 ----------------------------------------------------------------
    1      C       2.3257660662     0.9328749098    -1.3554703771
    2      C      -0.3079889193    -0.4518034824    -2.5931600347
    3      O       0.1250185852    -1.7602387529    -2.5328204087
    4      O       0.1171811971     0.1857574940    -3.7244990707
    5      O       2.7424312341     0.7411260062    -2.6140380074
    6      H      -0.2199238078    -2.1537032522    -1.7204540469
    7      H       1.0877663648     0.1489114518    -3.7630336585
    8      H       2.1712985301    -0.0166064694    -0.8413701202
    9      H      -1.3525116275    -0.2699571413    -2.3578422484
   10      O       2.1833352080     2.0215762258    -0.8542459538
   11      H       2.8875992691     1.6082494104    -3.0312121735
 ----------------------------------------------------------------
 Nuclear Repulsion Energy =         233.59381637 hartrees
 There are       25 alpha and       24 beta electrons
 Discretize the solute cavity surface with Lebedev spheres
	Using 110 Lebedev grid points for each H atom
	Using 194 Lebedev grid points for other atoms
	Atomic van der Waals radii will be scaled by 1.20
 Remove points where switching function is < 1.0e-08
 Keep 989 surface tesserae and discard 725 interior tesserae
 Molecular Surface Area = 120.346 Angst**2
 Applying Cartesian multipole field
    Component          Value
    ---------          -----
     (2,0,0)        1.00000E-11
     (0,2,0)        2.00000E-11
     (0,0,2)       -3.00000E-11
 Nucleus-field energy     =    -0.0000000222 hartrees
 Requested basis set is 6-311++G(2df,2p)
 There are 78 shells and 254 basis functions
 A cutoff of  1.0D-12 yielded   2794 shell pairs
 There are     29451 function pairs (     36681 Cartesian)
 Smallest overlap matrix eigenvalue = 4.16E-04
 Guess MOs from SCF MO coefficient file

 -----------------------------------------------------------------------
  General SCF calculation program by
  Eric Jon Sundstrom, Paul Horn, Yuezhi Mao, Dmitri Zuev, Alec White,
  David Stuck, Shaama M.S., Shane Yost, Joonho Lee, David Small,
  Daniel Levine, Susi Lehtola, Hugh Burton, Evgeny Epifanovsky,
  Bang C. Huynh
 -----------------------------------------------------------------------
 Exchange:     0.1500 Hartree-Fock + 1.0000 wB97M-V + LR-HF
 Correlation:  1.0000 wB97M-V
 Using SG-2 standard quadrature grid
 Nonlocal Correlation:  VV10 with C = 0.0100 and b = 6.00 and scale = 1.00000
 Grid used for NLC:  SG-1 standard quadrature
 
 Citation of the SMD model:
 Marenich, A.V.; Cramer, C.J.; Truhlar, D.G.
 J. Phys. Chem. B 2009, 113, 6378-6396.
 iSolventCode=           1
 Solvent: water                                                           
 
 vradii
            1           2           3           4           5           6
    1   1.8500000   1.8500000   1.5200000   1.5200000   1.5200000   1.2000000
            7           8           9          10          11
    1   1.2000000   1.2000000   1.2000000   1.5200000   1.2000000
 -------------------------------------------------------
 OpenMP BLAS3 based DFT computing Module                
 Release: version 1.0, May 2013, Q-Chem Inc. Pittsburgh 
 -------------------------------------------------------
 A unrestricted SCF calculation will be
 performed using Roothaan-Hall, DIIS, GDM
 SCF converges when RMS gradient is below 1.0e-07
 ---------------------------------------
  Cycle       Energy         DIIS error
 ---------------------------------------
    1    -380.0177780894      1.09e-03  Roothaan Step
 ---------------------------------------
  Cycle       Energy         DIIS error
 ---------------------------------------
    1    -380.0916515407      4.62e-04  
    2    -380.0974295336      4.64e-04  Done DIIS. Switching to GDM
 ---------------------------------------
  Cycle       Energy        RMS Gradient
 ---------------------------------------
    1    -380.0974295336      2.32e-02   Normal BFGS step
    2    -380.0955526845      3.72e-02  Line search: overstep
    3    -380.1018796886      4.07e-03   Normal BFGS step
    4    -380.1021933350      1.74e-03   Normal BFGS step
    5    -380.1022402363      6.74e-04   Normal BFGS step
    6    -380.1022604690      2.23e-04   Normal BFGS step
    7    -380.1022615513      1.14e-04   Normal BFGS step
    8    -380.1022618204      4.51e-05   Normal BFGS step
    9    -380.1022618511      2.03e-05   Normal BFGS step
   10    -380.1022618545      1.11e-05   Normal BFGS step
   11    -380.1022618553      3.53e-06   Normal BFGS step
   12    -380.1022618556      1.81e-06   Normal BFGS step
   13    -380.1022618556      9.72e-07   Normal BFGS step
   14    -380.1022618556      2.03e-07   Normal BFGS step
   15    -380.1022618556      1.76e-07   Normal BFGS step
   16    -380.1022618556      5.47e-08  Convergence criterion met
 ---------------------------------------
 SCF time:   CPU 423.98s  wall 54.00s 
<S^2> =          0.752444273
(3)  G-ENP(liq) elect-nuc-pol free energy of system     -380.102261856 a.u.
(4)  G-CDS(liq) cavity-dispersion-solvent structure 
     free energy                                                6.3827 kcal/mol
(6)  G-S(liq) free energy of system                     -380.092090303 a.u.
 SCF   energy in the final basis set =     -380.0920903035
 Total energy in the final basis set =     -380.0920903035
 
 --------------------------------------------------------------
 
                    Orbital Energies (a.u.)
 --------------------------------------------------------------
 
 Alpha MOs
 -- Occupied --
-19.3906 -19.3646 -19.3607 -19.3423 -10.4879 -10.4351  -1.2507  -1.2170
 -1.1642  -1.1535  -0.7852  -0.7796  -0.6706  -0.6366  -0.6211  -0.6142
 -0.5795  -0.5551  -0.5229  -0.5020  -0.4864  -0.4462  -0.4428  -0.4096
 -0.2677
 -- Virtual --
  0.0305   0.0415   0.0491   0.0584   0.0702   0.0838   0.0898   0.0971
  0.1148   0.1231   0.1364   0.1513   0.1665   0.1719   0.2060   0.2094
  0.2231   0.2335   0.2468   0.2595   0.2703   0.2814   0.2882   0.2955
  0.3059   0.3135   0.3155   0.3314   0.3364   0.3444   0.3557   0.3604
  0.3748   0.3944   0.4079   0.4225   0.4253   0.4735   0.4943   0.5593
  0.5706   0.5872   0.5902   0.6244   0.6347   0.6635   0.6751   0.6942
  0.7015   0.7251   0.7504   0.7826   0.7968   0.8161   0.8311   0.8551
  0.8813   0.9052   0.9311   0.9473   0.9627   0.9930   1.0387   1.0807
  1.0871   1.1042   1.1247   1.1327   1.1439   1.1510   1.1663   1.1772
  1.1791   1.1980   1.2209   1.2392   1.2595   1.2710   1.3022   1.3340
  1.3679   1.4066   1.4368   1.4806   1.4895   1.5011   1.5190   1.5801
  1.5986   1.6287   1.6663   1.7033   1.7342   1.7443   1.8263   1.8488
  1.8790   1.9159   1.9898   2.0403   2.0789   2.1292   2.1413   2.1731
  2.2264   2.2690   2.3152   2.3415   2.3942   2.4058   2.4361   2.4838
  2.5296   2.5624   2.7277   2.7490   2.8261   2.8583   2.8800   2.9120
  3.0153   3.0696   3.0913   3.1034   3.1322   3.2500   3.2626   3.2700
  3.2882   3.3055   3.3097   3.3599   3.3946   3.4224   3.4432   3.4754
  3.5236   3.5507   3.5988   3.6227   3.6476   3.6747   3.7844   3.7990
  3.8071   3.8346   3.8579   3.8758   3.8974   3.9380   4.0255   4.1187
  4.1289   4.1975   4.2216   4.2279   4.2994   4.3408   4.4017   4.4209
  4.4836   5.0439   5.1278   5.1454   5.1712   5.1824   5.1897   5.1923
  5.2036   5.2159   5.2338   5.2505   5.2715   5.2900   5.2946   5.3552
  5.3990   5.4113   5.4261   5.4951   5.5129   5.5137   5.5755   5.6160
  5.6268   5.6422   5.6987   5.9205   5.9317   5.9391   5.9673   6.0365
  6.0500   6.2641   6.4054   6.4772   6.6969   6.7957   6.9036   6.9428
  7.0263   7.0396   7.0438   7.0942   7.1626   7.2081   7.2165   7.2465
  7.2766   7.2887   7.3043   7.3208   7.3418   7.3536   7.3571   7.5678
  7.6019   7.6760   7.7019   7.7298   7.7656   7.8019   7.8200  24.7712
 25.1032  50.5232  50.5432  50.5936  50.7161
 
 Beta MOs
 -- Occupied --
-19.3906 -19.3606 -19.3580 -19.3421 -10.4879 -10.4223  -1.2506  -1.2072
 -1.1638  -1.1456  -0.7821  -0.7643  -0.6633  -0.6358  -0.6200  -0.6020
 -0.5733  -0.5326  -0.5218  -0.4876  -0.4743  -0.4447  -0.4264  -0.4091
 -- Virtual --
  0.0268   0.0383   0.0422   0.0488   0.0576   0.0723   0.0885   0.0947
  0.0971   0.1141   0.1250   0.1361   0.1508   0.1681   0.1727   0.2066
  0.2099   0.2241   0.2363   0.2478   0.2602   0.2703   0.2815   0.2888
  0.2975   0.3073   0.3140   0.3164   0.3313   0.3367   0.3522   0.3598
  0.3638   0.3764   0.4010   0.4102   0.4242   0.4302   0.4752   0.4946
  0.5642   0.5729   0.5934   0.5980   0.6260   0.6376   0.6733   0.6774
  0.6996   0.7109   0.7305   0.7584   0.7859   0.8001   0.8245   0.8360
  0.8575   0.8824   0.9163   0.9348   0.9523   0.9656   0.9996   1.0402
  1.0835   1.0914   1.1065   1.1275   1.1330   1.1485   1.1532   1.1683
  1.1810   1.1821   1.2012   1.2289   1.2436   1.2650   1.2746   1.3101
  1.3380   1.3743   1.4072   1.4440   1.4814   1.4925   1.5065   1.5206
  1.5961   1.5994   1.6337   1.6680   1.7084   1.7397   1.7453   1.8283
  1.8535   1.8808   1.9226   2.0011   2.0423   2.0863   2.1302   2.1432
  2.1799   2.2345   2.2752   2.3227   2.3463   2.3966   2.4133   2.4442
  2.4846   2.5457   2.5758   2.7288   2.7661   2.8327   2.8672   2.8861
  2.9575   3.0447   3.0942   3.1104   3.1381   3.1459   3.2629   3.2761
  3.2946   3.3107   3.3317   3.3458   3.3944   3.4181   3.4291   3.4540
  3.5303   3.5347   3.5793   3.6033   3.6232   3.7002   3.7077   3.7906
  3.8037   3.8111   3.8437   3.8656   3.8878   3.9261   3.9487   4.0262
  4.1288   4.1386   4.1992   4.2269   4.2423   4.3066   4.3489   4.4187
  4.4432   4.4847   5.0443   5.1288   5.1538   5.1832   5.1885   5.2015
  5.2033   5.2103   5.2354   5.2399   5.2574   5.2763   5.2935   5.2979
  5.3762   5.4077   5.4136   5.4329   5.5047   5.5133   5.5180   5.5831
  5.6185   5.6298   5.6439   5.7136   5.9350   5.9377   5.9457   5.9674
  6.0384   6.0626   6.2744   6.4063   6.4935   6.6971   6.8073   6.9047
  6.9438   7.0351   7.0458   7.0482   7.1006   7.1643   7.2169   7.2201
  7.2494   7.2885   7.2986   7.3125   7.3280   7.3470   7.3598   7.3603
  7.5755   7.6022   7.6793   7.7060   7.7358   7.7677   7.8025   7.8261
 24.7829  25.1032  50.5260  50.5438  50.5960  50.7162
 --------------------------------------------------------------
 
          Ground-State Mulliken Net Atomic Charges

     Atom                 Charge (a.u.)    Spin (a.u.)
  --------------------------------------------------------
      1 C                     0.120493      -0.008283
      2 C                    -0.182352       0.862710
      3 O                    -0.363081       0.081510
      4 O                    -0.368286       0.061566
      5 O                    -0.333221       0.000382
      6 H                     0.336510      -0.006718
      7 H                     0.353232      -0.001344
      8 H                     0.269678      -0.002213
      9 H                     0.234900       0.002280
     10 O                    -0.438318       0.009733
     11 H                     0.370444       0.000378
  --------------------------------------------------------
  Sum of atomic charges =    -0.000000
  Sum of spin   charges =     1.000000

 -----------------------------------------------------------------
                    Cartesian Multipole Moments
 -----------------------------------------------------------------
    Charge (ESU x 10^10)
                -0.0000
    Dipole Moment (Debye)
         X       0.5484      Y      -2.2552      Z       0.4122
       Tot       2.3573
    Quadrupole Moments (Debye-Ang)
        XX     -29.6199     XY       1.3684     YY     -40.0920
        XZ      -8.1341     YZ      -6.6776     ZZ     -41.0324
    Octopole Moments (Debye-Ang^2)
       XXX    -112.8621    XXY      -4.7180    XYY     -51.6606
       YYY     -44.6528    XXZ      55.2746    XYZ     -22.2649
       YYZ      83.0655    XZZ      -4.7484    YZZ      23.3586
       ZZZ     272.6371
    Hexadecapole Moments (Debye-Ang^3)
      XXXX    -625.6348   XXXY    -123.3676   XXYY    -174.3868
      XYYY    -164.6734   YYYY    -377.1321   XXXZ     161.0106
      XXYZ     -56.4718   XYYZ      50.3976   YYYZ     -18.7455
      XXZZ    -241.9483   XYZZ      30.6532   YYZZ    -285.5351
      XZZZ      60.4624   YZZZ    -112.2916   ZZZZ   -1473.6743
 -----------------------------------------------------------------
 Calculating analytic gradient of the SCF energy
 Gradient of CDS energy
            1           2           3           4           5           6
    1   0.0016467   0.0018240  -0.0014886  -0.0013909  -0.0011648   0.0001046
    2   0.0009100  -0.0025360   0.0054506  -0.0027573   0.0004919  -0.0005427
    3  -0.0010179  -0.0044603  -0.0002651   0.0045226   0.0027310   0.0001503
            7           8           9          10          11
    1   0.0001105  -0.0001552   0.0000924   0.0002054   0.0002158
    2  -0.0000511  -0.0000468  -0.0000161  -0.0010778   0.0001755
    3  -0.0003089  -0.0003127  -0.0000208  -0.0006931  -0.0003251
 Gradient of SCF Energy
            1           2           3           4           5           6
    1  -0.0024979   0.0059940   0.0062661  -0.0124734   0.0010811  -0.0065632
    2   0.0064795   0.0011824   0.0045972   0.0004525  -0.0167519  -0.0064657
    3  -0.0031153  -0.0009175  -0.0182363  -0.0012061   0.0057883   0.0163115
            7           8           9          10          11
    1   0.0135281  -0.0000442  -0.0063777  -0.0008110   0.0018983
    2   0.0019521  -0.0090374  -0.0009300   0.0057485   0.0127730
    3  -0.0003359   0.0042350   0.0036215   0.0052266  -0.0113719
 Max gradient component =       1.824E-02
 RMS gradient           =       7.806E-03
 Computing fast CPCM-SWIG gradient
 Updating gradient with PCM contributions...
 -- total gradient after adding PCM contribution --
---------------------------------------------------
  Atom         X              Y              Z     
---------------------------------------------------
   1      -0.004018      -0.001158       0.002932
   2      -0.001439      -0.000443       0.001352
   3       0.000017      -0.000742      -0.001648
   4      -0.000541       0.000522      -0.000507
   5       0.000664      -0.000844      -0.002834
   6      -0.000079       0.000019       0.001016
   7       0.003263       0.000177      -0.000425
   8       0.000943       0.000344       0.000076
   9      -0.000489      -0.000026       0.000487
  10       0.001589       0.001102      -0.000225
  11       0.000090       0.001050      -0.000224
---------------------------------------------------
 Number of fixed atoms: 0
 Gradient time:  CPU 55.81 s  wall 8.42 s
 Geometry Optimization Parameters
   NAtoms,    NIC,     NZ,  NCons,   NDum,   NFix, NCnnct, MaxDiis
       11      55       0       0       0       0       0       0

 Cartesian Hessian Update
 Hessian updated using BFGS update


** GEOMETRY OPTIMIZATION IN DELOCALIZED INTERNAL COORDINATES **
   Searching for a Minimum

   Optimization Cycle:   2

                       Coordinates (Angstroms)
     ATOM                X               Y               Z
      1  C         2.3257660662    0.9328749098   -1.3554703771
      2  C        -0.3079889193   -0.4518034824   -2.5931600347
      3  O         0.1250185852   -1.7602387529   -2.5328204087
      4  O         0.1171811971    0.1857574940   -3.7244990707
      5  O         2.7424312341    0.7411260062   -2.6140380074
      6  H        -0.2199238078   -2.1537032522   -1.7204540469
      7  H         1.0877663648    0.1489114518   -3.7630336585
      8  H         2.1712985301   -0.0166064694   -0.8413701202
      9  H        -1.3525116275   -0.2699571413   -2.3578422484
     10  O         2.1833352080    2.0215762258   -0.8542459538
     11  H         2.8875992691    1.6082494104   -3.0312121735
   Point Group: c1    Number of degrees of freedom:    27


   Energy is   -380.092090303

 Hessian updated using BFGS update

 24 Hessian modes will be used to form the next step
  Hessian Eigenvalues:
     0.002355    0.015072    0.017597    0.020426    0.022729    0.025428
     0.036772    0.048829    0.065527    0.119769    0.145432    0.153853
     0.171690    0.225102    0.232423    0.336238    0.344228    0.449862
     0.490385    0.512618    0.518273    0.526843    0.556732    0.978523

 Minimum search - taking simple RFO step
 Searching for Lamda that Minimizes Along All modes
 Value Taken    Lamda =  -0.00068438
 Step Taken.  Stepsize is  0.218034

                             Maximum     Tolerance    Cnvgd?
         Gradient           0.003703      0.000300      NO
         Displacement       0.131250      0.001200      NO
         Energy change     -0.000256      0.000001      NO


 New Cartesian Coordinates Obtained by Inverse Iteration

 Displacement from previous Coordinates is:  0.876588
 ----------------------------------------------------------------
             Standard Nuclear Orientation (Angstroms)
    I     Atom           X                Y                Z
 ----------------------------------------------------------------
    1      C       2.3322485983     0.8422130555    -1.3680570397
    2      C      -0.3045288404    -0.3975351245    -2.6259908103
    3      O       0.1894756003    -1.6626608682    -2.3974825155
    4      O       0.1361497424     0.1306572524    -3.8032014371
    5      O       2.7356652238     0.7871051947    -2.6397627602
    6      H      -0.1767336426    -1.9900415234    -1.5691104437
    7      H       1.1040820853     0.1193363439    -3.8151982700
    8      H       2.2554327198    -0.1532888600    -0.9321800682
    9      H      -1.3607451733    -0.2405608425    -2.4443159880
   10      O       2.0557559432     1.8648857861    -0.7939433005
   11      H       2.7931698432     1.6860759860    -2.9989034666
 ----------------------------------------------------------------
 Nuclear Repulsion Energy =         235.66932662 hartrees
 There are       25 alpha and       24 beta electrons
 Discretize the solute cavity surface with Lebedev spheres
	Using 110 Lebedev grid points for each H atom
	Using 194 Lebedev grid points for other atoms
	Atomic van der Waals radii will be scaled by 1.20
 Remove points where switching function is < 1.0e-08
 Keep 987 surface tesserae and discard 727 interior tesserae
 Molecular Surface Area = 119.769 Angst**2
 Applying Cartesian multipole field
    Component          Value
    ---------          -----
     (2,0,0)        1.00000E-11
     (0,2,0)        2.00000E-11
     (0,0,2)       -3.00000E-11
 Nucleus-field energy     =    -0.0000000231 hartrees
 Requested basis set is 6-311++G(2df,2p)
 There are 78 shells and 254 basis functions
 A cutoff of  1.0D-12 yielded   2812 shell pairs
 There are     29695 function pairs (     36995 Cartesian)
 Smallest overlap matrix eigenvalue = 3.75E-04
 Guess MOs from SCF MO coefficient file

 -----------------------------------------------------------------------
  General SCF calculation program by
  Eric Jon Sundstrom, Paul Horn, Yuezhi Mao, Dmitri Zuev, Alec White,
  David Stuck, Shaama M.S., Shane Yost, Joonho Lee, David Small,
  Daniel Levine, Susi Lehtola, Hugh Burton, Evgeny Epifanovsky,
  Bang C. Huynh
 -----------------------------------------------------------------------
 Exchange:     0.1500 Hartree-Fock + 1.0000 wB97M-V + LR-HF
 Correlation:  1.0000 wB97M-V
 Using SG-2 standard quadrature grid
 Nonlocal Correlation:  VV10 with C = 0.0100 and b = 6.00 and scale = 1.00000
 Grid used for NLC:  SG-1 standard quadrature
 
 Citation of the SMD model:
 Marenich, A.V.; Cramer, C.J.; Truhlar, D.G.
 J. Phys. Chem. B 2009, 113, 6378-6396.
 iSolventCode=           1
 Solvent: water                                                           
 
 vradii
            1           2           3           4           5           6
    1   1.8500000   1.8500000   1.5200000   1.5200000   1.5200000   1.2000000
            7           8           9          10          11
    1   1.2000000   1.2000000   1.2000000   1.5200000   1.2000000
 -------------------------------------------------------
 OpenMP BLAS3 based DFT computing Module                
 Release: version 1.0, May 2013, Q-Chem Inc. Pittsburgh 
 -------------------------------------------------------
 A unrestricted SCF calculation will be
 performed using Roothaan-Hall, DIIS, GDM
 SCF converges when RMS gradient is below 1.0e-07
 ---------------------------------------
  Cycle       Energy         DIIS error
 ---------------------------------------
    1    -380.0343870808      8.96e-04  Roothaan Step
 ---------------------------------------
  Cycle       Energy         DIIS error
 ---------------------------------------
    1    -380.0927990827      4.59e-04  
    2    -380.0972032956      4.94e-04  Done DIIS. Switching to GDM
 ---------------------------------------
  Cycle       Energy        RMS Gradient
 ---------------------------------------
    1    -380.0972032956      1.96e-02   Normal BFGS step
    2    -380.0947285298      3.23e-02  Line search: overstep
    3    -380.1021976735      3.74e-03   Normal BFGS step
    4    -380.1024648436      1.47e-03   Normal BFGS step
    5    -380.1025098631      6.25e-04   Normal BFGS step
    6    -380.1025264711      2.13e-04   Normal BFGS step
    7    -380.1025273805      1.27e-04   Normal BFGS step
    8    -380.1025275971      4.68e-05   Normal BFGS step
    9    -380.1025276193      1.13e-05   Normal BFGS step
   10    -380.1025276211      4.93e-06   Normal BFGS step
   11    -380.1025276215      1.53e-06   Normal BFGS step
   12    -380.1025276216      7.67e-07   Normal BFGS step
   13    -380.1025276216      3.49e-07   Normal BFGS step
   14    -380.1025276216      1.11e-07   Normal BFGS step
   15    -380.1025276216      4.04e-08  Convergence criterion met
 ---------------------------------------
 SCF time:   CPU 406.18s  wall 51.00s 
<S^2> =          0.752448997
(3)  G-ENP(liq) elect-nuc-pol free energy of system     -380.102527622 a.u.
(4)  G-CDS(liq) cavity-dispersion-solvent structure 
     free energy                                                6.4191 kcal/mol
(6)  G-S(liq) free energy of system                     -380.092298132 a.u.
 SCF   energy in the final basis set =     -380.0922981324
 Total energy in the final basis set =     -380.0922981324
 
 --------------------------------------------------------------
 
                    Orbital Energies (a.u.)
 --------------------------------------------------------------
 
 Alpha MOs
 -- Occupied --
-19.3902 -19.3641 -19.3609 -19.3412 -10.4868 -10.4340  -1.2520  -1.2185
 -1.1649  -1.1548  -0.7863  -0.7813  -0.6731  -0.6378  -0.6207  -0.6149
 -0.5812  -0.5542  -0.5224  -0.5013  -0.4879  -0.4465  -0.4439  -0.4089
 -0.2657
 -- Virtual --
  0.0309   0.0416   0.0483   0.0602   0.0695   0.0844   0.0888   0.0981
  0.1137   0.1237   0.1344   0.1510   0.1679   0.1755   0.2058   0.2148
  0.2244   0.2352   0.2497   0.2584   0.2680   0.2728   0.2856   0.2962
  0.3054   0.3170   0.3211   0.3342   0.3377   0.3412   0.3567   0.3602
  0.3731   0.3972   0.4083   0.4210   0.4285   0.4775   0.4965   0.5674
  0.5782   0.5891   0.5924   0.6278   0.6415   0.6635   0.6727   0.6979
  0.7126   0.7254   0.7517   0.7800   0.7953   0.8206   0.8360   0.8612
  0.8799   0.9024   0.9328   0.9610   0.9715   1.0027   1.0289   1.0797
  1.0909   1.1034   1.1215   1.1373   1.1438   1.1487   1.1702   1.1745
  1.1803   1.1952   1.2271   1.2468   1.2636   1.2752   1.3108   1.3405
  1.3692   1.4083   1.4375   1.4836   1.4909   1.5054   1.5247   1.5851
  1.5997   1.6327   1.6711   1.7188   1.7239   1.7692   1.8430   1.8528
  1.8775   1.9187   1.9971   2.0419   2.0770   2.1165   2.1444   2.1732
  2.2342   2.2748   2.3144   2.3389   2.3953   2.4163   2.4402   2.4860
  2.5407   2.5712   2.7353   2.7481   2.8290   2.8690   2.8986   2.9256
  3.0124   3.0709   3.0907   3.1072   3.1411   3.2445   3.2718   3.2731
  3.2870   3.2979   3.3243   3.3652   3.4008   3.4293   3.4474   3.4799
  3.5162   3.5560   3.6051   3.6264   3.6552   3.6829   3.7849   3.8057
  3.8089   3.8411   3.8617   3.8854   3.9068   3.9329   4.0302   4.1263
  4.1399   4.2007   4.2290   4.2320   4.3041   4.3563   4.4098   4.4308
  4.4912   5.0495   5.1278   5.1441   5.1740   5.1847   5.1921   5.1943
  5.2038   5.2221   5.2414   5.2506   5.2726   5.2902   5.2969   5.3538
  5.4004   5.4172   5.4270   5.4938   5.5137   5.5193   5.5846   5.6219
  5.6333   5.6462   5.7112   5.9239   5.9426   5.9461   5.9847   6.0468
  6.0602   6.2827   6.4160   6.4927   6.7118   6.8023   6.9048   6.9465
  7.0287   7.0362   7.0505   7.1015   7.1705   7.2129   7.2231   7.2575
  7.2873   7.2948   7.3044   7.3210   7.3527   7.3581   7.3826   7.5790
  7.5991   7.6788   7.7021   7.7342   7.7750   7.8043   7.8226  24.7885
 25.1258  50.5275  50.5477  50.6034  50.7272
 
 Beta MOs
 -- Occupied --
-19.3903 -19.3601 -19.3581 -19.3409 -10.4868 -10.4212  -1.2519  -1.2088
 -1.1644  -1.1468  -0.7836  -0.7657  -0.6658  -0.6371  -0.6197  -0.6026
 -0.5748  -0.5315  -0.5213  -0.4871  -0.4762  -0.4447  -0.4271  -0.4083
 -- Virtual --
  0.0277   0.0405   0.0428   0.0480   0.0593   0.0714   0.0860   0.0939
  0.0976   0.1130   0.1264   0.1337   0.1507   0.1712   0.1757   0.2061
  0.2155   0.2254   0.2379   0.2510   0.2592   0.2675   0.2731   0.2861
  0.2986   0.3068   0.3176   0.3217   0.3336   0.3378   0.3480   0.3587
  0.3645   0.3756   0.4029   0.4131   0.4219   0.4340   0.4792   0.4969
  0.5714   0.5793   0.5968   0.5990   0.6319   0.6464   0.6678   0.6790
  0.7031   0.7217   0.7309   0.7580   0.7817   0.7997   0.8311   0.8391
  0.8650   0.8815   0.9122   0.9369   0.9655   0.9738   1.0105   1.0303
  1.0838   1.0926   1.1067   1.1251   1.1374   1.1474   1.1496   1.1721
  1.1795   1.1836   1.1979   1.2343   1.2520   1.2688   1.2801   1.3187
  1.3444   1.3755   1.4096   1.4443   1.4843   1.4947   1.5098   1.5262
  1.5947   1.6067   1.6386   1.6724   1.7214   1.7291   1.7737   1.8458
  1.8578   1.8788   1.9253   2.0080   2.0443   2.0833   2.1176   2.1473
  2.1796   2.2416   2.2810   2.3192   2.3459   2.3983   2.4241   2.4476
  2.4874   2.5642   2.5774   2.7360   2.7658   2.8357   2.8775   2.9018
  2.9755   3.0377   3.0931   3.1127   3.1442   3.1527   3.2653   3.2778
  3.2934   3.3111   3.3376   3.3497   3.4003   3.4199   3.4393   3.4586
  3.5277   3.5378   3.5849   3.6099   3.6278   3.6963   3.7202   3.7916
  3.8109   3.8145   3.8473   3.8693   3.8967   3.9278   3.9527   4.0308
  4.1360   4.1518   4.2021   4.2335   4.2463   4.3119   4.3633   4.4269
  4.4519   4.4928   5.0498   5.1291   5.1536   5.1843   5.1870   5.2030
  5.2096   5.2112   5.2353   5.2491   5.2613   5.2780   5.2921   5.3015
  5.3750   5.4108   5.4198   5.4336   5.5041   5.5172   5.5197   5.5923
  5.6241   5.6375   5.6474   5.7263   5.9364   5.9486   5.9550   5.9848
  6.0500   6.0716   6.2931   6.4169   6.5089   6.7121   6.8139   6.9060
  6.9476   7.0342   7.0474   7.0544   7.1074   7.1717   7.2214   7.2263
  7.2611   7.2986   7.3071   7.3116   7.3273   7.3584   7.3662   7.3841
  7.5869   7.5994   7.6818   7.7067   7.7405   7.7767   7.8061   7.8277
 24.8001  25.1257  50.5304  50.5481  50.6060  50.7274
 --------------------------------------------------------------
 
          Ground-State Mulliken Net Atomic Charges

     Atom                 Charge (a.u.)    Spin (a.u.)
  --------------------------------------------------------
      1 C                     0.116107      -0.016397
      2 C                    -0.184280       0.867306
      3 O                    -0.359139       0.080731
      4 O                    -0.373969       0.062539
      5 O                    -0.328349      -0.000411
      6 H                     0.333134      -0.006825
      7 H                     0.354614      -0.001573
      8 H                     0.265557      -0.000021
      9 H                     0.241678       0.001939
     10 O                    -0.436042       0.012404
     11 H                     0.370689       0.000308
  --------------------------------------------------------
  Sum of atomic charges =     0.000000
  Sum of spin   charges =     1.000000

 -----------------------------------------------------------------
                    Cartesian Multipole Moments
 -----------------------------------------------------------------
    Charge (ESU x 10^10)
                -0.0000
    Dipole Moment (Debye)
         X       0.6795      Y      -1.9098      Z       0.3070
       Tot       2.0502
    Quadrupole Moments (Debye-Ang)
        XX     -29.0617     XY       2.0264     YY     -38.9432
        XZ      -7.8767     YZ      -7.2822     ZZ     -41.1204
    Octopole Moments (Debye-Ang^2)
       XXX    -111.6335    XXY      -2.2874    XYY     -46.2716
       YYY     -35.0447    XXZ      56.6893    XYZ     -22.3177
       YYZ      80.5172    XZZ      -7.6060    YZZ      23.4340
       ZZZ     273.9624
    Hexadecapole Moments (Debye-Ang^3)
      XXXX    -610.4902   XXXY    -106.6348   XXYY    -153.1091
      XYYY    -137.1135   YYYY    -330.8491   XXXZ     173.6027
      XXYZ     -53.3222   XYYZ      44.1358   YYYZ     -25.7673
      XXZZ    -251.8485   XYZZ      32.2771   YYZZ    -271.7282
      XZZZ      74.8923   YZZZ    -101.2916   ZZZZ   -1495.9289
 -----------------------------------------------------------------
 Calculating analytic gradient of the SCF energy
 Gradient of CDS energy
            1           2           3           4           5           6
    1   0.0015393   0.0019533  -0.0015894  -0.0014335  -0.0011006   0.0001220
    2   0.0010504  -0.0024813   0.0049359  -0.0022700   0.0001670  -0.0005127
    3  -0.0008706  -0.0040809  -0.0008735   0.0046719   0.0026496   0.0002143
            7           8           9          10          11
    1   0.0001216  -0.0002276   0.0001019   0.0003300   0.0001830
    2  -0.0000657  -0.0000576  -0.0000152  -0.0009696   0.0002187
    3  -0.0003040  -0.0003237  -0.0000175  -0.0007516  -0.0003139
 Gradient of SCF Energy
            1           2           3           4           5           6
    1   0.0066625   0.0046597   0.0048632  -0.0095386  -0.0010282  -0.0054279
    2   0.0085632   0.0016275   0.0037947  -0.0009588  -0.0126856  -0.0048688
    3  -0.0003552  -0.0028127  -0.0153052   0.0004359   0.0059139   0.0138033
            7           8           9          10          11
    1   0.0097371  -0.0024152  -0.0044285  -0.0041692   0.0010851
    2   0.0022552  -0.0080791  -0.0010019   0.0009434   0.0104101
    3  -0.0001414   0.0026781   0.0033108   0.0024052  -0.0099326
 Max gradient component =       1.531E-02
 RMS gradient           =       6.507E-03
 Computing fast CPCM-SWIG gradient
 Updating gradient with PCM contributions...
 -- total gradient after adding PCM contribution --
---------------------------------------------------
  Atom         X              Y              Z     
---------------------------------------------------
   1       0.005524       0.000335       0.004710
   2      -0.002633      -0.000494      -0.001222
   3      -0.001329      -0.000177       0.001793
   4       0.002289      -0.000390       0.001569
   5      -0.002772       0.003329      -0.001563
   6       0.001237       0.000648      -0.001851
   7      -0.000402       0.000352      -0.000417
   8      -0.002060       0.001320      -0.000803
   9       0.001259      -0.000035       0.000453
  10      -0.001300      -0.002839      -0.003176
  11       0.000187      -0.002046       0.000505
---------------------------------------------------
 Number of fixed atoms: 0
 Gradient time:  CPU 57.02 s  wall 8.55 s
 Geometry Optimization Parameters
   NAtoms,    NIC,     NZ,  NCons,   NDum,   NFix, NCnnct, MaxDiis
       11      55       0       0       0       0       0       0

 Cartesian Hessian Update
 Hessian updated using BFGS update


** GEOMETRY OPTIMIZATION IN DELOCALIZED INTERNAL COORDINATES **
   Searching for a Minimum

   Optimization Cycle:   3

                       Coordinates (Angstroms)
     ATOM                X               Y               Z
      1  C         2.3322485983    0.8422130555   -1.3680570397
      2  C        -0.3045288404   -0.3975351245   -2.6259908103
      3  O         0.1894756003   -1.6626608682   -2.3974825155
      4  O         0.1361497424    0.1306572524   -3.8032014371
      5  O         2.7356652238    0.7871051947   -2.6397627602
      6  H        -0.1767336426   -1.9900415234   -1.5691104437
      7  H         1.1040820853    0.1193363439   -3.8151982700
      8  H         2.2554327198   -0.1532888600   -0.9321800682
      9  H        -1.3607451733   -0.2405608425   -2.4443159880
     10  O         2.0557559432    1.8648857861   -0.7939433005
     11  H         2.7931698432    1.6860759860   -2.9989034666
   Point Group: c1    Number of degrees of freedom:    27


   Energy is   -380.092298132

 Hessian updated using BFGS update

 25 Hessian modes will be used to form the next step
  Hessian Eigenvalues:
     0.002265    0.010577    0.017052    0.019068    0.022840    0.035398
     0.048084    0.063732    0.066555    0.121968    0.144964    0.155838
     0.160476    0.161559    0.218318    0.229090    0.342922    0.344245
     0.464076    0.494258    0.512946    0.517027    0.527325    0.552166
     0.994766

 Minimum search - taking simple RFO step
 Searching for Lamda that Minimizes Along All modes
 Value Taken    Lamda =  -0.00061455
 Step Taken.  Stepsize is  0.186415

                             Maximum     Tolerance    Cnvgd?
         Gradient           0.002672      0.000300      NO
         Displacement       0.117610      0.001200      NO
         Energy change     -0.000208      0.000001      NO


 New Cartesian Coordinates Obtained by Inverse Iteration

 Displacement from previous Coordinates is:  0.849538
 ----------------------------------------------------------------
             Standard Nuclear Orientation (Angstroms)
    I     Atom           X                Y                Z
 ----------------------------------------------------------------
    1      C       2.2943844364     0.7535219788    -1.3846341833
    2      C      -0.2921196213    -0.3429650153    -2.6627126831
    3      O       0.2694448865    -1.5401323450    -2.2792670116
    4      O       0.1430781183     0.0721038590    -3.8850027912
    5      O       2.7013825748     0.8097274269    -2.6531522510
    6      H      -0.1123633271    -1.8028258150    -1.4345387556
    7      H       1.1096821081     0.0932836128    -3.8752671150
    8      H       2.3383136050    -0.2674413735    -1.0033689275
    9      H      -1.3612743030    -0.2342209376    -2.5257928471
   10      O       1.9789760021     1.7141034476    -0.7278598303
   11      H       2.6904676203     1.7310315612    -2.9565497041
 ----------------------------------------------------------------
 Nuclear Repulsion Energy =         238.06652158 hartrees
 There are       25 alpha and       24 beta electrons
 Discretize the solute cavity surface with Lebedev spheres
	Using 110 Lebedev grid points for each H atom
	Using 194 Lebedev grid points for other atoms
	Atomic van der Waals radii will be scaled by 1.20
 Remove points where switching function is < 1.0e-08
 Keep 986 surface tesserae and discard 728 interior tesserae
 Molecular Surface Area = 118.276 Angst**2
 Applying Cartesian multipole field
    Component          Value
    ---------          -----
     (2,0,0)        1.00000E-11
     (0,2,0)        2.00000E-11
     (0,0,2)       -3.00000E-11
 Nucleus-field energy     =    -0.0000000241 hartrees
 Requested basis set is 6-311++G(2df,2p)
 There are 78 shells and 254 basis functions
 A cutoff of  1.0D-12 yielded   2832 shell pairs
 There are     30060 function pairs (     37530 Cartesian)
 Smallest overlap matrix eigenvalue = 3.56E-04
 Guess MOs from SCF MO coefficient file

 -----------------------------------------------------------------------
  General SCF calculation program by
  Eric Jon Sundstrom, Paul Horn, Yuezhi Mao, Dmitri Zuev, Alec White,
  David Stuck, Shaama M.S., Shane Yost, Joonho Lee, David Small,
  Daniel Levine, Susi Lehtola, Hugh Burton, Evgeny Epifanovsky,
  Bang C. Huynh
 -----------------------------------------------------------------------
 Exchange:     0.1500 Hartree-Fock + 1.0000 wB97M-V + LR-HF
 Correlation:  1.0000 wB97M-V
 Using SG-2 standard quadrature grid
 Nonlocal Correlation:  VV10 with C = 0.0100 and b = 6.00 and scale = 1.00000
 Grid used for NLC:  SG-1 standard quadrature
 
 Citation of the SMD model:
 Marenich, A.V.; Cramer, C.J.; Truhlar, D.G.
 J. Phys. Chem. B 2009, 113, 6378-6396.
 iSolventCode=           1
 Solvent: water                                                           
 
 vradii
            1           2           3           4           5           6
    1   1.8500000   1.8500000   1.5200000   1.5200000   1.5200000   1.2000000
            7           8           9          10          11
    1   1.2000000   1.2000000   1.2000000   1.5200000   1.2000000
 -------------------------------------------------------
 OpenMP BLAS3 based DFT computing Module                
 Release: version 1.0, May 2013, Q-Chem Inc. Pittsburgh 
 -------------------------------------------------------
 A unrestricted SCF calculation will be
 performed using Roothaan-Hall, DIIS, GDM
 SCF converges when RMS gradient is below 1.0e-07
 ---------------------------------------
  Cycle       Energy         DIIS error
 ---------------------------------------
    1    -380.0428642544      7.78e-04  Roothaan Step
 ---------------------------------------
  Cycle       Energy         DIIS error
 ---------------------------------------
    1    -380.0938096350      4.27e-04  
    2    -380.0978266644      4.57e-04  Done DIIS. Switching to GDM
 ---------------------------------------
  Cycle       Energy        RMS Gradient
 ---------------------------------------
    1    -380.0978266644      1.66e-02   Normal BFGS step
    2    -380.0957724712      2.82e-02  Line search: overstep
    3    -380.1020941496      3.43e-03   Normal BFGS step
    4    -380.1023329166      1.45e-03   Normal BFGS step
    5    -380.1023749238      5.78e-04   Normal BFGS step
    6    -380.1023895130      2.31e-04   Normal BFGS step
    7    -380.1023904089      1.29e-04   Normal BFGS step
    8    -380.1023906195      5.01e-05   Normal BFGS step
    9    -380.1023906400      1.02e-05   Normal BFGS step
   10    -380.1023906415      4.15e-06   Normal BFGS step
   11    -380.1023906418      1.95e-06   Normal BFGS step
   12    -380.1023906419      8.28e-07   Normal BFGS step
   13    -380.1023906419      3.87e-07   Normal BFGS step
   14    -380.1023906419      1.52e-07   Normal BFGS step
   15    -380.1023906419      7.52e-08  Convergence criterion met
 ---------------------------------------
 SCF time:   CPU 414.43s  wall 52.00s 
<S^2> =          0.752448310
(3)  G-ENP(liq) elect-nuc-pol free energy of system     -380.102390642 a.u.
(4)  G-CDS(liq) cavity-dispersion-solvent structure 
     free energy                                                6.3485 kcal/mol
(6)  G-S(liq) free energy of system                     -380.092273735 a.u.
 SCF   energy in the final basis set =     -380.0922737355
 Total energy in the final basis set =     -380.0922737355
 
 --------------------------------------------------------------
 
                    Orbital Energies (a.u.)
 --------------------------------------------------------------
 
 Alpha MOs
 -- Occupied --
-19.3905 -19.3642 -19.3614 -19.3407 -10.4863 -10.4337  -1.2520  -1.2196
 -1.1649  -1.1555  -0.7857  -0.7816  -0.6747  -0.6370  -0.6202  -0.6144
 -0.5832  -0.5523  -0.5220  -0.5014  -0.4894  -0.4467  -0.4443  -0.4081
 -0.2657
 -- Virtual --
  0.0310   0.0420   0.0475   0.0616   0.0684   0.0845   0.0886   0.0996
  0.1119   0.1256   0.1327   0.1494   0.1674   0.1761   0.2073   0.2193
  0.2267   0.2372   0.2501   0.2575   0.2650   0.2707   0.2865   0.2982
  0.3051   0.3230   0.3253   0.3359   0.3384   0.3422   0.3556   0.3593
  0.3777   0.3977   0.4082   0.4182   0.4285   0.4771   0.4971   0.5709
  0.5823   0.5859   0.5915   0.6344   0.6449   0.6650   0.6784   0.7002
  0.7144   0.7333   0.7510   0.7758   0.7974   0.8235   0.8386   0.8703
  0.8838   0.9016   0.9283   0.9685   0.9750   1.0197   1.0392   1.0757
  1.0985   1.1041   1.1212   1.1404   1.1476   1.1514   1.1730   1.1741
  1.1849   1.1991   1.2282   1.2447   1.2641   1.2877   1.3184   1.3514
  1.3727   1.4076   1.4409   1.4820   1.4917   1.5225   1.5242   1.5890
  1.6053   1.6357   1.6755   1.6922   1.7364   1.7887   1.8513   1.8538
  1.8747   1.9249   2.0037   2.0349   2.0734   2.1317   2.1372   2.1771
  2.2390   2.2755   2.3134   2.3433   2.4011   2.4172   2.4405   2.4977
  2.5518   2.5747   2.7354   2.7439   2.8226   2.8863   2.9256   2.9455
  3.0161   3.0715   3.1045   3.1200   3.1576   3.2307   3.2615   3.2733
  3.2949   3.3029   3.3360   3.3644   3.4075   3.4350   3.4576   3.4870
  3.5270   3.5581   3.6031   3.6258   3.6445   3.6991   3.7829   3.8118
  3.8176   3.8439   3.8622   3.8895   3.9063   3.9338   4.0313   4.1299
  4.1516   4.2021   4.2280   4.2530   4.3015   4.3652   4.4088   4.4298
  4.4965   5.0499   5.1287   5.1419   5.1744   5.1847   5.1936   5.1952
  5.2099   5.2272   5.2476   5.2628   5.2723   5.2895   5.2983   5.3530
  5.4011   5.4210   5.4260   5.4942   5.5140   5.5191   5.5958   5.6243
  5.6302   5.6443   5.7158   5.9204   5.9380   5.9492   5.9883   6.0476
  6.0636   6.2850   6.4228   6.5007   6.7191   6.8037   6.9056   6.9465
  7.0281   7.0386   7.0465   7.0992   7.1720   7.2133   7.2283   7.2669
  7.2913   7.2947   7.3143   7.3274   7.3485   7.3577   7.3925   7.5808
  7.5985   7.6815   7.7059   7.7372   7.7747   7.8066   7.8273  24.7932
 25.1290  50.5280  50.5524  50.6046  50.7307
 
 Beta MOs
 -- Occupied --
-19.3905 -19.3602 -19.3585 -19.3403 -10.4864 -10.4210  -1.2518  -1.2098
 -1.1643  -1.1475  -0.7837  -0.7655  -0.6673  -0.6365  -0.6194  -0.6017
 -0.5760  -0.5304  -0.5208  -0.4868  -0.4783  -0.4446  -0.4276  -0.4071
 -- Virtual --
  0.0275   0.0418   0.0432   0.0474   0.0607   0.0703   0.0842   0.0932
  0.0995   0.1113   0.1283   0.1322   0.1491   0.1702   0.1771   0.2075
  0.2201   0.2279   0.2396   0.2513   0.2589   0.2640   0.2706   0.2874
  0.3007   0.3066   0.3231   0.3261   0.3359   0.3385   0.3495   0.3566
  0.3620   0.3811   0.4021   0.4149   0.4189   0.4345   0.4788   0.4975
  0.5743   0.5834   0.5889   0.6011   0.6406   0.6557   0.6663   0.6850
  0.7065   0.7211   0.7405   0.7548   0.7771   0.8018   0.8328   0.8418
  0.8766   0.8882   0.9078   0.9332   0.9714   0.9768   1.0271   1.0405
  1.0799   1.1008   1.1065   1.1255   1.1405   1.1510   1.1529   1.1752
  1.1784   1.1874   1.2010   1.2342   1.2497   1.2695   1.2949   1.3267
  1.3565   1.3774   1.4101   1.4472   1.4832   1.4969   1.5249   1.5258
  1.5975   1.6130   1.6425   1.6768   1.6948   1.7419   1.7936   1.8535
  1.8604   1.8757   1.9314   2.0144   2.0380   2.0789   2.1330   2.1390
  2.1851   2.2458   2.2823   2.3167   2.3513   2.4048   2.4260   2.4459
  2.4996   2.5763   2.5796   2.7368   2.7601   2.8285   2.8973   2.9292
  3.0013   3.0341   3.0937   3.1266   3.1586   3.1664   3.2551   3.2743
  3.2885   3.3136   3.3385   3.3625   3.3990   3.4243   3.4407   3.4767
  3.5287   3.5539   3.5904   3.6103   3.6279   3.6809   3.7330   3.7883
  3.8220   3.8234   3.8483   3.8684   3.9012   3.9172   3.9625   4.0323
  4.1393   4.1653   4.2032   4.2439   4.2548   4.3104   4.3711   4.4256
  4.4509   4.4990   5.0503   5.1300   5.1528   5.1824   5.1877   5.2021
  5.2110   5.2214   5.2353   5.2535   5.2769   5.2785   5.2910   5.3033
  5.3749   5.4121   5.4252   5.4325   5.5061   5.5144   5.5204   5.6035
  5.6263   5.6350   5.6452   5.7305   5.9298   5.9450   5.9600   5.9884
  6.0554   6.0711   6.2953   6.4237   6.5170   6.7193   6.8153   6.9069
  6.9478   7.0355   7.0436   7.0550   7.1056   7.1730   7.2231   7.2303
  7.2690   7.3041   7.3073   7.3202   7.3352   7.3554   7.3650   7.3937
  7.5882   7.5996   7.6848   7.7102   7.7447   7.7755   7.8082   7.8325
 24.8048  25.1290  50.5310  50.5526  50.6073  50.7310
 --------------------------------------------------------------
 
          Ground-State Mulliken Net Atomic Charges

     Atom                 Charge (a.u.)    Spin (a.u.)
  --------------------------------------------------------
      1 C                     0.114062      -0.021600
      2 C                    -0.193113       0.871145
      3 O                    -0.343667       0.079204
      4 O                    -0.380708       0.063528
      5 O                    -0.323608      -0.002228
      6 H                     0.330181      -0.006436
      7 H                     0.355014      -0.001868
      8 H                     0.264008       0.001176
      9 H                     0.247326       0.002690
     10 O                    -0.441096       0.013979
     11 H                     0.371601       0.000410
  --------------------------------------------------------
  Sum of atomic charges =    -0.000000
  Sum of spin   charges =     1.000000

 -----------------------------------------------------------------
                    Cartesian Multipole Moments
 -----------------------------------------------------------------
    Charge (ESU x 10^10)
                -0.0000
    Dipole Moment (Debye)
         X       0.6610      Y      -1.6079      Z       0.1836
       Tot       1.7481
    Quadrupole Moments (Debye-Ang)
        XX     -29.3417     XY       2.1487     YY     -38.0288
        XZ      -7.6327     YZ      -7.6452     ZZ     -41.1981
    Octopole Moments (Debye-Ang^2)
       XXX    -112.4974    XXY      -2.1073    XYY     -42.4713
       YYY     -27.4023    XXZ      58.4613    XYZ     -21.5610
       YYZ      78.4235    XZZ      -9.8168    YZZ      23.0195
       ZZZ     275.8276
    Hexadecapole Moments (Debye-Ang^3)
      XXXX    -597.1249   XXXY     -97.3478   XXYY    -137.6441
      XYYY    -115.0421   YYYY    -286.5266   XXXZ     183.1065
      XXYZ     -47.4555   XYYZ      40.6361   YYYZ     -29.4040
      XXZZ    -260.2951   XYZZ      31.9307   YYZZ    -260.6696
      XZZZ      84.4134   YZZZ     -92.0576   ZZZZ   -1525.6496
 -----------------------------------------------------------------
 Calculating analytic gradient of the SCF energy
 Gradient of CDS energy
            1           2           3           4           5           6
    1   0.0015292   0.0020184  -0.0016828  -0.0014160  -0.0010923   0.0001376
    2   0.0012393  -0.0023531   0.0043309  -0.0018068  -0.0001088  -0.0004808
    3  -0.0007186  -0.0038896  -0.0013573   0.0048745   0.0026044   0.0002685
            7           8           9          10          11
    1   0.0001342  -0.0002772   0.0001026   0.0003778   0.0001685
    2  -0.0000726  -0.0000926  -0.0000104  -0.0008969   0.0002518
    3  -0.0003022  -0.0003379  -0.0000131  -0.0008305  -0.0002981
 Gradient of SCF Energy
            1           2           3           4           5           6
    1  -0.0051800   0.0072213   0.0053639  -0.0103950   0.0030126  -0.0056068
    2   0.0091861   0.0022732   0.0033723  -0.0012575  -0.0141067  -0.0042874
    3  -0.0064113  -0.0031612  -0.0152980   0.0000767   0.0074472   0.0142934
            7           8           9          10          11
    1   0.0081876   0.0024218  -0.0045063  -0.0009097   0.0003907
    2   0.0021558  -0.0084437  -0.0008912   0.0008053   0.0111939
    3   0.0011969   0.0035869   0.0025486   0.0049667  -0.0092459
 Max gradient component =       1.530E-02
 RMS gradient           =       6.851E-03
 Computing fast CPCM-SWIG gradient
 Updating gradient with PCM contributions...
 -- total gradient after adding PCM contribution --
---------------------------------------------------
  Atom         X              Y              Z     
---------------------------------------------------
   1      -0.004805       0.001029      -0.001605
   2      -0.000085      -0.000129      -0.002081
   3      -0.000695       0.000548       0.002144
   4       0.001385      -0.000173       0.001712
   5      -0.000050       0.002065       0.000714
   6       0.000976       0.000303      -0.001616
   7      -0.001857      -0.000049       0.000770
   8       0.001560       0.000595       0.000512
   9       0.001197       0.000130      -0.000161
  10       0.002062      -0.002438      -0.000775
  11       0.000312      -0.001882       0.000386
---------------------------------------------------
 Number of fixed atoms: 0
 Gradient time:  CPU 58.33 s  wall 8.71 s
 Geometry Optimization Parameters
   NAtoms,    NIC,     NZ,  NCons,   NDum,   NFix, NCnnct, MaxDiis
       11      55       0       0       0       0       0       0

 Cartesian Hessian Update
 Hessian updated using BFGS update


** GEOMETRY OPTIMIZATION IN DELOCALIZED INTERNAL COORDINATES **
   Searching for a Minimum

   Optimization Cycle:   4

                       Coordinates (Angstroms)
     ATOM                X               Y               Z
      1  C         2.2943844364    0.7535219788   -1.3846341833
      2  C        -0.2921196213   -0.3429650153   -2.6627126831
      3  O         0.2694448865   -1.5401323450   -2.2792670116
      4  O         0.1430781183    0.0721038590   -3.8850027912
      5  O         2.7013825748    0.8097274269   -2.6531522510
      6  H        -0.1123633271   -1.8028258150   -1.4345387556
      7  H         1.1096821081    0.0932836128   -3.8752671150
      8  H         2.3383136050   -0.2674413735   -1.0033689275
      9  H        -1.3612743030   -0.2342209376   -2.5257928471
     10  O         1.9789760021    1.7141034476   -0.7278598303
     11  H         2.6904676203    1.7310315612   -2.9565497041
   Point Group: c1    Number of degrees of freedom:    27


   Energy is   -380.092273735

 Hessian updated using BFGS update

 26 Hessian modes will be used to form the next step
  Hessian Eigenvalues:
     0.002561    0.016077    0.016981    0.021221    0.022861    0.036608
     0.047566    0.065114    0.074500    0.120502    0.145169    0.154868
     0.157969    0.160074    0.174042    0.218142    0.229858    0.336690
     0.344302    0.459443    0.493500    0.511730    0.517490    0.525409
     0.551013    0.974470

 Minimum search - taking simple RFO step
 Searching for Lamda that Minimizes Along All modes
 Value Taken    Lamda =  -0.00053346
 Step Taken.  Stepsize is  0.165074

                             Maximum     Tolerance    Cnvgd?
         Gradient           0.004329      0.000300      NO
         Displacement       0.111216      0.001200      NO
         Energy change      0.000024      0.000001      NO


 New Cartesian Coordinates Obtained by Inverse Iteration

 Displacement from previous Coordinates is:  0.774247
 ----------------------------------------------------------------
             Standard Nuclear Orientation (Angstroms)
    I     Atom           X                Y                Z
 ----------------------------------------------------------------
    1      C       2.3124177360     0.8353489410    -1.3691153918
    2      C      -0.2973627821    -0.3861590910    -2.6277301312
    3      O       0.2158872585    -1.6419248273    -2.3854945717
    4      O       0.1206780144     0.1262333803    -3.8210073942
    5      O       2.7294763707     0.7766468348    -2.6362533136
    6      H      -0.1592812172    -1.9696247049    -1.5578596808
    7      H       1.0901591289     0.1216201987    -3.8335915305
    8      H       2.2489269870    -0.1632739484    -0.9320663991
    9      H      -1.3606001547    -0.2519170018    -2.4546389393
   10      O       2.0658299058     1.8594842248    -0.7789648033
   11      H       2.7938408527     1.6797523939    -2.9914239445
 ----------------------------------------------------------------
 Nuclear Repulsion Energy =         235.77946476 hartrees
 There are       25 alpha and       24 beta electrons
 Discretize the solute cavity surface with Lebedev spheres
	Using 110 Lebedev grid points for each H atom
	Using 194 Lebedev grid points for other atoms
	Atomic van der Waals radii will be scaled by 1.20
 Remove points where switching function is < 1.0e-08
 Keep 990 surface tesserae and discard 724 interior tesserae
 Molecular Surface Area = 119.604 Angst**2
 Applying Cartesian multipole field
    Component          Value
    ---------          -----
     (2,0,0)        1.00000E-11
     (0,2,0)        2.00000E-11
     (0,0,2)       -3.00000E-11
 Nucleus-field energy     =    -0.0000000232 hartrees
 Requested basis set is 6-311++G(2df,2p)
 There are 78 shells and 254 basis functions
 A cutoff of  1.0D-12 yielded   2814 shell pairs
 There are     29702 function pairs (     36989 Cartesian)
 Smallest overlap matrix eigenvalue = 3.74E-04
 Guess MOs from SCF MO coefficient file

 -----------------------------------------------------------------------
  General SCF calculation program by
  Eric Jon Sundstrom, Paul Horn, Yuezhi Mao, Dmitri Zuev, Alec White,
  David Stuck, Shaama M.S., Shane Yost, Joonho Lee, David Small,
  Daniel Levine, Susi Lehtola, Hugh Burton, Evgeny Epifanovsky,
  Bang C. Huynh
 -----------------------------------------------------------------------
 Exchange:     0.1500 Hartree-Fock + 1.0000 wB97M-V + LR-HF
 Correlation:  1.0000 wB97M-V
 Using SG-2 standard quadrature grid
 Nonlocal Correlation:  VV10 with C = 0.0100 and b = 6.00 and scale = 1.00000
 Grid used for NLC:  SG-1 standard quadrature
 
 Citation of the SMD model:
 Marenich, A.V.; Cramer, C.J.; Truhlar, D.G.
 J. Phys. Chem. B 2009, 113, 6378-6396.
 iSolventCode=           1
 Solvent: water                                                           
 
 vradii
            1           2           3           4           5           6
    1   1.8500000   1.8500000   1.5200000   1.5200000   1.5200000   1.2000000
            7           8           9          10          11
    1   1.2000000   1.2000000   1.2000000   1.5200000   1.2000000
 -------------------------------------------------------
 OpenMP BLAS3 based DFT computing Module                
 Release: version 1.0, May 2013, Q-Chem Inc. Pittsburgh 
 -------------------------------------------------------
 A unrestricted SCF calculation will be
 performed using Roothaan-Hall, DIIS, GDM
 SCF converges when RMS gradient is below 1.0e-07
 ---------------------------------------
  Cycle       Energy         DIIS error
 ---------------------------------------
    1    -380.0449676243      7.48e-04  Roothaan Step
 ---------------------------------------
  Cycle       Energy         DIIS error
 ---------------------------------------
    1    -380.0943492049      4.17e-04  
    2    -380.0983898786      4.43e-04  Done DIIS. Switching to GDM
 ---------------------------------------
  Cycle       Energy        RMS Gradient
 ---------------------------------------
    1    -380.0983898786      2.04e-02   Normal BFGS step
    2    -380.0964615357      3.37e-02  Line search: overstep
    3    -380.1023952542      3.81e-03   Normal BFGS step
    4    -380.1026157852      1.41e-03   Normal BFGS step
    5    -380.1026528664      5.11e-04   Normal BFGS step
[...]
  1.1907   1.1984   1.2213   1.2356   1.2677   1.2852   1.3072   1.3400
  1.3645   1.4192   1.4363   1.4783   1.4940   1.5135   1.5400   1.5780
  1.5849   1.6313   1.6715   1.6753   1.7246   1.7696   1.8282   1.8544
  1.8713   1.9217   1.9550   2.0144   2.0539   2.1316   2.1452   2.1516
  2.2492   2.2593   2.3054   2.3306   2.3983   2.4159   2.4219   2.4947
  2.5428   2.5861   2.7265   2.7530   2.8079   2.8505   2.8912   2.9226
  3.0349   3.0770   3.0922   3.1022   3.1426   3.2404   3.2451   3.2742
  3.2868   3.2976   3.3544   3.3558   3.4122   3.4407   3.4490   3.4958
  3.5033   3.5518   3.6125   3.6256   3.6757   3.7047   3.7673   3.7979
  3.8181   3.8443   3.8524   3.8725   3.9100   3.9120   4.0288   4.1242
  4.1322   4.2026   4.2222   4.2396   4.2895   4.3383   4.3951   4.4236
  4.4702   5.0546   5.1337   5.1476   5.1753   5.1816   5.1923   5.1981
  5.2046   5.2133   5.2490   5.2540   5.2587   5.2826   5.2967   5.3336
  5.3982   5.4178   5.4260   5.4950   5.5140   5.5178   5.5922   5.6209
  5.6310   5.6368   5.7140   5.9179   5.9260   5.9432   5.9805   6.0292
  6.0621   6.2872   6.4082   6.4912   6.7032   6.8083   6.9121   6.9510
  7.0278   7.0367   7.0606   7.0701   7.1586   7.2099   7.2406   7.2568
  7.2723   7.2765   7.3040   7.3165   7.3357   7.3597   7.3902   7.5745
  7.6023   7.6740   7.7048   7.7433   7.7653   7.7987   7.8206  24.7869
 25.1318  50.5266  50.5537  50.5906  50.7326
 
 Beta MOs
 -- Occupied --
-19.3863 -19.3616 -19.3612 -19.3365 -10.4844 -10.4218  -1.2471  -1.2105
 -1.1590  -1.1479  -0.7799  -0.7658  -0.6681  -0.6325  -0.6160  -0.6004
 -0.5734  -0.5282  -0.5156  -0.4884  -0.4798  -0.4406  -0.4289  -0.4053
 -- Virtual --
  0.0292   0.0386   0.0422   0.0503   0.0549   0.0716   0.0914   0.0966
  0.1024   0.1129   0.1330   0.1366   0.1459   0.1647   0.1745   0.1974
  0.2151   0.2273   0.2453   0.2495   0.2562   0.2681   0.2808   0.2892
  0.2981   0.3018   0.3226   0.3260   0.3297   0.3375   0.3429   0.3514
  0.3642   0.3769   0.4071   0.4130   0.4234   0.4468   0.4590   0.4926
  0.5794   0.5814   0.5951   0.6082   0.6215   0.6377   0.6716   0.6752
  0.7006   0.7164   0.7260   0.7554   0.7738   0.8015   0.8225   0.8390
  0.8540   0.8728   0.9202   0.9530   0.9669   0.9916   1.0504   1.0541
  1.0905   1.0986   1.1131   1.1256   1.1292   1.1428   1.1604   1.1640
  1.1820   1.1917   1.2013   1.2261   1.2434   1.2735   1.2880   1.3152
  1.3454   1.3716   1.4226   1.4428   1.4813   1.4986   1.5169   1.5414
  1.5797   1.6017   1.6356   1.6732   1.6779   1.7301   1.7726   1.8304
  1.8598   1.8723   1.9284   1.9662   2.0223   2.0569   2.1347   2.1471
  2.1595   2.2562   2.2659   2.3076   2.3391   2.4100   2.4187   2.4258
  2.4965   2.5594   2.5971   2.7348   2.7654   2.8219   2.8569   2.9018
  2.9513   3.0722   3.0978   3.1046   3.1445   3.1585   3.2526   3.2685
  3.2877   3.3081   3.3310   3.3746   3.3881   3.4288   3.4474   3.4603
  3.5379   3.5563   3.5717   3.6171   3.6269   3.7116   3.7362   3.7774
  3.8050   3.8290   3.8519   3.8614   3.8860   3.9174   3.9418   4.0299
  4.1349   4.1425   4.2042   4.2275   4.2500   4.3006   4.3395   4.4173
  4.4466   4.4715   5.0554   5.1350   5.1559   5.1844   5.1941   5.1996
  5.2117   5.2152   5.2229   5.2561   5.2610   5.2668   5.2909   5.3000
  5.3558   5.4083   5.4204   5.4320   5.5052   5.5173   5.5193   5.5996
  5.6215   5.6358   5.6397   5.7290   5.9250   5.9357   5.9543   5.9807
  6.0432   6.0628   6.2975   6.4096   6.5074   6.7034   6.8197   6.9143
  6.9532   7.0382   7.0437   7.0631   7.0794   7.1592   7.2183   7.2454
  7.2606   7.2788   7.2877   7.3146   7.3256   7.3426   7.3665   7.3921
  7.5822   7.6034   7.6768   7.7102   7.7500   7.7658   7.8015   7.8250
 24.7986  25.1318  50.5295  50.5539  50.5935  50.7330
 --------------------------------------------------------------
 
          Ground-State Mulliken Net Atomic Charges

     Atom                 Charge (a.u.)    Spin (a.u.)
  --------------------------------------------------------
      1 C                     0.067697      -0.000339
      2 C                    -0.161539       0.839431
      3 O                    -0.363905       0.081993
      4 O                    -0.362902       0.068970
      5 O                    -0.283663      -0.001231
      6 H                     0.336876      -0.006363
      7 H                     0.340949      -0.002872
      8 H                     0.271280      -0.002840
      9 H                     0.245530       0.005142
     10 O                    -0.448146       0.017940
     11 H                     0.357823       0.000170
  --------------------------------------------------------
  Sum of atomic charges =     0.000000
  Sum of spin   charges =     1.000000

 -----------------------------------------------------------------
                    Cartesian Multipole Moments
 -----------------------------------------------------------------
    Charge (ESU x 10^10)
                 0.0000
    Dipole Moment (Debye)
         X       1.1768      Y      -3.1409      Z       0.3729
       Tot       3.3748
    Quadrupole Moments (Debye-Ang)
        XX     -30.5539     XY       1.3307     YY     -41.8548
        XZ      -8.5265     YZ      -2.5974     ZZ     -35.8026
    Octopole Moments (Debye-Ang^2)
       XXX    -110.0993    XXY      -0.0741    XYY     -49.2771
       YYY     -55.4347    XXZ      62.4740    XYZ     -16.9101
       YYZ      92.1543    XZZ       5.1350    YZZ      13.6182
       ZZZ     238.3835
    Hexadecapole Moments (Debye-Ang^3)
      XXXX    -586.9597   XXXY     -76.6985   XXYY    -160.5522
      XYYY    -141.4991   YYYY    -360.0595   XXXZ     170.0500
      XXYZ     -45.7055   XYYZ      66.9726   YYYZ      25.5157
      XXZZ    -236.6191   XYZZ      29.5382   YYZZ    -306.3969
      XZZZ      10.2697   YZZZ     -82.0014   ZZZZ   -1268.8365
 -----------------------------------------------------------------
 Calculating analytic gradient of the SCF energy
 Gradient of CDS energy
            1           2           3           4           5           6
    1   0.0020325   0.0005810  -0.0013505  -0.0003041  -0.0019526   0.0001169
    2   0.0006896  -0.0022862   0.0053792  -0.0030014   0.0009613  -0.0005519
    3  -0.0011355  -0.0049750   0.0005975   0.0043302   0.0024251   0.0000700
            7           8           9          10          11
    1   0.0000352  -0.0000791   0.0000864   0.0005107   0.0003237
    2  -0.0000254  -0.0001025  -0.0000157  -0.0011674   0.0001203
    3  -0.0003868  -0.0002340  -0.0000445  -0.0003976  -0.0002494
 Gradient of SCF Energy
            1           2           3           4           5           6
    1   0.0013845   0.0066312   0.0034864  -0.0146147   0.0005560  -0.0033485
    2   0.0089457   0.0017598   0.0066792   0.0037493  -0.0152692  -0.0082935
    3  -0.0065807  -0.0044398  -0.0163186   0.0051128   0.0116851   0.0158629
            7           8           9          10          11
    1   0.0131642  -0.0005304  -0.0048464  -0.0037174   0.0018351
    2  -0.0004676  -0.0083199  -0.0016166   0.0036439   0.0091887
    3  -0.0048582   0.0057109   0.0044271   0.0033952  -0.0139968
 Max gradient component =       1.632E-02
 RMS gradient           =       8.049E-03
 Computing fast CPCM-SWIG gradient
 Updating gradient with PCM contributions...
 -- total gradient after adding PCM contribution --
---------------------------------------------------
  Atom         X              Y              Z     
---------------------------------------------------
   1      -0.000032       0.000017       0.000062
   2      -0.000024       0.000007       0.000054
   3       0.000009      -0.000019       0.000024
   4       0.000040       0.000036      -0.000087
   5       0.000013      -0.000036      -0.000024
   6      -0.000030       0.000011      -0.000006
   7       0.000014      -0.000040       0.000007
   8      -0.000035       0.000028       0.000019
   9       0.000014       0.000015      -0.000041
  10       0.000003      -0.000013      -0.000028
  11       0.000027      -0.000006       0.000020
---------------------------------------------------
 Number of fixed atoms: 0
 Gradient time:  CPU 57.91 s  wall 8.80 s
 Geometry Optimization Parameters
   NAtoms,    NIC,     NZ,  NCons,   NDum,   NFix, NCnnct, MaxDiis
       11      55       0       0       0       0       0       0

 Cartesian Hessian Update
 Hessian updated using BFGS update


** GEOMETRY OPTIMIZATION IN DELOCALIZED INTERNAL COORDINATES **
   Searching for a Minimum

   Optimization Cycle:  22

                       Coordinates (Angstroms)
     ATOM                X               Y               Z
      1  C         2.1846776643    0.9027811254   -1.3249808651
      2  C        -0.1591031083   -0.3642855248   -2.5386951680
      3  O         0.2376495454   -1.6726041595   -2.7025110897
      4  O         0.0019772064    0.3772120449   -3.6728694308
      5  O         2.8724641065    0.5098423771   -2.3966387172
      6  H         0.0631989386   -2.1499356485   -1.8818740040
      7  H         0.8797612444    0.2060870449   -4.0417696932
      8  H         2.0838841904    0.0909999458   -0.6028209184
      9  H        -1.1113565856   -0.1912310650   -2.0477712794
     10  O         1.7655028094    2.0250667627   -1.1586362537
     11  H         2.9413160884    1.2522534969   -3.0195786805
   Point Group: c1    Number of degrees of freedom:    27


   Energy is   -380.093195257

 Hessian updated using BFGS update

 27 Hessian modes will be used to form the next step
  Hessian Eigenvalues:
     0.001733    0.003111    0.007484    0.011132    0.017116    0.024314
     0.031488    0.063170    0.084419    0.108581    0.117059    0.139253
     0.144555    0.155411    0.163279    0.193990    0.237029    0.251306
     0.343014    0.353578    0.472436    0.495960    0.516043    0.528411
     0.534339    0.573184    0.987267

 Minimum search - taking simple RFO step
 Searching for Lamda that Minimizes Along All modes
 Value Taken    Lamda =  -0.00000008
 Step Taken.  Stepsize is  0.002025

                             Maximum     Tolerance    Cnvgd?
         Gradient           0.000041      0.000300     YES
         Displacement       0.000836      0.001200     YES
         Energy change     -0.000000      0.000001     YES


                       Distance Matrix (Angstroms)
             C (  1)   C (  2)   O (  3)   O (  4)   O (  5)   H (  6)
   C (  2)  2.927775
   O (  3)  3.510145  1.376934
   O (  4)  3.248536  1.364594  2.280106
   O (  5)  1.332630  3.158272  3.434950  3.144209
   H (  6)  3.758973  1.915562  0.965258  3.098046  3.902739
   H (  7)  3.093401  1.914105  2.394870  0.967407  2.601843  3.298904
   H (  8)  1.091175  2.997647  3.305689  3.720410  2.003764  3.277337
   H (  9)  3.547271  1.085238  2.107835  2.050264  4.060054  2.289897
   O ( 10)  1.209505  3.364175  4.288433  3.485228  2.248092  4.566350
   H ( 11)  1.888464  3.529454  3.995640  3.135634  0.971581  4.599220
             H (  7)   H (  8)   H (  9)   O ( 10)
   H (  8)  3.645480
   H (  9)  2.845776  3.518110
   O ( 10)  3.522170  2.037379  3.738831
   H ( 11)  2.527716  2.815034  4.410466  2.332999
 
 Final energy is   -380.093195257445     


 ******************************
 **  OPTIMIZATION CONVERGED  **
 ******************************

                       Coordinates (Angstroms)
     ATOM                X               Y               Z
      1  C         2.1846776643    0.9027811254   -1.3249808651
      2  C        -0.1591031083   -0.3642855248   -2.5386951680
      3  O         0.2376495454   -1.6726041595   -2.7025110897
      4  O         0.0019772064    0.3772120449   -3.6728694308
      5  O         2.8724641065    0.5098423771   -2.3966387172
      6  H         0.0631989386   -2.1499356485   -1.8818740040
      7  H         0.8797612444    0.2060870449   -4.0417696932
      8  H         2.0838841904    0.0909999458   -0.6028209184
      9  H        -1.1113565856   -0.1912310650   -2.0477712794
     10  O         1.7655028094    2.0250667627   -1.1586362537
     11  H         2.9413160884    1.2522534969   -3.0195786805

Z-matrix Print:
$molecule
0 2
O 
H  1 0.971581
C  1 1.332630 2 109.078653
H  3 1.091175 1 111.132504 2 179.793595 0
O  3 1.209505 1 124.267854 2 -2.407097 0
H  2 2.527716 1 83.409576 3 -93.897880 0
O  6 0.967407 2 120.837504 1 82.265325 0
C  7 1.364594 6 109.142999 2 -76.958655 0
H  8 1.085238 7 113.135656 6 177.708239 0
O  8 1.376934 7 112.545067 6 -46.497541 0
H  10 0.965258 8 108.460274 7 -177.551494 0
$end

 
 --------------------------------------------------------------
 
                    Orbital Energies (a.u.)
 --------------------------------------------------------------
 
 Alpha MOs
 -- Occupied --
-19.3864 -19.3651 -19.3646 -19.3371 -10.4844 -10.4346  -1.2475  -1.2202
 -1.1598  -1.1560  -0.7864  -0.7782  -0.6752  -0.6333  -0.6167  -0.6129
 -0.5837  -0.5485  -0.5161  -0.5032  -0.4902  -0.4490  -0.4422  -0.4061
 -0.2639
 -- Virtual --
  0.0301   0.0410   0.0506   0.0548   0.0700   0.0874   0.0915   0.0989
  0.1129   0.1310   0.1365   0.1460   0.1621   0.1741   0.1967   0.2142
  0.2265   0.2425   0.2477   0.2554   0.2675   0.2804   0.2885   0.2973
  0.2981   0.3214   0.3260   0.3282   0.3374   0.3409   0.3425   0.3628
  0.3748   0.4008   0.4104   0.4152   0.4450   0.4578   0.4920   0.5769
  0.5792   0.5880   0.5963   0.6188   0.6360   0.6667   0.6697   0.6943
  0.7074   0.7166   0.7498   0.7706   0.7999   0.8109   0.8365   0.8514
  0.8706   0.9148   0.9506   0.9652   0.9827   1.0491   1.0507   1.0877
  1.0959   1.1041   1.1227   1.1260   1.1413   1.1588   1.1626   1.1771
  1.1907   1.1984   1.2213   1.2356   1.2677   1.2852   1.3072   1.3400
  1.3645   1.4192   1.4363   1.4783   1.4940   1.5135   1.5400   1.5780
  1.5849   1.6313   1.6715   1.6753   1.7246   1.7696   1.8282   1.8544
  1.8713   1.9217   1.9550   2.0144   2.0539   2.1316   2.1452   2.1516
  2.2492   2.2593   2.3054   2.3306   2.3983   2.4159   2.4219   2.4947
  2.5428   2.5861   2.7265   2.7530   2.8079   2.8505   2.8912   2.9226
  3.0349   3.0770   3.0922   3.1022   3.1426   3.2404   3.2451   3.2742
  3.2868   3.2976   3.3544   3.3558   3.4122   3.4407   3.4490   3.4958
  3.5033   3.5518   3.6125   3.6256   3.6757   3.7047   3.7673   3.7979
  3.8181   3.8443   3.8524   3.8725   3.9100   3.9120   4.0288   4.1242
  4.1322   4.2026   4.2222   4.2396   4.2895   4.3383   4.3951   4.4236
  4.4702   5.0546   5.1337   5.1476   5.1753   5.1816   5.1923   5.1981
  5.2046   5.2133   5.2490   5.2540   5.2587   5.2826   5.2967   5.3336
  5.3982   5.4178   5.4260   5.4950   5.5140   5.5178   5.5922   5.6209
  5.6310   5.6368   5.7140   5.9179   5.9260   5.9432   5.9805   6.0292
  6.0621   6.2872   6.4082   6.4912   6.7032   6.8083   6.9121   6.9510
  7.0278   7.0367   7.0606   7.0701   7.1586   7.2099   7.2406   7.2568
  7.2723   7.2765   7.3040   7.3165   7.3357   7.3597   7.3902   7.5745
  7.6023   7.6740   7.7048   7.7433   7.7653   7.7987   7.8206  24.7869
 25.1318  50.5266  50.5537  50.5906  50.7326
 
 Beta MOs
 -- Occupied --
-19.3863 -19.3616 -19.3612 -19.3365 -10.4844 -10.4218  -1.2471  -1.2105
 -1.1590  -1.1479  -0.7799  -0.7658  -0.6681  -0.6325  -0.6160  -0.6004
 -0.5734  -0.5282  -0.5156  -0.4884  -0.4798  -0.4406  -0.4289  -0.4053
 -- Virtual --
  0.0292   0.0386   0.0422   0.0503   0.0549   0.0716   0.0914   0.0966
  0.1024   0.1129   0.1330   0.1366   0.1459   0.1647   0.1745   0.1974
  0.2151   0.2273   0.2453   0.2495   0.2562   0.2681   0.2808   0.2892
  0.2981   0.3018   0.3226   0.3260   0.3297   0.3375   0.3429   0.3514
  0.3642   0.3769   0.4071   0.4130   0.4234   0.4468   0.4590   0.4926
  0.5794   0.5814   0.5951   0.6082   0.6215   0.6377   0.6716   0.6752
  0.7006   0.7164   0.7260   0.7554   0.7738   0.8015   0.8225   0.8390
  0.8540   0.8728   0.9202   0.9530   0.9669   0.9916   1.0504   1.0541
  1.0905   1.0986   1.1131   1.1256   1.1292   1.1428   1.1604   1.1640
  1.1820   1.1917   1.2013   1.2261   1.2434   1.2735   1.2880   1.3152
  1.3454   1.3716   1.4226   1.4428   1.4813   1.4986   1.5169   1.5414
  1.5797   1.6017   1.6356   1.6732   1.6779   1.7301   1.7726   1.8304
  1.8598   1.8723   1.9284   1.9662   2.0223   2.0569   2.1347   2.1471
  2.1595   2.2562   2.2659   2.3076   2.3391   2.4100   2.4187   2.4258
  2.4965   2.5594   2.5971   2.7348   2.7654   2.8219   2.8569   2.9018
  2.9513   3.0722   3.0978   3.1046   3.1445   3.1585   3.2526   3.2685
  3.2877   3.3081   3.3310   3.3746   3.3881   3.4288   3.4474   3.4603
  3.5379   3.5563   3.5717   3.6171   3.6269   3.7116   3.7362   3.7774
  3.8050   3.8290   3.8519   3.8614   3.8860   3.9174   3.9418   4.0299
  4.1349   4.1425   4.2042   4.2275   4.2500   4.3006   4.3395   4.4173
  4.4466   4.4715   5.0554   5.1350   5.1559   5.1844   5.1941   5.1996
  5.2117   5.2152   5.2229   5.2561   5.2610   5.2668   5.2909   5.3000
  5.3558   5.4083   5.4204   5.4320   5.5052   5.5173   5.5193   5.5996
  5.6215   5.6358   5.6397   5.7290   5.9250   5.9357   5.9543   5.9807
  6.0432   6.0628   6.2975   6.4096   6.5074   6.7034   6.8197   6.9143
  6.9532   7.0382   7.0437   7.0631   7.0794   7.1592   7.2183   7.2454
  7.2606   7.2788   7.2877   7.3146   7.3256   7.3426   7.3665   7.3921
  7.5822   7.6034   7.6768   7.7102   7.7500   7.7658   7.8015   7.8250
 24.7986  25.1318  50.5295  50.5539  50.5935  50.7330
 --------------------------------------------------------------
 
          Ground-State Mulliken Net Atomic Charges

     Atom                 Charge (a.u.)    Spin (a.u.)
  --------------------------------------------------------
      1 C                     0.067697      -0.000339
      2 C                    -0.161539       0.839431
      3 O                    -0.363905       0.081993
      4 O                    -0.362902       0.068970
      5 O                    -0.283663      -0.001231
      6 H                     0.336876      -0.006363
      7 H                     0.340949      -0.002872
      8 H                     0.271280      -0.002840
      9 H                     0.245530       0.005142
     10 O                    -0.448146       0.017940
     11 H                     0.357823       0.000170
  --------------------------------------------------------
  Sum of atomic charges =     0.000000
  Sum of spin   charges =     1.000000

 -----------------------------------------------------------------
                    Cartesian Multipole Moments
 -----------------------------------------------------------------
    Charge (ESU x 10^10)
                 0.0000
    Dipole Moment (Debye)
         X       1.1768      Y      -3.1409      Z       0.3729
       Tot       3.3748
    Quadrupole Moments (Debye-Ang)
        XX     -30.5539     XY       1.3307     YY     -41.8548
        XZ      -8.5265     YZ      -2.5974     ZZ     -35.8026
    Octopole Moments (Debye-Ang^2)
       XXX    -110.0993    XXY      -0.0741    XYY     -49.2771
       YYY     -55.4347    XXZ      62.4740    XYZ     -16.9101
       YYZ      92.1543    XZZ       5.1350    YZZ      13.6182
       ZZZ     238.3835
    Hexadecapole Moments (Debye-Ang^3)
      XXXX    -586.9597   XXXY     -76.6985   XXYY    -160.5522
      XYYY    -141.4991   YYYY    -360.0595   XXXZ     170.0500
      XXYZ     -45.7055   XYYZ      66.9726   YYYZ      25.5157
      XXZZ    -236.6191   XYZZ      29.5382   YYZZ    -306.3969
      XZZZ      10.2697   YZZZ     -82.0014   ZZZZ   -1268.8365
 -----------------------------------------------------------------
 Total job time:  1350.57s(wall), 10421.43s(cpu) 
 Tue Oct  3 08:18:17 2023

        *************************************************************
        *                                                           *
        *  Thank you very much for using Q-Chem.  Have a nice day.  *
        *                                                           *
        *************************************************************


