
Running Job 1 of 1 Q_in.in
qchem Q_in.in_212393.0 /scratch/ari.fischer/qChem1410452.hpc-mn1/qchem212393/ 0
/usr/local/qchem-5.4.1/exe/qcprog.exe_s Q_in.in_212393.0 /scratch/ari.fischer/qChem1410452.hpc-mn1/qchem212393/
                  Welcome to Q-Chem
     A Quantum Leap Into The Future Of Chemistry


 Q-Chem 5.4, Q-Chem, Inc., Pleasanton, CA (2021)

 License issued to: Nanyang Technological University (site)

 E. Epifanovsky,  A. T. B. Gilbert,  Xintian Feng,  Joonho Lee,  Yuezhi Mao,  
 N. Mardirossian,  P. Pokhilko,  A. White,  M. Wormit,  M. P. Coons,  
 A. L. Dempwolff,  Zhengting Gan,  D. Hait,  P. R. Horn,  L. D. Jacobson,  
 I. Kaliman,  J. Kussmann,  A. W. Lange,  Ka Un Lao,  D. S. Levine,  Jie Liu,  
 S. C. McKenzie,  A. F. Morrison,  K. Nanda,  F. Plasser,  D. R. Rehn,  
 M. L. Vidal,  Zhi-Qiang You,  Ying Zhu,  B. Alam,  B. Albrecht,  
 A. Aldossary,  E. Alguire,  J. H. Andersen,  D. Barton,  K. Begam,  A. Behn,  
 Y. A. Bernard,  E. J. Berquist,  H. Burton,  A. Carreras,  K. Carter-Fenk,  
 R. Chakraborty,  A. D. Chien,  K. D. Closser,  V. Cofer-Shabica,  
 S. Dasgupta,  Jia Deng,  M. de Wergifosse,  M. Diedenhofen,  Hainam Do,  
 S. Ehlert,  Po-Tung Fang,  S. Fatehi,  Qingguo Feng,  T. Friedhoff,  
 J. Gayvert,  Qinghui Ge,  G. Gidofalvi,  M. Goldey,  J. Gomes,  
 C. Gonzalez-Espinoza,  S. Gulania,  A. Gunina,  M. W. D. Hanson-Heine,  
 P. H. P. Harbach,  A. W. Hauser,  M. F. Herbst,  M. Hernandez Vera,  
 M. Hodecker,  Z. C. Holden,  S. Houck,  Xunkun Huang,  Kerwin Hui,  
 B. C. Huynh,  M. Ivanov,  Hyunjun Ji,  Hanjie Jiang,  B. Kaduk,  S. Kaehler,  
 K. Khistyaev,  Jaehoon Kim,  P. Klunzinger,  Z. Koczor-Benda,  
 Joong Hoon Koh,  D. Kosenkov,  L. Koulias,  T. Kowalczyk,  C. M. Krauter,  
 K. Kue,  A. Kunitsa,  T. Kus,  A. Landau,  K. V. Lawler,  D. Lefrancois,  
 S. Lehtola,  Rain Li,  Yi-Pei Li,  Jiashu Liang,  M. Liebenthal,  
 Hung-Hsuan Lin,  You-Sheng Lin,  Fenglai Liu,  Kuan-Yu Liu,  
 M. Loipersberger,  A. Luenser,  A. Manjanath,  P. Manohar,  E. Mansoor,  
 S. F. Manzer,  Shan-Ping Mao,  A. V. Marenich,  T. Markovich,  S. Mason,  
 S. A. Maurer,  P. F. McLaughlin,  M. F. S. J. Menger,  J.-M. Mewes,  
 S. A. Mewes,  P. Morgante,  J. W. Mullinax,  K. J. Oosterbaan,  G. Paran,  
 Alexander C. Paul,  Suranjan K. Paul,  F. Pavosevic,  Zheng Pei,  S. Prager,  
 E. I. Proynov,  E. Ramos,  B. Rana,  A. E. Rask,  A. Rettig,  R. M. Richard,  
 F. Rob,  E. Rossomme,  T. Scheele,  M. Scheurer,  M. Schneider,  
 N. Sergueev,  S. M. Sharada,  W. Skomorowski,  D. W. Small,  C. J. Stein,  
 Yu-Chuan Su,  E. J. Sundstrom,  Zhen Tao,  J. Thirman,  T. Tsuchimochi,  
 N. M. Tubman,  S. P. Veccham,  O. Vydrov,  J. Wenzel,  J. Witte,  A. Yamada,  
 Kun Yao,  S. Yeganeh,  S. R. Yost,  A. Zech,  Igor Ying Zhang,  Xing Zhang,  
 Yu Zhang,  D. Zuev,  A. Aspuru-Guzik,  A. T. Bell,  N. A. Besley,  
 K. B. Bravaya,  B. R. Brooks,  D. Casanova,  Jeng-Da Chai,  S. Coriani,  
 C. J. Cramer,  A. E. DePrince, III,  R. A. DiStasio Jr.,  A. Dreuw,  
 B. D. Dunietz,  T. R. Furlani,  W. A. Goddard III,  S. Grimme,  
 S. Hammes-Schiffer,  T. Head-Gordon,  W. J. Hehre,  Chao-Ping Hsu,  
 T.-C. Jagau,  Yousung Jung,  A. Klamt,  Jing Kong,  D. S. Lambrecht,  
 WanZhen Liang,  N. J. Mayhall,  C. W. McCurdy,  J. B. Neaton,  
 C. Ochsenfeld,  J. A. Parkhill,  R. Peverati,  V. A. Rassolov,  Yihan Shao,  
 L. V. Slipchenko,  T. Stauch,  R. P. Steele,  J. E. Subotnik,  
 A. J. W. Thom,  A. Tkatchenko,  D. G. Truhlar,  T. Van Voorhis,  
 T. A. Wesolowski,  K. B. Whaley,  H. L. Woodcock III,  P. M. Zimmerman,  
 S. Faraji,  P. M. W. Gill,  M. Head-Gordon,  J. M. Herbert,  A. I. Krylov

 Additional authors for Version 5.4.1: 
 S. Kotaru,  Shaozhi Li,  Xiangyuan Li,  F. Matz,  A. Molle,  Haisheng Ren,  
 Yingli Su,  Hung-Yi Tsai,  C. Utku,  Fang Wang

 Contributors to earlier versions of Q-Chem not listed above: 
 R. D. Adamson,  B. Austin,  R. Baer,  J. Baker,  G. J. O. Beran,  
 K. Brandhorst,  S. T. Brown,  E. F. C. Byrd,  A. K. Chakraborty,  
 G. K. L. Chan,  Chun-Min Chang,  Yunqing Chen,  C.-L. Cheng,  
 Siu Hung Chien,  D. M. Chipman,  D. L. Crittenden,  H. Dachsel,  
 R. J. Doerksen,  A. D. Dutoi,  R. G. Edgar,  J. Fosso-Tande,  
 L. Fusti-Molnar,  D. Ghosh,  A. Ghysels,  A. Golubeva-Zadorozhnaya,  
 J. Gonthier,  M. S. Gordon,  S. R. Gwaltney,  G. Hawkins,  J. E. Herr,  
 A. Heyden,  S. Hirata,  E. G. Hohenstein,  G. Kedziora,  F. J. Keil,  
 C. Kelley,  Jihan Kim,  R. A. King,  R. Z. Khaliullin,  P. P. Korambath,  
 W. Kurlancheek,  A. Laurent,  A. M. Lee,  M. S. Lee,  S. V. Levchenko,  
 Ching Yeh Lin,  D. Liotard,  E. Livshits,  R. C. Lochan,  I. Lotan,  
 L. A. Martinez-Martinez,  P. E. Maslen,  N. Nair,  D. P. O'Neill,  
 D. Neuhauser,  E. Neuscamman,  C. M. Oana,  R. Olivares-Amaya,  R. Olson,  
 T. M. Perrine,  B. Peters,  P. A. Pieniazek,  A. Prociuk,  Y. M. Rhee,  
 J. Ritchie,  M. A. Rohrdanz,  E. Rosta,  N. J. Russ,  H. F. Schaefer III,  
 M. W. Schmidt,  N. E. Schultz,  S. Sharma,  N. Shenvi,  C. D. Sherrill,  
 A. C. Simmonett,  A. Sodt,  T. Stein,  D. Stuck,  K. S. Thanthiriwatte,  
 V. Vanovschi,  L. Vogt,  Tao Wang,  A. Warshel,  M. A. Watson,  
 C. F. Williams,  Q. Wu,  X. Xu,  Jun Yang,  W. Zhang,  Yan Zhao

 Please cite Q-Chem as follows:
 Y. Shao et al., Mol. Phys. 113, 184-215 (2015)
 DOI: 10.1080/00268976.2014.952696

 Q-Chem 5.4.1 for Intel X86 EM64T Linux

 Parts of Q-Chem use Armadillo 9.800.1 (Horizon Scraper).
 http://arma.sourceforge.net/

 Q-Chem begins on Sat Jan 21 09:29:05 2023  

 Host: 
0

     Scratch files written to /scratch/ari.fischer/qChem1410452.hpc-mn1/qchem212393//
 Aug1521 |scratch|qcdevops|jenkins|workspace|build_RNUM 8249   
 Processing $rem in /usr/local/qchem-5.4.1/config/preferences:
 Processing $rem in /home/ari.fischer/.qchemrc:
 Symmetry turned off for PCM/SM12/SMD calculation

 Checking the input file for inconsistencies... 	...done.

--------------------------------------------------------------
User input:
--------------------------------------------------------------
$molecule
0 3
O        -3.2977800603    4.4726635158    0.5359728662
O        -4.3099042397    3.9291291842    0.1683272338
$end

$rem
BASIS = 6-311++G(2df,2p)
GUI = 2
JOB_TYPE = Optimization
METHOD = wB97M-V
SCF_ALGORITHM = DIIS_GDM
MAX_SCF_CYCLES = 400
GEOM_OPT_MAX_CYCLES = 150
SCF_CONVERGENCE = 7
THRESH = 12
UNRESTRICTED = 1
Solvent_method = SMD
$end
--------------------------------------------------------------
 ----------------------------------------------------------------
             Standard Nuclear Orientation (Angstroms)
    I     Atom           X                Y                Z
 ----------------------------------------------------------------
    1      O      -3.2977800603     4.4726635158     0.5359728662
    2      O      -4.3099042397     3.9291291842     0.1683272338
 ----------------------------------------------------------------
 Nuclear Repulsion Energy =          28.07704293 hartrees
 There are        9 alpha and        7 beta electrons
 Requested basis set is 6-311++G(2df,2p)
 There are 16 shells and 68 basis functions

 Total QAlloc Memory Limit 288000 MB
 Mega-Array Size       188 MB
 MEM_STATIC part       192 MB
 
 Citation of the SMD model:
 Marenich, A.V.; Cramer, C.J.; Truhlar, D.G.
 J. Phys. Chem. B 2009, 113, 6378-6396.
 iSolventCode=           1
 Solvent: water                                                           
 
 vradii
            1           2
    1   1.5200000   1.5200000
 Changing PCM_VDW_RADII to SMD_RADIUS
 Discretize the solute cavity surface with Lebedev spheres
	Using 110 Lebedev grid points for each H atom
	Using 194 Lebedev grid points for other atoms
	Atomic van der Waals radii will be scaled by 1.20
 Remove points where switching function is < 1.0e-08
 Keep 300 surface tesserae and discard 88 interior tesserae
 Molecular Surface Area = 40.608 Angst**2
 A cutoff of  1.0D-12 yielded    136 shell pairs
 There are      2476 function pairs (      3279 Cartesian)
 Smallest overlap matrix eigenvalue = 7.04E-04

 Scale SEOQF with 1.000000e-01/1.000000e-01/1.000000e+00

 Standard Electronic Orientation quadrupole field applied
 Nucleus-field energy     =     0.0000000260 hartrees
 Guess from superposition of atomic densities
 Warning:  Energy on first SCF cycle will be non-variational
 SAD guess density has 16.000000 electrons

 -----------------------------------------------------------------------
  General SCF calculation program by
  Eric Jon Sundstrom, Paul Horn, Yuezhi Mao, Dmitri Zuev, Alec White,
  David Stuck, Shaama M.S., Shane Yost, Joonho Lee, David Small,
  Daniel Levine, Susi Lehtola, Hugh Burton, Evgeny Epifanovsky,
  Bang C. Huynh
 -----------------------------------------------------------------------
 Exchange:     0.1500 Hartree-Fock + 1.0000 wB97M-V + LR-HF
 Correlation:  1.0000 wB97M-V
 Using SG-2 standard quadrature grid
 Nonlocal Correlation:  VV10 with C = 0.0100 and b = 6.00 and scale = 1.00000
 Grid used for NLC:  SG-1 standard quadrature
 
 Citation of the SMD model:
 Marenich, A.V.; Cramer, C.J.; Truhlar, D.G.
 J. Phys. Chem. B 2009, 113, 6378-6396.
 iSolventCode=           1
 Solvent: water                                                           
 
 vradii
            1           2
    1   1.5200000   1.5200000
 using 8 threads for integral computing
 -------------------------------------------------------
 OpenMP Integral computing Module                
 Release: version 1.0, May 2013, Q-Chem Inc. Pittsburgh 
 -------------------------------------------------------
 -------------------------------------------------------
 OpenMP BLAS3 based DFT computing Module                
 Release: version 1.0, May 2013, Q-Chem Inc. Pittsburgh 
 -------------------------------------------------------
 A unrestricted SCF calculation will be
 performed using DIIS, GDM
 SCF converges when RMS gradient is below 1.0e-07
 ---------------------------------------
  Cycle       Energy         DIIS error
 ---------------------------------------
    1    -150.3698613750      2.68e-02  
    2    -150.3117341856      3.72e-03  Done DIIS. Switching to GDM
 ---------------------------------------
  Cycle       Energy        RMS Gradient
 ---------------------------------------
    1    -150.3117341856      7.14e-02   Normal BFGS step
    2    -150.3317174788      2.84e-02   Normal BFGS step
    3    -150.3356581176      3.92e-03   Normal BFGS step
    4    -150.3357885096      1.20e-03   Normal BFGS step
    5    -150.3357993929      1.73e-04   Normal BFGS step
    6    -150.3357995896      3.13e-05   Normal BFGS step
    7    -150.3357995954      4.87e-06   Normal BFGS step
    8    -150.3357995955      5.88e-07   Normal BFGS step
    9    -150.3357995955      1.46e-07   Normal BFGS step
   10    -150.3357995955      7.14e-08  Convergence criterion met
 ---------------------------------------
 SCF time:   CPU 24.40s  wall 3.00s 
<S^2> =          2.008469674
(3)  G-ENP(liq) elect-nuc-pol free energy of system     -150.335799595 a.u.
(4)  G-CDS(liq) cavity-dispersion-solvent structure 
     free energy                                                0.0000 kcal/mol
(6)  G-S(liq) free energy of system                     -150.335799595 a.u.
 SCF   energy in the final basis set =     -150.3357995955
 Total energy in the final basis set =     -150.3357995955
 
 --------------------------------------------------------------
 
                    Orbital Energies (a.u.)
 --------------------------------------------------------------
 
 Alpha MOs
 -- Occupied --
-19.4898 -19.4897  -1.4337  -0.9618  -0.6738  -0.6737  -0.6630  -0.4118
 -0.4118
 -- Virtual --
  0.1363   0.1453   0.1824   0.1824   0.2476   0.2518   0.2518   0.3559
  0.3913   0.9801   1.0228   1.0228   1.0337   1.0991   1.0991   1.2374
  1.3188   1.3188   1.3951   1.3951   1.5489   1.7152   1.7152   2.2981
  2.3313   2.3313   2.5587   4.5279   4.5281   4.5744   4.5744   4.8548
  4.8963   4.8963   4.9523   4.9524   5.0578   5.0579   5.1083   5.1463
  5.1464   5.3107   5.7325   5.7325   6.6139   6.6145   6.7883   6.7890
  6.7931   6.7934   6.8736   6.9618   6.9622   7.3408   7.3409   8.0416
  8.0790  50.3474  50.4951
 
 Beta MOs
 -- Occupied --
-19.4596 -19.4593  -1.3772  -0.8748  -0.6178  -0.5676  -0.5675
 -- Virtual --
 -0.0140  -0.0140   0.1399   0.1489   0.1893   0.1894   0.2519   0.2602
  0.2602   0.3909   0.4024   0.9951   1.0418   1.0640   1.0640   1.1408
  1.1408   1.2674   1.3568   1.3568   1.4336   1.4336   1.5872   1.7755
  1.7755   2.3346   2.3653   2.3654   2.5801   4.5837   4.5839   4.6258
  4.6258   4.8892   4.9768   4.9769   5.0500   5.0502   5.1432   5.1435
  5.1516   5.2313   5.2314   5.3591   5.7935   5.7936   6.7497   6.7503
  6.8687   6.8690   6.9231   6.9238   6.9316   7.0417   7.0422   7.3944
  7.3944   8.0729   8.1313  50.3715  50.5190
 --------------------------------------------------------------
 
          Ground-State Mulliken Net Atomic Charges

     Atom                 Charge (a.u.)    Spin (a.u.)
  --------------------------------------------------------
      1 O                    -0.000000       1.000000
      2 O                     0.000000       1.000000
  --------------------------------------------------------
  Sum of atomic charges =     0.000000
  Sum of spin   charges =     2.000000

 -----------------------------------------------------------------
                    Cartesian Multipole Moments
 -----------------------------------------------------------------
    Charge (ESU x 10^10)
                 0.0000
    Dipole Moment (Debye)
         X      -0.0000      Y      -0.0000      Z      -0.0000
       Tot       0.0000
    Quadrupole Moments (Debye-Ang)
        XX     -10.5326     XY      -0.1898     YY     -10.2810
        XZ      -0.1283     YZ      -0.0689     ZZ     -10.2256
    Octopole Moments (Debye-Ang^2)
       XXX     120.1932    XXY     -42.8024    XYY      37.5126
       YYY    -129.5684    XXZ      -2.7329    XYZ      -0.3439
       YYZ      -4.1991    XZZ      38.8064    YZZ     -43.0054
       ZZZ     -10.8029
    Hexadecapole Moments (Debye-Ang^3)
      XXXX    -937.8423   XXXY     492.6703   XXYY    -328.3748
      XYYY     478.4588   YYYY   -1100.9791   XXXZ      34.0442
      XXYZ     -12.3384   XYYZ      12.2281   YYYZ     -50.8534
      XXZZ    -154.1535   XYZZ     161.7498   YYZZ    -185.8192
      XZZZ      38.0523   YZZZ     -47.0144   ZZZZ     -17.4250
 -----------------------------------------------------------------
 Calculating analytic gradient of the SCF energy
 Gradient of CDS energy
            1           2
    1   0.0000000   0.0000000
    2   0.0000000   0.0000000
    3   0.0000000   0.0000000
 Gradient of SCF Energy
            1           2
    1   0.0163897  -0.0163897
    2   0.0088301  -0.0088301
    3   0.0059707  -0.0059707
 Max gradient component =       1.639E-02
 RMS gradient           =       1.129E-02
 Computing fast CPCM-SWIG gradient
 Updating gradient with PCM contributions...
 -- total gradient after adding PCM contribution --
---------------------------------------------------
  Atom         X              Y              Z     
---------------------------------------------------
   1       0.012866       0.006948       0.004703
   2      -0.012866      -0.006948      -0.004703
---------------------------------------------------
 Number of fixed atoms: 0
 Gradient time:  CPU 5.75 s  wall 0.74 s
 Geometry Optimization Parameters
   NAtoms,    NIC,     NZ,  NCons,   NDum,   NFix, NCnnct, MaxDiis
        2       5       0       0       0       0       0       0


** GEOMETRY OPTIMIZATION IN DELOCALIZED INTERNAL COORDINATES **
   Searching for a Minimum

   Optimization Cycle:   1

                       Coordinates (Angstroms)
     ATOM                X               Y               Z
      1  O        -3.2977800603    4.4726635158    0.5359728662
      2  O        -4.3099042397    3.9291291842    0.1683272338
   Point Group: c1    Number of degrees of freedom:     1


   Energy is   -150.335799595


 Attempting to generate delocalized internal coordinates

  ***ERROR*** Wrong Number of Internal Coordinates
              Should be:   0  Found:   1
**WARNING** Problems with Internal Coordinates
  Switching to Cartesian Coordinates

 Translations and Rotations Projected Out of Hessian

  1 Hessian modes will be used to form the next step
  Hessian Eigenvalues:
     1.000000

 Minimum search - taking simple RFO step
 Searching for Lamda that Minimizes Along All modes
 Value Taken    Lamda =  -0.00047163
 Step Taken.  Stepsize is  0.021712

                             Maximum     Tolerance    Cnvgd?
         Gradient           0.012866      0.000300      NO
         Displacement       0.012882      0.001200      NO
         Energy change     *********      0.000001      NO

 ----------------------------------------------------------------
             Standard Nuclear Orientation (Angstroms)
    I     Atom           X                Y                Z
 ----------------------------------------------------------------
    1      O      -3.3045970141     4.4690026523     0.5334966648
    2      O      -4.3030872859     3.9327900477     0.1708034352
 ----------------------------------------------------------------
 Nuclear Repulsion Energy =          28.46042154 hartrees
 There are        9 alpha and        7 beta electrons
 Discretize the solute cavity surface with Lebedev spheres
	Using 110 Lebedev grid points for each H atom
	Using 194 Lebedev grid points for other atoms
	Atomic van der Waals radii will be scaled by 1.20
 Remove points where switching function is < 1.0e-08
 Keep 300 surface tesserae and discard 88 interior tesserae
 Molecular Surface Area = 40.442 Angst**2
 Applying Cartesian multipole field
    Component          Value
    ---------          -----
     (2,0,0)        1.00000E-11
     (0,2,0)        2.00000E-11
     (0,0,2)       -3.00000E-10
 Nucleus-field energy     =     0.0000000260 hartrees
 Requested basis set is 6-311++G(2df,2p)
 There are 16 shells and 68 basis functions
 A cutoff of  1.0D-12 yielded    136 shell pairs
 There are      2476 function pairs (      3279 Cartesian)
 Smallest overlap matrix eigenvalue = 6.52E-04
 Guess MOs from SCF MO coefficient file

 -----------------------------------------------------------------------
  General SCF calculation program by
  Eric Jon Sundstrom, Paul Horn, Yuezhi Mao, Dmitri Zuev, Alec White,
  David Stuck, Shaama M.S., Shane Yost, Joonho Lee, David Small,
  Daniel Levine, Susi Lehtola, Hugh Burton, Evgeny Epifanovsky,
  Bang C. Huynh
 -----------------------------------------------------------------------
 Exchange:     0.1500 Hartree-Fock + 1.0000 wB97M-V + LR-HF
 Correlation:  1.0000 wB97M-V
 Using SG-2 standard quadrature grid
 Nonlocal Correlation:  VV10 with C = 0.0100 and b = 6.00 and scale = 1.00000
 Grid used for NLC:  SG-1 standard quadrature
 
 Citation of the SMD model:
 Marenich, A.V.; Cramer, C.J.; Truhlar, D.G.
 J. Phys. Chem. B 2009, 113, 6378-6396.
 iSolventCode=           1
 Solvent: water                                                           
 
 vradii
            1           2
    1   1.5200000   1.5200000
 -------------------------------------------------------
 OpenMP BLAS3 based DFT computing Module                
 Release: version 1.0, May 2013, Q-Chem Inc. Pittsburgh 
 -------------------------------------------------------
 A unrestricted SCF calculation will be
 performed using Roothaan-Hall, DIIS, GDM
 SCF converges when RMS gradient is below 1.0e-07
 ---------------------------------------
  Cycle       Energy         DIIS error
 ---------------------------------------
    1    -150.3349534441      3.55e-04  Roothaan Step
 ---------------------------------------
  Cycle       Energy         DIIS error
 ---------------------------------------
    1    -150.3358035207      1.64e-04  
    2    -150.3358577891      8.17e-05  Done DIIS. Switching to GDM
 ---------------------------------------
  Cycle       Energy        RMS Gradient
 ---------------------------------------
    1    -150.3358577891      1.45e-03   Normal BFGS step
    2    -150.3358647721      7.49e-04   Normal BFGS step
    3    -150.3358673001      7.13e-05   Normal BFGS step
    4    -150.3358673307      2.16e-05   Normal BFGS step
    5    -150.3358673328      2.90e-06   Normal BFGS step
    6    -150.3358673328      8.98e-07   Normal BFGS step
    7    -150.3358673328      6.54e-07   Normal BFGS step
    8    -150.3358673328      3.35e-07   Normal BFGS step
    9    -150.3358673328      1.32e-08  Convergence criterion met
 ---------------------------------------
 SCF time:   CPU 23.95s  wall 3.00s 
<S^2> =          2.008221565
(3)  G-ENP(liq) elect-nuc-pol free energy of system     -150.335867333 a.u.
(4)  G-CDS(liq) cavity-dispersion-solvent structure 
     free energy                                                0.0000 kcal/mol
(6)  G-S(liq) free energy of system                     -150.335867333 a.u.
 SCF   energy in the final basis set =     -150.3358673328
 Total energy in the final basis set =     -150.3358673328
 
 --------------------------------------------------------------
 
                    Orbital Energies (a.u.)
 --------------------------------------------------------------
 
 Alpha MOs
 -- Occupied --
-19.4877 -19.4876  -1.4467  -0.9567  -0.6792  -0.6792  -0.6657  -0.4062
 -0.4062
 -- Virtual --
  0.1378   0.1455   0.1822   0.1822   0.2477   0.2523   0.2523   0.3778
  0.3919   0.9816   1.0220   1.0220   1.0288   1.0991   1.0991   1.2356
  1.3146   1.3146   1.4040   1.4040   1.5492   1.7219   1.7219   2.3240
  2.3452   2.3452   2.5597   4.5428   4.5431   4.5658   4.5658   4.8422
  4.8866   4.8866   4.9520   4.9521   5.0591   5.0592   5.1503   5.1552
  5.1553   5.3466   5.7705   5.7705   6.6150   6.6156   6.7900   6.7906
  6.8295   6.8438   6.8441   6.9827   6.9832   7.3579   7.3580   8.1042
  8.1105  50.3565  50.5527
 
 Beta MOs
 -- Occupied --
-19.4575 -19.4571  -1.3907  -0.8698  -0.6202  -0.5736  -0.5736
 -- Virtual --
 -0.0084  -0.0084   0.1408   0.1489   0.1886   0.1887   0.2518   0.2607
  0.2607   0.3912   0.4246   0.9970   1.0366   1.0627   1.0627   1.1407
  1.1408   1.2657   1.3523   1.3523   1.4433   1.4433   1.5874   1.7824
  1.7824   2.3604   2.3793   2.3793   2.5814   4.5998   4.6000   4.6169
  4.6169   4.8787   4.9667   4.9667   5.0494   5.0496   5.1436   5.1439
  5.1925   5.2402   5.2403   5.3951   5.8319   5.8319   6.7505   6.7511
  6.8860   6.9225   6.9228   6.9245   6.9251   7.0624   7.0628   7.4088
  7.4089   8.1377   8.1624  50.3806  50.5766
 --------------------------------------------------------------
 
          Ground-State Mulliken Net Atomic Charges

     Atom                 Charge (a.u.)    Spin (a.u.)
  --------------------------------------------------------
      1 O                     0.000000       1.000000
      2 O                    -0.000000       1.000000
  --------------------------------------------------------
  Sum of atomic charges =    -0.000000
  Sum of spin   charges =     2.000000

 -----------------------------------------------------------------
                    Cartesian Multipole Moments
 -----------------------------------------------------------------
    Charge (ESU x 10^10)
                -0.0000
    Dipole Moment (Debye)
         X       0.0000      Y      -0.0000      Z       0.0000
       Tot       0.0000
    Quadrupole Moments (Debye-Ang)
        XX     -10.5496     XY      -0.2157     YY     -10.2637
        XZ      -0.1458     YZ      -0.0783     ZZ     -10.2008
    Octopole Moments (Debye-Ang^2)
       XXX     120.3870    XXY     -42.6770    XYY      37.2295
       YYY    -129.3505    XXZ      -2.6057    XYZ      -0.3908
       YYZ      -4.2718    XZZ      38.6996    YZZ     -42.9077
       ZZZ     -10.7767
    Hexadecapole Moments (Debye-Ang^3)
      XXXX    -938.9484   XXXY     492.4441   XXYY    -326.6880
      XYYY     476.3491   YYYY   -1099.0066   XXXZ      33.4084
      XXYZ     -11.8627   XYYZ      12.1383   YYYZ     -51.2415
      XXZZ    -153.6258   XYZZ     161.3524   YYZZ    -185.3961
      XZZZ      38.0065   YZZZ     -46.8752   ZZZZ     -17.3164
 -----------------------------------------------------------------
 Calculating analytic gradient of the SCF energy
 Gradient of CDS energy
            1           2
    1   0.0000000   0.0000000
    2   0.0000000   0.0000000
    3   0.0000000   0.0000000
 Gradient of SCF Energy
            1           2
    1  -0.0060406   0.0060406
    2  -0.0032155   0.0032155
    3  -0.0021753   0.0021753
 Max gradient component =       6.041E-03
 RMS gradient           =       4.146E-03
 Computing fast CPCM-SWIG gradient
 Updating gradient with PCM contributions...
 -- total gradient after adding PCM contribution --
---------------------------------------------------
  Atom         X              Y              Z     
---------------------------------------------------
   1      -0.009622      -0.005128      -0.003467
   2       0.009622       0.005128       0.003467
---------------------------------------------------
 Number of fixed atoms: 0
 Gradient time:  CPU 5.75 s  wall 0.74 s
 Geometry Optimization Parameters
   NAtoms,    NIC,     NZ,  NCons,   NDum,   NFix, NCnnct, MaxDiis
        2       5       0       0       0       0       0       0

 Cartesian Hessian Update
 Hessian updated using BFGS update


** GEOMETRY OPTIMIZATION IN CARTESIAN COORDINATES **
   Searching for a Minimum

   Optimization Cycle:   2

                       Coordinates (Angstroms)
     ATOM                X               Y               Z
      1  O        -3.3045970141    4.4690026523    0.5334966648
      2  O        -4.3030872859    3.9327900477    0.1708034352
   Point Group: c1    Number of degrees of freedom:     1


   Energy is   -150.335867333


 Translations and Rotations Projected Out of Hessian

  1 Hessian modes will be used to form the next step
  Hessian Eigenvalues:
     1.745663

 Minimum search - taking simple RFO step
 Searching for Lamda that Minimizes Along All modes
 Value Taken    Lamda =  -0.00014995
 Step Taken.  Stepsize is  0.009268

                             Maximum     Tolerance    Cnvgd?
         Gradient           0.009622      0.000300      NO
         Displacement       0.005499      0.001200      NO
         Energy change     -0.000068      0.000001      NO

 ----------------------------------------------------------------
             Standard Nuclear Orientation (Angstroms)
    I     Atom           X                Y                Z
 ----------------------------------------------------------------
    1      O      -3.3016872316     4.4705652735     0.5345536189
    2      O      -4.3059970684     3.9312274265     0.1697464811
 ----------------------------------------------------------------
 Nuclear Repulsion Energy =          28.29550503 hartrees
 There are        9 alpha and        7 beta electrons
 Discretize the solute cavity surface with Lebedev spheres
	Using 110 Lebedev grid points for each H atom
	Using 194 Lebedev grid points for other atoms
	Atomic van der Waals radii will be scaled by 1.20
 Remove points where switching function is < 1.0e-08
 Keep 300 surface tesserae and discard 88 interior tesserae
 Molecular Surface Area = 40.513 Angst**2
 Applying Cartesian multipole field
    Component          Value
    ---------          -----
     (2,0,0)        1.00000E-11
     (0,2,0)        2.00000E-11
     (0,0,2)       -3.00000E-10
 Nucleus-field energy     =     0.0000000260 hartrees
 Requested basis set is 6-311++G(2df,2p)
 There are 16 shells and 68 basis functions
 A cutoff of  1.0D-12 yielded    136 shell pairs
 There are      2476 function pairs (      3279 Cartesian)
 Smallest overlap matrix eigenvalue = 6.74E-04
 Guess MOs from SCF MO coefficient file

 -----------------------------------------------------------------------
  General SCF calculation program by
  Eric Jon Sundstrom, Paul Horn, Yuezhi Mao, Dmitri Zuev, Alec White,
  David Stuck, Shaama M.S., Shane Yost, Joonho Lee, David Small,
  Daniel Levine, Susi Lehtola, Hugh Burton, Evgeny Epifanovsky,
  Bang C. Huynh
 -----------------------------------------------------------------------
 Exchange:     0.1500 Hartree-Fock + 1.0000 wB97M-V + LR-HF
 Correlation:  1.0000 wB97M-V
 Using SG-2 standard quadrature grid
 Nonlocal Correlation:  VV10 with C = 0.0100 and b = 6.00 and scale = 1.00000
 Grid used for NLC:  SG-1 standard quadrature
 
 Citation of the SMD model:
 Marenich, A.V.; Cramer, C.J.; Truhlar, D.G.
 J. Phys. Chem. B 2009, 113, 6378-6396.
 iSolventCode=           1
 Solvent: water                                                           
 
 vradii
            1           2
    1   1.5200000   1.5200000
 -------------------------------------------------------
 OpenMP BLAS3 based DFT computing Module                
 Release: version 1.0, May 2013, Q-Chem Inc. Pittsburgh 
 -------------------------------------------------------
 A unrestricted SCF calculation will be
 performed using Roothaan-Hall, DIIS, GDM
 SCF converges when RMS gradient is below 1.0e-07
 ---------------------------------------
  Cycle       Energy         DIIS error
 ---------------------------------------
    1    -150.3351814682      1.88e-04  Roothaan Step
 ---------------------------------------
  Cycle       Energy         DIIS error
 ---------------------------------------
    1    -150.3359149748      1.05e-04  
    2    -150.3359377784      3.46e-05  Done DIIS. Switching to GDM
 ---------------------------------------
  Cycle       Energy        RMS Gradient
 ---------------------------------------
    1    -150.3359377784      4.93e-04   Normal BFGS step
    2    -150.3359390893      2.33e-04   Normal BFGS step
    3    -150.3359393247      2.62e-05   Normal BFGS step
    4    -150.3359393302      7.90e-06   Normal BFGS step
    5    -150.3359393306      9.83e-07   Normal BFGS step
    6    -150.3359393306      1.42e-07   Normal BFGS step
    7    -150.3359393306      2.89e-08  Convergence criterion met
 ---------------------------------------
 SCF time:   CPU 20.30s  wall 3.00s 
<S^2> =          2.008327549
(3)  G-ENP(liq) elect-nuc-pol free energy of system     -150.335939331 a.u.
(4)  G-CDS(liq) cavity-dispersion-solvent structure 
     free energy                                                0.0000 kcal/mol
(6)  G-S(liq) free energy of system                     -150.335939331 a.u.
 SCF   energy in the final basis set =     -150.3359393306
 Total energy in the final basis set =     -150.3359393306
 
 --------------------------------------------------------------
 
                    Orbital Energies (a.u.)
 --------------------------------------------------------------
 
 Alpha MOs
 -- Occupied --
-19.4886 -19.4885  -1.4411  -0.9589  -0.6769  -0.6768  -0.6646  -0.4086
 -0.4086
 -- Virtual --
  0.1372   0.1454   0.1823   0.1823   0.2477   0.2521   0.2521   0.3684
  0.3916   0.9809   1.0223   1.0224   1.0309   1.0991   1.0991   1.2363
  1.3164   1.3164   1.4001   1.4001   1.5490   1.7191   1.7191   2.3131
  2.3393   2.3393   2.5591   4.5362   4.5365   4.5694   4.5694   4.8488
  4.8908   4.8908   4.9521   4.9522   5.0586   5.0588   5.1310   5.1514
  5.1514   5.3310   5.7541   5.7542   6.6145   6.6152   6.7893   6.7900
  6.8233   6.8236   6.8487   6.9738   6.9742   7.3495   7.3496   8.0770
  8.0973  50.3528  50.5273
 
 Beta MOs
 -- Occupied --
-19.4584 -19.4580  -1.3849  -0.8719  -0.6192  -0.5710  -0.5710
 -- Virtual --
 -0.0108  -0.0108   0.1405   0.1489   0.1889   0.1890   0.2518   0.2605
  0.2605   0.3911   0.4150   0.9961   1.0388   1.0633   1.0633   1.1408
  1.1408   1.2664   1.3542   1.3542   1.4391   1.4391   1.5873   1.7795
  1.7795   2.3495   2.3734   2.3734   2.5807   4.5927   4.5929   4.6206
  4.6206   4.8844   4.9711   4.9711   5.0496   5.0498   5.1435   5.1438
  5.1736   5.2364   5.2364   5.3795   5.8154   5.8154   6.7501   6.7508
  6.9007   6.9010   6.9058   6.9240   6.9246   7.0535   7.0540   7.4015
  7.4016   8.1096   8.1495  50.3768  50.5513
 --------------------------------------------------------------
 
          Ground-State Mulliken Net Atomic Charges

     Atom                 Charge (a.u.)    Spin (a.u.)
  --------------------------------------------------------
      1 O                     0.000000       1.000000
      2 O                    -0.000000       1.000000
  --------------------------------------------------------
  Sum of atomic charges =     0.000000
  Sum of spin   charges =     2.000000

 -----------------------------------------------------------------
                    Cartesian Multipole Moments
 -----------------------------------------------------------------
    Charge (ESU x 10^10)
                 0.0000
    Dipole Moment (Debye)
         X       0.0000      Y       0.0000      Z       0.0000
       Tot       0.0000
    Quadrupole Moments (Debye-Ang)
        XX     -10.5424     XY      -0.2046     YY     -10.2711
        XZ      -0.1383     YZ      -0.0742     ZZ     -10.2115
    Octopole Moments (Debye-Ang^2)
       XXX     120.3047    XXY     -42.7307    XYY      37.3505
       YYY    -129.4439    XXZ      -2.6600    XYZ      -0.3708
       YYZ      -4.2408    XZZ      38.7453    YZZ     -42.9496
       ZZZ     -10.7879
    Hexadecapole Moments (Debye-Ang^3)
      XXXX    -938.4782   XXXY     492.5425   XXYY    -327.4092
      XYYY     477.2519   YYYY   -1099.8521   XXXZ      33.6801
      XXYZ     -12.0659   XYYZ      12.1767   YYYZ     -51.0758
      XXZZ    -153.8514   XYZZ     161.5228   YYZZ    -185.5773
      XZZZ      38.0264   YZZZ     -46.9347   ZZZZ     -17.3625
 -----------------------------------------------------------------
 Calculating analytic gradient of the SCF energy
 Gradient of CDS energy
            1           2
    1   0.0000000   0.0000000
    2   0.0000000   0.0000000
    3   0.0000000   0.0000000
 Gradient of SCF Energy
            1           2
    1   0.0038388  -0.0038388
    2   0.0020900  -0.0020900
    3   0.0014126  -0.0014126
 Max gradient component =       3.839E-03
 RMS gradient           =       2.652E-03
 Computing fast CPCM-SWIG gradient
 Updating gradient with PCM contributions...
 -- total gradient after adding PCM contribution --
---------------------------------------------------
  Atom         X              Y              Z     
---------------------------------------------------
   1       0.000281       0.000190       0.000131
   2      -0.000281      -0.000190      -0.000131
---------------------------------------------------
 Number of fixed atoms: 0
 Gradient time:  CPU 5.68 s  wall 0.73 s
 Geometry Optimization Parameters
   NAtoms,    NIC,     NZ,  NCons,   NDum,   NFix, NCnnct, MaxDiis
        2       5       0       0       0       0       0       0

 Cartesian Hessian Update
 Hessian updated using BFGS update


** GEOMETRY OPTIMIZATION IN CARTESIAN COORDINATES **
   Searching for a Minimum

   Optimization Cycle:   3

                       Coordinates (Angstroms)
     ATOM                X               Y               Z
      1  O        -3.3016872316    4.4705652735    0.5345536189
      2  O        -4.3059970684    3.9312274265    0.1697464811
   Point Group: c1    Number of degrees of freedom:     1


   Energy is   -150.335939331


 Translations and Rotations Projected Out of Hessian

  1 Hessian modes will be used to form the next step
  Hessian Eigenvalues:
     1.800996

 Minimum search - taking simple RFO step
 Searching for Lamda that Minimizes Along All modes
 Value Taken    Lamda =  -0.00000015
 Step Taken.  Stepsize is  0.000284

                             Maximum     Tolerance    Cnvgd?
         Gradient           0.000281      0.000300     YES
         Displacement       0.000168      0.001200     YES
         Energy change     -0.000072      0.000001      NO


                       Distance Matrix (Angstroms)
             O (  1)
   O (  2)  1.196916
 
 Final energy is   -150.335939330597     


 ******************************
 **  OPTIMIZATION CONVERGED  **
 ******************************

                       Coordinates (Angstroms)
     ATOM                X               Y               Z
      1  O        -3.3016872316    4.4705652735    0.5345536189
      2  O        -4.3059970684    3.9312274265    0.1697464811

Z-matrix Print:
$molecule
0 3
O 
O  1 1.196916
$end

 
 --------------------------------------------------------------
 
                    Orbital Energies (a.u.)
 --------------------------------------------------------------
 
 Alpha MOs
 -- Occupied --
-19.4886 -19.4885  -1.4411  -0.9589  -0.6769  -0.6768  -0.6646  -0.4086
 -0.4086
 -- Virtual --
  0.1372   0.1454   0.1823   0.1823   0.2477   0.2521   0.2521   0.3684
  0.3916   0.9809   1.0223   1.0224   1.0309   1.0991   1.0991   1.2363
  1.3164   1.3164   1.4001   1.4001   1.5490   1.7191   1.7191   2.3131
  2.3393   2.3393   2.5591   4.5362   4.5365   4.5694   4.5694   4.8488
  4.8908   4.8908   4.9521   4.9522   5.0586   5.0588   5.1310   5.1514
  5.1514   5.3310   5.7541   5.7542   6.6145   6.6152   6.7893   6.7900
  6.8233   6.8236   6.8487   6.9738   6.9742   7.3495   7.3496   8.0770
  8.0973  50.3528  50.5273
 
 Beta MOs
 -- Occupied --
-19.4584 -19.4580  -1.3849  -0.8719  -0.6192  -0.5710  -0.5710
 -- Virtual --
 -0.0108  -0.0108   0.1405   0.1489   0.1889   0.1890   0.2518   0.2605
  0.2605   0.3911   0.4150   0.9961   1.0388   1.0633   1.0633   1.1408
  1.1408   1.2664   1.3542   1.3542   1.4391   1.4391   1.5873   1.7795
  1.7795   2.3495   2.3734   2.3734   2.5807   4.5927   4.5929   4.6206
  4.6206   4.8844   4.9711   4.9711   5.0496   5.0498   5.1435   5.1438
  5.1736   5.2364   5.2364   5.3795   5.8154   5.8154   6.7501   6.7508
  6.9007   6.9010   6.9058   6.9240   6.9246   7.0535   7.0540   7.4015
  7.4016   8.1096   8.1495  50.3768  50.5513
 --------------------------------------------------------------
 
          Ground-State Mulliken Net Atomic Charges

     Atom                 Charge (a.u.)    Spin (a.u.)
  --------------------------------------------------------
      1 O                     0.000000       1.000000
      2 O                    -0.000000       1.000000
  --------------------------------------------------------
  Sum of atomic charges =     0.000000
  Sum of spin   charges =     2.000000

 -----------------------------------------------------------------
                    Cartesian Multipole Moments
 -----------------------------------------------------------------
    Charge (ESU x 10^10)
                 0.0000
    Dipole Moment (Debye)
         X       0.0000      Y       0.0000      Z       0.0000
       Tot       0.0000
    Quadrupole Moments (Debye-Ang)
        XX     -10.5424     XY      -0.2046     YY     -10.2711
        XZ      -0.1383     YZ      -0.0742     ZZ     -10.2115
    Octopole Moments (Debye-Ang^2)
       XXX     120.3047    XXY     -42.7307    XYY      37.3505
       YYY    -129.4439    XXZ      -2.6600    XYZ      -0.3708
       YYZ      -4.2408    XZZ      38.7453    YZZ     -42.9496
       ZZZ     -10.7879
    Hexadecapole Moments (Debye-Ang^3)
      XXXX    -938.4782   XXXY     492.5425   XXYY    -327.4092
      XYYY     477.2519   YYYY   -1099.8521   XXXZ      33.6801
      XXYZ     -12.0659   XYYZ      12.1767   YYYZ     -51.0758
      XXZZ    -153.8514   XYZZ     161.5228   YYZZ    -185.5773
      XZZZ      38.0264   YZZZ     -46.9347   ZZZZ     -17.3625
 -----------------------------------------------------------------
 Total job time:  12.22s(wall), 92.21s(cpu) 
 Sat Jan 21 09:29:17 2023

        *************************************************************
        *                                                           *
        *  Thank you very much for using Q-Chem.  Have a nice day.  *
        *                                                           *
        *************************************************************


