
Running Job 1 of 1 Q_in.in
qchem Q_in.in_173925.0 /scratch/ari.fischer/qChem1854183.hpc-mn1/qchem173925/ 0
/usr/local/qchem-5.4.1/exe/qcprog.exe_s Q_in.in_173925.0 /scratch/ari.fischer/qChem1854183.hpc-mn1/qchem173925/
                  Welcome to Q-Chem
     A Quantum Leap Into The Future Of Chemistry


 Q-Chem 5.4, Q-Chem, Inc., Pleasanton, CA (2021)

 License issued to: Nanyang Technological University (site)

 E. Epifanovsky,  A. T. B. Gilbert,  Xintian Feng,  Joonho Lee,  Yuezhi Mao,  
 N. Mardirossian,  P. Pokhilko,  A. White,  M. Wormit,  M. P. Coons,  
 A. L. Dempwolff,  Zhengting Gan,  D. Hait,  P. R. Horn,  L. D. Jacobson,  
 I. Kaliman,  J. Kussmann,  A. W. Lange,  Ka Un Lao,  D. S. Levine,  Jie Liu,  
 S. C. McKenzie,  A. F. Morrison,  K. Nanda,  F. Plasser,  D. R. Rehn,  
 M. L. Vidal,  Zhi-Qiang You,  Ying Zhu,  B. Alam,  B. Albrecht,  
 A. Aldossary,  E. Alguire,  J. H. Andersen,  D. Barton,  K. Begam,  A. Behn,  
 Y. A. Bernard,  E. J. Berquist,  H. Burton,  A. Carreras,  K. Carter-Fenk,  
 R. Chakraborty,  A. D. Chien,  K. D. Closser,  V. Cofer-Shabica,  
 S. Dasgupta,  Jia Deng,  M. de Wergifosse,  M. Diedenhofen,  Hainam Do,  
 S. Ehlert,  Po-Tung Fang,  S. Fatehi,  Qingguo Feng,  T. Friedhoff,  
 J. Gayvert,  Qinghui Ge,  G. Gidofalvi,  M. Goldey,  J. Gomes,  
 C. Gonzalez-Espinoza,  S. Gulania,  A. Gunina,  M. W. D. Hanson-Heine,  
 P. H. P. Harbach,  A. W. Hauser,  M. F. Herbst,  M. Hernandez Vera,  
 M. Hodecker,  Z. C. Holden,  S. Houck,  Xunkun Huang,  Kerwin Hui,  
 B. C. Huynh,  M. Ivanov,  Hyunjun Ji,  Hanjie Jiang,  B. Kaduk,  S. Kaehler,  
 K. Khistyaev,  Jaehoon Kim,  P. Klunzinger,  Z. Koczor-Benda,  
 Joong Hoon Koh,  D. Kosenkov,  L. Koulias,  T. Kowalczyk,  C. M. Krauter,  
 K. Kue,  A. Kunitsa,  T. Kus,  A. Landau,  K. V. Lawler,  D. Lefrancois,  
 S. Lehtola,  Rain Li,  Yi-Pei Li,  Jiashu Liang,  M. Liebenthal,  
 Hung-Hsuan Lin,  You-Sheng Lin,  Fenglai Liu,  Kuan-Yu Liu,  
 M. Loipersberger,  A. Luenser,  A. Manjanath,  P. Manohar,  E. Mansoor,  
 S. F. Manzer,  Shan-Ping Mao,  A. V. Marenich,  T. Markovich,  S. Mason,  
 S. A. Maurer,  P. F. McLaughlin,  M. F. S. J. Menger,  J.-M. Mewes,  
 S. A. Mewes,  P. Morgante,  J. W. Mullinax,  K. J. Oosterbaan,  G. Paran,  
 Alexander C. Paul,  Suranjan K. Paul,  F. Pavosevic,  Zheng Pei,  S. Prager,  
 E. I. Proynov,  E. Ramos,  B. Rana,  A. E. Rask,  A. Rettig,  R. M. Richard,  
 F. Rob,  E. Rossomme,  T. Scheele,  M. Scheurer,  M. Schneider,  
 N. Sergueev,  S. M. Sharada,  W. Skomorowski,  D. W. Small,  C. J. Stein,  
 Yu-Chuan Su,  E. J. Sundstrom,  Zhen Tao,  J. Thirman,  T. Tsuchimochi,  
 N. M. Tubman,  S. P. Veccham,  O. Vydrov,  J. Wenzel,  J. Witte,  A. Yamada,  
 Kun Yao,  S. Yeganeh,  S. R. Yost,  A. Zech,  Igor Ying Zhang,  Xing Zhang,  
 Yu Zhang,  D. Zuev,  A. Aspuru-Guzik,  A. T. Bell,  N. A. Besley,  
 K. B. Bravaya,  B. R. Brooks,  D. Casanova,  Jeng-Da Chai,  S. Coriani,  
 C. J. Cramer,  A. E. DePrince, III,  R. A. DiStasio Jr.,  A. Dreuw,  
 B. D. Dunietz,  T. R. Furlani,  W. A. Goddard III,  S. Grimme,  
 S. Hammes-Schiffer,  T. Head-Gordon,  W. J. Hehre,  Chao-Ping Hsu,  
 T.-C. Jagau,  Yousung Jung,  A. Klamt,  Jing Kong,  D. S. Lambrecht,  
 WanZhen Liang,  N. J. Mayhall,  C. W. McCurdy,  J. B. Neaton,  
 C. Ochsenfeld,  J. A. Parkhill,  R. Peverati,  V. A. Rassolov,  Yihan Shao,  
 L. V. Slipchenko,  T. Stauch,  R. P. Steele,  J. E. Subotnik,  
 A. J. W. Thom,  A. Tkatchenko,  D. G. Truhlar,  T. Van Voorhis,  
 T. A. Wesolowski,  K. B. Whaley,  H. L. Woodcock III,  P. M. Zimmerman,  
 S. Faraji,  P. M. W. Gill,  M. Head-Gordon,  J. M. Herbert,  A. I. Krylov

 Additional authors for Version 5.4.1: 
 S. Kotaru,  Shaozhi Li,  Xiangyuan Li,  F. Matz,  A. Molle,  Haisheng Ren,  
 Yingli Su,  Hung-Yi Tsai,  C. Utku,  Fang Wang

 Contributors to earlier versions of Q-Chem not listed above: 
 R. D. Adamson,  B. Austin,  R. Baer,  J. Baker,  G. J. O. Beran,  
 K. Brandhorst,  S. T. Brown,  E. F. C. Byrd,  A. K. Chakraborty,  
 G. K. L. Chan,  Chun-Min Chang,  Yunqing Chen,  C.-L. Cheng,  
 Siu Hung Chien,  D. M. Chipman,  D. L. Crittenden,  H. Dachsel,  
 R. J. Doerksen,  A. D. Dutoi,  R. G. Edgar,  J. Fosso-Tande,  
 L. Fusti-Molnar,  D. Ghosh,  A. Ghysels,  A. Golubeva-Zadorozhnaya,  
 J. Gonthier,  M. S. Gordon,  S. R. Gwaltney,  G. Hawkins,  J. E. Herr,  
 A. Heyden,  S. Hirata,  E. G. Hohenstein,  G. Kedziora,  F. J. Keil,  
 C. Kelley,  Jihan Kim,  R. A. King,  R. Z. Khaliullin,  P. P. Korambath,  
 W. Kurlancheek,  A. Laurent,  A. M. Lee,  M. S. Lee,  S. V. Levchenko,  
 Ching Yeh Lin,  D. Liotard,  E. Livshits,  R. C. Lochan,  I. Lotan,  
 L. A. Martinez-Martinez,  P. E. Maslen,  N. Nair,  D. P. O'Neill,  
 D. Neuhauser,  E. Neuscamman,  C. M. Oana,  R. Olivares-Amaya,  R. Olson,  
 T. M. Perrine,  B. Peters,  P. A. Pieniazek,  A. Prociuk,  Y. M. Rhee,  
 J. Ritchie,  M. A. Rohrdanz,  E. Rosta,  N. J. Russ,  H. F. Schaefer III,  
 M. W. Schmidt,  N. E. Schultz,  S. Sharma,  N. Shenvi,  C. D. Sherrill,  
 A. C. Simmonett,  A. Sodt,  T. Stein,  D. Stuck,  K. S. Thanthiriwatte,  
 V. Vanovschi,  L. Vogt,  Tao Wang,  A. Warshel,  M. A. Watson,  
 C. F. Williams,  Q. Wu,  X. Xu,  Jun Yang,  W. Zhang,  Yan Zhao

 Please cite Q-Chem as follows:
 Y. Shao et al., Mol. Phys. 113, 184-215 (2015)
 DOI: 10.1080/00268976.2014.952696

 Q-Chem 5.4.1 for Intel X86 EM64T Linux

 Parts of Q-Chem use Armadillo 9.800.1 (Horizon Scraper).
 http://arma.sourceforge.net/

 Q-Chem begins on Thu Dec  7 16:04:20 2023  

 Host: 
0

     Scratch files written to /scratch/ari.fischer/qChem1854183.hpc-mn1/qchem173925//
 Aug1521 |scratch|qcdevops|jenkins|workspace|build_RNUM 8249   
 Processing $rem in /usr/local/qchem-5.4.1/config/preferences:
 Processing $rem in /home/ari.fischer/.qchemrc:
 Symmetry turned off for PCM/SM12/SMD calculation

 Checking the input file for inconsistencies... 	...done.

--------------------------------------------------------------
User input:
--------------------------------------------------------------
$molecule
-1 2
C         1.4980164545    0.7660547243   -0.1383624944
O         1.8026323618    1.4121745551    0.8766832452
O         1.9798924524    0.8168866210   -1.2928620119
C         0.3676719600   -0.2762671958    0.0083766160
O        -0.0592124773   -0.7989272362   -1.1237456197
O        -0.4187979559   -0.3089060280    1.0215964248
H         0.0738809553   -1.0384616266    1.7114023966
O         1.5892850633   -1.6572546214    0.7212176276
O         1.0518619496   -1.9085083887    1.8610669549
H         0.5714289363   -0.4987389036   -1.8095437390
$end

$rem
BASIS = def2-TZVPPD
JOB_TYPE = SP
METHOD = wB97M-V
SCF_ALGORITHM = DIIS_GDM
MAX_SCF_CYCLES = 400
SCF_CONVERGENCE = 7
THRESH = 12
Solvent_method = SMD
$end
--------------------------------------------------------------
 ----------------------------------------------------------------
             Standard Nuclear Orientation (Angstroms)
    I     Atom           X                Y                Z
 ----------------------------------------------------------------
    1      C       1.4980164545     0.7660547243    -0.1383624944
    2      O       1.8026323618     1.4121745551     0.8766832452
    3      O       1.9798924524     0.8168866210    -1.2928620119
    4      C       0.3676719600    -0.2762671958     0.0083766160
    5      O      -0.0592124773    -0.7989272362    -1.1237456197
    6      O      -0.4187979559    -0.3089060280     1.0215964248
    7      H       0.0738809553    -1.0384616266     1.7114023966
    8      O       1.5892850633    -1.6572546214     0.7212176276
    9      O       1.0518619496    -1.9085083887     1.8610669549
   10      H       0.5714289363    -0.4987389036    -1.8095437390
 ----------------------------------------------------------------
 Nuclear Repulsion Energy =         396.51812469 hartrees
 There are       32 alpha and       31 beta electrons
 Requested basis set is def2-TZVPPD
 There are 124 shells and 348 basis functions

 Total QAlloc Memory Limit 288000 MB
 Mega-Array Size       188 MB
 MEM_STATIC part       192 MB
 
 Citation of the SMD model:
 Marenich, A.V.; Cramer, C.J.; Truhlar, D.G.
 J. Phys. Chem. B 2009, 113, 6378-6396.
 iSolventCode=           1
 Solvent: water                                                           
 
 vradii
            1           2           3           4           5           6
    1   1.8500000   1.5200000   1.5200000   1.8500000   1.5200000   1.5200000
            7           8           9          10
    1   1.2000000   1.5200000   1.5200000   1.2000000
 Changing PCM_VDW_RADII to SMD_RADIUS
 Discretize the solute cavity surface with Lebedev spheres
	Using 110 Lebedev grid points for each H atom
	Using 194 Lebedev grid points for other atoms
	Atomic van der Waals radii will be scaled by 1.20
 Remove points where switching function is < 1.0e-08
 Keep 951 surface tesserae and discard 821 interior tesserae
 Molecular Surface Area = 113.207 Angst**2

                       Distance Matrix (Angstroms)
             C (  1)   O (  2)   O (  3)   C (  4)   O (  5)   O (  6)
   O (  2)  1.241201
   O (  3)  1.252061  2.256705
   C (  4)  1.544554  2.379896  2.342533
   O (  5)  2.417666  3.515274  2.607183  1.317993
   O (  6)  2.485000  2.813871  3.518216  1.283049  2.229779
   H (  7)  2.950605  3.113030  4.012580  1.888796  2.848360  1.118399
   O (  8)  2.572865  3.080760  3.214104  1.976767  2.618809  2.437349
   O (  9)  3.368985  3.543953  4.270397  2.562184  3.372649  2.329437
   H ( 10)  2.291531  3.518987  1.995395  1.842782  0.978847  3.005319
             H (  7)   O (  8)   O (  9)
   O (  8)  1.913066
   O (  9)  1.317508  1.284994
   H ( 10)  3.596653  2.963603  3.961269
 
 A cutoff of  1.0D-12 yielded   7302 shell pairs
 There are     58320 function pairs (     76157 Cartesian)
 Smallest overlap matrix eigenvalue = 7.55E-06

 Scale SEOQF with 1.000000e-01/1.000000e-01/1.000000e-01

 Standard Electronic Orientation quadrupole field applied
 Nucleus-field energy     =     0.0000000015 hartrees
 Guess from superposition of atomic densities
 Warning:  Energy on first SCF cycle will be non-variational
 SAD guess density has 62.000000 electrons

 -----------------------------------------------------------------------
  General SCF calculation program by
  Eric Jon Sundstrom, Paul Horn, Yuezhi Mao, Dmitri Zuev, Alec White,
  David Stuck, Shaama M.S., Shane Yost, Joonho Lee, David Small,
  Daniel Levine, Susi Lehtola, Hugh Burton, Evgeny Epifanovsky,
  Bang C. Huynh
 -----------------------------------------------------------------------
 Exchange:     0.1500 Hartree-Fock + 1.0000 wB97M-V + LR-HF
 Correlation:  1.0000 wB97M-V
 Using SG-2 standard quadrature grid
 Nonlocal Correlation:  VV10 with C = 0.0100 and b = 6.00 and scale = 1.00000
 Grid used for NLC:  SG-1 standard quadrature
 
 Citation of the SMD model:
 Marenich, A.V.; Cramer, C.J.; Truhlar, D.G.
 J. Phys. Chem. B 2009, 113, 6378-6396.
 iSolventCode=           1
 Solvent: water                                                           
 
 vradii
            1           2           3           4           5           6
    1   1.8500000   1.5200000   1.5200000   1.8500000   1.5200000   1.5200000
            7           8           9          10
    1   1.2000000   1.5200000   1.5200000   1.2000000
 using 4 threads for integral computing
 -------------------------------------------------------
 OpenMP Integral computing Module                
 Release: version 1.0, May 2013, Q-Chem Inc. Pittsburgh 
 -------------------------------------------------------
 -------------------------------------------------------
 OpenMP BLAS3 based DFT computing Module                
 Release: version 1.0, May 2013, Q-Chem Inc. Pittsburgh 
 -------------------------------------------------------
 A unrestricted SCF calculation will be
 performed using DIIS, GDM
 SCF converges when RMS gradient is below 1.0e-07
 ---------------------------------------
  Cycle       Energy         DIIS error
 ---------------------------------------
    1    -530.0022776272      1.26e-02  
    2    -528.6583669975      2.33e-03  Done DIIS. Switching to GDM
 ---------------------------------------
  Cycle       Energy        RMS Gradient
 ---------------------------------------
    1    -528.6583669975      1.30e-01   Descent step
    2    -528.8702009987      2.99e-02   Normal BFGS step
    3    -528.9024051364      1.06e-02   Normal BFGS step
    4    -528.9032797463      1.05e-02   Normal BFGS step
    5    -528.9037962660      2.67e-03   Normal BFGS step
    6    -528.9038724142      1.27e-03   Normal BFGS step
    7    -528.9038910712      8.16e-04   Normal BFGS step
    8    -528.9038954685      4.97e-04   Normal BFGS step
    9    -528.9038972456      2.52e-04   Normal BFGS step
   10    -528.9038976660      1.67e-04   Normal BFGS step
   11    -528.9038977813      1.18e-04   Normal BFGS step
   12    -528.9038978494      9.73e-05   Normal BFGS step
   13    -528.9038978810      8.28e-05   Normal BFGS step
   14    -528.9038979011      4.39e-05   Normal BFGS step
   15    -528.9038979084      1.52e-05   Normal BFGS step
   16    -528.9038979103      5.06e-06   Normal BFGS step
   17    -528.9038979106      2.13e-06   Normal BFGS step
   18    -528.9038979106      1.26e-06   Normal BFGS step
   19    -528.9038979106      5.10e-07   Normal BFGS step
   20    -528.9038979105      2.40e-07   Normal BFGS step
   21    -528.9038979106      1.09e-07   Normal BFGS step
   22    -528.9038979108      5.19e-08  Convergence criterion met
 ---------------------------------------
 SCF time:   CPU 1729.73s  wall 434.00s 
<S^2> =          0.756186724
(3)  G-ENP(liq) elect-nuc-pol free energy of system     -528.903897911 a.u.
(4)  G-CDS(liq) cavity-dispersion-solvent structure 
     free energy                                                4.4950 kcal/mol
(6)  G-S(liq) free energy of system                     -528.896734716 a.u.
 SCF   energy in the final basis set =     -528.8967347160
 Total energy in the final basis set =     -528.8967347160
 
 --------------------------------------------------------------
 
                    Orbital Energies (a.u.)
 --------------------------------------------------------------
 
 Alpha MOs
 -- Occupied --
-19.4265 -19.4230 -19.3840 -19.3524 -19.3014 -19.2984 -10.5092 -10.4580
 -1.3359  -1.2544  -1.1821  -1.1764  -1.0981  -0.9482  -0.7891  -0.7315
 -0.6965  -0.6207  -0.6086  -0.6036  -0.5991  -0.5481  -0.5426  -0.5256
 -0.5089  -0.4796  -0.4583  -0.3945  -0.3847  -0.3826  -0.3738  -0.3601
 -- Virtual --
  0.0416   0.0463   0.0582   0.0635   0.0709   0.0900   0.0954   0.1050
  0.1057   0.1116   0.1408   0.1444   0.1460   0.1512   0.1588   0.1623
  0.1691   0.1856   0.1887   0.1959   0.2019   0.2126   0.2336   0.2398
  0.2430   0.2596   0.2692   0.2789   0.2804   0.2853   0.3195   0.3212
  0.3322   0.3367   0.3557   0.3601   0.3674   0.3835   0.3852   0.3901
  0.4021   0.4082   0.4126   0.4171   0.4211   0.4444   0.4497   0.4523
  0.4736   0.4762   0.4856   0.5016   0.5057   0.5091   0.5189   0.5220
  0.5256   0.5394   0.5476   0.5803   0.5854   0.5917   0.5990   0.6140
  0.6163   0.6256   0.6346   0.6401   0.6530   0.6585   0.6666   0.6761
  0.6837   0.6956   0.7032   0.7126   0.7219   0.7327   0.7419   0.7437
  0.7640   0.7663   0.7842   0.7975   0.8082   0.8299   0.8454   0.8547
  0.8625   0.8718   0.8957   0.9120   0.9255   0.9282   0.9399   0.9596
  0.9694   0.9901   0.9955   1.0054   1.0129   1.0449   1.0692   1.0777
  1.0942   1.1081   1.1312   1.1585   1.1646   1.1791   1.1908   1.1937
  1.2095   1.2410   1.2778   1.2812   1.2932   1.3210   1.3226   1.3368
  1.3471   1.3832   1.3960   1.4220   1.4400   1.4568   1.4812   1.5587
  1.5847   1.6004   1.6518   1.6554   1.7154   1.7274   1.7674   1.8152
  1.8309   1.8473   1.8846   1.9256   1.9379   1.9570   1.9816   2.0234
  2.0570   2.0809   2.1009   2.1238   2.1446   2.2017   2.2145   2.2324
  2.2463   2.2956   2.3149   2.3383   2.3508   2.3764   2.4164   2.4214
  2.4284   2.4374   2.5003   2.5269   2.5478   2.5685   2.6310   2.6762
  2.7255   2.7538   2.8270   2.8347   2.8675   2.9483   2.9822   3.0321
  3.0695   3.0970   3.1032   3.1498   3.1624   3.2018   3.2209   3.2312
  3.2544   3.2582   3.3098   3.3114   3.3229   3.3466   3.3755   3.3918
  3.4096   3.4348   3.4561   3.4971   3.5060   3.5339   3.5620   3.5794
  3.5943   3.6013   3.6299   3.6524   3.6851   3.7000   3.7154   3.7482
  3.7749   3.7898   3.8334   3.8667   3.9147   3.9662   3.9974   4.0623
  4.0906   4.1407   4.1724   4.2038   4.2190   4.2888   4.3589   4.4029
  4.4918   4.5736   4.5759   4.6680   4.6866   4.7860   4.8205   4.8360
  4.8552   4.8998   4.9533   5.0129   5.0506   5.1192   5.1542   5.1943
  5.2808   5.3024   5.3181   5.3331   5.3541   5.4179   5.4372   5.4548
  5.5069   5.5630   5.6050   5.6503   5.6963   5.7118   5.7416   5.7772
  5.8107   5.9223   5.9515   6.0428   6.1075   6.1258   6.2466   6.2705
  6.2901   6.3109   6.3266   6.3332   6.4731   6.5172   6.5373   6.5622
  6.6076   6.6311   6.6535   6.6676   6.6792   6.7029   6.7239   6.7377
  6.7402   6.7586   6.7782   6.8354   6.8464   6.8838   6.9446   6.9858
  7.0670   7.0765   7.0775   7.1199   7.1462   7.2126   7.2215   7.2490
  7.2926   7.3422   7.3467   7.4114   7.4390   7.5116   7.5874   7.5936
  7.7247   7.8036   7.9090   8.7717  23.6536  24.0204  44.3548  44.6268
 44.6612  44.7463  44.9659  45.0083
 
 Beta MOs
 -- Occupied --
-19.4108 -19.4083 -19.3841 -19.3525 -19.3014 -19.2984 -10.5095 -10.4580
 -1.3091  -1.2525  -1.1820  -1.1761  -1.0981  -0.9080  -0.7869  -0.7302
 -0.6910  -0.6189  -0.6029  -0.5797  -0.5483  -0.5400  -0.5331  -0.5176
 -0.4995  -0.4737  -0.4566  -0.3860  -0.3819  -0.3740  -0.3499
 -- Virtual --
 -0.0179   0.0422   0.0489   0.0584   0.0638   0.0716   0.0904   0.0957
  0.1058   0.1063   0.1121   0.1411   0.1446   0.1468   0.1514   0.1597
  0.1628   0.1704   0.1872   0.1891   0.1978   0.2019   0.2128   0.2350
  0.2406   0.2465   0.2635   0.2713   0.2800   0.2813   0.2871   0.3198
  0.3230   0.3336   0.3397   0.3574   0.3611   0.3695   0.3853   0.3856
  0.3911   0.4026   0.4089   0.4141   0.4181   0.4215   0.4461   0.4507
  0.4525   0.4749   0.4773   0.4860   0.5023   0.5064   0.5104   0.5194
  0.5227   0.5268   0.5422   0.5490   0.5831   0.5862   0.5927   0.5994
  0.6150   0.6178   0.6267   0.6354   0.6412   0.6546   0.6594   0.6672
  0.6771   0.6843   0.6960   0.7041   0.7137   0.7242   0.7333   0.7436
  0.7450   0.7647   0.7680   0.7847   0.7980   0.8084   0.8301   0.8463
  0.8549   0.8634   0.8745   0.8973   0.9127   0.9265   0.9285   0.9407
  0.9620   0.9718   0.9921   0.9969   1.0061   1.0146   1.0463   1.0703
  1.0782   1.0948   1.1094   1.1339   1.1628   1.1658   1.1794   1.1934
  1.1954   1.2105   1.2426   1.2779   1.2826   1.2938   1.3217   1.3241
  1.3369   1.3480   1.3846   1.3988   1.4220   1.4424   1.4582   1.4839
  1.5615   1.5855   1.6050   1.6532   1.6774   1.7183   1.7392   1.7757
  1.8190   1.8320   1.8480   1.8870   1.9261   1.9418   1.9602   1.9826
  2.0295   2.0626   2.0831   2.1087   2.1255   2.1518   2.2056   2.2175
  2.2344   2.2540   2.3129   2.3193   2.3449   2.3521   2.3783   2.4204
  2.4228   2.4312   2.4389   2.5026   2.5309   2.5526   2.5742   2.6331
  2.6796   2.7267   2.7561   2.8277   2.8354   2.9047   2.9493   2.9929
  3.0359   3.0755   3.1012   3.1151   3.1514   3.1916   3.2055   3.2241
  3.2406   3.2557   3.2614   3.3106   3.3126   3.3238   3.3488   3.3820
  3.3932   3.4169   3.4375   3.4600   3.4991   3.5089   3.5347   3.5643
  3.5838   3.5987   3.6013   3.6323   3.6524   3.6863   3.7015   3.7154
  3.7508   3.7807   3.7902   3.8340   3.8706   3.9161   3.9706   3.9986
  4.0631   4.0912   4.1390   4.1725   4.2037   4.2208   4.2952   4.3591
  4.4032   4.5007   4.5758   4.5759   4.6712   4.6886   4.7908   4.8337
  4.8483   4.8789   4.9128   4.9638   5.0361   5.0620   5.1284   5.1626
  5.2043   5.2816   5.3135   5.3204   5.3377   5.3792   5.4226   5.4456
  5.4833   5.5134   5.5835   5.6077   5.6505   5.6976   5.7172   5.7630
  5.7836   5.8143   5.9281   5.9615   6.0443   6.1085   6.1357   6.2523
  6.2752   6.2978   6.3128   6.3334   6.3860   6.4827   6.5246   6.5602
  6.5878   6.6096   6.6529   6.6582   6.6995   6.7142   6.7247   6.7332
  6.7484   6.7690   6.7817   6.7970   6.8407   6.8521   6.9018   6.9525
  6.9896   7.0717   7.0778   7.0802   7.1200   7.1516   7.2241   7.2267
  7.2760   7.3061   7.3467   7.3541   7.4120   7.4436   7.5120   7.5889
  7.6019   7.7300   7.8034   7.9161   8.7908  23.6533  24.0203  44.3679
 44.6269  44.6612  44.7516  44.9717  45.0100
 --------------------------------------------------------------
 
          Ground-State Mulliken Net Atomic Charges

     Atom                 Charge (a.u.)    Spin (a.u.)
  --------------------------------------------------------
      1 C                     0.732819      -0.001189
      2 O                    -0.800770       0.000548
      3 O                    -0.830646       0.000069
      4 C                     0.821426      -0.005460
      5 O                    -0.453892      -0.004931
      6 O                    -0.636080      -0.002072
      7 H                     0.330064      -0.014591
      8 O                    -0.228953       0.523365
      9 O                    -0.216882       0.504578
     10 H                     0.282913      -0.000317
  --------------------------------------------------------
  Sum of atomic charges =    -1.000000
  Sum of spin   charges =     1.000000

 -----------------------------------------------------------------
                    Cartesian Multipole Moments
 -----------------------------------------------------------------
    Charge (ESU x 10^10)
                -4.8032
    Dipole Moment (Debye)
         X      -8.3424      Y      -2.9214      Z      -2.3195
       Tot       9.1383
    Quadrupole Moments (Debye-Ang)
        XX     -68.6059     XY      -8.0958     YY     -59.8063
        XZ      -1.3648     YZ       1.2654     ZZ     -52.7982
    Octopole Moments (Debye-Ang^2)
       XXX    -181.0394    XXY      -6.0675    XYY     -70.5729
       YYY      32.3453    XXZ      -9.0026    XYZ       6.5722
       YYZ     -20.7270    XZZ     -61.8517    YZZ       4.3625
       ZZZ     -39.1385
    Hexadecapole Moments (Debye-Ang^3)
      XXXX    -613.8395   XXXY     -59.2183   XXYY    -203.2115
      XYYY     -25.1364   YYYY    -452.1118   XXXZ     -10.6655
      XXYZ      32.4174   XYYZ     -26.2345   YYYZ      79.2310
      XXZZ    -184.8347   XYZZ     -15.3856   YYZZ    -153.9995
      XZZZ     -29.4234   YZZZ      84.5181   ZZZZ    -360.7717
 -----------------------------------------------------------------
 Total job time:  435.37s(wall), 1732.43s(cpu) 
 Thu Dec  7 16:11:35 2023

        *************************************************************
        *                                                           *
        *  Thank you very much for using Q-Chem.  Have a nice day.  *
        *                                                           *
        *************************************************************


