
Running Job 1 of 1 Q_in.in
qchem Q_in.in_125201.0 /scratch/ari.fischer/qChem1630573.hpc-mn1/qchem125201/ 0
/usr/local/qchem-5.4.1/exe/qcprog.exe_s Q_in.in_125201.0 /scratch/ari.fischer/qChem1630573.hpc-mn1/qchem125201/
                  Welcome to Q-Chem
     A Quantum Leap Into The Future Of Chemistry


 Q-Chem 5.4, Q-Chem, Inc., Pleasanton, CA (2021)

 License issued to: Nanyang Technological University (site)

 E. Epifanovsky,  A. T. B. Gilbert,  Xintian Feng,  Joonho Lee,  Yuezhi Mao,  
 N. Mardirossian,  P. Pokhilko,  A. White,  M. Wormit,  M. P. Coons,  
 A. L. Dempwolff,  Zhengting Gan,  D. Hait,  P. R. Horn,  L. D. Jacobson,  
 I. Kaliman,  J. Kussmann,  A. W. Lange,  Ka Un Lao,  D. S. Levine,  Jie Liu,  
 S. C. McKenzie,  A. F. Morrison,  K. Nanda,  F. Plasser,  D. R. Rehn,  
 M. L. Vidal,  Zhi-Qiang You,  Ying Zhu,  B. Alam,  B. Albrecht,  
 A. Aldossary,  E. Alguire,  J. H. Andersen,  D. Barton,  K. Begam,  A. Behn,  
 Y. A. Bernard,  E. J. Berquist,  H. Burton,  A. Carreras,  K. Carter-Fenk,  
 R. Chakraborty,  A. D. Chien,  K. D. Closser,  V. Cofer-Shabica,  
 S. Dasgupta,  Jia Deng,  M. de Wergifosse,  M. Diedenhofen,  Hainam Do,  
 S. Ehlert,  Po-Tung Fang,  S. Fatehi,  Qingguo Feng,  T. Friedhoff,  
 J. Gayvert,  Qinghui Ge,  G. Gidofalvi,  M. Goldey,  J. Gomes,  
 C. Gonzalez-Espinoza,  S. Gulania,  A. Gunina,  M. W. D. Hanson-Heine,  
 P. H. P. Harbach,  A. W. Hauser,  M. F. Herbst,  M. Hernandez Vera,  
 M. Hodecker,  Z. C. Holden,  S. Houck,  Xunkun Huang,  Kerwin Hui,  
 B. C. Huynh,  M. Ivanov,  Hyunjun Ji,  Hanjie Jiang,  B. Kaduk,  S. Kaehler,  
 K. Khistyaev,  Jaehoon Kim,  P. Klunzinger,  Z. Koczor-Benda,  
 Joong Hoon Koh,  D. Kosenkov,  L. Koulias,  T. Kowalczyk,  C. M. Krauter,  
 K. Kue,  A. Kunitsa,  T. Kus,  A. Landau,  K. V. Lawler,  D. Lefrancois,  
 S. Lehtola,  Rain Li,  Yi-Pei Li,  Jiashu Liang,  M. Liebenthal,  
 Hung-Hsuan Lin,  You-Sheng Lin,  Fenglai Liu,  Kuan-Yu Liu,  
 M. Loipersberger,  A. Luenser,  A. Manjanath,  P. Manohar,  E. Mansoor,  
 S. F. Manzer,  Shan-Ping Mao,  A. V. Marenich,  T. Markovich,  S. Mason,  
 S. A. Maurer,  P. F. McLaughlin,  M. F. S. J. Menger,  J.-M. Mewes,  
 S. A. Mewes,  P. Morgante,  J. W. Mullinax,  K. J. Oosterbaan,  G. Paran,  
 Alexander C. Paul,  Suranjan K. Paul,  F. Pavosevic,  Zheng Pei,  S. Prager,  
 E. I. Proynov,  E. Ramos,  B. Rana,  A. E. Rask,  A. Rettig,  R. M. Richard,  
 F. Rob,  E. Rossomme,  T. Scheele,  M. Scheurer,  M. Schneider,  
 N. Sergueev,  S. M. Sharada,  W. Skomorowski,  D. W. Small,  C. J. Stein,  
 Yu-Chuan Su,  E. J. Sundstrom,  Zhen Tao,  J. Thirman,  T. Tsuchimochi,  
 N. M. Tubman,  S. P. Veccham,  O. Vydrov,  J. Wenzel,  J. Witte,  A. Yamada,  
 Kun Yao,  S. Yeganeh,  S. R. Yost,  A. Zech,  Igor Ying Zhang,  Xing Zhang,  
 Yu Zhang,  D. Zuev,  A. Aspuru-Guzik,  A. T. Bell,  N. A. Besley,  
 K. B. Bravaya,  B. R. Brooks,  D. Casanova,  Jeng-Da Chai,  S. Coriani,  
 C. J. Cramer,  A. E. DePrince, III,  R. A. DiStasio Jr.,  A. Dreuw,  
 B. D. Dunietz,  T. R. Furlani,  W. A. Goddard III,  S. Grimme,  
 S. Hammes-Schiffer,  T. Head-Gordon,  W. J. Hehre,  Chao-Ping Hsu,  
 T.-C. Jagau,  Yousung Jung,  A. Klamt,  Jing Kong,  D. S. Lambrecht,  
 WanZhen Liang,  N. J. Mayhall,  C. W. McCurdy,  J. B. Neaton,  
 C. Ochsenfeld,  J. A. Parkhill,  R. Peverati,  V. A. Rassolov,  Yihan Shao,  
 L. V. Slipchenko,  T. Stauch,  R. P. Steele,  J. E. Subotnik,  
 A. J. W. Thom,  A. Tkatchenko,  D. G. Truhlar,  T. Van Voorhis,  
 T. A. Wesolowski,  K. B. Whaley,  H. L. Woodcock III,  P. M. Zimmerman,  
 S. Faraji,  P. M. W. Gill,  M. Head-Gordon,  J. M. Herbert,  A. I. Krylov

 Additional authors for Version 5.4.1: 
 S. Kotaru,  Shaozhi Li,  Xiangyuan Li,  F. Matz,  A. Molle,  Haisheng Ren,  
 Yingli Su,  Hung-Yi Tsai,  C. Utku,  Fang Wang

 Contributors to earlier versions of Q-Chem not listed above: 
 R. D. Adamson,  B. Austin,  R. Baer,  J. Baker,  G. J. O. Beran,  
 K. Brandhorst,  S. T. Brown,  E. F. C. Byrd,  A. K. Chakraborty,  
 G. K. L. Chan,  Chun-Min Chang,  Yunqing Chen,  C.-L. Cheng,  
 Siu Hung Chien,  D. M. Chipman,  D. L. Crittenden,  H. Dachsel,  
 R. J. Doerksen,  A. D. Dutoi,  R. G. Edgar,  J. Fosso-Tande,  
 L. Fusti-Molnar,  D. Ghosh,  A. Ghysels,  A. Golubeva-Zadorozhnaya,  
 J. Gonthier,  M. S. Gordon,  S. R. Gwaltney,  G. Hawkins,  J. E. Herr,  
 A. Heyden,  S. Hirata,  E. G. Hohenstein,  G. Kedziora,  F. J. Keil,  
 C. Kelley,  Jihan Kim,  R. A. King,  R. Z. Khaliullin,  P. P. Korambath,  
 W. Kurlancheek,  A. Laurent,  A. M. Lee,  M. S. Lee,  S. V. Levchenko,  
 Ching Yeh Lin,  D. Liotard,  E. Livshits,  R. C. Lochan,  I. Lotan,  
 L. A. Martinez-Martinez,  P. E. Maslen,  N. Nair,  D. P. O'Neill,  
 D. Neuhauser,  E. Neuscamman,  C. M. Oana,  R. Olivares-Amaya,  R. Olson,  
 T. M. Perrine,  B. Peters,  P. A. Pieniazek,  A. Prociuk,  Y. M. Rhee,  
 J. Ritchie,  M. A. Rohrdanz,  E. Rosta,  N. J. Russ,  H. F. Schaefer III,  
 M. W. Schmidt,  N. E. Schultz,  S. Sharma,  N. Shenvi,  C. D. Sherrill,  
 A. C. Simmonett,  A. Sodt,  T. Stein,  D. Stuck,  K. S. Thanthiriwatte,  
 V. Vanovschi,  L. Vogt,  Tao Wang,  A. Warshel,  M. A. Watson,  
 C. F. Williams,  Q. Wu,  X. Xu,  Jun Yang,  W. Zhang,  Yan Zhao

 Please cite Q-Chem as follows:
 Y. Shao et al., Mol. Phys. 113, 184-215 (2015)
 DOI: 10.1080/00268976.2014.952696

 Q-Chem 5.4.1 for Intel X86 EM64T Linux

 Parts of Q-Chem use Armadillo 9.800.1 (Horizon Scraper).
 http://arma.sourceforge.net/

 Q-Chem begins on Tue Jul 18 16:52:48 2023  

 Host: 
0

     Scratch files written to /scratch/ari.fischer/qChem1630573.hpc-mn1/qchem125201//
 Aug1521 |scratch|qcdevops|jenkins|workspace|build_RNUM 8249   
 Processing $rem in /usr/local/qchem-5.4.1/config/preferences:
 Processing $rem in /home/ari.fischer/.qchemrc:
 Symmetry turned off for PCM/SM12/SMD calculation


!!********************************************.
!!******************Warning*******************.
!!Desired Analytical derivatives not available.
!!Finite difference job might take a long time.
!!********************************************.
!!********************************************.


 2-order derivative to be evaluated numerically with 1-order analytical derivatives

 Checking the input file for inconsistencies... 	...done.

--------------------------------------------------------------
User input:
--------------------------------------------------------------
$molecule
0 2
C         1.5036105769   -0.3383289846   -0.4335286606
O         2.2165813818   -1.0242922796   -1.4648281166
C         0.0492082634   -0.2045719189   -0.7687419707
O        -0.6126610145   -1.4037550404   -0.6931453361
O        -0.1768043156    0.5690594324   -1.8791873923
O         2.1093308600    0.9124581407   -0.2759887187
H         1.6103507342   -0.8757690175    0.5076050421
H         1.8786143165   -1.9266893009   -1.5183130331
H        -1.5193823678   -1.3032321333   -1.0112661923
H        -1.1133938933    0.7959407260   -1.9431540541
H         1.8423708583    1.4737665757   -1.0155214674
$end

$rem
BASIS = 6-311++G(2df,2p)
GUI = 2
JOB_TYPE = Frequency
METHOD = wB97M-V
SOLVENT_METHOD = SMD
SCF_ALGORITHM = DIIS_GDM
MAX_SCF_CYCLES = 400
SCF_CONVERGENCE = 7
THRESH = 12
UNRESTRICTED = 1
SYMMETRY_IGNORE = 1
$end
--------------------------------------------------------------
 ----------------------------------------------------------------
             Standard Nuclear Orientation (Angstroms)
    I     Atom           X                Y                Z
 ----------------------------------------------------------------
    1      C       1.5036105769    -0.3383289846    -0.4335286606
    2      O       2.2165813818    -1.0242922796    -1.4648281166
    3      C       0.0492082634    -0.2045719189    -0.7687419707
    4      O      -0.6126610145    -1.4037550404    -0.6931453361
    5      O      -0.1768043156     0.5690594324    -1.8791873923
    6      O       2.1093308600     0.9124581407    -0.2759887187
    7      H       1.6103507342    -0.8757690175     0.5076050421
    8      H       1.8786143165    -1.9266893009    -1.5183130331
    9      H      -1.5193823678    -1.3032321333    -1.0112661923
   10      H      -1.1133938933     0.7959407260    -1.9431540541
   11      H       1.8423708583     1.4737665757    -1.0155214674
 ----------------------------------------------------------------
 Nuclear Repulsion Energy =         260.15247436 hartrees
 There are       25 alpha and       24 beta electrons
 Requested basis set is 6-311++G(2df,2p)
 There are 78 shells and 254 basis functions

 Total QAlloc Memory Limit 288000 MB
 Mega-Array Size       188 MB
 MEM_STATIC part       192 MB
 
 Citation of the SMD model:
 Marenich, A.V.; Cramer, C.J.; Truhlar, D.G.
 J. Phys. Chem. B 2009, 113, 6378-6396.
 iSolventCode=           1
 Solvent: water                                                           
 
 vradii
            1           2           3           4           5           6
    1   1.8500000   1.5200000   1.8500000   1.5200000   1.5200000   1.5200000
            7           8           9          10          11
    1   1.2000000   1.2000000   1.2000000   1.2000000   1.2000000
 Changing PCM_VDW_RADII to SMD_RADIUS
 Discretize the solute cavity surface with Lebedev spheres
	Using 110 Lebedev grid points for each H atom
	Using 194 Lebedev grid points for other atoms
	Atomic van der Waals radii will be scaled by 1.20
 Remove points where switching function is < 1.0e-08
 Keep 917 surface tesserae and discard 797 interior tesserae
 Molecular Surface Area = 107.130 Angst**2

                       Distance Matrix (Angstroms)
             C (  1)   O (  2)   C (  3)   O (  4)   O (  5)   O (  6)
   O (  2)  1.429144
   C (  3)  1.498514  2.419501
   O (  4)  2.383514  2.957042  1.371797
   O (  5)  2.395220  2.904954  1.372106  2.342790
   O (  6)  1.398637  2.275048  2.394716  3.598347  2.813287
   H (  7)  1.089022  2.068832  2.125261  2.581153  3.313341  2.015132
   H (  8)  1.959662  0.965092  2.621883  2.675970  3.253266  3.107629
   H (  9)  3.225415  3.773718  1.930375  0.966152  2.461966  4.314797
   H ( 10)  3.227112  3.825020  1.931816  2.579131  0.965799  3.630285
   H ( 11)  1.933175  2.565581  2.468431  3.796214  2.375180  0.966045
             H (  7)   H (  8)   H (  9)   H ( 10)
   H (  8)  2.297987
   H (  9)  3.504986  3.491730
   H ( 10)  4.027359  4.067594  2.332331
   H ( 11)  2.809638  3.437617  4.360404  3.171198
 
 A cutoff of  1.0D-12 yielded   2932 shell pairs
 There are     31459 function pairs (     39410 Cartesian)
 Smallest overlap matrix eigenvalue = 5.87E-05
 Guess from superposition of atomic densities
 Warning:  Energy on first SCF cycle will be non-variational
 SAD guess density has 49.000000 electrons

 -----------------------------------------------------------------------
  General SCF calculation program by
  Eric Jon Sundstrom, Paul Horn, Yuezhi Mao, Dmitri Zuev, Alec White,
  David Stuck, Shaama M.S., Shane Yost, Joonho Lee, David Small,
  Daniel Levine, Susi Lehtola, Hugh Burton, Evgeny Epifanovsky,
  Bang C. Huynh
 -----------------------------------------------------------------------
 Exchange:     0.1500 Hartree-Fock + 1.0000 wB97M-V + LR-HF
 Correlation:  1.0000 wB97M-V
 Using SG-2 standard quadrature grid
 Nonlocal Correlation:  VV10 with C = 0.0100 and b = 6.00 and scale = 1.00000
 Grid used for NLC:  SG-1 standard quadrature
 using 8 threads for integral computing
 -------------------------------------------------------
 OpenMP Integral computing Module                
 Release: version 1.0, May 2013, Q-Chem Inc. Pittsburgh 
 -------------------------------------------------------
 
 Citation of the SMD model:
 Marenich, A.V.; Cramer, C.J.; Truhlar, D.G.
 J. Phys. Chem. B 2009, 113, 6378-6396.
 iSolventCode=           1
 Solvent: water                                                           
 
 vradii
            1           2           3           4           5           6
    1   1.8500000   1.5200000   1.8500000   1.5200000   1.5200000   1.5200000
            7           8           9          10          11
    1   1.2000000   1.2000000   1.2000000   1.2000000   1.2000000
 -------------------------------------------------------
 OpenMP BLAS3 based DFT computing Module                
 Release: version 1.0, May 2013, Q-Chem Inc. Pittsburgh 
 -------------------------------------------------------
 A unrestricted SCF calculation will be
 performed using DIIS, GDM
 SCF converges when RMS gradient is below 1.0e-07
 ---------------------------------------
  Cycle       Energy         DIIS error
 ---------------------------------------
    1    -381.1420471250      1.57e-02  
    2    -379.9686659608      2.28e-03  Done DIIS. Switching to GDM
 ---------------------------------------
  Cycle       Energy        RMS Gradient
 ---------------------------------------
    1    -379.9686659608      6.01e-02   Descent step
    2    -380.0885506981      1.87e-02   Normal BFGS step
    3    -380.1008714749      6.43e-03   Normal BFGS step
    4    -380.1018045095      2.95e-03   Normal BFGS step
    5    -380.1018908814      8.57e-04   Normal BFGS step
    6    -380.1019200988      3.27e-04   Normal BFGS step
    7    -380.1019234951      1.14e-04   Normal BFGS step
    8    -380.1019239788      6.32e-05   Normal BFGS step
    9    -380.1019240439      2.65e-05   Normal BFGS step
   10    -380.1019240488      8.87e-06   Normal BFGS step
   11    -380.1019240503      3.13e-06   Normal BFGS step
   12    -380.1019240505      1.90e-06   Normal BFGS step
   13    -380.1019240505      6.56e-07   Normal BFGS step
   14    -380.1019240505      1.38e-07   Normal BFGS step
   15    -380.1019240505      7.52e-08  Convergence criterion met
 ---------------------------------------
 SCF time:   CPU 488.16s  wall 64.00s 
<S^2> =          0.752366757
(3)  G-ENP(liq) elect-nuc-pol free energy of system     -380.101924051 a.u.
(4)  G-CDS(liq) cavity-dispersion-solvent structure 
     free energy                                                3.7694 kcal/mol
(6)  G-S(liq) free energy of system                     -380.095917055 a.u.
 SCF   energy in the final basis set =     -380.0959170554
 Total energy in the final basis set =     -380.0959170554
 
 --------------------------------------------------------------
 
                    Orbital Energies (a.u.)
 --------------------------------------------------------------
 
 Alpha MOs
 -- Occupied --
-19.3705 -19.3693 -19.3503 -19.3432 -10.4509 -10.4463  -1.2335  -1.1970
 -1.1618  -1.1350  -0.8565  -0.7504  -0.6915  -0.6480  -0.6361  -0.5865
 -0.5784  -0.5389  -0.5103  -0.4867  -0.4826  -0.4439  -0.4288  -0.4034
 -0.2765
 -- Virtual --
  0.0249   0.0446   0.0469   0.0585   0.0746   0.1012   0.1063   0.1178
  0.1254   0.1355   0.1499   0.1625   0.1709   0.2102   0.2241   0.2305
  0.2417   0.2458   0.2565   0.2648   0.2700   0.2955   0.2982   0.3084
  0.3214   0.3261   0.3317   0.3379   0.3480   0.3506   0.3722   0.3751
  0.3858   0.3991   0.4013   0.4288   0.4452   0.4599   0.4730   0.5597
  0.5828   0.5987   0.6038   0.6199   0.6524   0.6689   0.6759   0.7016
  0.7122   0.7334   0.7625   0.7814   0.8023   0.8697   0.8757   0.8786
  0.9089   0.9363   0.9666   0.9986   1.0144   1.0517   1.0744   1.0931
  1.1068   1.1357   1.1497   1.1553   1.1823   1.1863   1.1910   1.2006
  1.2206   1.2344   1.2646   1.2794   1.3244   1.3541   1.3739   1.4165
  1.4324   1.4465   1.4811   1.4974   1.5184   1.5368   1.5454   1.5801
  1.6122   1.6686   1.6890   1.7474   1.7652   1.8565   1.8921   1.9007
  1.9541   1.9816   2.0186   2.1049   2.1170   2.1531   2.2270   2.2756
  2.2810   2.3047   2.3423   2.3730   2.3951   2.4162   2.4417   2.4959
  2.5607   2.6171   2.7273   2.7662   2.8119   2.8750   2.9314   3.0143
  3.0317   3.0662   3.1425   3.1927   3.2895   3.3068   3.3413   3.3710
  3.3953   3.4091   3.4704   3.5403   3.5526   3.5615   3.6120   3.6289
  3.6718   3.6830   3.7248   3.7710   3.8177   3.8190   3.8299   3.8572
  3.8766   3.9040   3.9451   4.0404   4.0734   4.1068   4.1460   4.1955
  4.2513   4.2775   4.2955   4.3184   4.3372   4.3718   4.3992   4.4324
  4.5527   4.7456   5.1630   5.1726   5.1977   5.2041   5.2355   5.2563
  5.2695   5.2783   5.2946   5.3067   5.3233   5.3401   5.4005   5.4124
  5.4328   5.4556   5.5006   5.5619   5.5734   5.5941   5.6142   5.6343
  5.6607   5.6722   5.7183   5.7350   5.8724   5.9598   5.9660   6.0435
  6.0733   6.1243   6.4032   6.4357   6.5306   6.7297   6.8083   7.0399
  7.0533   7.0760   7.1114   7.2084   7.2183   7.2404   7.2745   7.2812
  7.2975   7.3133   7.3237   7.3503   7.3942   7.4144   7.4578   7.6131
  7.6929   7.6989   7.7219   7.7760   7.8042   7.8456   7.8607  24.7018
 24.8880  50.5405  50.5725  50.5957  50.6320
 
 Beta MOs
 -- Occupied --
-19.3668 -19.3664 -19.3501 -19.3420 -10.4508 -10.4333  -1.2252  -1.1941
 -1.1539  -1.1331  -0.8448  -0.7447  -0.6850  -0.6431  -0.6287  -0.5761
 -0.5645  -0.5250  -0.4952  -0.4846  -0.4727  -0.4332  -0.4254  -0.3982
 -- Virtual --
  0.0178   0.0379   0.0456   0.0471   0.0591   0.0747   0.1003   0.1058
  0.1186   0.1272   0.1355   0.1491   0.1640   0.1696   0.2107   0.2239
  0.2316   0.2454   0.2500   0.2560   0.2646   0.2695   0.2974   0.3000
  0.3091   0.3240   0.3305   0.3341   0.3381   0.3486   0.3522   0.3731
  0.3755   0.3926   0.4061   0.4067   0.4321   0.4498   0.4608   0.4806
  0.5623   0.5863   0.6015   0.6061   0.6217   0.6566   0.6749   0.6910
  0.7064   0.7216   0.7346   0.7671   0.7833   0.8053   0.8735   0.8798
  0.8891   0.9104   0.9429   0.9684   1.0016   1.0155   1.0531   1.0774
  1.0950   1.1098   1.1425   1.1553   1.1588   1.1841   1.1893   1.1954
  1.2071   1.2242   1.2380   1.2676   1.2830   1.3304   1.3608   1.3786
  1.4248   1.4382   1.4508   1.4859   1.4993   1.5208   1.5428   1.5486
  1.5832   1.6146   1.6725   1.6932   1.7501   1.7669   1.8610   1.8957
  1.9073   1.9585   1.9878   2.0260   2.1140   2.1229   2.1597   2.2363
  2.2793   2.2877   2.3084   2.3501   2.3764   2.4017   2.4205   2.4469
  2.5027   2.5695   2.6230   2.7418   2.7764   2.8214   2.8946   2.9753
  3.0351   3.0518   3.0821   3.1656   3.2076   3.3021   3.3305   3.3578
  3.3879   3.4144   3.4256   3.4966   3.5663   3.5767   3.5996   3.6257
  3.6581   3.6856   3.7018   3.7480   3.7778   3.8222   3.8242   3.8379
  3.8728   3.8875   3.9134   3.9561   4.0486   4.0846   4.1131   4.1488
  4.2036   4.2621   4.2805   4.3072   4.3303   4.3456   4.3800   4.4043
  4.4372   4.5616   4.7710   5.1749   5.1772   5.2024   5.2155   5.2401
  5.2601   5.2730   5.2847   5.2998   5.3115   5.3287   5.3432   5.4042
  5.4179   5.4366   5.4597   5.5051   5.5672   5.5808   5.6007   5.6165
  5.6400   5.6653   5.6746   5.7215   5.7415   5.8771   5.9655   5.9704
  6.0503   6.0782   6.1358   6.4118   6.4476   6.5362   6.7323   6.8197
  7.0466   7.0634   7.0853   7.1146   7.2162   7.2246   7.2489   7.2807
  7.2858   7.3034   7.3175   7.3304   7.3564   7.4008   7.4172   7.4672
  7.6149   7.6998   7.7029   7.7266   7.7800   7.8085   7.8536   7.8633
 24.7067  24.8952  50.5431  50.5741  50.5966  50.6334
 --------------------------------------------------------------
 
          Ground-State Mulliken Net Atomic Charges

     Atom                 Charge (a.u.)    Spin (a.u.)
  --------------------------------------------------------
      1 C                    -0.016508      -0.045560
      2 O                    -0.454205       0.033069
      3 C                     0.004281       0.874722
      4 O                    -0.361631       0.084811
      5 O                    -0.377134       0.059770
      6 O                    -0.422358       0.001850
      7 H                     0.258495       0.001330
      8 H                     0.322965      -0.000165
      9 H                     0.355865      -0.004756
     10 H                     0.365190      -0.003934
     11 H                     0.325040      -0.001137
  --------------------------------------------------------
  Sum of atomic charges =    -0.000000
  Sum of spin   charges =     1.000000

 -----------------------------------------------------------------
                    Cartesian Multipole Moments
 -----------------------------------------------------------------
    Charge (ESU x 10^10)
                 0.0000
    Dipole Moment (Debye)
         X      -5.9215      Y      -0.8507      Z      -1.0032
       Tot       6.0658
    Quadrupole Moments (Debye-Ang)
        XX     -39.9816     XY      -2.0039     YY     -31.5933
        XZ       8.1265     YZ      -1.2661     ZZ     -36.8750
    Octopole Moments (Debye-Ang^2)
       XXX    -139.1376    XXY       3.9554    XYY     -23.9131
       YYY      23.8243    XXZ      32.0858    XYZ      -3.5323
       YYZ      21.6365    XZZ     -44.6728    YZZ       9.8856
       ZZZ     106.6428
    Hexadecapole Moments (Debye-Ang^3)
      XXXX    -579.3425   XXXY      11.0582   XXYY     -94.1927
      XYYY      -9.7044   YYYY    -182.8659   XXXZ     113.7159
      XXYZ     -19.1345   XYYZ       9.5268   YYYZ     -16.5360
      XXZZ    -130.0354   XYZZ       0.5639   YYZZ     -67.2993
      XZZZ      95.0213   YZZZ     -28.4156   ZZZZ    -321.1182
 -----------------------------------------------------------------
 Calculating analytic gradient of the SCF energy
 Gradient of CDS energy
            1           2           3           4           5           6
    1   0.0026285  -0.0001307  -0.0038173   0.0026125   0.0008973  -0.0019123
    2   0.0039785   0.0002745  -0.0016138   0.0044853  -0.0028329  -0.0041914
    3   0.0009332   0.0000361  -0.0031937  -0.0003090   0.0037657  -0.0006219
            7           8           9          10          11
    1  -0.0000495   0.0001885  -0.0003583  -0.0002320   0.0001733
    2  -0.0001293  -0.0004168  -0.0003077   0.0003200   0.0004335
    3   0.0000887  -0.0002418  -0.0000286  -0.0002920  -0.0001368
 Gradient of SCF Energy
            1           2           3           4           5           6
    1  -0.0045840   0.0080781   0.0011309   0.0186800   0.0235732   0.0051902
    2   0.0006350   0.0106340   0.0017577  -0.0038795  -0.0051416  -0.0013598
    3  -0.0021143  -0.0026799   0.0030187   0.0078839  -0.0012240   0.0054481
            7           8           9          10          11
    1  -0.0011108  -0.0043544  -0.0209911  -0.0231185  -0.0024935
    2  -0.0024509  -0.0088686   0.0034378   0.0028231   0.0024129
    3   0.0005582   0.0011734  -0.0081078  -0.0012378  -0.0027184
 Max gradient component =       2.357E-02
 RMS gradient           =       8.671E-03
 Computing fast CPCM-SWIG gradient
 Updating gradient with PCM contributions...
 -- total gradient after adding PCM contribution --
---------------------------------------------------
  Atom         X              Y              Z     
---------------------------------------------------
   1       0.000115      -0.000043      -0.000070
   2      -0.000089      -0.000046       0.000089
   3      -0.000064      -0.000010      -0.000006
   4      -0.000024       0.000077      -0.000051
   5      -0.000008       0.000022       0.000028
   6      -0.000075      -0.000016       0.000025
   7      -0.000021       0.000013       0.000014
   8       0.000011       0.000019      -0.000011
   9       0.000018       0.000017      -0.000028
  10       0.000067       0.000013      -0.000029
  11       0.000069      -0.000047       0.000039
---------------------------------------------------
 Number of fixed atoms: 0
 Gradient time:  CPU 78.82 s  wall 12.36 s
 ######################################################
 ######################################################
 # Starting finite difference calculation for IDERIV  #
 Finite diff step size:  1.88973e-03 a.u.
 ----------------------------------------------------------------
             Standard Nuclear Orientation (Angstroms)
    I     Atom           X                Y                Z
 ----------------------------------------------------------------
    1      C       1.5046105769    -0.3383289846    -0.4335286606
    2      O       2.2165813818    -1.0242922796    -1.4648281166
    3      C       0.0492082634    -0.2045719189    -0.7687419707
    4      O      -0.6126610145    -1.4037550404    -0.6931453361
    5      O      -0.1768043156     0.5690594324    -1.8791873923
    6      O       2.1093308600     0.9124581407    -0.2759887187
    7      H       1.6103507342    -0.8757690175     0.5076050421
    8      H       1.8786143165    -1.9266893009    -1.5183130331
    9      H      -1.5193823678    -1.3032321333    -1.0112661923
   10      H      -1.1133938933     0.7959407260    -1.9431540541
   11      H       1.8423708583     1.4737665757    -1.0155214674
 ----------------------------------------------------------------
 Nuclear Repulsion Energy =         260.14903071 hartrees
 There are       25 alpha and       24 beta electrons
 Discretize the solute cavity surface with Lebedev spheres
	Using 110 Lebedev grid points for each H atom
	Using 194 Lebedev grid points for other atoms
	Atomic van der Waals radii will be scaled by 1.20
 Remove points where switching function is < 1.0e-08
 Keep 917 surface tesserae and discard 797 interior tesserae
 Molecular Surface Area = 107.130 Angst**2

                       Distance Matrix (Angstroms)
             C (  1)   O (  2)   C (  3)   O (  4)   O (  5)   O (  6)
   O (  2)  1.428645
   C (  3)  1.499485  2.419501
   O (  4)  2.384402  2.957042  1.371797
   O (  5)  2.395921  2.904954  1.372106  2.342790
   O (  6)  1.398204  2.275048  2.394716  3.598347  2.813287
   H (  7)  1.088924  2.068832  2.125261  2.581153  3.313341  2.015132
   H (  8)  1.959470  0.965092  2.621883  2.675970  3.253266  3.107629
   H (  9)  3.226353  3.773718  1.930375  0.966152  2.461966  4.314797
   H ( 10)  3.227923  3.825020  1.931816  2.579131  0.965799  3.630285
   H ( 11)  1.933000  2.565581  2.468431  3.796214  2.375180  0.966045
             H (  7)   H (  8)   H (  9)   H ( 10)
   H (  8)  2.297987
   H (  9)  3.504986  3.491730
   H ( 10)  4.027359  4.067594  2.332331
   H ( 11)  2.809638  3.437617  4.360404  3.171198
 
 Requested basis set is 6-311++G(2df,2p)
 There are 78 shells and 254 basis functions
 A cutoff of  1.0D-12 yielded   2932 shell pairs
 There are     31459 function pairs (     39410 Cartesian)
 Smallest overlap matrix eigenvalue = 5.89E-05
 Guess MOs from SCF MO coefficient file

 -----------------------------------------------------------------------
  General SCF calculation program by
  Eric Jon Sundstrom, Paul Horn, Yuezhi Mao, Dmitri Zuev, Alec White,
  David Stuck, Shaama M.S., Shane Yost, Joonho Lee, David Small,
  Daniel Levine, Susi Lehtola, Hugh Burton, Evgeny Epifanovsky,
  Bang C. Huynh
 -----------------------------------------------------------------------
 Exchange:     0.1500 Hartree-Fock + 1.0000 wB97M-V + LR-HF
 Correlation:  1.0000 wB97M-V
 Using SG-2 standard quadrature grid
 Nonlocal Correlation:  VV10 with C = 0.0100 and b = 6.00 and scale = 1.00000
 Grid used for NLC:  SG-1 standard quadrature
 
 Citation of the SMD model:
 Marenich, A.V.; Cramer, C.J.; Truhlar, D.G.
 J. Phys. Chem. B 2009, 113, 6378-6396.
 iSolventCode=           1
 Solvent: water                                                           
 
 vradii
            1           2           3           4           5           6
    1   1.8500000   1.5200000   1.8500000   1.5200000   1.5200000   1.5200000
            7           8           9          10          11
    1   1.2000000   1.2000000   1.2000000   1.2000000   1.2000000
 -------------------------------------------------------
 OpenMP BLAS3 based DFT computing Module                
 Release: version 1.0, May 2013, Q-Chem Inc. Pittsburgh 
 -------------------------------------------------------
 A unrestricted SCF calculation will be
 performed using Roothaan-Hall, DIIS, GDM
 SCF converges when RMS gradient is below 1.0e-07
 ---------------------------------------
  Cycle       Energy         DIIS error
 ---------------------------------------
    1    -380.0584112106      3.54e-04  Roothaan Step
 ---------------------------------------
  Cycle       Energy         DIIS error
 ---------------------------------------
    1    -380.0948982954      3.78e-04  
    2    -380.1003627044      2.59e-04  Done DIIS. Switching to GDM
 ---------------------------------------
  Cycle       Energy        RMS Gradient
 ---------------------------------------
    1    -380.1003627044      5.59e-03   Normal BFGS step
    2    -380.1006589980      5.68e-03   Normal BFGS step
    3    -380.1019076375      6.57e-04   Normal BFGS step
    4    -380.1019233336      3.97e-04   Normal BFGS step
    5    -380.1019277453      6.97e-05   Normal BFGS step
    6    -380.1019278660      6.14e-05   Normal BFGS step
    7    -380.1019279269      1.59e-05   Normal BFGS step
    8    -380.1019279342      6.86e-06   Normal BFGS step
    9    -380.1019279354      3.18e-06   Normal BFGS step
   10    -380.1019279355      9.58e-07   Normal BFGS step
   11    -380.1019279356      3.84e-07   Normal BFGS step
   12    -380.1019279356      2.24e-07   Normal BFGS step
   13    -380.1019279356      9.02e-08  Convergence criterion met
 ---------------------------------------
 SCF time:   CPU 498.12s  wall 77.00s 
<S^2> =          0.752366404
(3)  G-ENP(liq) elect-nuc-pol free energy of system     -380.101927936 a.u.
(4)  G-CDS(liq) cavity-dispersion-solvent structure 
     free energy                                                3.7726 kcal/mol
(6)  G-S(liq) free energy of system                     -380.095915943 a.u.
 SCF   energy in the final basis set =     -380.0959159432
 Total energy in the final basis set =     -380.0959159432
 
 --------------------------------------------------------------
 
                    Orbital Energies (a.u.)
 --------------------------------------------------------------
 
 Alpha MOs
 -- Occupied --
-19.3704 -19.3693 -19.3503 -19.3432 -10.4509 -10.4462  -1.2335  -1.1971
 -1.1618  -1.1352  -0.8563  -0.7504  -0.6914  -0.6481  -0.6361  -0.5864
 -0.5785  -0.5389  -0.5103  -0.4867  -0.4827  -0.4439  -0.4288  -0.4033
 -0.2765
 -- Virtual --
  0.0249   0.0446   0.0469   0.0585   0.0746   0.1012   0.1063   0.1178
  0.1254   0.1355   0.1499   0.1625   0.1709   0.2103   0.2242   0.2305
  0.2418   0.2458   0.2565   0.2648   0.2700   0.2956   0.2982   0.3084
  0.3215   0.3262   0.3317   0.3379   0.3479   0.3506   0.3722   0.3751
  0.3859   0.3989   0.4012   0.4288   0.4452   0.4598   0.4730   0.5597
  0.5828   0.5987   0.6038   0.6198   0.6524   0.6689   0.6760   0.7016
  0.7121   0.7334   0.7625   0.7814   0.8022   0.8697   0.8757   0.8786
  0.9089   0.9363   0.9666   0.9986   1.0144   1.0517   1.0745   1.0931
  1.1068   1.1357   1.1497   1.1553   1.1823   1.1863   1.1910   1.2006
  1.2206   1.2344   1.2645   1.2793   1.3244   1.3541   1.3738   1.4164
  1.4323   1.4464   1.4811   1.4974   1.5184   1.5366   1.5454   1.5800
  1.6122   1.6685   1.6890   1.7474   1.7653   1.8565   1.8921   1.9006
  1.9542   1.9815   2.0187   2.1049   2.1170   2.1532   2.2271   2.2758
  2.2811   2.3048   2.3423   2.3729   2.3952   2.4163   2.4417   2.4958
  2.5606   2.6168   2.7272   2.7662   2.8118   2.8753   2.9315   3.0141
  3.0314   3.0663   3.1427   3.1926   3.2895   3.3071   3.3414   3.3712
  3.3954   3.4091   3.4705   3.5404   3.5526   3.5613   3.6119   3.6289
  3.6719   3.6830   3.7248   3.7711   3.8179   3.8191   3.8299   3.8571
  3.8767   3.9039   3.9451   4.0397   4.0732   4.1063   4.1461   4.1953
  4.2507   4.2775   4.2951   4.3181   4.3370   4.3716   4.3991   4.4323
  4.5521   4.7450   5.1630   5.1726   5.1977   5.2041   5.2355   5.2563
  5.2694   5.2783   5.2946   5.3067   5.3232   5.3401   5.4007   5.4124
  5.4328   5.4557   5.5005   5.5620   5.5733   5.5939   5.6141   5.6342
  5.6607   5.6722   5.7185   5.7350   5.8734   5.9604   5.9664   6.0444
  6.0739   6.1243   6.4032   6.4354   6.5313   6.7307   6.8083   7.0399
  7.0533   7.0761   7.1115   7.2084   7.2183   7.2404   7.2745   7.2812
  7.2975   7.3134   7.3238   7.3504   7.3942   7.4145   7.4578   7.6135
  7.6929   7.6989   7.7221   7.7764   7.8041   7.8456   7.8608  24.7029
 24.8868  50.5405  50.5725  50.5958  50.6321
 
 Beta MOs
 -- Occupied --
-19.3668 -19.3664 -19.3502 -19.3421 -10.4508 -10.4333  -1.2252  -1.1942
 -1.1539  -1.1332  -0.8446  -0.7447  -0.6850  -0.6432  -0.6287  -0.5762
 -0.5645  -0.5249  -0.4952  -0.4846  -0.4727  -0.4332  -0.4254  -0.3981
 -- Virtual --
  0.0179   0.0380   0.0456   0.0471   0.0592   0.0747   0.1003   0.1058
  0.1186   0.1272   0.1355   0.1491   0.1640   0.1696   0.2107   0.2239
  0.2317   0.2454   0.2501   0.2560   0.2646   0.2695   0.2974   0.3001
  0.3091   0.3240   0.3306   0.3341   0.3381   0.3485   0.3521   0.3730
  0.3756   0.3926   0.4061   0.4065   0.4321   0.4498   0.4608   0.4806
  0.5623   0.5862   0.6015   0.6061   0.6217   0.6566   0.6750   0.6910
  0.7064   0.7215   0.7346   0.7672   0.7833   0.8052   0.8734   0.8798
  0.8891   0.9104   0.9428   0.9684   1.0016   1.0155   1.0531   1.0775
  1.0950   1.1098   1.1425   1.1552   1.1588   1.1840   1.1893   1.1954
  1.2071   1.2242   1.2380   1.2675   1.2829   1.3304   1.3608   1.3784
  1.4246   1.4380   1.4507   1.4859   1.4993   1.5209   1.5427   1.5485
  1.5832   1.6146   1.6724   1.6932   1.7502   1.7670   1.8610   1.8957
  1.9073   1.9586   1.9878   2.0261   2.1139   2.1229   2.1599   2.2364
  2.2795   2.2878   2.3085   2.3501   2.3763   2.4018   2.4206   2.4469
  2.5027   2.5695   2.6227   2.7417   2.7765   2.8213   2.8948   2.9755
  3.0349   3.0515   3.0822   3.1659   3.2075   3.3023   3.3307   3.3580
  3.3880   3.4146   3.4256   3.4967   3.5664   3.5768   3.5995   3.6255
  3.6582   3.6857   3.7019   3.7480   3.7779   3.8224   3.8243   3.8379
  3.8727   3.8876   3.9133   3.9561   4.0480   4.0845   4.1126   4.1489
  4.2034   4.2615   4.2805   4.3068   4.3299   4.3453   4.3799   4.4040
  4.4371   4.5609   4.7704   5.1749   5.1772   5.2024   5.2155   5.2401
  5.2601   5.2729   5.2846   5.2998   5.3114   5.3287   5.3431   5.4044
  5.4179   5.4366   5.4597   5.5050   5.5673   5.5807   5.6005   5.6164
  5.6399   5.6653   5.6746   5.7217   5.7416   5.8780   5.9659   5.9712
  6.0511   6.0788   6.1358   6.4119   6.4473   6.5368   6.7334   6.8196
  7.0465   7.0634   7.0852   7.1147   7.2163   7.2247   7.2489   7.2806
  7.2858   7.3034   7.3176   7.3304   7.3565   7.4008   7.4173   7.4672
  7.6153   7.6999   7.7029   7.7268   7.7803   7.8084   7.8536   7.8635
 24.7078  24.8940  50.5431  50.5742  50.5967  50.6335
 --------------------------------------------------------------
 
          Ground-State Mulliken Net Atomic Charges

     Atom                 Charge (a.u.)    Spin (a.u.)
  --------------------------------------------------------
      1 C                    -0.016487      -0.045554
      2 O                    -0.453975       0.032921
      3 C                     0.003897       0.874992
      4 O                    -0.361690       0.084765
      5 O                    -0.377152       0.059733
      6 O                    -0.422170       0.001820
      7 H                     0.258446       0.001321
      8 H                     0.323027      -0.000157
      9 H                     0.355845      -0.004762
     10 H                     0.365182      -0.003944
     11 H                     0.325078      -0.001134
  --------------------------------------------------------
  Sum of atomic charges =     0.000000
  Sum of spin   charges =     1.000000

 -----------------------------------------------------------------
                    Cartesian Multipole Moments
 -----------------------------------------------------------------
    Charge (ESU x 10^10)
                 0.0000
    Dipole Moment (Debye)
         X      -5.9157      Y      -0.8511      Z      -1.0043
       Tot       6.0604
    Quadrupole Moments (Debye-Ang)
        XX     -39.9703     XY      -2.0060     YY     -31.5916
        XZ       8.1201     YZ      -1.2639     ZZ     -36.8745
    Octopole Moments (Debye-Ang^2)
       XXX    -139.1182    XXY       3.9510    XYY     -23.9089
       YYY      23.8240    XXZ      32.0741    XYZ      -3.5272
       YYZ      21.6334    XZZ     -44.6679    YZZ       9.8817
       ZZZ     106.6415
    Hexadecapole Moments (Debye-Ang^3)
      XXXX    -579.3555   XXXY      11.0477   XXYY     -94.1969
      XYYY      -9.7091   YYYY    -182.8549   XXXZ     113.6911
      XXYZ     -19.1258   XYYZ       9.5171   YYYZ     -16.5287
      XXZZ    -130.0372   XYZZ       0.5591   YYZZ     -67.2940
      XZZZ      95.0059   YZZZ     -28.4033   ZZZZ    -321.1194
 -----------------------------------------------------------------
 Calculating analytic gradient of the SCF energy
 Gradient of CDS energy
            1           2           3           4           5           6
    1   0.0026602  -0.0001314  -0.0038183   0.0026126   0.0008973  -0.0019404
    2   0.0040427   0.0002746  -0.0016137   0.0044853  -0.0028329  -0.0042555
    3   0.0009427   0.0000353  -0.0031936  -0.0003091   0.0037657  -0.0006300
            7           8           9          10          11
    1  -0.0000510   0.0001885  -0.0003583  -0.0002320   0.0001729
    2  -0.0001290  -0.0004168  -0.0003077   0.0003200   0.0004330
    3   0.0000883  -0.0002418  -0.0000286  -0.0002921  -0.0001369
 Gradient of SCF Energy
            1           2           3           4           5           6
    1  -0.0036449   0.0078800   0.0007627   0.0186412   0.0235490   0.0049521
    2   0.0007656   0.0106891   0.0017499  -0.0038601  -0.0051312  -0.0015844
    3  -0.0020035  -0.0025657   0.0028726   0.0078964  -0.0012051   0.0054193
            7           8           9          10          11
    1  -0.0012244  -0.0043436  -0.0209802  -0.0231081  -0.0024838
    2  -0.0024258  -0.0088895   0.0034363   0.0028206   0.0024295
    3   0.0004951   0.0011509  -0.0081033  -0.0012372  -0.0027194
 Max gradient component =       2.355E-02
 RMS gradient           =       8.640E-03
 Computing fast CPCM-SWIG gradient
 Updating gradient with PCM contributions...
 -- total gradient after adding PCM contribution --
---------------------------------------------------
  Atom         X              Y              Z     
---------------------------------------------------
   1       0.001061       0.000088       0.000044
   2      -0.000286      -0.000003       0.000199
   3      -0.000433      -0.000018      -0.000150
   4      -0.000049       0.000093      -0.000037
   5      -0.000018       0.000031       0.000047
   6      -0.000314      -0.000231      -0.000009
   7      -0.000140       0.000038      -0.000048
   8       0.000020       0.000005      -0.000032
   9       0.000018       0.000017      -0.000027
  10       0.000066       0.000012      -0.000029
  11       0.000076      -0.000032       0.000044
---------------------------------------------------
 Number of fixed atoms: 0
 Gradient time:  CPU 77.02 s  wall 13.99 s
 ----------------------------------------------------------------
             Standard Nuclear Orientation (Angstroms)
    I     Atom           X                Y                Z
 ----------------------------------------------------------------
    1      C       1.5026105769    -0.3383289846    -0.4335286606
    2      O       2.2165813818    -1.0242922796    -1.4648281166
    3      C       0.0492082634    -0.2045719189    -0.7687419707
    4      O      -0.6126610145    -1.4037550404    -0.6931453361
    5      O      -0.1768043156     0.5690594324    -1.8791873923
    6      O       2.1093308600     0.9124581407    -0.2759887187
    7      H       1.6103507342    -0.8757690175     0.5076050421
    8      H       1.8786143165    -1.9266893009    -1.5183130331
    9      H      -1.5193823678    -1.3032321333    -1.0112661923
   10      H      -1.1133938933     0.7959407260    -1.9431540541
   11      H       1.8423708583     1.4737665757    -1.0155214674
 ----------------------------------------------------------------
 Nuclear Repulsion Energy =         260.15592261 hartrees
 There are       25 alpha and       24 beta electrons
 Discretize the solute cavity surface with Lebedev spheres
	Using 110 Lebedev grid points for each H atom
	Using 194 Lebedev grid points for other atoms
	Atomic van der Waals radii will be scaled by 1.20
 Remove points where switching function is < 1.0e-08
 Keep 918 surface tesserae and discard 796 interior tesserae
 Molecular Surface Area = 107.131 Angst**2

                       Distance Matrix (Angstroms)
             C (  1)   O (  2)   C (  3)   O (  4)   O (  5)   O (  6)
   O (  2)  1.429643
   C (  3)  1.497544  2.419501
   O (  4)  2.382626  2.957042  1.371797
   O (  5)  2.394518  2.904954  1.372106  2.342790
   O (  6)  1.399070  2.275048  2.394716  3.598347  2.813287
   H (  7)  1.089120  2.068832  2.125261  2.581153  3.313341  2.015132
   H (  8)  1.959853  0.965092  2.621883  2.675970  3.253266  3.107629
   H (  9)  3.224478  3.773718  1.930375  0.966152  2.461966  4.314797
   H ( 10)  3.226301  3.825020  1.931816  2.579131  0.965799  3.630285
   H ( 11)  1.933350  2.565581  2.468431  3.796214  2.375180  0.966045
             H (  7)   H (  8)   H (  9)   H ( 10)
   H (  8)  2.297987
   H (  9)  3.504986  3.491730
   H ( 10)  4.027359  4.067594  2.332331
   H ( 11)  2.809638  3.437617  4.360404  3.171198
 
 Requested basis set is 6-311++G(2df,2p)
 There are 78 shells and 254 basis functions
 A cutoff of  1.0D-12 yielded   2932 shell pairs
 There are     31459 function pairs (     39410 Cartesian)
 Smallest overlap matrix eigenvalue = 5.85E-05
 Guess MOs from SCF MO coefficient file

 -----------------------------------------------------------------------
  General SCF calculation program by
  Eric Jon Sundstrom, Paul Horn, Yuezhi Mao, Dmitri Zuev, Alec White,
  David Stuck, Shaama M.S., Shane Yost, Joonho Lee, David Small,
  Daniel Levine, Susi Lehtola, Hugh Burton, Evgeny Epifanovsky,
  Bang C. Huynh
 -----------------------------------------------------------------------
 Exchange:     0.1500 Hartree-Fock + 1.0000 wB97M-V + LR-HF
 Correlation:  1.0000 wB97M-V
 Using SG-2 standard quadrature grid
 Nonlocal Correlation:  VV10 with C = 0.0100 and b = 6.00 and scale = 1.00000
 Grid used for NLC:  SG-1 standard quadrature
 
 Citation of the SMD model:
 Marenich, A.V.; Cramer, C.J.; Truhlar, D.G.
 J. Phys. Chem. B 2009, 113, 6378-6396.
 iSolventCode=           1
 Solvent: water                                                           
 
 vradii
            1           2           3           4           5           6
    1   1.8500000   1.5200000   1.8500000   1.5200000   1.5200000   1.5200000
            7           8           9          10          11
    1   1.2000000   1.2000000   1.2000000   1.2000000   1.2000000
 -------------------------------------------------------
 OpenMP BLAS3 based DFT computing Module                
 Release: version 1.0, May 2013, Q-Chem Inc. Pittsburgh 
 -------------------------------------------------------
 A unrestricted SCF calculation will be
 performed using Roothaan-Hall, DIIS, GDM
 SCF converges when RMS gradient is below 1.0e-07
 ---------------------------------------
  Cycle       Energy         DIIS error
 ---------------------------------------
    1    -380.0583887529      3.54e-04  Roothaan Step
 ---------------------------------------
  Cycle       Energy         DIIS error
 ---------------------------------------
    1    -380.0948652805      3.79e-04  
    2    -380.1003301330      2.61e-04  Done DIIS. Switching to GDM
 ---------------------------------------
  Cycle       Energy        RMS Gradient
 ---------------------------------------
    1    -380.1003301330      5.64e-03   Normal BFGS step
    2    -380.1006215072      5.85e-03   Normal BFGS step
    3    -380.1018980184      6.58e-04   Normal BFGS step
    4    -380.1019138230      3.97e-04   Normal BFGS step
    5    -380.1019182434      6.88e-05   Normal BFGS step
    6    -380.1019183659      6.16e-05   Normal BFGS step
    7    -380.1019184273      1.60e-05   Normal BFGS step
    8    -380.1019184346      6.70e-06   Normal BFGS step
    9    -380.1019184359      3.17e-06   Normal BFGS step
   10    -380.1019184360      9.64e-07   Normal BFGS step
   11    -380.1019184360      3.82e-07   Normal BFGS step
   12    -380.1019184360      2.21e-07   Normal BFGS step
   13    -380.1019184360      8.22e-08  Convergence criterion met
 ---------------------------------------
 SCF time:   CPU 508.51s  wall 78.00s 
<S^2> =          0.752367125
(3)  G-ENP(liq) elect-nuc-pol free energy of system     -380.101918436 a.u.
(4)  G-CDS(liq) cavity-dispersion-solvent structure 
     free energy                                                3.7663 kcal/mol
(6)  G-S(liq) free energy of system                     -380.095916377 a.u.
 SCF   energy in the final basis set =     -380.0959163772
 Total energy in the final basis set =     -380.0959163772
 
 --------------------------------------------------------------
 
                    Orbital Energies (a.u.)
 --------------------------------------------------------------
 
 Alpha MOs
 -- Occupied --
-19.3705 -19.3693 -19.3503 -19.3432 -10.4509 -10.4463  -1.2335  -1.1968
 -1.1618  -1.1349  -0.8568  -0.7503  -0.6915  -0.6479  -0.6361  -0.5865
 -0.5783  -0.5389  -0.5103  -0.4867  -0.4826  -0.4439  -0.4287  -0.4035
 -0.2766
 -- Virtual --
  0.0249   0.0447   0.0469   0.0585   0.0746   0.1012   0.1063   0.1178
  0.1254   0.1355   0.1499   0.1625   0.1709   0.2102   0.2241   0.2305
  0.2416   0.2458   0.2565   0.2648   0.2701   0.2955   0.2982   0.3084
  0.3214   0.3260   0.3317   0.3379   0.3480   0.3507   0.3722   0.3750
  0.3858   0.3992   0.4014   0.4287   0.4452   0.4599   0.4730   0.5598
  0.5828   0.5987   0.6038   0.6199   0.6523   0.6688   0.6758   0.7016
  0.7124   0.7335   0.7625   0.7814   0.8024   0.8698   0.8756   0.8786
  0.9089   0.9364   0.9667   0.9986   1.0144   1.0517   1.0743   1.0931
  1.1068   1.1357   1.1497   1.1554   1.1824   1.1863   1.1910   1.2006
  1.2206   1.2344   1.2646   1.2794   1.3244   1.3541   1.3741   1.4167
  1.4325   1.4467   1.4811   1.4975   1.5183   1.5369   1.5454   1.5801
  1.6122   1.6687   1.6890   1.7474   1.7652   1.8566   1.8921   1.9008
  1.9540   1.9816   2.0185   2.1049   2.1171   2.1529   2.2269   2.2755
  2.2809   2.3046   2.3422   2.3730   2.3950   2.4160   2.4418   2.4960
  2.5607   2.6173   2.7274   2.7661   2.8120   2.8747   2.9313   3.0146
  3.0319   3.0660   3.1422   3.1928   3.2894   3.3064   3.3411   3.3708
  3.3951   3.4091   3.4704   3.5402   3.5527   3.5616   3.6122   3.6289
  3.6718   3.6829   3.7248   3.7709   3.8175   3.8189   3.8299   3.8572
  3.8765   3.9041   3.9450   4.0410   4.0736   4.1073   4.1460   4.1958
  4.2518   4.2774   4.2959   4.3188   4.3374   4.3720   4.3993   4.4324
  4.5534   4.7461   5.1630   5.1726   5.1976   5.2041   5.2355   5.2563
  5.2696   5.2784   5.2947   5.3067   5.3233   5.3401   5.4004   5.4124
  5.4327   5.4556   5.5007   5.5618   5.5735   5.5942   5.6142   5.6343
  5.6607   5.6722   5.7182   5.7349   5.8715   5.9592   5.9656   6.0427
  6.0726   6.1243   6.4031   6.4360   6.5300   6.7286   6.8084   7.0400
  7.0533   7.0760   7.1113   7.2083   7.2183   7.2404   7.2746   7.2812
  7.2975   7.3133   7.3236   7.3502   7.3942   7.4143   7.4578   7.6128
  7.6929   7.6990   7.7217   7.7757   7.8043   7.8455   7.8605  24.7007
 24.8892  50.5405  50.5724  50.5955  50.6319
 
 Beta MOs
 -- Occupied --
-19.3668 -19.3665 -19.3501 -19.3420 -10.4508 -10.4334  -1.2252  -1.1940
 -1.1540  -1.1330  -0.8450  -0.7447  -0.6850  -0.6429  -0.6288  -0.5760
 -0.5645  -0.5250  -0.4952  -0.4846  -0.4727  -0.4332  -0.4254  -0.3983
 -- Virtual --
  0.0178   0.0378   0.0456   0.0471   0.0591   0.0747   0.1003   0.1058
  0.1186   0.1272   0.1355   0.1491   0.1639   0.1696   0.2106   0.2239
  0.2316   0.2454   0.2500   0.2560   0.2646   0.2695   0.2975   0.2999
  0.3091   0.3239   0.3304   0.3341   0.3381   0.3486   0.3523   0.3731
  0.3755   0.3925   0.4061   0.4069   0.4320   0.4498   0.4608   0.4806
  0.5623   0.5863   0.6015   0.6062   0.6217   0.6565   0.6749   0.6910
  0.7063   0.7217   0.7346   0.7671   0.7834   0.8053   0.8735   0.8798
  0.8891   0.9104   0.9429   0.9685   1.0016   1.0155   1.0530   1.0773
  1.0950   1.1098   1.1426   1.1553   1.1588   1.1841   1.1892   1.1954
  1.2071   1.2243   1.2379   1.2676   1.2830   1.3304   1.3608   1.3787
  1.4250   1.4384   1.4509   1.4859   1.4994   1.5208   1.5429   1.5486
  1.5832   1.6147   1.6726   1.6932   1.7501   1.7669   1.8611   1.8958
  1.9073   1.9583   1.9879   2.0258   2.1141   2.1228   2.1596   2.2362
  2.2792   2.2877   2.3083   2.3500   2.3764   2.4016   2.4204   2.4469
  2.5028   2.5696   2.6232   2.7419   2.7764   2.8215   2.8944   2.9752
  3.0353   3.0520   3.0820   3.1653   3.2078   3.3019   3.3302   3.3576
  3.3878   3.4142   3.4257   3.4966   3.5662   3.5766   3.5998   3.6258
  3.6580   3.6855   3.7018   3.7480   3.7777   3.8220   3.8241   3.8379
  3.8729   3.8874   3.9135   3.9560   4.0492   4.0849   4.1136   4.1488
  4.2037   4.2626   4.2805   4.3075   4.3307   4.3458   4.3801   4.4045
  4.4374   4.5622   4.7715   5.1749   5.1772   5.2023   5.2155   5.2401
  5.2601   5.2731   5.2847   5.2999   5.3115   5.3288   5.3432   5.4041
  5.4179   5.4365   5.4596   5.5052   5.5671   5.5809   5.6008   5.6166
  5.6400   5.6653   5.6746   5.7213   5.7415   5.8762   5.9651   5.9696
  6.0496   6.0775   6.1359   6.4117   6.4478   6.5356   6.7313   6.8197
  7.0466   7.0634   7.0853   7.1145   7.2162   7.2246   7.2489   7.2807
  7.2858   7.3033   7.3175   7.3303   7.3564   7.4008   7.4171   7.4672
  7.6146   7.6998   7.7030   7.7265   7.7796   7.8086   7.8535   7.8632
 24.7055  24.8964  50.5430  50.5741  50.5965  50.6333
 --------------------------------------------------------------
 
          Ground-State Mulliken Net Atomic Charges

     Atom                 Charge (a.u.)    Spin (a.u.)
  --------------------------------------------------------
      1 C                    -0.016529      -0.045565
      2 O                    -0.454434       0.033219
      3 C                     0.004664       0.874449
      4 O                    -0.361573       0.084857
      5 O                    -0.377116       0.059807
      6 O                    -0.422546       0.001880
      7 H                     0.258546       0.001339
      8 H                     0.322904      -0.000173
      9 H                     0.355885      -0.004751
     10 H                     0.365198      -0.003923
     11 H                     0.325002      -0.001140
  --------------------------------------------------------
  Sum of atomic charges =     0.000000
  Sum of spin   charges =     1.000000

 -----------------------------------------------------------------
                    Cartesian Multipole Moments
 -----------------------------------------------------------------
    Charge (ESU x 10^10)
                 0.0000
    Dipole Moment (Debye)
         X      -5.9274      Y      -0.8503      Z      -1.0020
       Tot       6.0713
    Quadrupole Moments (Debye-Ang)
        XX     -39.9930     XY      -2.0018     YY     -31.5950
        XZ       8.1329     YZ      -1.2683     ZZ     -36.8755
    Octopole Moments (Debye-Ang^2)
       XXX    -139.1569    XXY       3.9597    XYY     -23.9172
       YYY      23.8246    XXZ      32.0974    XYZ      -3.5373
       YYZ      21.6395    XZZ     -44.6776    YZZ       9.8896
       ZZZ     106.6440
    Hexadecapole Moments (Debye-Ang^3)
      XXXX    -579.3294   XXXY      11.0686   XXYY     -94.1885
      XYYY      -9.6998   YYYY    -182.8770   XXXZ     113.7408
      XXYZ     -19.1432   XYYZ       9.5366   YYYZ     -16.5433
      XXZZ    -130.0337   XYZZ       0.5687   YYZZ     -67.3045
      XZZZ      95.0366   YZZZ     -28.4279   ZZZZ    -321.1170
 -----------------------------------------------------------------
 Calculating analytic gradient of the SCF energy
 Gradient of CDS energy
            1           2           3           4           5           6
    1   0.0025956  -0.0001299  -0.0038162   0.0026124   0.0008973  -0.0018829
    2   0.0039120   0.0002744  -0.0016138   0.0044853  -0.0028329  -0.0041251
    3   0.0009233   0.0000369  -0.0031939  -0.0003090   0.0037658  -0.0006134
            7           8           9          10          11
    1  -0.0000480   0.0001885  -0.0003583  -0.0002320   0.0001736
    2  -0.0001295  -0.0004168  -0.0003077   0.0003200   0.0004340
    3   0.0000892  -0.0002418  -0.0000286  -0.0002920  -0.0001366
 Gradient of SCF Energy
            1           2           3           4           5           6
    1  -0.0055267   0.0082758   0.0015013   0.0187190   0.0235976   0.0054293
    2   0.0005026   0.0105791   0.0017655  -0.0038991  -0.0051519  -0.0011333
    3  -0.0022271  -0.0027935   0.0031655   0.0078714  -0.0012430   0.0054773
            7           8           9          10          11
    1  -0.0009971  -0.0043652  -0.0210020  -0.0231289  -0.0025032
    2  -0.0024761  -0.0088477   0.0034392   0.0028256   0.0023963
    3   0.0006217   0.0011959  -0.0081123  -0.0012385  -0.0027174
 Max gradient component =       2.360E-02
 RMS gradient           =       8.706E-03
 Computing fast CPCM-SWIG gradient
 Updating gradient with PCM contributions...
 -- total gradient after adding PCM contribution --
---------------------------------------------------
  Atom         X              Y              Z     
---------------------------------------------------
   1      -0.000834      -0.000175      -0.000186
   2       0.000107      -0.000089      -0.000020
   3       0.000307      -0.000002       0.000139
   4       0.000002       0.000061      -0.000065
   5       0.000003       0.000013       0.000008
   6       0.000165       0.000202       0.000060
   7       0.000098      -0.000012       0.000077
   8       0.000003       0.000033       0.000010
   9       0.000019       0.000018      -0.000029
  10       0.000068       0.000013      -0.000029
  11       0.000062      -0.000061       0.000035
---------------------------------------------------
 Number of fixed atoms: 0
 Gradient time:  CPU 76.82 s  wall 12.38 s
 ----------------------------------------------------------------
             Standard Nuclear Orientation (Angstroms)
    I     Atom           X                Y                Z
 ----------------------------------------------------------------
    1      C       1.5036105769    -0.3373289846    -0.4335286606
    2      O       2.2165813818    -1.0242922796    -1.4648281166
    3      C       0.0492082634    -0.2045719189    -0.7687419707
    4      O      -0.6126610145    -1.4037550404    -0.6931453361
    5      O      -0.1768043156     0.5690594324    -1.8791873923
    6      O       2.1093308600     0.9124581407    -0.2759887187
    7      H       1.6103507342    -0.8757690175     0.5076050421
    8      H       1.8786143165    -1.9266893009    -1.5183130331
    9      H      -1.5193823678    -1.3032321333    -1.0112661923
   10      H      -1.1133938933     0.7959407260    -1.9431540541
   11      H       1.8423708583     1.4737665757    -1.0155214674
 ----------------------------------------------------------------
 Nuclear Repulsion Energy =         260.15737580 hartrees
 There are       25 alpha and       24 beta electrons
 Discretize the solute cavity surface with Lebedev spheres
	Using 110 Lebedev grid points for each H atom
	Using 194 Lebedev grid points for other atoms
	Atomic van der Waals radii will be scaled by 1.20
 Remove points where switching function is < 1.0e-08
 Keep 918 surface tesserae and discard 796 interior tesserae
 Molecular Surface Area = 107.130 Angst**2

                       Distance Matrix (Angstroms)
             C (  1)   O (  2)   C (  3)   O (  4)   O (  5)   O (  6)
   O (  2)  1.429624
   C (  3)  1.498425  2.419501
   O (  4)  2.383961  2.957042  1.371797
   O (  5)  2.394841  2.904954  1.372106  2.342790
   O (  6)  1.397742  2.275048  2.394716  3.598347  2.813287
   H (  7)  1.089515  2.068832  2.125261  2.581153  3.313341  2.015132
   H (  8)  1.960472  0.965092  2.621883  2.675970  3.253266  3.107629
   H (  9)  3.225715  3.773718  1.930375  0.966152  2.461966  4.314797
   H ( 10)  3.226760  3.825020  1.931816  2.579131  0.965799  3.630285
   H ( 11)  1.932237  2.565581  2.468431  3.796214  2.375180  0.966045
             H (  7)   H (  8)   H (  9)   H ( 10)
   H (  8)  2.297987
   H (  9)  3.504986  3.491730
   H ( 10)  4.027359  4.067594  2.332331
   H ( 11)  2.809638  3.437617  4.360404  3.171198
 
 Requested basis set is 6-311++G(2df,2p)
 There are 78 shells and 254 basis functions
 A cutoff of  1.0D-12 yielded   2932 shell pairs
 There are     31459 function pairs (     39410 Cartesian)
 Smallest overlap matrix eigenvalue = 5.87E-05
 Guess MOs from SCF MO coefficient file

 -----------------------------------------------------------------------
  General SCF calculation program by
  Eric Jon Sundstrom, Paul Horn, Yuezhi Mao, Dmitri Zuev, Alec White,
  David Stuck, Shaama M.S., Shane Yost, Joonho Lee, David Small,
  Daniel Levine, Susi Lehtola, Hugh Burton, Evgeny Epifanovsky,
  Bang C. Huynh
 -----------------------------------------------------------------------
 Exchange:     0.1500 Hartree-Fock + 1.0000 wB97M-V + LR-HF
 Correlation:  1.0000 wB97M-V
 Using SG-2 standard quadrature grid
 Nonlocal Correlation:  VV10 with C = 0.0100 and b = 6.00 and scale = 1.00000
 Grid used for NLC:  SG-1 standard quadrature
 
 Citation of the SMD model:
 Marenich, A.V.; Cramer, C.J.; Truhlar, D.G.
 J. Phys. Chem. B 2009, 113, 6378-6396.
 iSolventCode=           1
 Solvent: water                                                           
 
 vradii
            1           2           3           4           5           6
    1   1.8500000   1.5200000   1.8500000   1.5200000   1.5200000   1.5200000
            7           8           9          10          11
    1   1.2000000   1.2000000   1.2000000   1.2000000   1.2000000
 -------------------------------------------------------
 OpenMP BLAS3 based DFT computing Module                
 Release: version 1.0, May 2013, Q-Chem Inc. Pittsburgh 
 -------------------------------------------------------
 A unrestricted SCF calculation will be
 performed using Roothaan-Hall, DIIS, GDM
 SCF converges when RMS gradient is below 1.0e-07
 ---------------------------------------
  Cycle       Energy         DIIS error
 ---------------------------------------
    1    -380.0583973968      3.54e-04  Roothaan Step
 ---------------------------------------
  Cycle       Energy         DIIS error
 ---------------------------------------
    1    -380.0948974978      3.78e-04  
    2    -380.1003642678      2.59e-04  Done DIIS. Switching to GDM
 ---------------------------------------
  Cycle       Energy        RMS Gradient
 ---------------------------------------
    1    -380.1003642678      5.62e-03   Normal BFGS step
    2    -380.1006600048      5.72e-03   Normal BFGS step
    3    -380.1019103900      6.56e-04   Normal BFGS step
    4    -380.1019261018      3.99e-04   Normal BFGS step
    5    -380.1019305372      7.00e-05   Normal BFGS step
    6    -380.1019306582      6.14e-05   Normal BFGS step
    7    -380.1019307207      1.61e-05   Normal BFGS step
    8    -380.1019307280      6.97e-06   Normal BFGS step
    9    -380.1019307292      3.18e-06   Normal BFGS step
   10    -380.1019307293      9.76e-07   Normal BFGS step
   11    -380.1019307294      3.86e-07   Normal BFGS step
   12    -380.1019307294      2.26e-07   Normal BFGS step
   13    -380.1019307294      8.90e-08  Convergence criterion met
 ---------------------------------------
 SCF time:   CPU 511.97s  wall 83.00s 
<S^2> =          0.752367284
(3)  G-ENP(liq) elect-nuc-pol free energy of system     -380.101930729 a.u.
(4)  G-CDS(liq) cavity-dispersion-solvent structure 
     free energy                                                3.7742 kcal/mol
(6)  G-S(liq) free energy of system                     -380.095916089 a.u.
 SCF   energy in the final basis set =     -380.0959160889
 Total energy in the final basis set =     -380.0959160889
 
 --------------------------------------------------------------
 
                    Orbital Energies (a.u.)
 --------------------------------------------------------------
 
 Alpha MOs
 -- Occupied --
-19.3705 -19.3693 -19.3504 -19.3431 -10.4509 -10.4463  -1.2335  -1.1971
 -1.1618  -1.1351  -0.8565  -0.7504  -0.6915  -0.6480  -0.6362  -0.5865
 -0.5784  -0.5388  -0.5103  -0.4868  -0.4825  -0.4439  -0.4288  -0.4033
 -0.2765
 -- Virtual --
  0.0249   0.0446   0.0469   0.0585   0.0746   0.1012   0.1063   0.1178
  0.1255   0.1355   0.1499   0.1625   0.1709   0.2103   0.2241   0.2305
  0.2417   0.2458   0.2565   0.2648   0.2701   0.2957   0.2981   0.3084
  0.3214   0.3260   0.3317   0.3379   0.3480   0.3506   0.3722   0.3750
  0.3858   0.3991   0.4013   0.4288   0.4452   0.4598   0.4730   0.5597
  0.5828   0.5987   0.6039   0.6198   0.6524   0.6689   0.6759   0.7016
  0.7123   0.7335   0.7624   0.7814   0.8023   0.8697   0.8756   0.8786
  0.9089   0.9363   0.9667   0.9986   1.0144   1.0517   1.0744   1.0931
  1.1068   1.1357   1.1497   1.1553   1.1823   1.1862   1.1910   1.2004
  1.2207   1.2344   1.2646   1.2793   1.3243   1.3541   1.3738   1.4167
  1.4325   1.4466   1.4812   1.4974   1.5184   1.5369   1.5454   1.5800
  1.6121   1.6686   1.6889   1.7474   1.7653   1.8565   1.8922   1.9007
  1.9542   1.9816   2.0186   2.1051   2.1170   2.1530   2.2272   2.2757
  2.2810   2.3048   2.3423   2.3730   2.3951   2.4161   2.4419   2.4961
  2.5608   2.6172   2.7275   2.7662   2.8118   2.8751   2.9315   3.0147
  3.0318   3.0662   3.1423   3.1928   3.2896   3.3065   3.3412   3.3710
  3.3952   3.4093   3.4704   3.5407   3.5526   3.5615   3.6122   3.6290
  3.6718   3.6828   3.7247   3.7708   3.8177   3.8189   3.8297   3.8571
  3.8766   3.9044   3.9451   4.0403   4.0735   4.1067   4.1458   4.1955
  4.2513   4.2776   4.2954   4.3185   4.3372   4.3717   4.3989   4.4320
  4.5523   4.7455   5.1630   5.1726   5.1976   5.2041   5.2355   5.2564
  5.2694   5.2783   5.2946   5.3067   5.3232   5.3402   5.4003   5.4125
  5.4327   5.4557   5.5008   5.5617   5.5733   5.5939   5.6142   5.6343
  5.6607   5.6724   5.7183   5.7349   5.8718   5.9601   5.9666   6.0440
  6.0745   6.1244   6.4033   6.4356   6.5301   6.7308   6.8084   7.0399
  7.0533   7.0761   7.1115   7.2084   7.2182   7.2404   7.2746   7.2811
  7.2975   7.3133   7.3237   7.3501   7.3943   7.4146   7.4579   7.6135
  7.6928   7.6989   7.7220   7.7763   7.8042   7.8456   7.8607  24.7019
 24.8882  50.5405  50.5724  50.5959  50.6320
 
 Beta MOs
 -- Occupied --
-19.3668 -19.3664 -19.3503 -19.3419 -10.4508 -10.4333  -1.2252  -1.1942
 -1.1539  -1.1331  -0.8448  -0.7447  -0.6850  -0.6431  -0.6288  -0.5761
 -0.5645  -0.5249  -0.4951  -0.4847  -0.4726  -0.4332  -0.4254  -0.3981
 -- Virtual --
  0.0179   0.0379   0.0456   0.0471   0.0592   0.0747   0.1003   0.1058
  0.1186   0.1273   0.1355   0.1491   0.1640   0.1696   0.2107   0.2239
  0.2317   0.2454   0.2500   0.2561   0.2646   0.2696   0.2974   0.3001
  0.3091   0.3240   0.3304   0.3341   0.3381   0.3486   0.3522   0.3731
  0.3755   0.3926   0.4062   0.4067   0.4321   0.4498   0.4608   0.4806
  0.5623   0.5863   0.6015   0.6062   0.6217   0.6566   0.6749   0.6910
  0.7064   0.7216   0.7346   0.7671   0.7834   0.8053   0.8734   0.8798
  0.8892   0.9104   0.9428   0.9685   1.0016   1.0155   1.0530   1.0774
  1.0950   1.1098   1.1425   1.1552   1.1588   1.1841   1.1892   1.1954
  1.2069   1.2243   1.2379   1.2677   1.2829   1.3304   1.3608   1.3785
  1.4249   1.4383   1.4508   1.4860   1.4993   1.5208   1.5428   1.5485
  1.5831   1.6146   1.6725   1.6931   1.7501   1.7669   1.8610   1.8958
  1.9073   1.9585   1.9879   2.0259   2.1142   2.1229   2.1596   2.2365
  2.2794   2.2878   2.3086   2.3500   2.3764   2.4018   2.4205   2.4471
  2.5029   2.5696   2.6231   2.7419   2.7765   2.8213   2.8948   2.9754
  3.0355   3.0519   3.0821   3.1654   3.2077   3.3023   3.3303   3.3577
  3.3879   3.4143   3.4258   3.4967   3.5666   3.5766   3.5999   3.6256
  3.6582   3.6856   3.7018   3.7478   3.7776   3.8223   3.8241   3.8377
  3.8727   3.8874   3.9137   3.9561   4.0485   4.0848   4.1130   4.1486
  4.2036   4.2620   4.2806   4.3071   4.3305   4.3455   4.3799   4.4038
  4.4371   4.5611   4.7709   5.1749   5.1772   5.2023   5.2155   5.2402
  5.2602   5.2729   5.2846   5.2998   5.3114   5.3287   5.3433   5.4040
  5.4180   5.4365   5.4597   5.5053   5.5670   5.5808   5.6006   5.6165
  5.6401   5.6653   5.6748   5.7214   5.7415   5.8764   5.9659   5.9710
  6.0508   6.0794   6.1360   6.4119   6.4474   6.5358   6.7335   6.8197
  7.0466   7.0635   7.0853   7.1146   7.2163   7.2245   7.2489   7.2807
  7.2858   7.3034   7.3175   7.3304   7.3563   7.4009   7.4174   7.4672
  7.6152   7.6997   7.7029   7.7267   7.7802   7.8085   7.8536   7.8633
 24.7068  24.8954  50.5431  50.5741  50.5969  50.6334
 --------------------------------------------------------------
 
          Ground-State Mulliken Net Atomic Charges

     Atom                 Charge (a.u.)    Spin (a.u.)
  --------------------------------------------------------
      1 C                    -0.016524      -0.045591
      2 O                    -0.454657       0.033139
      3 C                     0.004466       0.874728
      4 O                    -0.361680       0.084783
      5 O                    -0.377137       0.059752
      6 O                    -0.421833       0.001841
      7 H                     0.258265       0.001342
      8 H                     0.322948      -0.000170
      9 H                     0.355903      -0.004756
     10 H                     0.365183      -0.003931
     11 H                     0.325065      -0.001137
  --------------------------------------------------------
  Sum of atomic charges =    -0.000000
  Sum of spin   charges =     1.000000

 -----------------------------------------------------------------
                    Cartesian Multipole Moments
 -----------------------------------------------------------------
    Charge (ESU x 10^10)
                 0.0000
    Dipole Moment (Debye)
         X      -5.9215      Y      -0.8435      Z      -1.0008
       Tot       6.0644
    Quadrupole Moments (Debye-Ang)
        XX     -39.9813     XY      -1.9882     YY     -31.5941
        XZ       8.1316     YZ      -1.2702     ZZ     -36.8817
    Octopole Moments (Debye-Ang^2)
       XXX    -139.1376    XXY       3.9851    XYY     -23.9153
       YYY      23.8261    XXZ      32.0998    XYZ      -3.5434
       YYZ      21.6411    XZZ     -44.6854    YZZ       9.8910
       ZZZ     106.6587
    Hexadecapole Moments (Debye-Ang^3)
      XXXX    -579.3389   XXXY      11.1312   XXYY     -94.1919
      XYYY      -9.6903   YYYY    -182.8491   XXXZ     113.7573
      XXYZ     -19.1574   XYYZ       9.5369   YYYZ     -16.5395
      XXZZ    -130.0696   XYZZ       0.5818   YYZZ     -67.3052
      XZZZ      95.0533   YZZZ     -28.4251   ZZZZ    -321.1653
 -----------------------------------------------------------------
 Calculating analytic gradient of the SCF energy
 Gradient of CDS energy
            1           2           3           4           5           6
    1   0.0026916  -0.0001307  -0.0038173   0.0026127   0.0008973  -0.0019752
    2   0.0041113   0.0002737  -0.0016145   0.0044853  -0.0028329  -0.0043194
    3   0.0009488   0.0000368  -0.0031940  -0.0003090   0.0037657  -0.0006377
            7           8           9          10          11
    1  -0.0000489   0.0001884  -0.0003583  -0.0002320   0.0001725
    2  -0.0001315  -0.0004169  -0.0003077   0.0003200   0.0004324
    3   0.0000883  -0.0002414  -0.0000286  -0.0002920  -0.0001371
 Gradient of SCF Energy
            1           2           3           4           5           6
    1  -0.0044559   0.0080705   0.0011648   0.0186089   0.0236160   0.0050256
    2   0.0017414   0.0104604   0.0016343  -0.0038874  -0.0051622  -0.0018666
    3  -0.0023452  -0.0026892   0.0030552   0.0078676  -0.0012088   0.0054845
            7           8           9          10          11
    1  -0.0010772  -0.0043137  -0.0209973  -0.0231184  -0.0025234
    2  -0.0026512  -0.0088862   0.0034298   0.0028222   0.0023657
    3   0.0007747   0.0011249  -0.0081047  -0.0012281  -0.0027310
 Max gradient component =       2.362E-02
 RMS gradient           =       8.670E-03
 Computing fast CPCM-SWIG gradient
 Updating gradient with PCM contributions...
 -- total gradient after adding PCM contribution --
---------------------------------------------------
  Atom         X              Y              Z     
---------------------------------------------------
   1       0.000246       0.001064      -0.000312
   2      -0.000097      -0.000199       0.000088
   3      -0.000029      -0.000135       0.000033
   4      -0.000098       0.000069      -0.000066
   5       0.000036       0.000007       0.000046
   6      -0.000239      -0.000500       0.000055
   7       0.000014      -0.000197       0.000235
   8       0.000049      -0.000017      -0.000063
   9       0.000013       0.000008      -0.000026
  10       0.000066       0.000010      -0.000022
  11       0.000040      -0.000110       0.000033
---------------------------------------------------
 Number of fixed atoms: 0
 Gradient time:  CPU 77.92 s  wall 12.93 s
 ----------------------------------------------------------------
             Standard Nuclear Orientation (Angstroms)
    I     Atom           X                Y                Z
 ----------------------------------------------------------------
    1      C       1.5036105769    -0.3393289846    -0.4335286606
    2      O       2.2165813818    -1.0242922796    -1.4648281166
    3      C       0.0492082634    -0.2045719189    -0.7687419707
    4      O      -0.6126610145    -1.4037550404    -0.6931453361
    5      O      -0.1768043156     0.5690594324    -1.8791873923
    6      O       2.1093308600     0.9124581407    -0.2759887187
    7      H       1.6103507342    -0.8757690175     0.5076050421
    8      H       1.8786143165    -1.9266893009    -1.5183130331
    9      H      -1.5193823678    -1.3032321333    -1.0112661923
   10      H      -1.1133938933     0.7959407260    -1.9431540541
   11      H       1.8423708583     1.4737665757    -1.0155214674
 ----------------------------------------------------------------
 Nuclear Repulsion Energy =         260.14757623 hartrees
 There are       25 alpha and       24 beta electrons
 Discretize the solute cavity surface with Lebedev spheres
	Using 110 Lebedev grid points for each H atom
	Using 194 Lebedev grid points for other atoms
	Atomic van der Waals radii will be scaled by 1.20
 Remove points where switching function is < 1.0e-08
 Keep 917 surface tesserae and discard 797 interior tesserae
 Molecular Surface Area = 107.130 Angst**2

                       Distance Matrix (Angstroms)
             C (  1)   O (  2)   C (  3)   O (  4)   O (  5)   O (  6)
   O (  2)  1.428664
   C (  3)  1.498604  2.419501
   O (  4)  2.383067  2.957042  1.371797
   O (  5)  2.395599  2.904954  1.372106  2.342790
   O (  6)  1.399531  2.275048  2.394716  3.598347  2.813287
   H (  7)  1.088528  2.068832  2.125261  2.581153  3.313341  2.015132
   H (  8)  1.958851  0.965092  2.621883  2.675970  3.253266  3.107629
   H (  9)  3.225116  3.773718  1.930375  0.966152  2.461966  4.314797
   H ( 10)  3.227463  3.825020  1.931816  2.579131  0.965799  3.630285
   H ( 11)  1.934112  2.565581  2.468431  3.796214  2.375180  0.966045
             H (  7)   H (  8)   H (  9)   H ( 10)
   H (  8)  2.297987
   H (  9)  3.504986  3.491730
   H ( 10)  4.027359  4.067594  2.332331
   H ( 11)  2.809638  3.437617  4.360404  3.171198
 
 Requested basis set is 6-311++G(2df,2p)
 There are 78 shells and 254 basis functions
 A cutoff of  1.0D-12 yielded   2932 shell pairs
 There are     31459 function pairs (     39410 Cartesian)
 Smallest overlap matrix eigenvalue = 5.87E-05
 Guess MOs from SCF MO coefficient file

 -----------------------------------------------------------------------
  General SCF calculation program by
  Eric Jon Sundstrom, Paul Horn, Yuezhi Mao, Dmitri Zuev, Alec White,
  David Stuck, Shaama M.S., Shane Yost, Joonho Lee, David Small,
  Daniel Levine, Susi Lehtola, Hugh Burton, Evgeny Epifanovsky,
  Bang C. Huynh
 -----------------------------------------------------------------------
 Exchange:     0.1500 Hartree-Fock + 1.0000 wB97M-V + LR-HF
 Correlation:  1.0000 wB97M-V
 Using SG-2 standard quadrature grid
 Nonlocal Correlation:  VV10 with C = 0.0100 and b = 6.00 and scale = 1.00000
 Grid used for NLC:  SG-1 standard quadrature
 
 Citation of the SMD model:
 Marenich, A.V.; Cramer, C.J.; Truhlar, D.G.
 J. Phys. Chem. B 2009, 113, 6378-6396.
 iSolventCode=           1
 Solvent: water                                                           
 
 vradii
            1           2           3           4           5           6
    1   1.8500000   1.5200000   1.8500000   1.5200000   1.5200000   1.5200000
            7           8           9          10          11
    1   1.2000000   1.2000000   1.2000000   1.2000000   1.2000000
 -------------------------------------------------------
 OpenMP BLAS3 based DFT computing Module                
 Release: version 1.0, May 2013, Q-Chem Inc. Pittsburgh 
 -------------------------------------------------------
 A unrestricted SCF calculation will be
 performed using Roothaan-Hall, DIIS, GDM
 SCF converges when RMS gradient is below 1.0e-07
 ---------------------------------------
  Cycle       Energy         DIIS error
 ---------------------------------------
    1    -380.0583880281      3.54e-04  Roothaan Step
 ---------------------------------------
  Cycle       Energy         DIIS error
 ---------------------------------------
    1    -380.0948702470      3.78e-04  
    2    -380.1003377245      2.60e-04  Done DIIS. Switching to GDM
 ---------------------------------------
  Cycle       Energy        RMS Gradient
 ---------------------------------------
    1    -380.1003377245      5.59e-03   Normal BFGS step
    2    -380.1006317292      5.78e-03   Normal BFGS step
    3    -380.1018951932      6.58e-04   Normal BFGS step
    4    -380.1019109494      3.96e-04   Normal BFGS step
    5    -380.1019153435      6.93e-05   Normal BFGS step
    6    -380.1019154648      6.16e-05   Normal BFGS step
    7    -380.1019155239      1.57e-05   Normal BFGS step
    8    -380.1019155313      6.65e-06   Normal BFGS step
    9    -380.1019155325      3.19e-06   Normal BFGS step
   10    -380.1019155326      9.41e-07   Normal BFGS step
   11    -380.1019155326      3.81e-07   Normal BFGS step
   12    -380.1019155326      2.22e-07   Normal BFGS step
   13    -380.1019155326      8.83e-08  Convergence criterion met
 ---------------------------------------
 SCF time:   CPU 510.68s  wall 80.00s 
<S^2> =          0.752366238
(3)  G-ENP(liq) elect-nuc-pol free energy of system     -380.101915533 a.u.
(4)  G-CDS(liq) cavity-dispersion-solvent structure 
     free energy                                                3.7648 kcal/mol
(6)  G-S(liq) free energy of system                     -380.095915923 a.u.
 SCF   energy in the final basis set =     -380.0959159227
 Total energy in the final basis set =     -380.0959159227
 
 --------------------------------------------------------------
 
                    Orbital Energies (a.u.)
 --------------------------------------------------------------
 
 Alpha MOs
 -- Occupied --
-19.3705 -19.3693 -19.3502 -19.3433 -10.4509 -10.4463  -1.2335  -1.1969
 -1.1618  -1.1350  -0.8565  -0.7504  -0.6915  -0.6480  -0.6360  -0.5864
 -0.5784  -0.5389  -0.5103  -0.4866  -0.4827  -0.4439  -0.4287  -0.4035
 -0.2766
 -- Virtual --
  0.0249   0.0447   0.0469   0.0585   0.0746   0.1012   0.1063   0.1178
  0.1254   0.1355   0.1499   0.1625   0.1709   0.2102   0.2241   0.2305
  0.2417   0.2458   0.2564   0.2648   0.2700   0.2954   0.2982   0.3084
  0.3214   0.3262   0.3317   0.3379   0.3479   0.3506   0.3721   0.3751
  0.3858   0.3990   0.4013   0.4288   0.4452   0.4599   0.4730   0.5597
  0.5828   0.5987   0.6037   0.6199   0.6523   0.6689   0.6759   0.7016
  0.7122   0.7334   0.7626   0.7814   0.8023   0.8698   0.8757   0.8786
  0.9088   0.9364   0.9666   0.9986   1.0144   1.0517   1.0744   1.0931
  1.1068   1.1357   1.1497   1.1553   1.1823   1.1863   1.1910   1.2008
  1.2206   1.2345   1.2645   1.2794   1.3245   1.3541   1.3740   1.4164
  1.4323   1.4465   1.4810   1.4974   1.5184   1.5367   1.5455   1.5801
  1.6123   1.6686   1.6890   1.7475   1.7652   1.8565   1.8920   1.9007
  1.9540   1.9815   2.0186   2.1047   2.1170   2.1532   2.2268   2.2755
  2.2810   2.3045   2.3423   2.3729   2.3950   2.4162   2.4416   2.4957
  2.5606   2.6169   2.7272   2.7661   2.8119   2.8749   2.9313   3.0140
  3.0315   3.0661   3.1427   3.1927   3.2893   3.3070   3.3413   3.3710
  3.3953   3.4090   3.4704   3.5400   3.5527   3.5614   3.6119   3.6288
  3.6719   3.6831   3.7249   3.7712   3.8176   3.8191   3.8301   3.8572
  3.8767   3.9036   3.9450   4.0405   4.0733   4.1069   4.1462   4.1956
  4.2512   4.2773   4.2956   4.3184   4.3372   4.3719   4.3995   4.4327
  4.5532   4.7456   5.1630   5.1726   5.1977   5.2041   5.2354   5.2563
  5.2695   5.2784   5.2947   5.3067   5.3233   5.3400   5.4007   5.4124
  5.4328   5.4556   5.5004   5.5621   5.5734   5.5942   5.6141   5.6342
  5.6607   5.6721   5.7184   5.7350   5.8731   5.9596   5.9654   6.0430
  6.0720   6.1241   6.4031   6.4358   6.5311   6.7285   6.8083   7.0399
  7.0532   7.0760   7.1114   7.2083   7.2184   7.2404   7.2745   7.2812
  7.2974   7.3134   7.3237   7.3505   7.3941   7.4142   7.4578   7.6128
  7.6929   7.6990   7.7218   7.7758   7.8042   7.8455   7.8607  24.7017
 24.8878  50.5405  50.5726  50.5954  50.6320
 
 Beta MOs
 -- Occupied --
-19.3668 -19.3664 -19.3500 -19.3421 -10.4508 -10.4333  -1.2251  -1.1940
 -1.1539  -1.1331  -0.8448  -0.7447  -0.6850  -0.6431  -0.6287  -0.5761
 -0.5645  -0.5250  -0.4952  -0.4845  -0.4728  -0.4332  -0.4253  -0.3982
 -- Virtual --
  0.0178   0.0379   0.0456   0.0471   0.0591   0.0747   0.1003   0.1058
  0.1186   0.1272   0.1355   0.1491   0.1640   0.1696   0.2106   0.2239
  0.2316   0.2454   0.2501   0.2560   0.2646   0.2695   0.2974   0.2999
  0.3091   0.3240   0.3306   0.3341   0.3381   0.3485   0.3522   0.3730
  0.3755   0.3926   0.4060   0.4067   0.4320   0.4498   0.4608   0.4806
  0.5623   0.5863   0.6015   0.6061   0.6217   0.6566   0.6749   0.6910
  0.7064   0.7216   0.7345   0.7672   0.7833   0.8052   0.8735   0.8798
  0.8891   0.9103   0.9429   0.9684   1.0016   1.0155   1.0531   1.0774
  1.0950   1.1098   1.1425   1.1553   1.1587   1.1841   1.1893   1.1954
  1.2073   1.2242   1.2380   1.2675   1.2830   1.3305   1.3608   1.3786
  1.4247   1.4381   1.4508   1.4858   1.4993   1.5208   1.5427   1.5486
  1.5833   1.6147   1.6725   1.6933   1.7502   1.7669   1.8610   1.8956
  1.9073   1.9584   1.9878   2.0260   2.1138   2.1229   2.1598   2.2361
  2.2793   2.2877   2.3082   2.3501   2.3763   2.4017   2.4206   2.4467
  2.5026   2.5695   2.6228   2.7416   2.7764   2.8215   2.8944   2.9752
  3.0347   3.0517   3.0821   3.1658   3.2076   3.3020   3.3306   3.3579
  3.3879   3.4145   3.4255   3.4966   3.5660   3.5767   3.5994   3.6257
  3.6580   3.6856   3.7019   3.7482   3.7780   3.8221   3.8243   3.8381
  3.8729   3.8876   3.9130   3.9560   4.0487   4.0845   4.1132   4.1491
  4.2036   4.2621   4.2803   4.3072   4.3302   4.3456   4.3802   4.4047
  4.4374   4.5620   4.7710   5.1749   5.1772   5.2024   5.2156   5.2401
  5.2601   5.2731   5.2848   5.2999   5.3115   5.3288   5.3430   5.4044
  5.4179   5.4367   5.4596   5.5049   5.5675   5.5809   5.6007   5.6164
  5.6399   5.6653   5.6744   5.7216   5.7416   5.8777   5.9652   5.9698
[...]
     5    5.109188971076760e-03   1.548515461434425e-02  -2.389077192639898e-02
     6    6.757173196997860e-04   2.335521211286710e-04   2.273377796393172e-04
     7   -1.416520600343407e-03  -2.277403304452696e-05  -3.217218872303161e-04
     8    9.134428476923817e-06   1.056559536652955e-05   5.802015553690699e-05
     9    1.147058010007532e-03   1.471069396219887e-03   6.388206077037411e-04
    10    3.271914721987541e-02  -3.097589603903401e-02   3.850174084368030e-02
    11    1.045011776631388e-04  -1.490724257886272e-04  -6.762195797237548e-05


    11 Order 1, Length 33
    Atom      X          Y          Z
     1    3.612952728296151e-03  -1.558404956589269e-02   1.804595268876802e-02
     2    1.277499954694682e-04   4.835748307218320e-04  -1.067735117558828e-03
     3   -2.108087164659484e-03  -3.454104516417231e-03   2.365109568187982e-03
     4    1.059884657293505e-03   1.310098939050383e-03  -1.025268263280906e-04
     5    1.298731839926033e-03  -1.489083179671193e-04  -4.998121420372779e-05
     6   -6.025189328244892e-02   7.945088842515208e-02  -1.317381573906630e-01
     7   -9.118635158888571e-04  -4.277566491851861e-03  -7.423191253211740e-04
     8    4.914705686994651e-05  -1.277266781314463e-04   1.245464639234652e-04
     9   -1.403407050396511e-04   1.144380824562147e-05  -7.352036373234504e-05
    10    2.331876183638378e-05   1.137294734355877e-03   1.045011776631388e-04
    11    5.724041661134507e-02  -5.880093220661815e-02   1.131341230892122e-01

Order 1, Length 33
    Atom      X          Y          Z
     1    7.566516671245679e-03  -3.367040629023813e-02   3.183729089841802e-02
     2    3.526020910706656e-04   2.287769123114780e-03   4.005064330362602e-04
     3   -9.277960923115104e-04  -6.529583882852296e-04   4.794771692658051e-04
     4    1.245739696993417e-03   8.630435224647599e-04   4.466894990304987e-04
     5    7.184470772336712e-04   5.497254548039997e-05  -4.048696863679181e-04
     6    5.312118895614354e-02  -1.837239750397229e-01   1.869045190439728e-01
     7   -2.996824636476465e-03  -2.986777932383370e-03  -1.550934628855846e-03
     8   -1.953987706010126e-04   4.344052350120697e-04  -1.224226812765396e-04
     9   -5.790729860406866e-05   1.384837647329459e-04  -8.742194848690631e-05
    10   -2.562058359898670e-05   5.447533418542739e-04  -1.490724257886272e-04
    11   -5.880093220661815e-02   2.167107089565497e-01  -2.177537322973131e-01

Order 1, Length 33
    Atom      X          Y          Z
     1    2.157141005063353e-03  -3.391172930248276e-03   3.960578717436613e-03
     2   -5.951988333841994e-04  -1.326498910203631e-03   2.886973575494828e-05
     3   -1.804107632061132e-04  -1.298001566088731e-03   6.060608550977904e-04
     4   -8.342173542880136e-04  -2.237544363322637e-04  -6.284873012325403e-04
     5    2.556208914623997e-04  -1.140239996849871e-03  -3.074865974944318e-04
     6   -1.139641926869399e-01   2.252003747979135e-01  -3.084251665270776e-01
     7   -1.246285703993684e-04  -3.631083419054241e-04   1.740964331955493e-03
     8   -1.698069333412469e-05  -9.732951322308910e-05  -5.717662087228673e-04
     9   -5.941369468027719e-05  -1.736365000372037e-04   7.641658383310160e-05
    10    2.281730110657863e-04   5.671031763067880e-04  -6.762195797237548e-05
    11    1.131341230892122e-01  -2.177537322973131e-01   3.035876604973285e-01




 # Finishing finite difference calculation for IDERIV #
 ######################################################
 ######################################################
 Requested basis set is 6-311++G(2df,2p)
 There are 78 shells and 254 basis functions
 **********************************************************************
 **                                                                  **
 **                       VIBRATIONAL ANALYSIS                       **
 **                       --------------------                       **
 **                                                                  **
 **        VIBRATIONAL FREQUENCIES (CM**-1) AND NORMAL MODES         **
 **     FORCE CONSTANTS (mDYN/ANGSTROM) AND REDUCED MASSES (AMU)     **
 **                  INFRARED INTENSITIES (KM/MOL)                   **
 **                                                                  **
 **********************************************************************
 

 Mode:                 1                      2                      3
 Frequency:        84.29                 147.73                 176.34
 Force Cnst:      0.0252                 0.0141                 0.0197
 Red. Mass:       6.0122                 1.0936                 1.0746
 IR Active:          YES                    YES                    YES
 IR Intens:        7.732                207.618                 44.415
 Raman Active:       YES                    YES                    YES
               X      Y      Z        X      Y      Z        X      Y      Z
 C          0.004 -0.045 -0.049    0.008 -0.022 -0.024   -0.011  0.007 -0.003
 O          0.041  0.200 -0.183    0.010  0.014 -0.045    0.002 -0.002  0.014
 C          0.014  0.016 -0.049    0.004 -0.007 -0.006   -0.011  0.004 -0.009
 O         -0.123  0.108  0.253   -0.035  0.018  0.004    0.024 -0.016 -0.039
 O          0.060 -0.212 -0.216    0.011  0.012  0.003    0.004  0.035  0.011
 O          0.007 -0.079  0.247   -0.023 -0.008  0.008    0.010 -0.005  0.011
 H         -0.027 -0.241 -0.158    0.018 -0.059 -0.048   -0.035  0.014  0.004
 H         -0.076  0.264 -0.529    0.683 -0.274  0.578   -0.140  0.059 -0.128
 H         -0.095  0.125  0.179   -0.108  0.105  0.240   -0.219  0.127  0.704
 H          0.086 -0.105 -0.217    0.001 -0.038 -0.035   -0.099 -0.489 -0.357
 H          0.142  0.035  0.285   -0.137  0.049  0.094    0.128 -0.027 -0.047
 TransDip   0.011  0.019 -0.086    0.224 -0.114  0.387   -0.172 -0.117  0.049

 Mode:                 4                      5                      6
 Frequency:       227.99                 251.33                 329.27
 Force Cnst:      0.1014                 0.1719                 0.0824
 Red. Mass:       3.3116                 4.6176                 1.2905
 IR Active:          YES                    YES                    YES
 IR Intens:       40.619                  8.154                416.584
 Raman Active:       YES                    YES                    YES
               X      Y      Z        X      Y      Z        X      Y      Z
 C          0.041 -0.073 -0.048    0.014 -0.029  0.069    0.012 -0.012 -0.002
 O          0.276 -0.017  0.067   -0.141  0.053 -0.092    0.045  0.044 -0.009
 C          0.044 -0.092 -0.047    0.010 -0.071  0.138   -0.014 -0.019  0.035
 O         -0.170  0.041  0.014   -0.068 -0.031 -0.016   -0.091  0.009  0.009
 O         -0.023  0.038  0.057    0.361 -0.037  0.088    0.011  0.011  0.064
 O         -0.119  0.015 -0.080   -0.153  0.077 -0.116   -0.009  0.004 -0.020
 H          0.038 -0.011 -0.010    0.246  0.005  0.059    0.041  0.008  0.006
 H         -0.061  0.137 -0.423   -0.223  0.089 -0.184    0.165 -0.002  0.023
 H         -0.266  0.300  0.366   -0.075  0.081  0.035    0.066 -0.054 -0.458
 H          0.040  0.384  0.374    0.385 -0.041 -0.254   -0.075 -0.438 -0.274
 H         -0.202 -0.054 -0.102   -0.603  0.059  0.032    0.505 -0.235 -0.389
 TransDip  -0.148  0.137  0.034   -0.090 -0.013 -0.008    0.303 -0.339 -0.470

 Mode:                 7                      8                      9
 Frequency:       351.72                 438.98                 537.03
 Force Cnst:      0.0855                 0.7637                 0.8588
 Red. Mass:       1.1730                 6.7266                 5.0539
 IR Active:          YES                    YES                    YES
 IR Intens:      148.215                 63.065                 39.284
 Raman Active:       YES                    YES                    YES
               X      Y      Z        X      Y      Z        X      Y      Z
 C         -0.012  0.010  0.027    0.072  0.103  0.125   -0.201 -0.040  0.027
 O         -0.054  0.040 -0.010   -0.024  0.169  0.066    0.052  0.223  0.109
 C         -0.002 -0.018  0.003   -0.059 -0.077  0.106   -0.182  0.014 -0.046
 O          0.017 -0.033 -0.030   -0.244 -0.038 -0.231    0.032 -0.137  0.126
 O          0.028 -0.034 -0.018   -0.077 -0.233  0.023    0.086  0.145 -0.033
 O         -0.022  0.015  0.016    0.358  0.023 -0.079    0.117 -0.201 -0.172
 H          0.011  0.028  0.034    0.171  0.145  0.140   -0.326 -0.061  0.034
 H          0.055 -0.005  0.073    0.048  0.144  0.046    0.356  0.130 -0.174
 H         -0.095  0.073  0.322   -0.306  0.373  0.067    0.008 -0.446  0.094
 H          0.127  0.461  0.297   -0.030  0.007  0.184    0.142  0.328 -0.209
 H          0.559 -0.259 -0.405   -0.240  0.272  0.326   -0.181 -0.110  0.008
 TransDip   0.323  0.102  0.193   -0.037  0.160  0.194   -0.163 -0.068 -0.096

 Mode:                10                     11                     12
 Frequency:       601.26                 716.85                 849.71
 Force Cnst:      1.2776                 1.6702                 2.0009
 Red. Mass:       5.9981                 5.5165                 4.7037
 IR Active:          YES                    YES                    YES
 IR Intens:       28.470                 57.539                 85.298
 Raman Active:       YES                    YES                    YES
               X      Y      Z        X      Y      Z        X      Y      Z
 C         -0.016 -0.187  0.119    0.063 -0.093  0.212   -0.256  0.127 -0.235
 O          0.030  0.109  0.041   -0.186  0.145  0.065   -0.028  0.039  0.071
 C          0.015  0.202  0.220    0.329 -0.217 -0.278    0.124 -0.073 -0.139
 O          0.189  0.253 -0.145   -0.011  0.046  0.056    0.061  0.117 -0.015
 O         -0.089 -0.164 -0.016   -0.064  0.109 -0.043    0.078 -0.168  0.231
 O         -0.128 -0.176 -0.118   -0.009 -0.042 -0.054   -0.002 -0.065 -0.019
 H         -0.010 -0.234  0.095    0.042 -0.045  0.248   -0.567  0.108 -0.210
 H          0.258  0.043 -0.245   -0.025  0.089  0.049   -0.024  0.040  0.086
 H          0.134  0.251  0.024    0.067  0.245 -0.095    0.095  0.257 -0.055
 H         -0.099 -0.175  0.092   -0.224 -0.434  0.316    0.096 -0.130  0.200
 H         -0.300 -0.405 -0.229   -0.245 -0.241 -0.120    0.234  0.298  0.179
 TransDip   0.024 -0.159  0.057    0.086 -0.213  0.079   -0.131  0.219 -0.149

 Mode:                13                     14                     15
 Frequency:       979.73                1127.27                1147.79
 Force Cnst:      4.0509                 2.1564                 1.4129
 Red. Mass:       7.1629                 2.8803                 1.8202
 IR Active:          YES                    YES                    YES
 IR Intens:      216.145                429.792                130.395
 Raman Active:       YES                    YES                    YES
               X      Y      Z        X      Y      Z        X      Y      Z
 C         -0.297  0.181  0.450   -0.064  0.169  0.022    0.049  0.098  0.019
 O          0.165 -0.155 -0.295    0.050 -0.003 -0.043    0.047  0.032 -0.024
 C         -0.047 -0.068 -0.121    0.138  0.074  0.151   -0.076 -0.132 -0.004
 O          0.040  0.085 -0.002   -0.035 -0.149  0.015    0.027  0.095 -0.008
 O          0.003 -0.034  0.059    0.007  0.054 -0.099   -0.009  0.007  0.000
 O          0.059  0.046 -0.008   -0.069 -0.139 -0.033   -0.039 -0.113 -0.013
 H         -0.277  0.083  0.367   -0.088  0.154  0.015    0.377  0.052 -0.044
 H          0.261 -0.197 -0.315   -0.180  0.062  0.224   -0.515  0.192  0.622
 H          0.013 -0.087  0.028    0.105  0.727 -0.147   -0.028 -0.249  0.054
 H          0.005 -0.036  0.029   -0.093 -0.210  0.274    0.028  0.102 -0.144
 H         -0.134 -0.176 -0.114    0.127  0.133  0.113    0.040 -0.014  0.039
 TransDip  -0.354  0.158  0.267    0.184  0.536  0.345   -0.229  0.013  0.285

 Mode:                16                     17                     18
 Frequency:      1158.98                1177.35                1232.14
 Force Cnst:      1.9527                 0.9566                 1.3182
 Red. Mass:       2.4674                 1.1713                 1.4737
 IR Active:          YES                    YES                    YES
 IR Intens:      317.564                 78.970                371.858
 Raman Active:       YES                    YES                    YES
               X      Y      Z        X      Y      Z        X      Y      Z
 C          0.082  0.015  0.047    0.001  0.007  0.002    0.068  0.035  0.036
 O          0.025  0.021 -0.030    0.010  0.002 -0.006   -0.028 -0.008  0.008
 C          0.050  0.233 -0.156    0.009  0.086 -0.016    0.013  0.078 -0.084
 O         -0.046 -0.095  0.007   -0.042  0.004 -0.018   -0.013 -0.013  0.001
 O         -0.016 -0.073  0.110    0.050 -0.005 -0.012   -0.016 -0.029  0.047
 O         -0.009 -0.019  0.004   -0.010 -0.013 -0.007   -0.062 -0.085 -0.019
 H         -0.263 -0.258 -0.070    0.019  0.016  0.002    0.386  0.504  0.267
 H         -0.361  0.130  0.421   -0.053  0.020  0.067    0.269 -0.091 -0.308
 H         -0.037  0.013  0.013   -0.147 -0.605  0.110   -0.028 -0.099  0.023
 H          0.085  0.196 -0.314   -0.098 -0.390  0.642    0.049  0.145 -0.212
 H         -0.296 -0.384 -0.180    0.038  0.055  0.030    0.260  0.348  0.212
 TransDip  -0.010  0.517 -0.241   -0.031 -0.149  0.240    0.328  0.476 -0.217

 Mode:                19                     20                     21
 Frequency:      1358.99                1386.59                1415.82
 Force Cnst:      1.4396                 1.5953                 1.7919
 Red. Mass:       1.3230                 1.4083                 1.5172
 IR Active:          YES                    YES                    YES
 IR Intens:       47.500                 18.482                 31.294
 Raman Active:       YES                    YES                    YES
               X      Y      Z        X      Y      Z        X      Y      Z
 C         -0.091 -0.072  0.054   -0.002  0.146 -0.046   -0.014 -0.113 -0.039
 O          0.014  0.002  0.017   -0.025 -0.023  0.044    0.022  0.017 -0.028
 C         -0.028  0.050 -0.060   -0.042  0.004 -0.039   -0.133  0.023 -0.068
 O          0.014 -0.022  0.011    0.005 -0.005  0.006    0.037 -0.012  0.020
 O          0.006 -0.007  0.011    0.016 -0.003  0.007    0.032 -0.004  0.013
 O          0.003  0.038 -0.033    0.011 -0.039  0.045    0.026  0.020  0.030
 H          0.609 -0.491 -0.275    0.523 -0.083 -0.263    0.120  0.588  0.352
 H         -0.094  0.035  0.098    0.238 -0.090 -0.280   -0.161  0.062  0.207
 H          0.055  0.240 -0.037    0.026  0.128 -0.023    0.112  0.452 -0.078
 H         -0.013 -0.055  0.076   -0.023 -0.110  0.146   -0.046 -0.209  0.299
 H          0.258  0.340  0.115   -0.351 -0.509 -0.200   -0.127 -0.151 -0.048
 TransDip  -0.034  0.218 -0.013   -0.014 -0.004 -0.137   -0.136 -0.095 -0.068

 Mode:                22                     23                     24
 Frequency:      1489.15                3108.54                3789.38
 Force Cnst:      2.8272                 6.1913                 9.0188
 Red. Mass:       2.1639                 1.0875                 1.0660
 IR Active:          YES                    YES                    YES
 IR Intens:       46.452                 39.286                121.746
 Raman Active:       YES                    YES                    YES
               X      Y      Z        X      Y      Z        X      Y      Z
 C          0.203  0.079  0.062   -0.011  0.044 -0.072   -0.001  0.001 -0.002
 O         -0.023 -0.009  0.009    0.000 -0.001 -0.000   -0.000 -0.001 -0.000
 C         -0.190 -0.032 -0.072    0.001  0.001 -0.000    0.000 -0.000  0.000
 O          0.034  0.010  0.019   -0.000 -0.000 -0.000    0.005 -0.000  0.002
 O          0.036 -0.002  0.015    0.000 -0.000  0.000    0.001 -0.000  0.000
 O         -0.046 -0.031 -0.039    0.001 -0.000  0.002   -0.016  0.038 -0.047
 H         -0.549 -0.414 -0.115    0.114 -0.495  0.857    0.001 -0.009  0.012
 H          0.119 -0.044 -0.159    0.005 -0.002 -0.003    0.005  0.014  0.000
 H          0.092  0.360 -0.058   -0.001 -0.001  0.001   -0.081  0.007 -0.028
 H         -0.035 -0.188  0.295   -0.000 -0.001  0.000   -0.008  0.003 -0.001
 H          0.190  0.245  0.097   -0.009  0.002 -0.016    0.265 -0.593  0.753
 TransDip   0.186  0.115  0.000    0.026  0.095 -0.175    0.039 -0.267  0.228

 Mode:                25                     26                     27
 Frequency:      3791.30                3795.47                3812.49
 Force Cnst:      9.0331                 9.0505                 9.1296
 Red. Mass:       1.0666                 1.0663                 1.0661
 IR Active:          YES                    YES                    YES
 IR Intens:       60.489                361.972                124.121
 Raman Active:       YES                    YES                    YES
               X      Y      Z        X      Y      Z        X      Y      Z
 C          0.000  0.000 -0.000    0.000  0.000  0.000   -0.001 -0.001  0.001
 O          0.000  0.000 -0.000    0.001  0.003  0.000   -0.021 -0.059 -0.005
 C         -0.001  0.000  0.000   -0.001  0.001  0.000   -0.000  0.000  0.000
 O         -0.052  0.005 -0.018   -0.027  0.002 -0.009   -0.002  0.000 -0.001
 O          0.028 -0.007  0.002   -0.053  0.014 -0.005   -0.002  0.001 -0.000
 O         -0.001  0.003 -0.003   -0.001  0.002 -0.002    0.000 -0.000  0.001
 H          0.000 -0.000  0.001    0.001 -0.001  0.001   -0.001  0.002  0.001
 H         -0.002 -0.004 -0.000   -0.016 -0.043 -0.003    0.338  0.936  0.066
 H          0.829 -0.082  0.288    0.433 -0.040  0.150    0.025 -0.002  0.009
 H         -0.448  0.113 -0.034    0.854 -0.215  0.069    0.037 -0.009  0.003
 H          0.019 -0.043  0.054    0.012 -0.029  0.036   -0.003  0.008 -0.009
 TransDip   0.195  0.147  0.049    0.563 -0.163  0.167    0.070  0.341  0.076

 STANDARD THERMODYNAMIC QUANTITIES AT   298.15 K  AND     1.00 ATM

   This Molecule has  0 Imaginary Frequencies
   Zero point vibrational energy:       50.726 kcal/mol

   Atom    1 Element C  Has Mass   12.00000
   Atom    2 Element O  Has Mass   15.99491
   Atom    3 Element C  Has Mass   12.00000
   Atom    4 Element O  Has Mass   15.99491
   Atom    5 Element O  Has Mass   15.99491
   Atom    6 Element O  Has Mass   15.99491
   Atom    7 Element H  Has Mass    1.00783
   Atom    8 Element H  Has Mass    1.00783
   Atom    9 Element H  Has Mass    1.00783
   Atom   10 Element H  Has Mass    1.00783
   Atom   11 Element H  Has Mass    1.00783
   Molecular Mass:    93.018790 amu
   Principal axes and moments of inertia in amu*Bohr^2:
                             1           2           3
    Eigenvalues --      347.62710   606.21519   735.51445
          X               0.95196    -0.25259    -0.17313
          Y               0.26732     0.96124     0.06746
          Z               0.14938    -0.11050     0.98259
   Rotational Symmetry Number is   1
   The Molecule is an Asymmetric Top
   Translational Enthalpy:        0.889 kcal/mol
   Rotational Enthalpy:           0.889 kcal/mol
   Vibrational Enthalpy:         53.691 kcal/mol
   gas constant (RT):             0.592 kcal/mol
   Translational Entropy:        39.502  cal/mol.K
   Rotational Entropy:           26.541  cal/mol.K
   Vibrational Entropy:          17.609  cal/mol.K

   Total Enthalpy:               56.061 kcal/mol
   Total Entropy:                83.652  cal/mol.K
 Total job time:  6048.78s(wall), 39378.42s(cpu) 
 Tue Jul 18 18:33:37 2023

        *************************************************************
        *                                                           *
        *  Thank you very much for using Q-Chem.  Have a nice day.  *
        *                                                           *
        *************************************************************


