
Running Job 1 of 1 Q_in.in
qchem Q_in.in_58897.0 /scratch/ari.fischer/qChem1628444.hpc-mn1/qchem58897/ 0
/usr/local/qchem-5.4.1/exe/qcprog.exe_s Q_in.in_58897.0 /scratch/ari.fischer/qChem1628444.hpc-mn1/qchem58897/
                  Welcome to Q-Chem
     A Quantum Leap Into The Future Of Chemistry


 Q-Chem 5.4, Q-Chem, Inc., Pleasanton, CA (2021)

 License issued to: Nanyang Technological University (site)

 E. Epifanovsky,  A. T. B. Gilbert,  Xintian Feng,  Joonho Lee,  Yuezhi Mao,  
 N. Mardirossian,  P. Pokhilko,  A. White,  M. Wormit,  M. P. Coons,  
 A. L. Dempwolff,  Zhengting Gan,  D. Hait,  P. R. Horn,  L. D. Jacobson,  
 I. Kaliman,  J. Kussmann,  A. W. Lange,  Ka Un Lao,  D. S. Levine,  Jie Liu,  
 S. C. McKenzie,  A. F. Morrison,  K. Nanda,  F. Plasser,  D. R. Rehn,  
 M. L. Vidal,  Zhi-Qiang You,  Ying Zhu,  B. Alam,  B. Albrecht,  
 A. Aldossary,  E. Alguire,  J. H. Andersen,  D. Barton,  K. Begam,  A. Behn,  
 Y. A. Bernard,  E. J. Berquist,  H. Burton,  A. Carreras,  K. Carter-Fenk,  
 R. Chakraborty,  A. D. Chien,  K. D. Closser,  V. Cofer-Shabica,  
 S. Dasgupta,  Jia Deng,  M. de Wergifosse,  M. Diedenhofen,  Hainam Do,  
 S. Ehlert,  Po-Tung Fang,  S. Fatehi,  Qingguo Feng,  T. Friedhoff,  
 J. Gayvert,  Qinghui Ge,  G. Gidofalvi,  M. Goldey,  J. Gomes,  
 C. Gonzalez-Espinoza,  S. Gulania,  A. Gunina,  M. W. D. Hanson-Heine,  
 P. H. P. Harbach,  A. W. Hauser,  M. F. Herbst,  M. Hernandez Vera,  
 M. Hodecker,  Z. C. Holden,  S. Houck,  Xunkun Huang,  Kerwin Hui,  
 B. C. Huynh,  M. Ivanov,  Hyunjun Ji,  Hanjie Jiang,  B. Kaduk,  S. Kaehler,  
 K. Khistyaev,  Jaehoon Kim,  P. Klunzinger,  Z. Koczor-Benda,  
 Joong Hoon Koh,  D. Kosenkov,  L. Koulias,  T. Kowalczyk,  C. M. Krauter,  
 K. Kue,  A. Kunitsa,  T. Kus,  A. Landau,  K. V. Lawler,  D. Lefrancois,  
 S. Lehtola,  Rain Li,  Yi-Pei Li,  Jiashu Liang,  M. Liebenthal,  
 Hung-Hsuan Lin,  You-Sheng Lin,  Fenglai Liu,  Kuan-Yu Liu,  
 M. Loipersberger,  A. Luenser,  A. Manjanath,  P. Manohar,  E. Mansoor,  
 S. F. Manzer,  Shan-Ping Mao,  A. V. Marenich,  T. Markovich,  S. Mason,  
 S. A. Maurer,  P. F. McLaughlin,  M. F. S. J. Menger,  J.-M. Mewes,  
 S. A. Mewes,  P. Morgante,  J. W. Mullinax,  K. J. Oosterbaan,  G. Paran,  
 Alexander C. Paul,  Suranjan K. Paul,  F. Pavosevic,  Zheng Pei,  S. Prager,  
 E. I. Proynov,  E. Ramos,  B. Rana,  A. E. Rask,  A. Rettig,  R. M. Richard,  
 F. Rob,  E. Rossomme,  T. Scheele,  M. Scheurer,  M. Schneider,  
 N. Sergueev,  S. M. Sharada,  W. Skomorowski,  D. W. Small,  C. J. Stein,  
 Yu-Chuan Su,  E. J. Sundstrom,  Zhen Tao,  J. Thirman,  T. Tsuchimochi,  
 N. M. Tubman,  S. P. Veccham,  O. Vydrov,  J. Wenzel,  J. Witte,  A. Yamada,  
 Kun Yao,  S. Yeganeh,  S. R. Yost,  A. Zech,  Igor Ying Zhang,  Xing Zhang,  
 Yu Zhang,  D. Zuev,  A. Aspuru-Guzik,  A. T. Bell,  N. A. Besley,  
 K. B. Bravaya,  B. R. Brooks,  D. Casanova,  Jeng-Da Chai,  S. Coriani,  
 C. J. Cramer,  A. E. DePrince, III,  R. A. DiStasio Jr.,  A. Dreuw,  
 B. D. Dunietz,  T. R. Furlani,  W. A. Goddard III,  S. Grimme,  
 S. Hammes-Schiffer,  T. Head-Gordon,  W. J. Hehre,  Chao-Ping Hsu,  
 T.-C. Jagau,  Yousung Jung,  A. Klamt,  Jing Kong,  D. S. Lambrecht,  
 WanZhen Liang,  N. J. Mayhall,  C. W. McCurdy,  J. B. Neaton,  
 C. Ochsenfeld,  J. A. Parkhill,  R. Peverati,  V. A. Rassolov,  Yihan Shao,  
 L. V. Slipchenko,  T. Stauch,  R. P. Steele,  J. E. Subotnik,  
 A. J. W. Thom,  A. Tkatchenko,  D. G. Truhlar,  T. Van Voorhis,  
 T. A. Wesolowski,  K. B. Whaley,  H. L. Woodcock III,  P. M. Zimmerman,  
 S. Faraji,  P. M. W. Gill,  M. Head-Gordon,  J. M. Herbert,  A. I. Krylov

 Additional authors for Version 5.4.1: 
 S. Kotaru,  Shaozhi Li,  Xiangyuan Li,  F. Matz,  A. Molle,  Haisheng Ren,  
 Yingli Su,  Hung-Yi Tsai,  C. Utku,  Fang Wang

 Contributors to earlier versions of Q-Chem not listed above: 
 R. D. Adamson,  B. Austin,  R. Baer,  J. Baker,  G. J. O. Beran,  
 K. Brandhorst,  S. T. Brown,  E. F. C. Byrd,  A. K. Chakraborty,  
 G. K. L. Chan,  Chun-Min Chang,  Yunqing Chen,  C.-L. Cheng,  
 Siu Hung Chien,  D. M. Chipman,  D. L. Crittenden,  H. Dachsel,  
 R. J. Doerksen,  A. D. Dutoi,  R. G. Edgar,  J. Fosso-Tande,  
 L. Fusti-Molnar,  D. Ghosh,  A. Ghysels,  A. Golubeva-Zadorozhnaya,  
 J. Gonthier,  M. S. Gordon,  S. R. Gwaltney,  G. Hawkins,  J. E. Herr,  
 A. Heyden,  S. Hirata,  E. G. Hohenstein,  G. Kedziora,  F. J. Keil,  
 C. Kelley,  Jihan Kim,  R. A. King,  R. Z. Khaliullin,  P. P. Korambath,  
 W. Kurlancheek,  A. Laurent,  A. M. Lee,  M. S. Lee,  S. V. Levchenko,  
 Ching Yeh Lin,  D. Liotard,  E. Livshits,  R. C. Lochan,  I. Lotan,  
 L. A. Martinez-Martinez,  P. E. Maslen,  N. Nair,  D. P. O'Neill,  
 D. Neuhauser,  E. Neuscamman,  C. M. Oana,  R. Olivares-Amaya,  R. Olson,  
 T. M. Perrine,  B. Peters,  P. A. Pieniazek,  A. Prociuk,  Y. M. Rhee,  
 J. Ritchie,  M. A. Rohrdanz,  E. Rosta,  N. J. Russ,  H. F. Schaefer III,  
 M. W. Schmidt,  N. E. Schultz,  S. Sharma,  N. Shenvi,  C. D. Sherrill,  
 A. C. Simmonett,  A. Sodt,  T. Stein,  D. Stuck,  K. S. Thanthiriwatte,  
 V. Vanovschi,  L. Vogt,  Tao Wang,  A. Warshel,  M. A. Watson,  
 C. F. Williams,  Q. Wu,  X. Xu,  Jun Yang,  W. Zhang,  Yan Zhao

 Please cite Q-Chem as follows:
 Y. Shao et al., Mol. Phys. 113, 184-215 (2015)
 DOI: 10.1080/00268976.2014.952696

 Q-Chem 5.4.1 for Intel X86 EM64T Linux

 Parts of Q-Chem use Armadillo 9.800.1 (Horizon Scraper).
 http://arma.sourceforge.net/

 Q-Chem begins on Mon Jul 17 16:18:58 2023  

 Host: 
0

     Scratch files written to /scratch/ari.fischer/qChem1628444.hpc-mn1/qchem58897//
 Aug1521 |scratch|qcdevops|jenkins|workspace|build_RNUM 8249   
 Processing $rem in /usr/local/qchem-5.4.1/config/preferences:
 Processing $rem in /home/ari.fischer/.qchemrc:
 Symmetry turned off for PCM/SM12/SMD calculation

 Checking the input file for inconsistencies... 	...done.

--------------------------------------------------------------
User input:
--------------------------------------------------------------
$molecule
0 2
C         1.5140808606   -0.3310019167   -0.4039296451
O         2.2143203627   -1.0633506176   -1.4116709268
C         0.0541742247   -0.2190952607   -0.7405196452
O        -0.5794617893   -1.4439020096   -0.6980112260
O        -0.1590336096    0.5536996918   -1.8651518099
O         2.1056162120    0.9350456122   -0.3174902141
H         1.6378506417   -0.8165580103    0.5698282413
H         1.7280288954   -1.8957607851   -1.5415086132
H        -1.4421559703   -1.3625216030   -1.1420361946
H        -1.0748982025    0.8827939877   -1.8541283217
H         1.7893037746    1.4352371110   -1.0914515445
$end

$rem
BASIS = 6-311++G(2df,2p)
GUI = 2
JOB_TYPE = Optimization
METHOD = wB97M-V
SCF_ALGORITHM = DIIS_GDM
MAX_SCF_CYCLES = 400
GEOM_OPT_MAX_CYCLES = 150
SCF_CONVERGENCE = 7
THRESH = 12
Solvent_method = SMD
$end
--------------------------------------------------------------
 ----------------------------------------------------------------
             Standard Nuclear Orientation (Angstroms)
    I     Atom           X                Y                Z
 ----------------------------------------------------------------
    1      C       1.5140808606    -0.3310019167    -0.4039296451
    2      O       2.2143203627    -1.0633506176    -1.4116709268
    3      C       0.0541742247    -0.2190952607    -0.7405196452
    4      O      -0.5794617893    -1.4439020096    -0.6980112260
    5      O      -0.1590336096     0.5536996918    -1.8651518099
    6      O       2.1056162120     0.9350456122    -0.3174902141
    7      H       1.6378506417    -0.8165580103     0.5698282413
    8      H       1.7280288954    -1.8957607851    -1.5415086132
    9      H      -1.4421559703    -1.3625216030    -1.1420361946
   10      H      -1.0748982025     0.8827939877    -1.8541283217
   11      H       1.7893037746     1.4352371110    -1.0914515445
 ----------------------------------------------------------------
 Nuclear Repulsion Energy =         260.40987092 hartrees
 There are       25 alpha and       24 beta electrons
 Requested basis set is 6-311++G(2df,2p)
 There are 78 shells and 254 basis functions

 Total QAlloc Memory Limit 288000 MB
 Mega-Array Size       188 MB
 MEM_STATIC part       192 MB
 
 Citation of the SMD model:
 Marenich, A.V.; Cramer, C.J.; Truhlar, D.G.
 J. Phys. Chem. B 2009, 113, 6378-6396.
 iSolventCode=           1
 Solvent: water                                                           
 
 vradii
            1           2           3           4           5           6
    1   1.8500000   1.5200000   1.8500000   1.5200000   1.5200000   1.5200000
            7           8           9          10          11
    1   1.2000000   1.2000000   1.2000000   1.2000000   1.2000000
 Changing PCM_VDW_RADII to SMD_RADIUS
 Discretize the solute cavity surface with Lebedev spheres
	Using 110 Lebedev grid points for each H atom
	Using 194 Lebedev grid points for other atoms
	Atomic van der Waals radii will be scaled by 1.20
 Remove points where switching function is < 1.0e-08
 Keep 910 surface tesserae and discard 804 interior tesserae
 Molecular Surface Area = 106.505 Angst**2
 A cutoff of  1.0D-12 yielded   2942 shell pairs
 There are     31517 function pairs (     39478 Cartesian)
 Smallest overlap matrix eigenvalue = 6.83E-05

 Scale SEOQF with 1.000000e-01/1.000000e-01/1.000000e-01

 Standard Electronic Orientation quadrupole field applied
 Nucleus-field energy     =     0.0000000003 hartrees
 Guess from superposition of atomic densities
 Warning:  Energy on first SCF cycle will be non-variational
 SAD guess density has 49.000000 electrons

 -----------------------------------------------------------------------
  General SCF calculation program by
  Eric Jon Sundstrom, Paul Horn, Yuezhi Mao, Dmitri Zuev, Alec White,
  David Stuck, Shaama M.S., Shane Yost, Joonho Lee, David Small,
  Daniel Levine, Susi Lehtola, Hugh Burton, Evgeny Epifanovsky,
  Bang C. Huynh
 -----------------------------------------------------------------------
 Exchange:     0.1500 Hartree-Fock + 1.0000 wB97M-V + LR-HF
 Correlation:  1.0000 wB97M-V
 Using SG-2 standard quadrature grid
 Nonlocal Correlation:  VV10 with C = 0.0100 and b = 6.00 and scale = 1.00000
 Grid used for NLC:  SG-1 standard quadrature
 
 Citation of the SMD model:
 Marenich, A.V.; Cramer, C.J.; Truhlar, D.G.
 J. Phys. Chem. B 2009, 113, 6378-6396.
 iSolventCode=           1
 Solvent: water                                                           
 
 vradii
            1           2           3           4           5           6
    1   1.8500000   1.5200000   1.8500000   1.5200000   1.5200000   1.5200000
            7           8           9          10          11
    1   1.2000000   1.2000000   1.2000000   1.2000000   1.2000000
 using 8 threads for integral computing
 -------------------------------------------------------
 OpenMP Integral computing Module                
 Release: version 1.0, May 2013, Q-Chem Inc. Pittsburgh 
 -------------------------------------------------------
 -------------------------------------------------------
 OpenMP BLAS3 based DFT computing Module                
 Release: version 1.0, May 2013, Q-Chem Inc. Pittsburgh 
 -------------------------------------------------------
 A unrestricted SCF calculation will be
 performed using DIIS, GDM
 SCF converges when RMS gradient is below 1.0e-07
 ---------------------------------------
  Cycle       Energy         DIIS error
 ---------------------------------------
    1    -381.0991766714      1.56e-02  
    2    -379.9677033001      2.28e-03  Done DIIS. Switching to GDM
 ---------------------------------------
  Cycle       Energy        RMS Gradient
 ---------------------------------------
    1    -379.9677033001      5.61e-02   Descent step
    2    -380.0875460206      2.01e-02   Normal BFGS step
    3    -380.0998148444      7.33e-03   Normal BFGS step
    4    -380.1007484375      3.05e-03   Normal BFGS step
    5    -380.1008348861      8.25e-04   Normal BFGS step
    6    -380.1008629679      3.00e-04   Normal BFGS step
    7    -380.1008667948      1.26e-04   Normal BFGS step
    8    -380.1008672198      6.79e-05   Normal BFGS step
    9    -380.1008672946      2.08e-05   Normal BFGS step
   10    -380.1008672998      1.28e-05   Normal BFGS step
   11    -380.1008673011      2.76e-06   Normal BFGS step
   12    -380.1008673014      1.08e-06   Normal BFGS step
   13    -380.1008673015      4.97e-07   Normal BFGS step
   14    -380.1008673015      1.07e-07   Normal BFGS step
   15    -380.1008673014      3.98e-08  Convergence criterion met
 ---------------------------------------
 SCF time:   CPU 454.18s  wall 58.00s 
<S^2> =          0.752383866
(3)  G-ENP(liq) elect-nuc-pol free energy of system     -380.100867301 a.u.
(4)  G-CDS(liq) cavity-dispersion-solvent structure 
     free energy                                                3.6305 kcal/mol
(6)  G-S(liq) free energy of system                     -380.095081679 a.u.
 SCF   energy in the final basis set =     -380.0950816789
 Total energy in the final basis set =     -380.0950816789
 
 --------------------------------------------------------------
 
                    Orbital Energies (a.u.)
 --------------------------------------------------------------
 
 Alpha MOs
 -- Occupied --
-19.3733 -19.3705 -19.3511 -19.3450 -10.4514 -10.4499  -1.2324  -1.1956
 -1.1605  -1.1344  -0.8531  -0.7480  -0.6869  -0.6423  -0.6368  -0.5879
 -0.5763  -0.5415  -0.5143  -0.4850  -0.4817  -0.4439  -0.4298  -0.4021
 -0.2843
 -- Virtual --
  0.0247   0.0452   0.0474   0.0579   0.0757   0.1007   0.1063   0.1155
  0.1261   0.1364   0.1509   0.1632   0.1729   0.2067   0.2196   0.2300
  0.2403   0.2428   0.2552   0.2612   0.2734   0.2917   0.3016   0.3070
  0.3149   0.3241   0.3287   0.3381   0.3481   0.3492   0.3652   0.3777
  0.3824   0.3933   0.4011   0.4298   0.4499   0.4606   0.4736   0.5572
  0.5680   0.5975   0.6062   0.6159   0.6506   0.6696   0.6764   0.6814
  0.7041   0.7254   0.7575   0.7715   0.8066   0.8658   0.8757   0.8905
  0.9180   0.9246   0.9716   0.9975   1.0215   1.0509   1.0692   1.0970
  1.1029   1.1334   1.1417   1.1591   1.1794   1.1885   1.1931   1.2005
  1.2227   1.2460   1.2652   1.2936   1.3273   1.3511   1.3577   1.4099
  1.4226   1.4306   1.4738   1.4922   1.5172   1.5391   1.5431   1.5801
  1.6164   1.6693   1.6883   1.7478   1.7809   1.8340   1.8602   1.8992
  1.9474   1.9853   2.0300   2.0993   2.1252   2.1609   2.2132   2.2759
  2.2877   2.2985   2.3295   2.3612   2.4004   2.4261   2.4409   2.4865
  2.5423   2.6051   2.7369   2.7521   2.8138   2.8566   2.9239   3.0134
  3.0317   3.0527   3.1404   3.1852   3.2752   3.3055   3.3485   3.3592
  3.4067   3.4313   3.4653   3.5365   3.5400   3.5744   3.6307   3.6406
  3.6622   3.6821   3.7151   3.7787   3.8036   3.8129   3.8327   3.8464
  3.8739   3.9051   3.9479   4.0513   4.0680   4.0929   4.1577   4.1800
  4.2329   4.2638   4.2809   4.2994   4.3249   4.3453   4.3848   4.4352
  4.5456   4.7332   5.1645   5.1834   5.1980   5.2104   5.2259   5.2486
  5.2726   5.2771   5.2864   5.3031   5.3158   5.3443   5.4067   5.4176
  5.4323   5.4650   5.4977   5.5468   5.5626   5.5904   5.6106   5.6216
  5.6597   5.6652   5.6854   5.7073   5.8660   5.9354   5.9548   6.0337
  6.0503   6.0890   6.3575   6.4174   6.5243   6.7202   6.7796   7.0335
  7.0508   7.0643   7.1075   7.1908   7.2039   7.2063   7.2394   7.2602
  7.2846   7.3115   7.3272   7.3518   7.3975   7.4192   7.4772   7.5887
  7.6674   7.6928   7.7135   7.7620   7.7941   7.8485   7.8686  24.6804
 24.8591  50.5297  50.5679  50.5856  50.6312
 
 Beta MOs
 -- Occupied --
-19.3694 -19.3681 -19.3510 -19.3439 -10.4512 -10.4367  -1.2244  -1.1925
 -1.1529  -1.1325  -0.8412  -0.7425  -0.6803  -0.6379  -0.6286  -0.5743
 -0.5652  -0.5299  -0.5008  -0.4798  -0.4704  -0.4348  -0.4275  -0.3970
 -- Virtual --
  0.0156   0.0358   0.0456   0.0473   0.0580   0.0759   0.1005   0.1055
  0.1166   0.1272   0.1366   0.1500   0.1646   0.1717   0.2074   0.2194
  0.2311   0.2434   0.2481   0.2550   0.2611   0.2732   0.2946   0.3015
  0.3089   0.3171   0.3262   0.3324   0.3382   0.3488   0.3516   0.3655
  0.3791   0.3908   0.4009   0.4055   0.4320   0.4559   0.4630   0.4778
  0.5602   0.5712   0.6006   0.6069   0.6177   0.6555   0.6795   0.6825
  0.6884   0.7154   0.7281   0.7612   0.7742   0.8088   0.8731   0.8824
  0.8945   0.9202   0.9296   0.9724   1.0016   1.0229   1.0527   1.0726
  1.0989   1.1062   1.1406   1.1448   1.1656   1.1824   1.1919   1.1946
  1.2059   1.2261   1.2508   1.2684   1.2964   1.3340   1.3574   1.3619
  1.4181   1.4305   1.4344   1.4783   1.4942   1.5193   1.5432   1.5482
  1.5833   1.6193   1.6732   1.6923   1.7501   1.7838   1.8421   1.8640
  1.9009   1.9527   1.9906   2.0364   2.1100   2.1291   2.1691   2.2227
  2.2805   2.2946   2.3027   2.3378   2.3647   2.4069   2.4291   2.4450
  2.4938   2.5520   2.6102   2.7490   2.7632   2.8273   2.8693   2.9711
  3.0305   3.0512   3.0719   3.1644   3.2015   3.2914   3.3261   3.3657
  3.3741   3.4261   3.4467   3.4893   3.5591   3.5693   3.6095   3.6402
  3.6733   3.6834   3.7010   3.7357   3.7860   3.8100   3.8185   3.8410
  3.8660   3.8816   3.9128   3.9582   4.0599   4.0804   4.0994   4.1609
  4.1899   4.2416   4.2656   4.2919   4.3129   4.3336   4.3525   4.3928
  4.4388   4.5550   4.7585   5.1759   5.1865   5.2038   5.2196   5.2313
  5.2535   5.2756   5.2844   5.2909   5.3069   5.3215   5.3469   5.4086
  5.4243   5.4368   5.4681   5.5024   5.5531   5.5699   5.5958   5.6134
  5.6273   5.6641   5.6666   5.6885   5.7134   5.8712   5.9386   5.9607
  6.0424   6.0549   6.0989   6.3665   6.4295   6.5293   6.7228   6.7906
  7.0406   7.0629   7.0701   7.1102   7.1979   7.2101   7.2137   7.2434
  7.2657   7.2921   7.3152   7.3348   7.3580   7.4030   7.4232   7.4858
  7.5904   7.6744   7.6979   7.7163   7.7659   7.7987   7.8558   7.8720
 24.6862  24.8657  50.5323  50.5694  50.5865  50.6325
 --------------------------------------------------------------
 
          Ground-State Mulliken Net Atomic Charges

     Atom                 Charge (a.u.)    Spin (a.u.)
  --------------------------------------------------------
      1 C                    -0.042609      -0.045687
      2 O                    -0.446620       0.032812
      3 C                     0.022044       0.875945
      4 O                    -0.357437       0.092566
      5 O                    -0.385143       0.049177
      6 O                    -0.413968       0.001084
      7 H                     0.251434       0.001969
      8 H                     0.321337       0.000072
      9 H                     0.358129      -0.004104
     10 H                     0.370325      -0.003089
     11 H                     0.322509      -0.000743
  --------------------------------------------------------
  Sum of atomic charges =    -0.000000
  Sum of spin   charges =     1.000000

 -----------------------------------------------------------------
                    Cartesian Multipole Moments
 -----------------------------------------------------------------
    Charge (ESU x 10^10)
                -0.0000
    Dipole Moment (Debye)
         X      -6.1421      Y      -0.5912      Z      -1.2386
       Tot       6.2935
    Quadrupole Moments (Debye-Ang)
        XX     -41.8337     XY      -1.4990     YY     -32.2423
        XZ       8.3793     YZ      -1.0499     ZZ     -35.9659
    Octopole Moments (Debye-Ang^2)
       XXX    -141.2515    XXY       6.9092    XYY     -28.8051
       YYY      26.2994    XXZ      33.5137    XYZ      -4.6926
       YYZ      20.4127    XZZ     -43.6875    YZZ       9.4048
       ZZZ     104.1002
    Hexadecapole Moments (Debye-Ang^3)
      XXXX    -584.1192   XXXY      15.8883   XXYY    -104.9821
      XYYY      -5.1342   YYYY    -195.2734   XXXZ     115.7167
      XXYZ     -21.0392   XYYZ      14.5951   YYYZ     -17.7932
      XXZZ    -128.1879   XYZZ       3.0853   YYZZ     -64.3631
      XZZZ      90.0324   YZZZ     -26.2702   ZZZZ    -311.7566
 -----------------------------------------------------------------
 Calculating analytic gradient of the SCF energy
 Gradient of CDS energy
            1           2           3           4           5           6
    1   0.0025373  -0.0001222  -0.0036965   0.0025389   0.0008278  -0.0017755
    2   0.0037449   0.0002910  -0.0017782   0.0046213  -0.0028180  -0.0040496
    3   0.0007096  -0.0000088  -0.0032464  -0.0001939   0.0037908  -0.0003677
            7           8           9          10          11
    1  -0.0000490   0.0001530  -0.0003466  -0.0002224   0.0001553
    2  -0.0000641  -0.0004128  -0.0003209   0.0003604   0.0004261
    3   0.0001266  -0.0002635  -0.0000893  -0.0002901  -0.0001673
 Gradient of SCF Energy
            1           2           3           4           5           6
    1  -0.0056485   0.0152079  -0.0005729   0.0214141   0.0323194   0.0097901
    2  -0.0001004   0.0148581   0.0051819  -0.0114219  -0.0067038  -0.0022547
    3  -0.0072934  -0.0025048   0.0074077   0.0147348  -0.0085723   0.0130176
            7           8           9          10          11
    1  -0.0010587  -0.0106226  -0.0249345  -0.0291106  -0.0067836
    2  -0.0026507  -0.0122082   0.0048853   0.0070549   0.0033595
    3   0.0040612   0.0004534  -0.0138643   0.0015260  -0.0089659
 Max gradient component =       3.232E-02
 RMS gradient           =       1.234E-02
 Computing fast CPCM-SWIG gradient
 Updating gradient with PCM contributions...
 -- total gradient after adding PCM contribution --
---------------------------------------------------
  Atom         X              Y              Z     
---------------------------------------------------
   1      -0.000771      -0.000432      -0.005558
   2       0.005711       0.005886      -0.000904
   3      -0.002116       0.003498       0.004976
   4       0.004610      -0.007816       0.003726
   5       0.008614       0.000594      -0.005960
   6       0.004160      -0.001129       0.007671
   7       0.000345      -0.000833       0.003616
   8      -0.005004      -0.004725       0.000387
   9      -0.005293       0.001933      -0.003398
  10      -0.006452       0.002062       0.001525
  11      -0.003804       0.000962      -0.006080
---------------------------------------------------
 Number of fixed atoms: 0
 Gradient time:  CPU 75.72 s  wall 11.12 s
 Geometry Optimization Parameters
   NAtoms,    NIC,     NZ,  NCons,   NDum,   NFix, NCnnct, MaxDiis
       11      61       0       0       0       0       0       0


** GEOMETRY OPTIMIZATION IN DELOCALIZED INTERNAL COORDINATES **
   Searching for a Minimum

   Optimization Cycle:   1

                       Coordinates (Angstroms)
     ATOM                X               Y               Z
      1  C         1.5140808606   -0.3310019167   -0.4039296451
      2  O         2.2143203627   -1.0633506176   -1.4116709268
      3  C         0.0541742247   -0.2190952607   -0.7405196452
      4  O        -0.5794617893   -1.4439020096   -0.6980112260
      5  O        -0.1590336096    0.5536996918   -1.8651518099
      6  O         2.1056162120    0.9350456122   -0.3174902141
      7  H         1.6378506417   -0.8165580103    0.5698282413
      8  H         1.7280288954   -1.8957607851   -1.5415086132
      9  H        -1.4421559703   -1.3625216030   -1.1420361946
     10  H        -1.0748982025    0.8827939877   -1.8541283217
     11  H         1.7893037746    1.4352371110   -1.0914515445
   Point Group: c1    Number of degrees of freedom:    27


   Energy is   -380.095081679


 Attempting to generate delocalized internal coordinates
 Initial Hessian constructed with Jon Baker's OPTIMIZE code

 27 Hessian modes will be used to form the next step
  Hessian Eigenvalues:
     0.008864    0.011801    0.015633    0.018144    0.018336    0.035319
     0.069491    0.072888    0.096738    0.160000    0.160000    0.160000
     0.160000    0.196654    0.203165    0.204026    0.227399    0.321290
     0.342276    0.411247    0.456050    0.488998    0.491650    0.525078
     0.526352    0.527166    0.528188

 Minimum search - taking simple RFO step
 Searching for Lamda that Minimizes Along All modes
 Value Taken    Lamda =  -0.00108485
 Step Taken.  Stepsize is  0.101788

                             Maximum     Tolerance    Cnvgd?
         Gradient           0.007805      0.000300      NO
         Displacement       0.045423      0.001200      NO
         Energy change     *********      0.000001      NO


 New Cartesian Coordinates Obtained by Inverse Iteration

 Displacement from previous Coordinates is:  0.162721
 ----------------------------------------------------------------
             Standard Nuclear Orientation (Angstroms)
    I     Atom           X                Y                Z
 ----------------------------------------------------------------
    1      C       1.5109277428    -0.3320393681    -0.4096258769
    2      O       2.2205257035    -1.0629926964    -1.4115631924
    3      C       0.0536815360    -0.2197745472    -0.7542927937
    4      O      -0.5934535624    -1.4298052715    -0.6904517989
    5      O      -0.1771630101     0.5479496316    -1.8726454336
    6      O       2.1087344088     0.9299430278    -0.3098191319
    7      H       1.6261911016    -0.8244682806     0.5554462918
    8      H       1.7650691897    -1.9036517229    -1.5511958573
    9      H      -1.4601425477    -1.3562711378    -1.1135814019
   10      H      -1.0897190181     0.8661454715    -1.8706439350
   11      H       1.8231738557     1.4595510934    -1.0676967701
 ----------------------------------------------------------------
 Nuclear Repulsion Energy =         260.23366431 hartrees
 There are       25 alpha and       24 beta electrons
 Discretize the solute cavity surface with Lebedev spheres
	Using 110 Lebedev grid points for each H atom
	Using 194 Lebedev grid points for other atoms
	Atomic van der Waals radii will be scaled by 1.20
 Remove points where switching function is < 1.0e-08
 Keep 919 surface tesserae and discard 795 interior tesserae
 Molecular Surface Area = 106.787 Angst**2
 Applying Cartesian multipole field
    Component          Value
    ---------          -----
     (2,0,0)        1.00000E-11
     (0,2,0)        2.00000E-11
     (0,0,2)       -3.00000E-11
 Nucleus-field energy     =     0.0000000003 hartrees
 Requested basis set is 6-311++G(2df,2p)
 There are 78 shells and 254 basis functions
 A cutoff of  1.0D-12 yielded   2937 shell pairs
 There are     31480 function pairs (     39432 Cartesian)
 Smallest overlap matrix eigenvalue = 6.75E-05
 Guess MOs from SCF MO coefficient file

 -----------------------------------------------------------------------
  General SCF calculation program by
  Eric Jon Sundstrom, Paul Horn, Yuezhi Mao, Dmitri Zuev, Alec White,
  David Stuck, Shaama M.S., Shane Yost, Joonho Lee, David Small,
  Daniel Levine, Susi Lehtola, Hugh Burton, Evgeny Epifanovsky,
  Bang C. Huynh
 -----------------------------------------------------------------------
 Exchange:     0.1500 Hartree-Fock + 1.0000 wB97M-V + LR-HF
 Correlation:  1.0000 wB97M-V
 Using SG-2 standard quadrature grid
 Nonlocal Correlation:  VV10 with C = 0.0100 and b = 6.00 and scale = 1.00000
 Grid used for NLC:  SG-1 standard quadrature
 
 Citation of the SMD model:
 Marenich, A.V.; Cramer, C.J.; Truhlar, D.G.
 J. Phys. Chem. B 2009, 113, 6378-6396.
 iSolventCode=           1
 Solvent: water                                                           
 
 vradii
            1           2           3           4           5           6
    1   1.8500000   1.5200000   1.8500000   1.5200000   1.5200000   1.5200000
            7           8           9          10          11
    1   1.2000000   1.2000000   1.2000000   1.2000000   1.2000000
 -------------------------------------------------------
 OpenMP BLAS3 based DFT computing Module                
 Release: version 1.0, May 2013, Q-Chem Inc. Pittsburgh 
 -------------------------------------------------------
 A unrestricted SCF calculation will be
 performed using Roothaan-Hall, DIIS, GDM
 SCF converges when RMS gradient is below 1.0e-07
 ---------------------------------------
  Cycle       Energy         DIIS error
 ---------------------------------------
    1    -380.0589184640      3.78e-04  Roothaan Step
 ---------------------------------------
  Cycle       Energy         DIIS error
 ---------------------------------------
    1    -380.0947266515      3.70e-04  
    2    -380.1001341867      2.49e-04  Done DIIS. Switching to GDM
 ---------------------------------------
  Cycle       Energy        RMS Gradient
 ---------------------------------------
    1    -380.1001341867      7.57e-03   Normal BFGS step
    2    -380.1004437006      5.27e-03   Normal BFGS step
    3    -380.1015979974      7.11e-04   Normal BFGS step
    4    -380.1016146943      4.21e-04   Normal BFGS step
    5    -380.1016191955      8.18e-05   Normal BFGS step
    6    -380.1016193699      7.17e-05   Normal BFGS step
    7    -380.1016194336      1.43e-05   Normal BFGS step
    8    -380.1016194446      6.93e-06   Normal BFGS step
    9    -380.1016194457      2.45e-06   Normal BFGS step
   10    -380.1016194458      8.28e-07   Normal BFGS step
   11    -380.1016194458      2.78e-07   Normal BFGS step
   12    -380.1016194458      1.84e-07   Normal BFGS step
   13    -380.1016194458      6.06e-08  Convergence criterion met
 ---------------------------------------
 SCF time:   CPU 434.59s  wall 55.00s 
<S^2> =          0.752383820
(3)  G-ENP(liq) elect-nuc-pol free energy of system     -380.101619446 a.u.
(4)  G-CDS(liq) cavity-dispersion-solvent structure 
     free energy                                                3.7128 kcal/mol
(6)  G-S(liq) free energy of system                     -380.095702791 a.u.
 SCF   energy in the final basis set =     -380.0957027914
 Total energy in the final basis set =     -380.0957027914
 
 --------------------------------------------------------------
 
                    Orbital Energies (a.u.)
 --------------------------------------------------------------
 
 Alpha MOs
 -- Occupied --
-19.3718 -19.3691 -19.3506 -19.3436 -10.4516 -10.4481  -1.2335  -1.1964
 -1.1616  -1.1350  -0.8552  -0.7514  -0.6900  -0.6450  -0.6375  -0.5876
 -0.5786  -0.5414  -0.5119  -0.4846  -0.4808  -0.4438  -0.4302  -0.4022
 -0.2798
 -- Virtual --
  0.0248   0.0452   0.0471   0.0579   0.0753   0.1010   0.1065   0.1161
  0.1259   0.1365   0.1507   0.1629   0.1725   0.2077   0.2212   0.2306
  0.2414   0.2439   0.2557   0.2624   0.2734   0.2932   0.3007   0.3079
  0.3168   0.3263   0.3283   0.3380   0.3485   0.3498   0.3667   0.3781
  0.3846   0.3940   0.4014   0.4294   0.4496   0.4609   0.4746   0.5587
  0.5733   0.6007   0.6097   0.6208   0.6514   0.6718   0.6758   0.6863
  0.7056   0.7280   0.7564   0.7733   0.8083   0.8669   0.8754   0.8915
  0.9180   0.9215   0.9700   0.9981   1.0189   1.0494   1.0682   1.0980
  1.1044   1.1356   1.1457   1.1580   1.1821   1.1882   1.1929   1.2018
  1.2182   1.2409   1.2647   1.2870   1.3227   1.3531   1.3580   1.4102
  1.4248   1.4359   1.4759   1.4950   1.5202   1.5416   1.5454   1.5819
  1.6204   1.6702   1.6895   1.7485   1.7768   1.8411   1.8649   1.8966
  1.9508   1.9836   2.0293   2.1047   2.1244   2.1608   2.2157   2.2771
  2.2864   2.2974   2.3252   2.3593   2.3995   2.4212   2.4425   2.4856
  2.5515   2.5992   2.7386   2.7638   2.8087   2.8645   2.9227   3.0195
  3.0365   3.0512   3.1424   3.1925   3.2822   3.3058   3.3453   3.3627
  3.4050   3.4215   3.4660   3.5354   3.5471   3.5662   3.6284   3.6379
  3.6656   3.6856   3.7179   3.7779   3.8107   3.8173   3.8328   3.8468
  3.8778   3.9098   3.9451   4.0507   4.0711   4.0980   4.1619   4.1834
  4.2461   4.2754   4.2877   4.3098   4.3369   4.3579   4.3966   4.4445
  4.5492   4.7393   5.1635   5.1823   5.1973   5.2072   5.2264   5.2471
  5.2723   5.2755   5.2869   5.3015   5.3161   5.3422   5.4090   5.4150
  5.4397   5.4565   5.5051   5.5529   5.5710   5.5969   5.6134   5.6321
  5.6692   5.6746   5.6968   5.7250   5.8684   5.9519   5.9654   6.0411
  6.0744   6.1094   6.3880   6.4287   6.5284   6.7242   6.7972   7.0352
  7.0533   7.0647   7.1083   7.2030   7.2149   7.2307   7.2719   7.2763
  7.2969   7.3156   7.3272   7.3555   7.3970   7.4176   7.4762   7.6101
  7.6831   7.6935   7.7148   7.7744   7.7973   7.8488   7.8633  24.6971
 24.8726  50.5374  50.5713  50.5904  50.6315
 
 Beta MOs
 -- Occupied --
-19.3680 -19.3666 -19.3505 -19.3424 -10.4515 -10.4350  -1.2252  -1.1935
 -1.1539  -1.1331  -0.8434  -0.7457  -0.6833  -0.6405  -0.6298  -0.5766
 -0.5648  -0.5292  -0.4983  -0.4791  -0.4704  -0.4344  -0.4277  -0.3971
 -- Virtual --
  0.0171   0.0372   0.0459   0.0471   0.0582   0.0754   0.1006   0.1057
  0.1174   0.1271   0.1366   0.1498   0.1643   0.1713   0.2081   0.2210
  0.2317   0.2443   0.2493   0.2553   0.2623   0.2731   0.2961   0.3008
  0.3094   0.3191   0.3286   0.3321   0.3382   0.3492   0.3518   0.3671
  0.3790   0.3927   0.4014   0.4060   0.4322   0.4556   0.4628   0.4799
  0.5619   0.5767   0.6038   0.6105   0.6226   0.6561   0.6784   0.6877
  0.6920   0.7167   0.7301   0.7603   0.7760   0.8104   0.8729   0.8823
  0.8958   0.9190   0.9285   0.9712   1.0021   1.0203   1.0511   1.0717
  1.0998   1.1077   1.1435   1.1479   1.1648   1.1849   1.1920   1.1945
  1.2078   1.2210   1.2454   1.2681   1.2898   1.3287   1.3607   1.3612
  1.4186   1.4322   1.4396   1.4806   1.4971   1.5225   1.5466   1.5492
  1.5849   1.6231   1.6740   1.6938   1.7506   1.7796   1.8485   1.8698
  1.8982   1.9558   1.9888   2.0356   2.1157   2.1292   2.1677   2.2249
  2.2813   2.2926   2.3014   2.3343   2.3628   2.4061   2.4244   2.4466
  2.4928   2.5611   2.6049   2.7513   2.7763   2.8208   2.8774   2.9709
  3.0378   3.0563   3.0696   3.1661   3.2091   3.2988   3.3250   3.3605
  3.3787   3.4244   3.4388   3.4921   3.5584   3.5735   3.6086   3.6367
  3.6665   3.6837   3.7049   3.7397   3.7845   3.8166   3.8219   3.8411
  3.8657   3.8869   3.9177   3.9557   4.0591   4.0842   4.1042   4.1648
  4.1934   4.2552   4.2777   4.2991   4.3227   4.3451   4.3658   4.4029
  4.4481   4.5582   4.7647   5.1750   5.1852   5.2034   5.2170   5.2317
  5.2515   5.2753   5.2823   5.2920   5.3056   5.3218   5.3448   5.4108
  5.4218   5.4441   5.4601   5.5096   5.5586   5.5781   5.6024   5.6165
  5.6387   5.6730   5.6774   5.6992   5.7314   5.8734   5.9542   5.9721
  6.0500   6.0790   6.1196   6.3967   6.4406   6.5337   6.7268   6.8082
  7.0423   7.0649   7.0712   7.1110   7.2124   7.2202   7.2390   7.2764
  7.2808   7.3033   7.3201   7.3338   7.3616   7.4030   7.4210   7.4851
  7.6119   7.6901   7.6981   7.7182   7.7784   7.8018   7.8559   7.8668
 24.7024  24.8796  50.5399  50.5728  50.5914  50.6329
 --------------------------------------------------------------
 
          Ground-State Mulliken Net Atomic Charges

     Atom                 Charge (a.u.)    Spin (a.u.)
  --------------------------------------------------------
      1 C                    -0.042591      -0.045686
      2 O                    -0.448126       0.033303
      3 C                     0.025475       0.876082
      4 O                    -0.357416       0.091058
      5 O                    -0.385400       0.050213
      6 O                    -0.415404       0.001317
      7 H                     0.254491       0.001857
      8 H                     0.320797      -0.000089
      9 H                     0.356797      -0.003995
     10 H                     0.367810      -0.003141
     11 H                     0.323567      -0.000918
  --------------------------------------------------------
  Sum of atomic charges =     0.000000
  Sum of spin   charges =     1.000000

 -----------------------------------------------------------------
                    Cartesian Multipole Moments
 -----------------------------------------------------------------
    Charge (ESU x 10^10)
                 0.0000
    Dipole Moment (Debye)
         X      -6.0600      Y      -0.5946      Z      -1.2368
       Tot       6.2134
    Quadrupole Moments (Debye-Ang)
        XX     -41.4293     XY      -1.3960     YY     -31.9017
        XZ       8.1574     YZ      -1.0296     ZZ     -36.0588
    Octopole Moments (Debye-Ang^2)
       XXX    -140.8826    XXY       6.9346    XYY     -27.5702
       YYY      26.2222    XXZ      32.8706    XYZ      -4.5177
       YYZ      20.2243    XZZ     -43.3869    YZZ       9.2715
       ZZZ     104.4035
    Hexadecapole Moments (Debye-Ang^3)
      XXXX    -585.8406   XXXY      16.7434   XXYY    -102.3751
      XYYY      -4.8924   YYYY    -191.5393   XXXZ     114.3496
      XXYZ     -21.0073   XYYZ      12.8710   YYYZ     -17.4989
      XXZZ    -128.1441   XYZZ       2.2978   YYZZ     -64.0698
      XZZZ      89.3314   YZZZ     -26.0457   ZZZZ    -313.1626
 -----------------------------------------------------------------
 Calculating analytic gradient of the SCF energy
 Gradient of CDS energy
            1           2           3           4           5           6
    1   0.0025265  -0.0001205  -0.0037881   0.0025622   0.0008947  -0.0017878
    2   0.0037290   0.0002871  -0.0016782   0.0045183  -0.0028167  -0.0040227
    3   0.0007558   0.0000075  -0.0032193  -0.0002624   0.0037997  -0.0004121
            7           8           9          10          11
    1  -0.0000455   0.0001672  -0.0003480  -0.0002267   0.0001660
    2  -0.0000744  -0.0004119  -0.0003112   0.0003512   0.0004295
    3   0.0001122  -0.0002644  -0.0000766  -0.0002841  -0.0001563
 Gradient of SCF Energy
            1           2           3           4           5           6
    1  -0.0035826   0.0095995   0.0012066   0.0167085   0.0235803   0.0063838
    2  -0.0008185   0.0094940   0.0017413  -0.0052079  -0.0063436  -0.0002593
    3  -0.0013111  -0.0009775   0.0040303   0.0107185  -0.0046686   0.0066164
            7           8           9          10          11
    1  -0.0011349  -0.0061699  -0.0203790  -0.0230328  -0.0031793
    2  -0.0019291  -0.0083515   0.0029519   0.0053154   0.0034074
    3   0.0004952  -0.0003745  -0.0106303   0.0000800  -0.0039785
 Max gradient component =       2.358E-02
 RMS gradient           =       8.858E-03
 Computing fast CPCM-SWIG gradient
 Updating gradient with PCM contributions...
 -- total gradient after adding PCM contribution --
---------------------------------------------------
  Atom         X              Y              Z     
---------------------------------------------------
   1       0.001261      -0.001140       0.000331
   2       0.000120       0.000118       0.000596
   3      -0.000359       0.000026       0.001663
   4      -0.000288      -0.001910       0.000169
   5       0.000254       0.000696      -0.002213
   6       0.000776       0.001247       0.000903
   7       0.000261      -0.000083       0.000169
   8      -0.000635      -0.000604      -0.000406
   9      -0.000572       0.000278      -0.000601
  10      -0.000504       0.000544       0.000300
  11      -0.000314       0.000828      -0.000911
---------------------------------------------------
 Number of fixed atoms: 0
 Gradient time:  CPU 75.75 s  wall 11.32 s
 Geometry Optimization Parameters
   NAtoms,    NIC,     NZ,  NCons,   NDum,   NFix, NCnnct, MaxDiis
       11      61       0       0       0       0       0       0

 Cartesian Hessian Update
 Hessian updated using BFGS update


** GEOMETRY OPTIMIZATION IN DELOCALIZED INTERNAL COORDINATES **
   Searching for a Minimum

   Optimization Cycle:   2

                       Coordinates (Angstroms)
     ATOM                X               Y               Z
      1  C         1.5109277428   -0.3320393681   -0.4096258769
      2  O         2.2205257035   -1.0629926964   -1.4115631924
      3  C         0.0536815360   -0.2197745472   -0.7542927937
      4  O        -0.5934535624   -1.4298052715   -0.6904517989
      5  O        -0.1771630101    0.5479496316   -1.8726454336
      6  O         2.1087344088    0.9299430278   -0.3098191319
      7  H         1.6261911016   -0.8244682806    0.5554462918
      8  H         1.7650691897   -1.9036517229   -1.5511958573
      9  H        -1.4601425477   -1.3562711378   -1.1135814019
     10  H        -1.0897190181    0.8661454715   -1.8706439350
     11  H         1.8231738557    1.4595510934   -1.0676967701
   Point Group: c1    Number of degrees of freedom:    27


   Energy is   -380.095702791

 Hessian updated using BFGS update

 25 Hessian modes will be used to form the next step
  Hessian Eigenvalues:
     0.008545    0.011480    0.015629    0.017497    0.018316    0.035266
     0.070099    0.072693    0.096765    0.156270    0.166456    0.195276
     0.203137    0.210548    0.225709    0.319323    0.343646    0.411279
     0.432774    0.470884    0.491047    0.522950    0.526575    0.527819
     0.535241

 Minimum search - taking simple RFO step
 Searching for Lamda that Minimizes Along All modes
 Value Taken    Lamda =  -0.00014338
 Step Taken.  Stepsize is  0.085703

                             Maximum     Tolerance    Cnvgd?
         Gradient           0.002197      0.000300      NO
         Displacement       0.030928      0.001200      NO
         Energy change     -0.000621      0.000001      NO


 New Cartesian Coordinates Obtained by Inverse Iteration

 Displacement from previous Coordinates is:  0.117964
 ----------------------------------------------------------------
             Standard Nuclear Orientation (Angstroms)
    I     Atom           X                Y                Z
 ----------------------------------------------------------------
    1      C       1.5075434664    -0.3333377671    -0.4149155993
    2      O       2.2235905216    -1.0519648201    -1.4214015916
    3      C       0.0539188417    -0.2147549459    -0.7594459697
    4      O      -0.5990720283    -1.4171934403    -0.6773122010
    5      O      -0.1771581175     0.5422646647    -1.8808969034
    6      O       2.1089201167     0.9223668530    -0.2983586447
    7      H       1.6174209773    -0.8351229541     0.5448921368
    8      H       1.7846772204    -1.8997176035    -1.5593211556
    9      H      -1.4705617908    -1.3460192733    -1.0871823430
   10      H      -1.0927267206     0.8467724442    -1.8923495516
   11      H       1.8312729129     1.4612930421    -1.0497780767
 ----------------------------------------------------------------
 Nuclear Repulsion Energy =         260.44889363 hartrees
 There are       25 alpha and       24 beta electrons
 Discretize the solute cavity surface with Lebedev spheres
	Using 110 Lebedev grid points for each H atom
	Using 194 Lebedev grid points for other atoms
	Atomic van der Waals radii will be scaled by 1.20
 Remove points where switching function is < 1.0e-08
 Keep 914 surface tesserae and discard 800 interior tesserae
 Molecular Surface Area = 106.824 Angst**2
 Applying Cartesian multipole field
    Component          Value
    ---------          -----
     (2,0,0)        1.00000E-11
     (0,2,0)        2.00000E-11
     (0,0,2)       -3.00000E-11
 Nucleus-field energy     =     0.0000000002 hartrees
 Requested basis set is 6-311++G(2df,2p)
 There are 78 shells and 254 basis functions
 A cutoff of  1.0D-12 yielded   2935 shell pairs
 There are     31470 function pairs (     39422 Cartesian)
 Smallest overlap matrix eigenvalue = 6.61E-05
 Guess MOs from SCF MO coefficient file

 -----------------------------------------------------------------------
  General SCF calculation program by
  Eric Jon Sundstrom, Paul Horn, Yuezhi Mao, Dmitri Zuev, Alec White,
  David Stuck, Shaama M.S., Shane Yost, Joonho Lee, David Small,
  Daniel Levine, Susi Lehtola, Hugh Burton, Evgeny Epifanovsky,
  Bang C. Huynh
 -----------------------------------------------------------------------
 Exchange:     0.1500 Hartree-Fock + 1.0000 wB97M-V + LR-HF
 Correlation:  1.0000 wB97M-V
 Using SG-2 standard quadrature grid
 Nonlocal Correlation:  VV10 with C = 0.0100 and b = 6.00 and scale = 1.00000
 Grid used for NLC:  SG-1 standard quadrature
 
 Citation of the SMD model:
 Marenich, A.V.; Cramer, C.J.; Truhlar, D.G.
 J. Phys. Chem. B 2009, 113, 6378-6396.
 iSolventCode=           1
 Solvent: water                                                           
 
 vradii
            1           2           3           4           5           6
    1   1.8500000   1.5200000   1.8500000   1.5200000   1.5200000   1.5200000
            7           8           9          10          11
    1   1.2000000   1.2000000   1.2000000   1.2000000   1.2000000
 -------------------------------------------------------
 OpenMP BLAS3 based DFT computing Module                
 Release: version 1.0, May 2013, Q-Chem Inc. Pittsburgh 
 -------------------------------------------------------
 A unrestricted SCF calculation will be
 performed using Roothaan-Hall, DIIS, GDM
 SCF converges when RMS gradient is below 1.0e-07
 ---------------------------------------
  Cycle       Energy         DIIS error
 ---------------------------------------
    1    -380.0590120631      3.63e-04  Roothaan Step
 ---------------------------------------
  Cycle       Energy         DIIS error
 ---------------------------------------
    1    -380.0949152542      3.72e-04  
    2    -380.1002587044      2.55e-04  Done DIIS. Switching to GDM
 ---------------------------------------
  Cycle       Energy        RMS Gradient
 ---------------------------------------
    1    -380.1002587044      7.08e-03   Normal BFGS step
    2    -380.1005433722      5.55e-03   Normal BFGS step
    3    -380.1017689323      7.37e-04   Normal BFGS step
    4    -380.1017849001      4.35e-04   Normal BFGS step
    5    -380.1017891285      8.44e-05   Normal BFGS step
    6    -380.1017892873      7.22e-05   Normal BFGS step
    7    -380.1017893486      1.44e-05   Normal BFGS step
    8    -380.1017893586      6.29e-06   Normal BFGS step
    9    -380.1017893597      2.79e-06   Normal BFGS step
   10    -380.1017893598      8.37e-07   Normal BFGS step
   11    -380.1017893598      3.61e-07   Normal BFGS step
   12    -380.1017893599      2.03e-07   Normal BFGS step
   13    -380.1017893598      9.92e-08  Convergence criterion met
 ---------------------------------------
 SCF time:   CPU 435.38s  wall 55.00s 
<S^2> =          0.752375147
(3)  G-ENP(liq) elect-nuc-pol free energy of system     -380.101789360 a.u.
(4)  G-CDS(liq) cavity-dispersion-solvent structure 
     free energy                                                3.7637 kcal/mol
(6)  G-S(liq) free energy of system                     -380.095791536 a.u.
 SCF   energy in the final basis set =     -380.0957915356
 Total energy in the final basis set =     -380.0957915356
 
 --------------------------------------------------------------
 
                    Orbital Energies (a.u.)
 --------------------------------------------------------------
 
 Alpha MOs
 -- Occupied --
-19.3713 -19.3690 -19.3502 -19.3432 -10.4508 -10.4470  -1.2345  -1.1974
 -1.1623  -1.1353  -0.8562  -0.7520  -0.6914  -0.6458  -0.6380  -0.5877
 -0.5787  -0.5416  -0.5113  -0.4848  -0.4814  -0.4442  -0.4300  -0.4023
 -0.2782
 -- Virtual --
  0.0248   0.0452   0.0471   0.0580   0.0751   0.1010   0.1065   0.1165
  0.1258   0.1363   0.1505   0.1628   0.1722   0.2090   0.2220   0.2310
  0.2417   0.2446   0.2561   0.2628   0.2733   0.2943   0.3001   0.3081
  0.3185   0.3267   0.3289   0.3380   0.3486   0.3503   0.3675   0.3778
  0.3867   0.3956   0.4017   0.4296   0.4502   0.4611   0.4756   0.5591
  0.5750   0.6013   0.6100   0.6225   0.6519   0.6719   0.6759   0.6893
  0.7073   0.7298   0.7583   0.7752   0.8080   0.8674   0.8745   0.8908
  0.9172   0.9242   0.9685   0.9992   1.0169   1.0500   1.0687   1.0978
  1.1050   1.1365   1.1492   1.1566   1.1830   1.1890   1.1934   1.2017
  1.2179   1.2412   1.2657   1.2840   1.3221   1.3534   1.3614   1.4122
  1.4271   1.4388   1.4774   1.4967   1.5215   1.5414   1.5462   1.5812
  1.6198   1.6707   1.6921   1.7507   1.7759   1.8466   1.8687   1.8959
  1.9552   1.9853   2.0268   2.1066   2.1245   2.1611   2.2191   2.2778
  2.2874   2.2986   2.3290   2.3603   2.3998   2.4172   2.4433   2.4878
  2.5560   2.6028   2.7397   2.7663   2.8115   2.8680   2.9243   3.0222
  3.0369   3.0549   3.1455   3.1964   3.2866   3.3072   3.3457   3.3662
  3.4071   3.4178   3.4667   3.5351   3.5515   3.5640   3.6247   3.6351
  3.6681   3.6879   3.7210   3.7762   3.8143   3.8199   3.8339   3.8483
  3.8789   3.9120   3.9471   4.0506   4.0741   4.1041   4.1617   4.1875
  4.2520   4.2796   4.2923   4.3152   4.3403   4.3645   4.4020   4.4458
  4.5511   4.7434   5.1638   5.1817   5.1973   5.2066   5.2277   5.2499
  5.2728   5.2753   5.2887   5.3027   5.3173   5.3442   5.4104   5.4152
  5.4417   5.4566   5.5091   5.5573   5.5758   5.6000   5.6178   5.6353
  5.6712   5.6791   5.7041   5.7321   5.8716   5.9617   5.9698   6.0452
  6.0819   6.1184   6.4051   6.4369   6.5314   6.7332   6.8081   7.0373
  7.0541   7.0666   7.1090   7.2070   7.2172   7.2373   7.2776   7.2848
  7.3020   7.3183   7.3297   7.3569   7.3992   7.4188   7.4750   7.6136
  7.6898   7.6955   7.7186   7.7754   7.8008   7.8504   7.8624  24.7068
 24.8882  50.5399  50.5737  50.5946  50.6330
 
 Beta MOs
 -- Occupied --
-19.3675 -19.3664 -19.3500 -19.3420 -10.4507 -10.4340  -1.2262  -1.1946
 -1.1546  -1.1334  -0.8443  -0.7463  -0.6847  -0.6413  -0.6304  -0.5767
 -0.5652  -0.5291  -0.4975  -0.4796  -0.4711  -0.4343  -0.4274  -0.3972
 -- Virtual --
  0.0174   0.0378   0.0459   0.0471   0.0583   0.0752   0.1005   0.1058
  0.1178   0.1270   0.1364   0.1497   0.1642   0.1710   0.2093   0.2219
  0.2320   0.2447   0.2498   0.2556   0.2626   0.2729   0.2973   0.3003
  0.3094   0.3207   0.3296   0.3322   0.3382   0.3493   0.3521   0.3680
  0.3787   0.3943   0.4031   0.4064   0.4327   0.4562   0.4626   0.4815
  0.5623   0.5785   0.6044   0.6110   0.6243   0.6566   0.6778   0.6894
  0.6943   0.7180   0.7317   0.7625   0.7777   0.8101   0.8739   0.8809
  0.8954   0.9183   0.9310   0.9699   1.0030   1.0184   1.0515   1.0722
  1.0996   1.1083   1.1442   1.1515   1.1635   1.1859   1.1926   1.1950
  1.2082   1.2207   1.2454   1.2691   1.2870   1.3278   1.3611   1.3646
  1.4207   1.4345   1.4426   1.4821   1.4987   1.5239   1.5472   1.5492
  1.5842   1.6224   1.6744   1.6965   1.7529   1.7784   1.8534   1.8745
  1.8976   1.9602   1.9904   2.0332   2.1176   2.1296   2.1678   2.2284
  2.2817   2.2939   2.3022   2.3381   2.3639   2.4064   2.4209   2.4474
  2.4949   2.5657   2.6083   2.7525   2.7796   2.8225   2.8818   2.9718
  3.0408   3.0573   3.0724   3.1687   3.2129   3.3021   3.3285   3.3592
  3.3830   3.4265   3.4354   3.4934   3.5581   3.5761   3.6084   3.6337
  3.6635   3.6841   3.7072   3.7434   3.7825   3.8198   3.8242   3.8423
  3.8669   3.8882   3.9202   3.9579   4.0589   4.0871   4.1099   4.1644
  4.1974   4.2615   4.2818   4.3035   4.3285   4.3486   4.3725   4.4077
  4.4497   4.5599   4.7688   5.1755   5.1847   5.2037   5.2166   5.2329
  5.2541   5.2764   5.2819   5.2939   5.3069   5.3230   5.3468   5.4124
  5.4218   5.4459   5.4603   5.5137   5.5628   5.5831   5.6059   5.6205
  5.6420   5.6757   5.6813   5.7067   5.7386   5.8765   5.9641   5.9763
  6.0544   6.0862   6.1292   6.4137   6.4487   6.5370   6.7358   6.8192
  7.0442   7.0660   7.0734   7.1118   7.2173   7.2220   7.2459   7.2838
  7.2879   7.3082   7.3238   7.3354   7.3630   7.4056   7.4219   7.4839
  7.6154   7.6969   7.7000   7.7224   7.7795   7.8053   7.8577   7.8657
 24.7118  24.8953  50.5424  50.5753  50.5956  50.6344
 --------------------------------------------------------------
 
          Ground-State Mulliken Net Atomic Charges

     Atom                 Charge (a.u.)    Spin (a.u.)
  --------------------------------------------------------
      1 C                    -0.039339      -0.046191
      2 O                    -0.448923       0.033388
      3 C                     0.021259       0.875467
      4 O                    -0.356723       0.090601
      5 O                    -0.382711       0.052019
      6 O                    -0.415180       0.001624
      7 H                     0.254790       0.001617
      8 H                     0.320353      -0.000104
      9 H                     0.356244      -0.004060
     10 H                     0.366811      -0.003288
     11 H                     0.323418      -0.001072
  --------------------------------------------------------
  Sum of atomic charges =     0.000000
  Sum of spin   charges =     1.000000

 -----------------------------------------------------------------
                    Cartesian Multipole Moments
 -----------------------------------------------------------------
    Charge (ESU x 10^10)
                 0.0000
    Dipole Moment (Debye)
         X      -6.0561      Y      -0.6311      Z      -1.2479
       Tot       6.2154
    Quadrupole Moments (Debye-Ang)
        XX     -41.2436     XY      -1.4112     YY     -31.8014
        XZ       8.1294     YZ      -1.0000     ZZ     -36.1182
    Octopole Moments (Debye-Ang^2)
       XXX    -140.7897    XXY       6.6044    XYY     -26.9567
       YYY      25.8604    XXZ      32.6427    XYZ      -4.2881
       YYZ      20.2872    XZZ     -43.5893    YZZ       9.1911
       ZZZ     104.4867
    Hexadecapole Moments (Debye-Ang^3)
      XXXX    -585.7732   XXXY      16.4255   XXYY    -100.7301
      XYYY      -5.1405   YYYY    -188.2427   XXXZ     114.2899
      XXYZ     -20.6520   XYYZ      12.2116   YYYZ     -16.9886
      XXZZ    -128.5437   XYZZ       1.5774   YYZZ     -64.0813
      XZZZ      90.3141   YZZZ     -25.9270   ZZZZ    -314.6110
 -----------------------------------------------------------------
 Calculating analytic gradient of the SCF energy
 Gradient of CDS energy
            1           2           3           4           5           6
    1   0.0027337  -0.0001232  -0.0037750   0.0025543   0.0008933  -0.0019978
    2   0.0041320   0.0002857  -0.0016469   0.0044342  -0.0027582  -0.0044260
    3   0.0008403   0.0000119  -0.0031558  -0.0003217   0.0037815  -0.0004994
            7           8           9          10          11
    1  -0.0000514   0.0001738  -0.0003487  -0.0002279   0.0001689
    2  -0.0000725  -0.0004102  -0.0003070   0.0003411   0.0004278
    3   0.0001113  -0.0002675  -0.0000660  -0.0002843  -0.0001502
 Gradient of SCF Energy
            1           2           3           4           5           6
    1  -0.0044039   0.0090144   0.0013914   0.0169642   0.0224010   0.0049140
    2   0.0002952   0.0088686   0.0014990  -0.0027739  -0.0068360  -0.0019800
    3  -0.0013956  -0.0010562   0.0028034   0.0098555  -0.0025673   0.0049980
            7           8           9          10          11
    1  -0.0011472  -0.0052393  -0.0193730  -0.0218566  -0.0026648
    2  -0.0012840  -0.0071368   0.0026188   0.0045296   0.0021994
    3   0.0000015  -0.0001473  -0.0098219  -0.0002890  -0.0023811
 Max gradient component =       2.240E-02
 RMS gradient           =       8.296E-03
 Computing fast CPCM-SWIG gradient
 Updating gradient with PCM contributions...
 -- total gradient after adding PCM contribution --
---------------------------------------------------
  Atom         X              Y              Z     
---------------------------------------------------
   1       0.000474       0.000012       0.000187
   2      -0.000358      -0.000688       0.000578
   3      -0.000174      -0.000255       0.000395
   4      -0.000317       0.000485      -0.000505
   5      -0.001041      -0.000102      -0.000348
   6      -0.000680      -0.000487      -0.000756
   7       0.000220       0.000601      -0.000247
   8       0.000189       0.000790      -0.000192
   9       0.000665      -0.000008       0.000049
  10       0.000854       0.000050       0.000175
  11       0.000168      -0.000398       0.000664
---------------------------------------------------
 Number of fixed atoms: 0
 Gradient time:  CPU 75.34 s  wall 11.12 s
 Geometry Optimization Parameters
   NAtoms,    NIC,     NZ,  NCons,   NDum,   NFix, NCnnct, MaxDiis
       11      61       0       0       0       0       0       0

 Cartesian Hessian Update
 Hessian updated using BFGS update


** GEOMETRY OPTIMIZATION IN DELOCALIZED INTERNAL COORDINATES **
   Searching for a Minimum

   Optimization Cycle:   3

                       Coordinates (Angstroms)
     ATOM                X               Y               Z
      1  C         1.5075434664   -0.3333377671   -0.4149155993
      2  O         2.2235905216   -1.0519648201   -1.4214015916
      3  C         0.0539188417   -0.2147549459   -0.7594459697
      4  O        -0.5990720283   -1.4171934403   -0.6773122010
      5  O        -0.1771581175    0.5422646647   -1.8808969034
      6  O         2.1089201167    0.9223668530   -0.2983586447
      7  H         1.6174209773   -0.8351229541    0.5448921368
      8  H         1.7846772204   -1.8997176035   -1.5593211556
      9  H        -1.4705617908   -1.3460192733   -1.0871823430
     10  H        -1.0927267206    0.8467724442   -1.8923495516
     11  H         1.8312729129    1.4612930421   -1.0497780767
   Point Group: c1    Number of degrees of freedom:    27


   Energy is   -380.095791536

 Hessian updated using BFGS update

 26 Hessian modes will be used to form the next step
  Hessian Eigenvalues:
     0.005461    0.010447    0.015475    0.015991    0.018317    0.035061
     0.071779    0.072686    0.097001    0.156469    0.160260    0.167016
     0.195925    0.203830    0.208212    0.228760    0.323949    0.345447
     0.410332    0.467522    0.488813    0.515042    0.526572    0.527636
     0.528903    0.625246

 Minimum search - taking simple RFO step
 Searching for Lamda that Minimizes Along All modes
 Value Taken    Lamda =  -0.00007044
 Step Taken.  Stepsize is  0.100374

                             Maximum     Tolerance    Cnvgd?
         Gradient           0.000920      0.000300      NO
         Displacement       0.036268      0.001200      NO
         Energy change     -0.000089      0.000001      NO


 New Cartesian Coordinates Obtained by Inverse Iteration

 Displacement from previous Coordinates is:  0.126017
 ----------------------------------------------------------------
             Standard Nuclear Orientation (Angstroms)
    I     Atom           X                Y                Z
 ----------------------------------------------------------------
    1      C       1.5058019500    -0.3338088418    -0.4202498069
    2      O       2.2255849414    -1.0403870440    -1.4335887981
    3      C       0.0540152620    -0.2109444420    -0.7647442092
    4      O      -0.6061495648    -1.4074896142    -0.6656171808
    5      O      -0.1758485076     0.5391543035    -1.8889777655
    6      O       2.1106309733     0.9187778663    -0.2851442064
    7      H       1.6098255210    -0.8505514473     0.5326876173
    8      H       1.8047876457    -1.8986005058    -1.5633205080
    9      H      -1.4850993690    -1.3350373867    -1.0588957467
   10      H      -1.0971598707     0.8252235082    -1.9164343190
   11      H       1.8414364185     1.4682498035    -1.0317849767
 ----------------------------------------------------------------
 Nuclear Repulsion Energy =         260.34324333 hartrees
 There are       25 alpha and       24 beta electrons
 Discretize the solute cavity surface with Lebedev spheres
	Using 110 Lebedev grid points for each H atom
	Using 194 Lebedev grid points for other atoms
	Atomic van der Waals radii will be scaled by 1.20
 Remove points where switching function is < 1.0e-08
 Keep 912 surface tesserae and discard 802 interior tesserae
 Molecular Surface Area = 106.991 Angst**2
 Applying Cartesian multipole field
    Component          Value
    ---------          -----
     (2,0,0)        1.00000E-11
     (0,2,0)        2.00000E-11
     (0,0,2)       -3.00000E-11
 Nucleus-field energy     =     0.0000000002 hartrees
 Requested basis set is 6-311++G(2df,2p)
 There are 78 shells and 254 basis functions
 A cutoff of  1.0D-12 yielded   2935 shell pairs
 There are     31470 function pairs (     39422 Cartesian)
 Smallest overlap matrix eigenvalue = 6.46E-05
 Guess MOs from SCF MO coefficient file

 -----------------------------------------------------------------------
  General SCF calculation program by
  Eric Jon Sundstrom, Paul Horn, Yuezhi Mao, Dmitri Zuev, Alec White,
  David Stuck, Shaama M.S., Shane Yost, Joonho Lee, David Small,
  Daniel Levine, Susi Lehtola, Hugh Burton, Evgeny Epifanovsky,
  Bang C. Huynh
 -----------------------------------------------------------------------
 Exchange:     0.1500 Hartree-Fock + 1.0000 wB97M-V + LR-HF
 Correlation:  1.0000 wB97M-V
 Using SG-2 standard quadrature grid
 Nonlocal Correlation:  VV10 with C = 0.0100 and b = 6.00 and scale = 1.00000
 Grid used for NLC:  SG-1 standard quadrature
 
 Citation of the SMD model:
 Marenich, A.V.; Cramer, C.J.; Truhlar, D.G.
 J. Phys. Chem. B 2009, 113, 6378-6396.
 iSolventCode=           1
 Solvent: water                                                           
 
 vradii
            1           2           3           4           5           6
    1   1.8500000   1.5200000   1.8500000   1.5200000   1.5200000   1.5200000
            7           8           9          10          11
    1   1.2000000   1.2000000   1.2000000   1.2000000   1.2000000
 -------------------------------------------------------
 OpenMP BLAS3 based DFT computing Module                
 Release: version 1.0, May 2013, Q-Chem Inc. Pittsburgh 
 -------------------------------------------------------
 A unrestricted SCF calculation will be
 performed using Roothaan-Hall, DIIS, GDM
 SCF converges when RMS gradient is below 1.0e-07
 ---------------------------------------
  Cycle       Energy         DIIS error
 ---------------------------------------
    1    -380.0585733186      3.67e-04  Roothaan Step
 ---------------------------------------
  Cycle       Energy         DIIS error
 ---------------------------------------
    1    -380.0948767732      3.76e-04  
    2    -380.1002949059      2.59e-04  Done DIIS. Switching to GDM
 ---------------------------------------
  Cycle       Energy        RMS Gradient
 ---------------------------------------
    1    -380.1002949059      5.82e-03   Normal BFGS step
    2    -380.1005849967      5.84e-03   Normal BFGS step
    3    -380.1018456962      7.17e-04   Normal BFGS step
    4    -380.1018618672      4.38e-04   Normal BFGS step
    5    -380.1018662854      8.24e-05   Normal BFGS step
    6    -380.1018664398      7.17e-05   Normal BFGS step
    7    -380.1018665038      1.53e-05   Normal BFGS step
    8    -380.1018665135      5.68e-06   Normal BFGS step
    9    -380.1018665147      2.83e-06   Normal BFGS step
   10    -380.1018665148      8.34e-07   Normal BFGS step
   11    -380.1018665148      3.62e-07   Normal BFGS step
   12    -380.1018665148      2.04e-07   Normal BFGS step
   13    -380.1018665148      9.33e-08  Convergence criterion met
 ---------------------------------------
 SCF time:   CPU 433.01s  wall 55.00s 
<S^2> =          0.752377445
(3)  G-ENP(liq) elect-nuc-pol free energy of system     -380.101866515 a.u.
(4)  G-CDS(liq) cavity-dispersion-solvent structure 
     free energy                                                3.7800 kcal/mol
(6)  G-S(liq) free energy of system                     -380.095842678 a.u.
 SCF   energy in the final basis set =     -380.0958426784
 Total energy in the final basis set =     -380.0958426784
 
 --------------------------------------------------------------
 
                    Orbital Energies (a.u.)
 --------------------------------------------------------------
 
 Alpha MOs
 -- Occupied --
-19.3711 -19.3691 -19.3502 -19.3430 -10.4507 -10.4464  -1.2345  -1.1973
 -1.1624  -1.1351  -0.8567  -0.7517  -0.6921  -0.6459  -0.6377  -0.5874
 -0.5787  -0.5414  -0.5105  -0.4848  -0.4821  -0.4445  -0.4298  -0.4024
 -0.2768
 -- Virtual --
  0.0248   0.0451   0.0470   0.0582   0.0749   0.1011   0.1065   0.1168
  0.1257   0.1360   0.1503   0.1626   0.1719   0.2097   0.2227   0.2309
  0.2414   0.2449   0.2563   0.2632   0.2728   0.2950   0.2992   0.3081
  0.3201   0.3265   0.3293   0.3377   0.3485   0.3506   0.3685   0.3767
  0.3875   0.3964   0.4017   0.4296   0.4497   0.4611   0.4758   0.5594
  0.5763   0.6010   0.6092   0.6229   0.6519   0.6708   0.6755   0.6918
  0.7084   0.7316   0.7599   0.7774   0.8062   0.8674   0.8729   0.8887
  0.9154   0.9271   0.9672   1.0002   1.0150   1.0503   1.0700   1.0971
  1.1056   1.1369   1.1528   1.1554   1.1834   1.1898   1.1934   1.2001
  1.2182   1.2408   1.2665   1.2796   1.3208   1.3531   1.3642   1.4143
  1.4292   1.4412   1.4785   1.4970   1.5213   1.5398   1.5454   1.5787
  1.6180   1.6703   1.6934   1.7523   1.7729   1.8510   1.8739   1.8937
  1.9569   1.9853   2.0224   2.1069   2.1213   2.1591   2.2219   2.2767
  2.2874   2.3002   2.3338   2.3614   2.3994   2.4138   2.4423   2.4897
  2.5589   2.6055   2.7382   2.7674   2.8119   2.8694   2.9256   3.0230
  3.0350   3.0561   3.1453   3.1982   3.2887   3.3078   3.3446   3.3695
  3.4057   3.4126   3.4673   3.5353   3.5544   3.5622   3.6186   3.6335
  3.6696   3.6883   3.7228   3.7736   3.8161   3.8208   3.8325   3.8497
  3.8781   3.9119   3.9467   4.0471   4.0749   4.1073   4.1583   4.1898
  4.2535   4.2797   4.2936   4.3178   4.3401   4.3681   4.4015   4.4439
  4.5504   4.7451   5.1639   5.1802   5.1967   5.2054   5.2289   5.2522
  5.2715   5.2751   5.2902   5.3029   5.3178   5.3437   5.4084   5.4139
  5.4412   5.4546   5.5102   5.5601   5.5766   5.5995   5.6167   5.6348
  5.6687   5.6791   5.7071   5.7337   5.8711   5.9637   5.9694   6.0427
  6.0828   6.1222   6.4136   6.4403   6.5307   6.7328   6.8119   7.0386
  7.0534   7.0682   7.1086   7.2087   7.2169   7.2387   7.2776   7.2850
  7.3010   7.3170   7.3278   7.3560   7.3972   7.4169   7.4701   7.6141
  7.6921   7.6965   7.7208   7.7747   7.8026   7.8507   7.8615  24.7067
 24.8926  50.5403  50.5739  50.5956  50.6323
 
 Beta MOs
 -- Occupied --
-19.3672 -19.3664 -19.3501 -19.3419 -10.4507 -10.4334  -1.2261  -1.1945
 -1.1546  -1.1332  -0.8448  -0.7460  -0.6854  -0.6414  -0.6301  -0.5765
 -0.5651  -0.5285  -0.4964  -0.4804  -0.4718  -0.4342  -0.4271  -0.3973
 -- Virtual --
  0.0177   0.0382   0.0459   0.0470   0.0586   0.0750   0.1005   0.1058
  0.1181   0.1269   0.1361   0.1495   0.1640   0.1706   0.2100   0.2226
  0.2319   0.2447   0.2499   0.2558   0.2629   0.2723   0.2980   0.2998
  0.3093   0.3223   0.3302   0.3321   0.3379   0.3491   0.3523   0.3690
  0.3776   0.3948   0.4038   0.4064   0.4327   0.4557   0.4623   0.4821
  0.5625   0.5800   0.6040   0.6104   0.6247   0.6566   0.6761   0.6900
  0.6963   0.7188   0.7335   0.7643   0.7797   0.8085   0.8740   0.8791
  0.8934   0.9168   0.9338   0.9689   1.0039   1.0164   1.0517   1.0735
  1.0989   1.1089   1.1444   1.1552   1.1622   1.1863   1.1933   1.1950
  1.2068   1.2214   1.2447   1.2699   1.2827   1.3263   1.3607   1.3676
  1.4228   1.4361   1.4451   1.4832   1.4990   1.5238   1.5456   1.5484
  1.5818   1.6205   1.6739   1.6980   1.7546   1.7750   1.8566   1.8810
  1.8955   1.9618   1.9905   2.0290   2.1177   2.1269   2.1656   2.2311
  2.2803   2.2941   2.3035   2.3428   2.3649   2.4060   2.4179   2.4466
  2.4966   2.5684   2.6110   2.7514   2.7805   2.8219   2.8847   2.9723
  3.0425   3.0556   3.0732   3.1681   3.2144   3.3036   3.3302   3.3578
  3.3865   3.4250   3.4303   3.4942   3.5581   3.5781   3.6077   3.6296
  3.6609   3.6835   3.7076   3.7458   3.7798   3.8214   3.8250   3.8410
  3.8676   3.8876   3.9203   3.9575   4.0554   4.0874   4.1131   4.1610
  4.1994   4.2632   4.2819   4.3046   4.3313   4.3487   4.3760   4.4071
  4.4483   4.5591   4.7705   5.1757   5.1835   5.2028   5.2158   5.2340
  5.2562   5.2758   5.2811   5.2957   5.3071   5.3235   5.3463   5.4111
  5.4200   5.4452   5.4586   5.5149   5.5656   5.5840   5.6055   5.6192
  5.6414   5.6733   5.6813   5.7098   5.7403   5.8760   5.9662   5.9759
  6.0515   6.0871   6.1334   6.4221   6.4520   6.5365   6.7355   6.8231
  7.0452   7.0655   7.0754   7.1115   7.2187   7.2219   7.2473   7.2840
  7.2881   7.3074   7.3224   7.3337   7.3620   7.4037   7.4199   7.4792
  7.6159   7.6994   7.7007   7.7250   7.7789   7.8071   7.8582   7.8644
 24.7115  24.8999  50.5428  50.5755  50.5966  50.6337
 --------------------------------------------------------------
 
          Ground-State Mulliken Net Atomic Charges

     Atom                 Charge (a.u.)    Spin (a.u.)
  --------------------------------------------------------
      1 C                    -0.034878      -0.046427
      2 O                    -0.449529       0.033513
      3 C                     0.016172       0.874886
      4 O                    -0.357127       0.089460
      5 O                    -0.380205       0.054173
      6 O                    -0.417053       0.001879
      7 H                     0.255368       0.001430
      8 H                     0.320702      -0.000137
      9 H                     0.356216      -0.004160
     10 H                     0.366126      -0.003425
     11 H                     0.324206      -0.001193
  --------------------------------------------------------
  Sum of atomic charges =     0.000000
  Sum of spin   charges =     1.000000

 -----------------------------------------------------------------
                    Cartesian Multipole Moments
 -----------------------------------------------------------------
    Charge (ESU x 10^10)
                 0.0000
    Dipole Moment (Debye)
         X      -6.0458      Y      -0.6808      Z      -1.2463
       Tot       6.2104
    Quadrupole Moments (Debye-Ang)
        XX     -41.0050     XY      -1.4553     YY     -31.7050
        XZ       8.1150     YZ      -1.0014     ZZ     -36.2305
    Octopole Moments (Debye-Ang^2)
       XXX    -140.7336    XXY       6.1507    XYY     -26.2217
       YYY      25.4367    XXZ      32.3832    XYZ      -4.0991
       YYZ      20.4136    XZZ     -43.9206    YZZ       9.1702
       ZZZ     104.6959
    Hexadecapole Moments (Debye-Ang^3)
      XXXX    -585.8882   XXXY      15.6413   XXYY     -99.0656
      XYYY      -5.8425   YYYY    -185.5426   XXXZ     114.2448
      XXYZ     -20.3639   XYYZ      11.4373   YYYZ     -16.5907
      XXZZ    -129.1332   XYZZ       0.8667   YYZZ     -64.4151
      XZZZ      91.6376   YZZZ     -26.0245   ZZZZ    -316.5169
 -----------------------------------------------------------------
 Calculating analytic gradient of the SCF energy
 Gradient of CDS energy
            1           2           3           4           5           6
    1   0.0027149  -0.0001254  -0.0037911   0.0025801   0.0008915  -0.0019848
    2   0.0040760   0.0002821  -0.0016462   0.0044072  -0.0027242  -0.0043623
    3   0.0008962   0.0000192  -0.0031061  -0.0003812   0.0037785  -0.0005608
            7           8           9          10          11
    1  -0.0000569   0.0001789  -0.0003511  -0.0002288   0.0001728
    2  -0.0000797  -0.0004092  -0.0003057   0.0003320   0.0004300
    3   0.0001082  -0.0002698  -0.0000538  -0.0002868  -0.0001437
 Gradient of SCF Energy
            1           2           3           4           5           6
    1  -0.0049472   0.0089485   0.0015506   0.0175070   0.0228087   0.0049948
    2   0.0008764   0.0090717   0.0010263  -0.0021142  -0.0067070  -0.0018281
    3  -0.0015545  -0.0012939   0.0019547   0.0098016  -0.0013388   0.0049258
            7           8           9          10          11
    1  -0.0013277  -0.0050767  -0.0197465  -0.0221918  -0.0025196
    2  -0.0017521  -0.0074807   0.0024581   0.0041469   0.0023026
    3   0.0000995  -0.0000663  -0.0095539  -0.0006815  -0.0022928
 Max gradient component =       2.281E-02
 RMS gradient           =       8.396E-03
 Computing fast CPCM-SWIG gradient
 Updating gradient with PCM contributions...
 -- total gradient after adding PCM contribution --
---------------------------------------------------
  Atom         X              Y              Z     
---------------------------------------------------
   1      -0.000084       0.000556       0.000039
   2      -0.000274      -0.000758       0.000464
   3       0.000014      -0.000738      -0.000547
   4      -0.000096       0.001209      -0.000274
   5      -0.000784      -0.000425       0.000593
   6      -0.000535      -0.000271      -0.000855
   7      -0.000016       0.000205      -0.000118
   8       0.000209       0.000677      -0.000215
   9       0.000563      -0.000218       0.000099
  10       0.000728       0.000081       0.000054
  11       0.000273      -0.000320       0.000759
---------------------------------------------------
 Number of fixed atoms: 0
 Gradient time:  CPU 75.53 s  wall 11.18 s
 Geometry Optimization Parameters
   NAtoms,    NIC,     NZ,  NCons,   NDum,   NFix, NCnnct, MaxDiis
       11      61       0       0       0       0       0       0

 Cartesian Hessian Update
 Hessian updated using BFGS update


** GEOMETRY OPTIMIZATION IN DELOCALIZED INTERNAL COORDINATES **
   Searching for a Minimum

   Optimization Cycle:   4

                       Coordinates (Angstroms)
     ATOM                X               Y               Z
      1  C         1.5058019500   -0.3338088418   -0.4202498069
      2  O         2.2255849414   -1.0403870440   -1.4335887981
      3  C         0.0540152620   -0.2109444420   -0.7647442092
      4  O        -0.6061495648   -1.4074896142   -0.6656171808
      5  O        -0.1758485076    0.5391543035   -1.8889777655
      6  O         2.1106309733    0.9187778663   -0.2851442064
      7  H         1.6098255210   -0.8505514473    0.5326876173
      8  H         1.8047876457   -1.8986005058   -1.5633205080
      9  H        -1.4850993690   -1.3350373867   -1.0588957467
     10  H        -1.0971598707    0.8252235082   -1.9164343190
     11  H         1.8414364185    1.4682498035   -1.0317849767
   Point Group: c1    Number of degrees of freedom:    27


   Energy is   -380.095842678

 Hessian updated using BFGS update

 27 Hessian modes will be used to form the next step
  Hessian Eigenvalues:
     0.002840    0.010096    0.015077    0.015854    0.018309    0.036871
     0.072345    0.074795    0.097793    0.159830    0.160139    0.161017
     0.173665    0.196483    0.205239    0.207408    0.228834    0.328783
     0.345216    0.410824    0.487552    0.488417    0.517996    0.526571
     0.527776    0.530028    0.574871

 Minimum search - taking simple RFO step
 Searching for Lamda that Minimizes Along All modes
 Value Taken    Lamda =  -0.00006212
 Step Taken.  Stepsize is  0.129207

                             Maximum     Tolerance    Cnvgd?
         Gradient           0.000879      0.000300      NO
         Displacement       0.048562      0.001200      NO
         Energy change     -0.000051      0.000001      NO


 New Cartesian Coordinates Obtained by Inverse Iteration

 Displacement from previous Coordinates is:  0.142028
 ----------------------------------------------------------------
             Standard Nuclear Orientation (Angstroms)
    I     Atom           X                Y                Z
 ----------------------------------------------------------------
    1      C       1.5044436211    -0.3353266294    -0.4255522365
    2      O       2.2257906116    -1.0259626875    -1.4497670035
    3      C       0.0530802295    -0.2057038060    -0.7674448071
    4      O      -0.6145990056    -1.3980784879    -0.6582332674
    5      O      -0.1740371403     0.5404425975    -1.8942130057
    6      O       2.1119769634     0.9144832031    -0.2713165338
    7      H       1.6062318840    -0.8684622670     0.5189999322
    8      H       1.8320409081    -1.9000763285    -1.5611494705
    9      H      -1.5027491709    -1.3171988343    -1.0296485276
   10      H      -1.1035743519     0.7977347015    -1.9432652121
   11      H       1.8492208510     1.4727347380    -1.0144797676
 ----------------------------------------------------------------
 Nuclear Repulsion Energy =         260.18397003 hartrees
 There are       25 alpha and       24 beta electrons
 Discretize the solute cavity surface with Lebedev spheres
	Using 110 Lebedev grid points for each H atom
	Using 194 Lebedev grid points for other atoms
	Atomic van der Waals radii will be scaled by 1.20
 Remove points where switching function is < 1.0e-08
 Keep 914 surface tesserae and discard 800 interior tesserae
 Molecular Surface Area = 107.166 Angst**2
 Applying Cartesian multipole field
    Component          Value
    ---------          -----
     (2,0,0)        1.00000E-11
     (0,2,0)        2.00000E-11
     (0,0,2)       -3.00000E-11
 Requested basis set is 6-311++G(2df,2p)
 There are 78 shells and 254 basis functions
 A cutoff of  1.0D-12 yielded   2935 shell pairs
 There are     31470 function pairs (     39422 Cartesian)
 Smallest overlap matrix eigenvalue = 6.24E-05
 Guess MOs from SCF MO coefficient file

 -----------------------------------------------------------------------
  General SCF calculation program by
  Eric Jon Sundstrom, Paul Horn, Yuezhi Mao, Dmitri Zuev, Alec White,
  David Stuck, Shaama M.S., Shane Yost, Joonho Lee, David Small,
  Daniel Levine, Susi Lehtola, Hugh Burton, Evgeny Epifanovsky,
  Bang C. Huynh
 -----------------------------------------------------------------------
 Exchange:     0.1500 Hartree-Fock + 1.0000 wB97M-V + LR-HF
 Correlation:  1.0000 wB97M-V
 Using SG-2 standard quadrature grid
 Nonlocal Correlation:  VV10 with C = 0.0100 and b = 6.00 and scale = 1.00000
 Grid used for NLC:  SG-1 standard quadrature
 
 Citation of the SMD model:
 Marenich, A.V.; Cramer, C.J.; Truhlar, D.G.
 J. Phys. Chem. B 2009, 113, 6378-6396.
 iSolventCode=           1
 Solvent: water                                                           
 
 vradii
            1           2           3           4           5           6
    1   1.8500000   1.5200000   1.8500000   1.5200000   1.5200000   1.5200000
            7           8           9          10          11
    1   1.2000000   1.2000000   1.2000000   1.2000000   1.2000000
 -------------------------------------------------------
 OpenMP BLAS3 based DFT computing Module                
 Release: version 1.0, May 2013, Q-Chem Inc. Pittsburgh 
 -------------------------------------------------------
 A unrestricted SCF calculation will be
 performed using Roothaan-Hall, DIIS, GDM
 SCF converges when RMS gradient is below 1.0e-07
 ---------------------------------------
  Cycle       Energy         DIIS error
 ---------------------------------------
    1    -380.0578654244      3.78e-04  Roothaan Step
 ---------------------------------------
  Cycle       Energy         DIIS error
 ---------------------------------------
    1    -380.0947806668      3.80e-04  
    2    -380.1002955972      2.63e-04  Done DIIS. Switching to GDM
 ---------------------------------------
  Cycle       Energy        RMS Gradient
 ---------------------------------------
    1    -380.1002955972      5.66e-03   Normal BFGS step
    2    -380.1005885531      6.10e-03   Normal BFGS step
    3    -380.1018859417      6.87e-04   Normal BFGS step
    4    -380.1019023531      4.34e-04   Normal BFGS step
    5    -380.1019068799      7.79e-05   Normal BFGS step
    6    -380.1019070309      6.90e-05   Normal BFGS step
    7    -380.1019070969      1.63e-05   Normal BFGS step
    8    -380.1019071064      6.03e-06   Normal BFGS step
    9    -380.1019071076      2.95e-06   Normal BFGS step
   10    -380.1019071078      8.87e-07   Normal BFGS step
   11    -380.1019071078      3.80e-07   Normal BFGS step
   12    -380.1019071078      2.19e-07   Normal BFGS step
   13    -380.1019071078      1.09e-07   Normal BFGS step
   14    -380.1019071078      5.99e-08  Convergence criterion met
 ---------------------------------------
[...]
  1.2206   1.2344   1.2646   1.2794   1.3244   1.3541   1.3739   1.4165
  1.4324   1.4465   1.4811   1.4974   1.5184   1.5368   1.5454   1.5801
  1.6122   1.6686   1.6890   1.7474   1.7652   1.8565   1.8921   1.9007
  1.9541   1.9816   2.0186   2.1049   2.1170   2.1531   2.2270   2.2756
  2.2810   2.3047   2.3423   2.3730   2.3951   2.4162   2.4417   2.4959
  2.5607   2.6171   2.7273   2.7662   2.8119   2.8750   2.9314   3.0143
  3.0317   3.0662   3.1425   3.1927   3.2895   3.3068   3.3413   3.3710
  3.3953   3.4091   3.4704   3.5403   3.5526   3.5615   3.6120   3.6289
  3.6718   3.6830   3.7248   3.7710   3.8177   3.8190   3.8299   3.8572
  3.8766   3.9040   3.9451   4.0404   4.0734   4.1068   4.1460   4.1955
  4.2513   4.2775   4.2955   4.3184   4.3372   4.3718   4.3992   4.4324
  4.5527   4.7456   5.1630   5.1726   5.1977   5.2041   5.2355   5.2563
  5.2695   5.2783   5.2946   5.3067   5.3233   5.3401   5.4005   5.4124
  5.4328   5.4556   5.5006   5.5619   5.5734   5.5941   5.6142   5.6343
  5.6607   5.6722   5.7183   5.7350   5.8724   5.9598   5.9660   6.0435
  6.0733   6.1243   6.4032   6.4357   6.5306   6.7297   6.8083   7.0399
  7.0533   7.0760   7.1114   7.2084   7.2183   7.2404   7.2745   7.2812
  7.2975   7.3133   7.3237   7.3503   7.3942   7.4144   7.4578   7.6131
  7.6929   7.6989   7.7219   7.7760   7.8042   7.8456   7.8607  24.7018
 24.8880  50.5405  50.5725  50.5957  50.6320
 
 Beta MOs
 -- Occupied --
-19.3668 -19.3664 -19.3501 -19.3420 -10.4508 -10.4333  -1.2252  -1.1941
 -1.1539  -1.1331  -0.8448  -0.7447  -0.6850  -0.6431  -0.6287  -0.5761
 -0.5645  -0.5250  -0.4952  -0.4846  -0.4727  -0.4332  -0.4254  -0.3982
 -- Virtual --
  0.0178   0.0379   0.0456   0.0471   0.0591   0.0747   0.1003   0.1058
  0.1186   0.1272   0.1355   0.1491   0.1640   0.1696   0.2107   0.2239
  0.2316   0.2454   0.2500   0.2560   0.2646   0.2695   0.2974   0.3000
  0.3091   0.3240   0.3305   0.3341   0.3381   0.3486   0.3522   0.3731
  0.3755   0.3926   0.4061   0.4067   0.4321   0.4498   0.4608   0.4806
  0.5623   0.5863   0.6015   0.6061   0.6217   0.6566   0.6749   0.6910
  0.7064   0.7216   0.7346   0.7671   0.7833   0.8053   0.8735   0.8798
  0.8891   0.9104   0.9429   0.9684   1.0016   1.0155   1.0531   1.0774
  1.0950   1.1098   1.1425   1.1553   1.1588   1.1841   1.1893   1.1954
  1.2071   1.2242   1.2380   1.2676   1.2830   1.3304   1.3608   1.3786
  1.4248   1.4382   1.4508   1.4859   1.4993   1.5208   1.5428   1.5486
  1.5832   1.6146   1.6725   1.6932   1.7501   1.7669   1.8610   1.8957
  1.9073   1.9585   1.9878   2.0260   2.1140   2.1229   2.1597   2.2363
  2.2793   2.2877   2.3084   2.3501   2.3764   2.4017   2.4205   2.4469
  2.5027   2.5695   2.6230   2.7418   2.7764   2.8214   2.8946   2.9753
  3.0351   3.0518   3.0821   3.1656   3.2076   3.3021   3.3305   3.3578
  3.3879   3.4144   3.4256   3.4966   3.5663   3.5767   3.5996   3.6257
  3.6581   3.6856   3.7018   3.7480   3.7778   3.8222   3.8242   3.8379
  3.8728   3.8875   3.9134   3.9561   4.0486   4.0846   4.1131   4.1488
  4.2036   4.2621   4.2805   4.3072   4.3303   4.3456   4.3800   4.4043
  4.4372   4.5616   4.7710   5.1749   5.1772   5.2024   5.2155   5.2401
  5.2601   5.2730   5.2847   5.2998   5.3115   5.3287   5.3432   5.4042
  5.4179   5.4366   5.4597   5.5051   5.5672   5.5808   5.6007   5.6165
  5.6400   5.6653   5.6746   5.7215   5.7415   5.8771   5.9655   5.9704
  6.0503   6.0782   6.1358   6.4118   6.4476   6.5362   6.7323   6.8197
  7.0466   7.0634   7.0853   7.1146   7.2162   7.2246   7.2489   7.2807
  7.2858   7.3034   7.3175   7.3304   7.3564   7.4008   7.4172   7.4672
  7.6149   7.6998   7.7029   7.7266   7.7800   7.8085   7.8536   7.8633
 24.7067  24.8952  50.5431  50.5741  50.5966  50.6334
 --------------------------------------------------------------
 
          Ground-State Mulliken Net Atomic Charges

     Atom                 Charge (a.u.)    Spin (a.u.)
  --------------------------------------------------------
      1 C                    -0.016508      -0.045560
      2 O                    -0.454205       0.033069
      3 C                     0.004281       0.874722
      4 O                    -0.361631       0.084811
      5 O                    -0.377134       0.059770
      6 O                    -0.422358       0.001850
      7 H                     0.258495       0.001330
      8 H                     0.322965      -0.000165
      9 H                     0.355865      -0.004756
     10 H                     0.365190      -0.003934
     11 H                     0.325040      -0.001137
  --------------------------------------------------------
  Sum of atomic charges =     0.000000
  Sum of spin   charges =     1.000000

 -----------------------------------------------------------------
                    Cartesian Multipole Moments
 -----------------------------------------------------------------
    Charge (ESU x 10^10)
                 0.0000
    Dipole Moment (Debye)
         X      -5.9215      Y      -0.8507      Z      -1.0032
       Tot       6.0659
    Quadrupole Moments (Debye-Ang)
        XX     -39.9816     XY      -2.0039     YY     -31.5933
        XZ       8.1265     YZ      -1.2661     ZZ     -36.8750
    Octopole Moments (Debye-Ang^2)
       XXX    -139.1376    XXY       3.9554    XYY     -23.9131
       YYY      23.8243    XXZ      32.0858    XYZ      -3.5323
       YYZ      21.6365    XZZ     -44.6728    YZZ       9.8856
       ZZZ     106.6428
    Hexadecapole Moments (Debye-Ang^3)
      XXXX    -579.3425   XXXY      11.0582   XXYY     -94.1927
      XYYY      -9.7044   YYYY    -182.8659   XXXZ     113.7159
      XXYZ     -19.1345   XYYZ       9.5268   YYYZ     -16.5360
      XXZZ    -130.0354   XYZZ       0.5639   YYZZ     -67.2993
      XZZZ      95.0213   YZZZ     -28.4156   ZZZZ    -321.1182
 -----------------------------------------------------------------
 Calculating analytic gradient of the SCF energy
 Gradient of CDS energy
            1           2           3           4           5           6
    1   0.0026285  -0.0001307  -0.0038173   0.0026125   0.0008973  -0.0019123
    2   0.0039785   0.0002745  -0.0016138   0.0044853  -0.0028329  -0.0041914
    3   0.0009332   0.0000361  -0.0031937  -0.0003090   0.0037657  -0.0006219
            7           8           9          10          11
    1  -0.0000495   0.0001885  -0.0003583  -0.0002320   0.0001733
    2  -0.0001293  -0.0004168  -0.0003077   0.0003200   0.0004335
    3   0.0000887  -0.0002418  -0.0000286  -0.0002920  -0.0001368
 Gradient of SCF Energy
            1           2           3           4           5           6
    1  -0.0045840   0.0080781   0.0011309   0.0186800   0.0235733   0.0051902
    2   0.0006350   0.0106340   0.0017577  -0.0038796  -0.0051416  -0.0013598
    3  -0.0021143  -0.0026799   0.0030187   0.0078839  -0.0012240   0.0054481
            7           8           9          10          11
    1  -0.0011108  -0.0043544  -0.0209911  -0.0231185  -0.0024935
    2  -0.0024509  -0.0088686   0.0034378   0.0028231   0.0024129
    3   0.0005582   0.0011734  -0.0081078  -0.0012378  -0.0027184
 Max gradient component =       2.357E-02
 RMS gradient           =       8.671E-03
 Computing fast CPCM-SWIG gradient
 Updating gradient with PCM contributions...
 -- total gradient after adding PCM contribution --
---------------------------------------------------
  Atom         X              Y              Z     
---------------------------------------------------
   1       0.000115      -0.000043      -0.000070
   2      -0.000089      -0.000046       0.000089
   3      -0.000064      -0.000010      -0.000006
   4      -0.000024       0.000077      -0.000051
   5      -0.000008       0.000022       0.000028
   6      -0.000075      -0.000016       0.000025
   7      -0.000021       0.000013       0.000014
   8       0.000011       0.000019      -0.000011
   9       0.000018       0.000017      -0.000028
  10       0.000067       0.000013      -0.000029
  11       0.000069      -0.000047       0.000039
---------------------------------------------------
 Number of fixed atoms: 0
 Gradient time:  CPU 75.53 s  wall 11.17 s
 Geometry Optimization Parameters
   NAtoms,    NIC,     NZ,  NCons,   NDum,   NFix, NCnnct, MaxDiis
       11      61       0       0       0       0       0       0

 Cartesian Hessian Update
 Hessian updated using BFGS update


** GEOMETRY OPTIMIZATION IN DELOCALIZED INTERNAL COORDINATES **
   Searching for a Minimum

   Optimization Cycle:  10

                       Coordinates (Angstroms)
     ATOM                X               Y               Z
      1  C         1.5036105769   -0.3383289846   -0.4335286606
      2  O         2.2165813818   -1.0242922796   -1.4648281166
      3  C         0.0492082634   -0.2045719189   -0.7687419707
      4  O        -0.6126610145   -1.4037550404   -0.6931453361
      5  O        -0.1768043156    0.5690594324   -1.8791873923
      6  O         2.1093308600    0.9124581407   -0.2759887187
      7  H         1.6103507342   -0.8757690175    0.5076050421
      8  H         1.8786143165   -1.9266893009   -1.5183130331
      9  H        -1.5193823678   -1.3032321333   -1.0112661923
     10  H        -1.1133938933    0.7959407260   -1.9431540541
     11  H         1.8423708583    1.4737665757   -1.0155214674
   Point Group: c1    Number of degrees of freedom:    27


   Energy is   -380.095917055

 Hessian updated using BFGS update

 27 Hessian modes will be used to form the next step
  Hessian Eigenvalues:
     0.001311    0.004425    0.007130    0.015681    0.016820    0.035487
     0.072985    0.076339    0.099097    0.160037    0.161117    0.163967
     0.174079    0.198672    0.205399    0.207595    0.228454    0.320563
     0.345893    0.407405    0.481256    0.489534    0.518945    0.526569
     0.528313    0.529887    0.588746

 Minimum search - taking simple RFO step
 Searching for Lamda that Minimizes Along All modes
 Value Taken    Lamda =  -0.00000043
 Step Taken.  Stepsize is  0.009027

                             Maximum     Tolerance    Cnvgd?
         Gradient           0.000071      0.000300     YES
         Displacement       0.005999      0.001200      NO
         Energy change     -0.000001      0.000001     YES


                       Distance Matrix (Angstroms)
             C (  1)   O (  2)   C (  3)   O (  4)   O (  5)   O (  6)
   O (  2)  1.429144
   C (  3)  1.498514  2.419501
   O (  4)  2.383514  2.957042  1.371797
   O (  5)  2.395220  2.904954  1.372106  2.342790
   O (  6)  1.398637  2.275048  2.394716  3.598347  2.813287
   H (  7)  1.089022  2.068832  2.125261  2.581153  3.313341  2.015132
   H (  8)  1.959662  0.965092  2.621883  2.675970  3.253266  3.107629
   H (  9)  3.225415  3.773718  1.930375  0.966152  2.461966  4.314797
   H ( 10)  3.227112  3.825020  1.931816  2.579131  0.965799  3.630285
   H ( 11)  1.933175  2.565581  2.468431  3.796214  2.375180  0.966045
             H (  7)   H (  8)   H (  9)   H ( 10)
   H (  8)  2.297987
   H (  9)  3.504986  3.491730
   H ( 10)  4.027359  4.067594  2.332331
   H ( 11)  2.809638  3.437617  4.360404  3.171198
 
 Final energy is   -380.095917055351     


 ******************************
 **  OPTIMIZATION CONVERGED  **
 ******************************

                       Coordinates (Angstroms)
     ATOM                X               Y               Z
      1  C         1.5036105769   -0.3383289846   -0.4335286606
      2  O         2.2165813818   -1.0242922796   -1.4648281166
      3  C         0.0492082634   -0.2045719189   -0.7687419707
      4  O        -0.6126610145   -1.4037550404   -0.6931453361
      5  O        -0.1768043156    0.5690594324   -1.8791873923
      6  O         2.1093308600    0.9124581407   -0.2759887187
      7  H         1.6103507342   -0.8757690175    0.5076050421
      8  H         1.8786143165   -1.9266893009   -1.5183130331
      9  H        -1.5193823678   -1.3032321333   -1.0112661923
     10  H        -1.1133938933    0.7959407260   -1.9431540541
     11  H         1.8423708583    1.4737665757   -1.0155214674

Z-matrix Print:
$molecule
0 2
C 
O  1 1.371797
H  2 0.966152 1 110.102884
O  1 1.372106 2 117.258463 3 -40.249535 0
H  4 0.965799 1 110.230098 2 59.983829 0
C  1 1.498514 2 112.205208 3 -173.538434 0
H  6 1.089022 1 109.420533 2 -50.329300 0
O  6 1.398637 1 111.450864 2 -169.149607 0
H  8 0.966045 6 108.282965 1 -46.704234 0
O  6 1.429144 1 111.445301 2 71.229265 0
H  10 0.965092 6 108.305855 1 -64.267973 0
$end

 
 --------------------------------------------------------------
 
                    Orbital Energies (a.u.)
 --------------------------------------------------------------
 
 Alpha MOs
 -- Occupied --
-19.3705 -19.3693 -19.3503 -19.3432 -10.4509 -10.4463  -1.2335  -1.1970
 -1.1618  -1.1350  -0.8565  -0.7504  -0.6915  -0.6480  -0.6361  -0.5865
 -0.5784  -0.5389  -0.5103  -0.4867  -0.4826  -0.4439  -0.4288  -0.4034
 -0.2765
 -- Virtual --
  0.0249   0.0446   0.0469   0.0585   0.0746   0.1012   0.1063   0.1178
  0.1254   0.1355   0.1499   0.1625   0.1709   0.2102   0.2241   0.2305
  0.2417   0.2458   0.2565   0.2648   0.2700   0.2955   0.2982   0.3084
  0.3214   0.3261   0.3317   0.3379   0.3480   0.3506   0.3722   0.3751
  0.3858   0.3991   0.4013   0.4288   0.4452   0.4599   0.4730   0.5597
  0.5828   0.5987   0.6038   0.6199   0.6524   0.6689   0.6759   0.7016
  0.7122   0.7334   0.7625   0.7814   0.8023   0.8697   0.8757   0.8786
  0.9089   0.9363   0.9666   0.9986   1.0144   1.0517   1.0744   1.0931
  1.1068   1.1357   1.1497   1.1553   1.1823   1.1863   1.1910   1.2006
  1.2206   1.2344   1.2646   1.2794   1.3244   1.3541   1.3739   1.4165
  1.4324   1.4465   1.4811   1.4974   1.5184   1.5368   1.5454   1.5801
  1.6122   1.6686   1.6890   1.7474   1.7652   1.8565   1.8921   1.9007
  1.9541   1.9816   2.0186   2.1049   2.1170   2.1531   2.2270   2.2756
  2.2810   2.3047   2.3423   2.3730   2.3951   2.4162   2.4417   2.4959
  2.5607   2.6171   2.7273   2.7662   2.8119   2.8750   2.9314   3.0143
  3.0317   3.0662   3.1425   3.1927   3.2895   3.3068   3.3413   3.3710
  3.3953   3.4091   3.4704   3.5403   3.5526   3.5615   3.6120   3.6289
  3.6718   3.6830   3.7248   3.7710   3.8177   3.8190   3.8299   3.8572
  3.8766   3.9040   3.9451   4.0404   4.0734   4.1068   4.1460   4.1955
  4.2513   4.2775   4.2955   4.3184   4.3372   4.3718   4.3992   4.4324
  4.5527   4.7456   5.1630   5.1726   5.1977   5.2041   5.2355   5.2563
  5.2695   5.2783   5.2946   5.3067   5.3233   5.3401   5.4005   5.4124
  5.4328   5.4556   5.5006   5.5619   5.5734   5.5941   5.6142   5.6343
  5.6607   5.6722   5.7183   5.7350   5.8724   5.9598   5.9660   6.0435
  6.0733   6.1243   6.4032   6.4357   6.5306   6.7297   6.8083   7.0399
  7.0533   7.0760   7.1114   7.2084   7.2183   7.2404   7.2745   7.2812
  7.2975   7.3133   7.3237   7.3503   7.3942   7.4144   7.4578   7.6131
  7.6929   7.6989   7.7219   7.7760   7.8042   7.8456   7.8607  24.7018
 24.8880  50.5405  50.5725  50.5957  50.6320
 
 Beta MOs
 -- Occupied --
-19.3668 -19.3664 -19.3501 -19.3420 -10.4508 -10.4333  -1.2252  -1.1941
 -1.1539  -1.1331  -0.8448  -0.7447  -0.6850  -0.6431  -0.6287  -0.5761
 -0.5645  -0.5250  -0.4952  -0.4846  -0.4727  -0.4332  -0.4254  -0.3982
 -- Virtual --
  0.0178   0.0379   0.0456   0.0471   0.0591   0.0747   0.1003   0.1058
  0.1186   0.1272   0.1355   0.1491   0.1640   0.1696   0.2107   0.2239
  0.2316   0.2454   0.2500   0.2560   0.2646   0.2695   0.2974   0.3000
  0.3091   0.3240   0.3305   0.3341   0.3381   0.3486   0.3522   0.3731
  0.3755   0.3926   0.4061   0.4067   0.4321   0.4498   0.4608   0.4806
  0.5623   0.5863   0.6015   0.6061   0.6217   0.6566   0.6749   0.6910
  0.7064   0.7216   0.7346   0.7671   0.7833   0.8053   0.8735   0.8798
  0.8891   0.9104   0.9429   0.9684   1.0016   1.0155   1.0531   1.0774
  1.0950   1.1098   1.1425   1.1553   1.1588   1.1841   1.1893   1.1954
  1.2071   1.2242   1.2380   1.2676   1.2830   1.3304   1.3608   1.3786
  1.4248   1.4382   1.4508   1.4859   1.4993   1.5208   1.5428   1.5486
  1.5832   1.6146   1.6725   1.6932   1.7501   1.7669   1.8610   1.8957
  1.9073   1.9585   1.9878   2.0260   2.1140   2.1229   2.1597   2.2363
  2.2793   2.2877   2.3084   2.3501   2.3764   2.4017   2.4205   2.4469
  2.5027   2.5695   2.6230   2.7418   2.7764   2.8214   2.8946   2.9753
  3.0351   3.0518   3.0821   3.1656   3.2076   3.3021   3.3305   3.3578
  3.3879   3.4144   3.4256   3.4966   3.5663   3.5767   3.5996   3.6257
  3.6581   3.6856   3.7018   3.7480   3.7778   3.8222   3.8242   3.8379
  3.8728   3.8875   3.9134   3.9561   4.0486   4.0846   4.1131   4.1488
  4.2036   4.2621   4.2805   4.3072   4.3303   4.3456   4.3800   4.4043
  4.4372   4.5616   4.7710   5.1749   5.1772   5.2024   5.2155   5.2401
  5.2601   5.2730   5.2847   5.2998   5.3115   5.3287   5.3432   5.4042
  5.4179   5.4366   5.4597   5.5051   5.5672   5.5808   5.6007   5.6165
  5.6400   5.6653   5.6746   5.7215   5.7415   5.8771   5.9655   5.9704
  6.0503   6.0782   6.1358   6.4118   6.4476   6.5362   6.7323   6.8197
  7.0466   7.0634   7.0853   7.1146   7.2162   7.2246   7.2489   7.2807
  7.2858   7.3034   7.3175   7.3304   7.3564   7.4008   7.4172   7.4672
  7.6149   7.6998   7.7029   7.7266   7.7800   7.8085   7.8536   7.8633
 24.7067  24.8952  50.5431  50.5741  50.5966  50.6334
 --------------------------------------------------------------
 
          Ground-State Mulliken Net Atomic Charges

     Atom                 Charge (a.u.)    Spin (a.u.)
  --------------------------------------------------------
      1 C                    -0.016508      -0.045560
      2 O                    -0.454205       0.033069
      3 C                     0.004281       0.874722
      4 O                    -0.361631       0.084811
      5 O                    -0.377134       0.059770
      6 O                    -0.422358       0.001850
      7 H                     0.258495       0.001330
      8 H                     0.322965      -0.000165
      9 H                     0.355865      -0.004756
     10 H                     0.365190      -0.003934
     11 H                     0.325040      -0.001137
  --------------------------------------------------------
  Sum of atomic charges =     0.000000
  Sum of spin   charges =     1.000000

 -----------------------------------------------------------------
                    Cartesian Multipole Moments
 -----------------------------------------------------------------
    Charge (ESU x 10^10)
                 0.0000
    Dipole Moment (Debye)
         X      -5.9215      Y      -0.8507      Z      -1.0032
       Tot       6.0659
    Quadrupole Moments (Debye-Ang)
        XX     -39.9816     XY      -2.0039     YY     -31.5933
        XZ       8.1265     YZ      -1.2661     ZZ     -36.8750
    Octopole Moments (Debye-Ang^2)
       XXX    -139.1376    XXY       3.9554    XYY     -23.9131
       YYY      23.8243    XXZ      32.0858    XYZ      -3.5323
       YYZ      21.6365    XZZ     -44.6728    YZZ       9.8856
       ZZZ     106.6428
    Hexadecapole Moments (Debye-Ang^3)
      XXXX    -579.3425   XXXY      11.0582   XXYY     -94.1927
      XYYY      -9.7044   YYYY    -182.8659   XXXZ     113.7159
      XXYZ     -19.1345   XYYZ       9.5268   YYYZ     -16.5360
      XXZZ    -130.0354   XYZZ       0.5639   YYZZ     -67.2993
      XZZZ      95.0213   YZZZ     -28.4156   ZZZZ    -321.1182
 -----------------------------------------------------------------
 Total job time:  675.60s(wall), 5201.25s(cpu) 
 Mon Jul 17 16:30:14 2023

        *************************************************************
        *                                                           *
        *  Thank you very much for using Q-Chem.  Have a nice day.  *
        *                                                           *
        *************************************************************


