
Running Job 1 of 2 Q_in.in
qchem Q_in.in_330528.0 /scratch/ari.fischer/qChem1711254.hpc-mn1/qchem330528/ 0
/usr/local/qchem-5.4.1/exe/qcprog.exe_s Q_in.in_330528.0 /scratch/ari.fischer/qChem1711254.hpc-mn1/qchem330528/
                  Welcome to Q-Chem
     A Quantum Leap Into The Future Of Chemistry


 Q-Chem 5.4, Q-Chem, Inc., Pleasanton, CA (2021)

 License issued to: Nanyang Technological University (site)

 E. Epifanovsky,  A. T. B. Gilbert,  Xintian Feng,  Joonho Lee,  Yuezhi Mao,  
 N. Mardirossian,  P. Pokhilko,  A. White,  M. Wormit,  M. P. Coons,  
 A. L. Dempwolff,  Zhengting Gan,  D. Hait,  P. R. Horn,  L. D. Jacobson,  
 I. Kaliman,  J. Kussmann,  A. W. Lange,  Ka Un Lao,  D. S. Levine,  Jie Liu,  
 S. C. McKenzie,  A. F. Morrison,  K. Nanda,  F. Plasser,  D. R. Rehn,  
 M. L. Vidal,  Zhi-Qiang You,  Ying Zhu,  B. Alam,  B. Albrecht,  
 A. Aldossary,  E. Alguire,  J. H. Andersen,  D. Barton,  K. Begam,  A. Behn,  
 Y. A. Bernard,  E. J. Berquist,  H. Burton,  A. Carreras,  K. Carter-Fenk,  
 R. Chakraborty,  A. D. Chien,  K. D. Closser,  V. Cofer-Shabica,  
 S. Dasgupta,  Jia Deng,  M. de Wergifosse,  M. Diedenhofen,  Hainam Do,  
 S. Ehlert,  Po-Tung Fang,  S. Fatehi,  Qingguo Feng,  T. Friedhoff,  
 J. Gayvert,  Qinghui Ge,  G. Gidofalvi,  M. Goldey,  J. Gomes,  
 C. Gonzalez-Espinoza,  S. Gulania,  A. Gunina,  M. W. D. Hanson-Heine,  
 P. H. P. Harbach,  A. W. Hauser,  M. F. Herbst,  M. Hernandez Vera,  
 M. Hodecker,  Z. C. Holden,  S. Houck,  Xunkun Huang,  Kerwin Hui,  
 B. C. Huynh,  M. Ivanov,  Hyunjun Ji,  Hanjie Jiang,  B. Kaduk,  S. Kaehler,  
 K. Khistyaev,  Jaehoon Kim,  P. Klunzinger,  Z. Koczor-Benda,  
 Joong Hoon Koh,  D. Kosenkov,  L. Koulias,  T. Kowalczyk,  C. M. Krauter,  
 K. Kue,  A. Kunitsa,  T. Kus,  A. Landau,  K. V. Lawler,  D. Lefrancois,  
 S. Lehtola,  Rain Li,  Yi-Pei Li,  Jiashu Liang,  M. Liebenthal,  
 Hung-Hsuan Lin,  You-Sheng Lin,  Fenglai Liu,  Kuan-Yu Liu,  
 M. Loipersberger,  A. Luenser,  A. Manjanath,  P. Manohar,  E. Mansoor,  
 S. F. Manzer,  Shan-Ping Mao,  A. V. Marenich,  T. Markovich,  S. Mason,  
 S. A. Maurer,  P. F. McLaughlin,  M. F. S. J. Menger,  J.-M. Mewes,  
 S. A. Mewes,  P. Morgante,  J. W. Mullinax,  K. J. Oosterbaan,  G. Paran,  
 Alexander C. Paul,  Suranjan K. Paul,  F. Pavosevic,  Zheng Pei,  S. Prager,  
 E. I. Proynov,  E. Ramos,  B. Rana,  A. E. Rask,  A. Rettig,  R. M. Richard,  
 F. Rob,  E. Rossomme,  T. Scheele,  M. Scheurer,  M. Schneider,  
 N. Sergueev,  S. M. Sharada,  W. Skomorowski,  D. W. Small,  C. J. Stein,  
 Yu-Chuan Su,  E. J. Sundstrom,  Zhen Tao,  J. Thirman,  T. Tsuchimochi,  
 N. M. Tubman,  S. P. Veccham,  O. Vydrov,  J. Wenzel,  J. Witte,  A. Yamada,  
 Kun Yao,  S. Yeganeh,  S. R. Yost,  A. Zech,  Igor Ying Zhang,  Xing Zhang,  
 Yu Zhang,  D. Zuev,  A. Aspuru-Guzik,  A. T. Bell,  N. A. Besley,  
 K. B. Bravaya,  B. R. Brooks,  D. Casanova,  Jeng-Da Chai,  S. Coriani,  
 C. J. Cramer,  A. E. DePrince, III,  R. A. DiStasio Jr.,  A. Dreuw,  
 B. D. Dunietz,  T. R. Furlani,  W. A. Goddard III,  S. Grimme,  
 S. Hammes-Schiffer,  T. Head-Gordon,  W. J. Hehre,  Chao-Ping Hsu,  
 T.-C. Jagau,  Yousung Jung,  A. Klamt,  Jing Kong,  D. S. Lambrecht,  
 WanZhen Liang,  N. J. Mayhall,  C. W. McCurdy,  J. B. Neaton,  
 C. Ochsenfeld,  J. A. Parkhill,  R. Peverati,  V. A. Rassolov,  Yihan Shao,  
 L. V. Slipchenko,  T. Stauch,  R. P. Steele,  J. E. Subotnik,  
 A. J. W. Thom,  A. Tkatchenko,  D. G. Truhlar,  T. Van Voorhis,  
 T. A. Wesolowski,  K. B. Whaley,  H. L. Woodcock III,  P. M. Zimmerman,  
 S. Faraji,  P. M. W. Gill,  M. Head-Gordon,  J. M. Herbert,  A. I. Krylov

 Additional authors for Version 5.4.1: 
 S. Kotaru,  Shaozhi Li,  Xiangyuan Li,  F. Matz,  A. Molle,  Haisheng Ren,  
 Yingli Su,  Hung-Yi Tsai,  C. Utku,  Fang Wang

 Contributors to earlier versions of Q-Chem not listed above: 
 R. D. Adamson,  B. Austin,  R. Baer,  J. Baker,  G. J. O. Beran,  
 K. Brandhorst,  S. T. Brown,  E. F. C. Byrd,  A. K. Chakraborty,  
 G. K. L. Chan,  Chun-Min Chang,  Yunqing Chen,  C.-L. Cheng,  
 Siu Hung Chien,  D. M. Chipman,  D. L. Crittenden,  H. Dachsel,  
 R. J. Doerksen,  A. D. Dutoi,  R. G. Edgar,  J. Fosso-Tande,  
 L. Fusti-Molnar,  D. Ghosh,  A. Ghysels,  A. Golubeva-Zadorozhnaya,  
 J. Gonthier,  M. S. Gordon,  S. R. Gwaltney,  G. Hawkins,  J. E. Herr,  
 A. Heyden,  S. Hirata,  E. G. Hohenstein,  G. Kedziora,  F. J. Keil,  
 C. Kelley,  Jihan Kim,  R. A. King,  R. Z. Khaliullin,  P. P. Korambath,  
 W. Kurlancheek,  A. Laurent,  A. M. Lee,  M. S. Lee,  S. V. Levchenko,  
 Ching Yeh Lin,  D. Liotard,  E. Livshits,  R. C. Lochan,  I. Lotan,  
 L. A. Martinez-Martinez,  P. E. Maslen,  N. Nair,  D. P. O'Neill,  
 D. Neuhauser,  E. Neuscamman,  C. M. Oana,  R. Olivares-Amaya,  R. Olson,  
 T. M. Perrine,  B. Peters,  P. A. Pieniazek,  A. Prociuk,  Y. M. Rhee,  
 J. Ritchie,  M. A. Rohrdanz,  E. Rosta,  N. J. Russ,  H. F. Schaefer III,  
 M. W. Schmidt,  N. E. Schultz,  S. Sharma,  N. Shenvi,  C. D. Sherrill,  
 A. C. Simmonett,  A. Sodt,  T. Stein,  D. Stuck,  K. S. Thanthiriwatte,  
 V. Vanovschi,  L. Vogt,  Tao Wang,  A. Warshel,  M. A. Watson,  
 C. F. Williams,  Q. Wu,  X. Xu,  Jun Yang,  W. Zhang,  Yan Zhao

 Please cite Q-Chem as follows:
 Y. Shao et al., Mol. Phys. 113, 184-215 (2015)
 DOI: 10.1080/00268976.2014.952696

 Q-Chem 5.4.1 for Intel X86 EM64T Linux

 Parts of Q-Chem use Armadillo 9.800.1 (Horizon Scraper).
 http://arma.sourceforge.net/

 Q-Chem begins on Fri Sep  1 01:07:14 2023  

 Host: 
0

     Scratch files written to /scratch/ari.fischer/qChem1711254.hpc-mn1/qchem330528//
 Aug1521 |scratch|qcdevops|jenkins|workspace|build_RNUM 8249   
 Processing $rem in /usr/local/qchem-5.4.1/config/preferences:
 Processing $rem in /home/ari.fischer/.qchemrc:
 Symmetry turned off for PCM/SM12/SMD calculation


!!********************************************.
!!******************Warning*******************.
!!Desired Analytical derivatives not available.
!!Finite difference job might take a long time.
!!********************************************.
!!********************************************.


 2-order derivative to be evaluated numerically with 1-order analytical derivatives

 Checking the input file for inconsistencies... 	...done.

--------------------------------------------------------------
User input:
--------------------------------------------------------------
$molecule
0 2
C        -0.7810584394   -1.0313684003   -0.0130717950
O        -0.6171866242   -1.7992946399    0.9987064448
O        -1.9573646450   -1.0882447582   -0.6271257013
O        -0.8811540911    0.6028206347    0.9991739583
O        -0.7509082308    0.1715181256    2.2029674936
H        -0.6227170061   -1.0426385845    1.8744591052
H        -1.9241926953   -0.5886526155   -1.4554772085
H         0.0624558320   -0.6954249620   -0.6094695970
$end

$rem
BASIS = 6-311++G(2df,2p)
GUI = 2
JOB_TYPE = Frequency
METHOD = wB97M-V
SOLVENT_METHOD = SMD
SCF_ALGORITHM = DIIS_GDM
MAX_SCF_CYCLES = 400
SCF_CONVERGENCE = 7
THRESH = 12
$end

--------------------------------------------------------------
 ----------------------------------------------------------------
             Standard Nuclear Orientation (Angstroms)
    I     Atom           X                Y                Z
 ----------------------------------------------------------------
    1      C      -0.7810584394    -1.0313684003    -0.0130717950
    2      O      -0.6171866242    -1.7992946399     0.9987064448
    3      O      -1.9573646450    -1.0882447582    -0.6271257013
    4      O      -0.8811540911     0.6028206347     0.9991739583
    5      O      -0.7509082308     0.1715181256     2.2029674936
    6      H      -0.6227170061    -1.0426385845     1.8744591052
    7      H      -1.9241926953    -0.5886526155    -1.4554772085
    8      H       0.0624558320    -0.6954249620    -0.6094695970
 ----------------------------------------------------------------
 Nuclear Repulsion Energy =         189.04333700 hartrees
 There are       21 alpha and       20 beta electrons
 Requested basis set is 6-311++G(2df,2p)
 There are 58 shells and 200 basis functions

 Total QAlloc Memory Limit 288000 MB
 Mega-Array Size       188 MB
 MEM_STATIC part       192 MB
 
 Citation of the SMD model:
 Marenich, A.V.; Cramer, C.J.; Truhlar, D.G.
 J. Phys. Chem. B 2009, 113, 6378-6396.
 iSolventCode=           1
 Solvent: water                                                           
 
 vradii
            1           2           3           4           5           6
    1   1.8500000   1.5200000   1.5200000   1.5200000   1.5200000   1.2000000
            7           8
    1   1.2000000   1.2000000
 Changing PCM_VDW_RADII to SMD_RADIUS
 Discretize the solute cavity surface with Lebedev spheres
	Using 110 Lebedev grid points for each H atom
	Using 194 Lebedev grid points for other atoms
	Atomic van der Waals radii will be scaled by 1.20
 Remove points where switching function is < 1.0e-08
 Keep 722 surface tesserae and discard 578 interior tesserae
 Molecular Surface Area = 86.075 Angst**2

                       Distance Matrix (Angstroms)
             C (  1)   O (  2)   O (  3)   O (  4)   O (  5)   H (  6)
   O (  2)  1.280726
   O (  3)  1.328154  2.223735
   O (  4)  1.924899  2.416575  2.581237
   O (  5)  2.521641  2.313489  3.324450  1.285342
   H (  6)  1.894194  1.157368  2.835717  1.881608  1.264329
   H (  7)  1.892957  3.032645  0.967915  2.921104  3.916462  3.603945
   H (  8)  1.086308  2.065592  2.057740  2.272350  3.053351  2.599985
             H (  7)
   H (  8)  2.161921
 
 A cutoff of  1.0D-12 yielded   1647 shell pairs
 There are     19903 function pairs (     25261 Cartesian)
 Smallest overlap matrix eigenvalue = 4.04E-04
 Guess from superposition of atomic densities
 Warning:  Energy on first SCF cycle will be non-variational
 SAD guess density has 41.000000 electrons

 -----------------------------------------------------------------------
  General SCF calculation program by
  Eric Jon Sundstrom, Paul Horn, Yuezhi Mao, Dmitri Zuev, Alec White,
  David Stuck, Shaama M.S., Shane Yost, Joonho Lee, David Small,
  Daniel Levine, Susi Lehtola, Hugh Burton, Evgeny Epifanovsky,
  Bang C. Huynh
 -----------------------------------------------------------------------
 Exchange:     0.1500 Hartree-Fock + 1.0000 wB97M-V + LR-HF
 Correlation:  1.0000 wB97M-V
 Using SG-2 standard quadrature grid
 Nonlocal Correlation:  VV10 with C = 0.0100 and b = 6.00 and scale = 1.00000
 Grid used for NLC:  SG-1 standard quadrature
 using 8 threads for integral computing
 -------------------------------------------------------
 OpenMP Integral computing Module                
 Release: version 1.0, May 2013, Q-Chem Inc. Pittsburgh 
 -------------------------------------------------------
 
 Citation of the SMD model:
 Marenich, A.V.; Cramer, C.J.; Truhlar, D.G.
 J. Phys. Chem. B 2009, 113, 6378-6396.
 iSolventCode=           1
 Solvent: water                                                           
 
 vradii
            1           2           3           4           5           6
    1   1.8500000   1.5200000   1.5200000   1.5200000   1.5200000   1.2000000
            7           8
    1   1.2000000   1.2000000
 -------------------------------------------------------
 OpenMP BLAS3 based DFT computing Module                
 Release: version 1.0, May 2013, Q-Chem Inc. Pittsburgh 
 -------------------------------------------------------
 A unrestricted SCF calculation will be
 performed using DIIS, GDM
 SCF converges when RMS gradient is below 1.0e-07
 ---------------------------------------
  Cycle       Energy         DIIS error
 ---------------------------------------
    1    -341.3714327246      1.72e-02  
    2    -340.6019877034      2.55e-03  Done DIIS. Switching to GDM
 ---------------------------------------
  Cycle       Energy        RMS Gradient
 ---------------------------------------
    1    -340.6019877034      8.41e-02   Descent step
    2    -340.6908988842      1.88e-02   Normal BFGS step
    3    -340.6994513348      9.01e-03   Normal BFGS step
    4    -340.7001527504      7.76e-03   Normal BFGS step
    5    -340.7003665596      3.30e-03   Normal BFGS step
    6    -340.7004252195      1.30e-03   Normal BFGS step
    7    -340.7004340522      5.85e-04   Normal BFGS step
    8    -340.7004374373      4.06e-04   Normal BFGS step
    9    -340.7004381389      1.78e-04   Normal BFGS step
   10    -340.7004383423      7.18e-05   Normal BFGS step
   11    -340.7004383704      4.26e-05   Normal BFGS step
   12    -340.7004383798      3.58e-05   Normal BFGS step
   13    -340.7004383832      2.66e-05   Normal BFGS step
   14    -340.7004383848      1.56e-05   Normal BFGS step
   15    -340.7004383857      5.52e-06   Normal BFGS step
   16    -340.7004383859      3.54e-06   Normal BFGS step
   17    -340.7004383859      1.53e-06   Normal BFGS step
   18    -340.7004383859      1.02e-06   Normal BFGS step
   19    -340.7004383859      3.90e-07   Normal BFGS step
   20    -340.7004383860      6.26e-08  Convergence criterion met
 ---------------------------------------
 SCF time:   CPU 300.81s  wall 38.00s 
<S^2> =          0.755440810
(3)  G-ENP(liq) elect-nuc-pol free energy of system     -340.700438386 a.u.
(4)  G-CDS(liq) cavity-dispersion-solvent structure 
     free energy                                                2.9172 kcal/mol
(6)  G-S(liq) free energy of system                     -340.695789605 a.u.
 SCF   energy in the final basis set =     -340.6957896051
 Total energy in the final basis set =     -340.6957896051
 
 --------------------------------------------------------------
 
                    Orbital Energies (a.u.)
 --------------------------------------------------------------
 
 Alpha MOs
 -- Occupied --
-19.4368 -19.4342 -19.3893 -19.3509 -10.5105  -1.3487  -1.2501  -1.1734
 -0.9617  -0.7753  -0.7153  -0.6947  -0.6167  -0.6147  -0.6019  -0.5303
 -0.5090  -0.4788  -0.4341  -0.3938  -0.3886
 -- Virtual --
  0.0315   0.0508   0.0602   0.0776   0.0890   0.1058   0.1261   0.1461
  0.1743   0.1899   0.2141   0.2246   0.2374   0.2441   0.2619   0.2700
  0.2756   0.2942   0.3012   0.3028   0.3198   0.3316   0.3460   0.3621
  0.3787   0.3874   0.4057   0.4097   0.4431   0.4902   0.5816   0.5916
  0.6056   0.6462   0.6847   0.7043   0.7495   0.7867   0.8276   0.8532
  0.9079   0.9526   1.0306   1.0337   1.0635   1.0697   1.0866   1.1137
  1.1274   1.1451   1.1511   1.1604   1.1889   1.1927   1.2331   1.2394
  1.2535   1.3435   1.3753   1.4128   1.4440   1.4639   1.4921   1.5370
  1.5596   1.5887   1.6377   1.6766   1.7406   1.7501   1.8227   1.8816
  1.9867   2.0215   2.0846   2.1385   2.1626   2.2181   2.2579   2.2930
  2.3159   2.3890   2.4329   2.4805   2.5481   2.6327   2.6654   2.6860
  2.7783   2.9162   3.0876   3.1569   3.1837   3.2381   3.3163   3.3494
  3.4125   3.4953   3.5250   3.5729   3.6452   3.6745   3.7790   3.8135
  3.8619   3.9066   3.9247   3.9735   4.0983   4.1359   4.2354   4.3380
  4.4498   4.5347   4.6797   4.6866   4.7607   4.8783   5.0119   5.0262
  5.0767   5.1114   5.1195   5.1477   5.1778   5.1974   5.2120   5.2224
  5.2401   5.2417   5.2642   5.3273   5.3496   5.3695   5.4293   5.4618
  5.4791   5.5025   5.5989   5.6203   5.6280   5.6960   5.7794   6.0504
  6.0692   6.1862   6.4972   6.5274   6.6221   6.6751   6.6858   6.8110
  6.9215   6.9798   7.0201   7.0321   7.0812   7.1014   7.1270   7.2370
  7.2470   7.2986   7.3496   7.3760   7.3981   7.4302   7.4795   7.5307
  7.7277   7.7631   7.8059   7.9525   8.0089   8.1303  25.0060  50.4725
 50.4837  50.5587  50.7051
 
 Beta MOs
 -- Occupied --
-19.4209 -19.4196 -19.3894 -19.3510 -10.5108  -1.3215  -1.2486  -1.1730
 -0.9215  -0.7736  -0.7098  -0.6908  -0.6098  -0.5855  -0.5408  -0.5148
 -0.5061  -0.4726  -0.4305  -0.3728
 -- Virtual --
 -0.0259   0.0317   0.0512   0.0607   0.0790   0.0909   0.1069   0.1267
  0.1469   0.1766   0.1930   0.2189   0.2274   0.2390   0.2468   0.2630
  0.2719   0.2791   0.2973   0.3029   0.3091   0.3215   0.3327   0.3486
  0.3629   0.3799   0.3930   0.4057   0.4108   0.4434   0.4909   0.5820
  0.5925   0.6063   0.6481   0.6847   0.7040   0.7501   0.7867   0.8287
  0.8567   0.9078   0.9559   1.0320   1.0395   1.0665   1.0746   1.0975
  1.1288   1.1307   1.1501   1.1575   1.1669   1.1944   1.2075   1.2358
  1.2466   1.2553   1.3497   1.3807   1.4319   1.4464   1.4693   1.4983
  1.5522   1.5640   1.5937   1.6456   1.6959   1.7498   1.7563   1.8312
  1.8824   1.9931   2.0343   2.0883   2.1478   2.1672   2.2235   2.2675
  2.3110   2.3208   2.3918   2.4347   2.4832   2.5544   2.6343   2.6699
  2.6942   2.7780   2.9155   3.0870   3.1547   3.1822   3.2378   3.3176
  3.3484   3.4117   3.4946   3.5241   3.5717   3.6444   3.6744   3.7784
  3.8109   3.8624   3.9062   3.9246   3.9734   4.0961   4.1355   4.2354
  4.3378   4.4498   4.5758   4.6947   4.7127   4.7842   4.8900   5.0424
  5.0793   5.0926   5.1433   5.1538   5.1688   5.1990   5.2200   5.2308
  5.2439   5.2640   5.2708   5.2757   5.3377   5.3585   5.3799   5.4380
  5.4673   5.4866   5.5057   5.6045   5.6258   5.6539   5.7194   5.7801
  6.0503   6.0693   6.1877   6.5044   6.5771   6.6234   6.6753   6.6961
  6.8646   6.9817   7.0133   7.0216   7.0579   7.1330   7.1398   7.1483
  7.2428   7.2792   7.3039   7.3794   7.3953   7.4094   7.4482   7.4827
  7.5492   7.7286   7.7696   7.8096   7.9546   8.0218   8.1498  25.0057
 50.4842  50.4950  50.5591  50.7053
 --------------------------------------------------------------
 
          Ground-State Mulliken Net Atomic Charges

     Atom                 Charge (a.u.)    Spin (a.u.)
  --------------------------------------------------------
      1 C                     0.107527      -0.021529
      2 O                    -0.481384      -0.001530
      3 O                    -0.298730       0.000681
      4 O                    -0.158242       0.536697
      5 O                    -0.160457       0.493386
      6 H                     0.360606      -0.008347
      7 H                     0.344368      -0.000406
      8 H                     0.286313       0.001048
  --------------------------------------------------------
  Sum of atomic charges =    -0.000000
  Sum of spin   charges =     1.000000

 -----------------------------------------------------------------
                    Cartesian Multipole Moments
 -----------------------------------------------------------------
    Charge (ESU x 10^10)
                 0.0000
    Dipole Moment (Debye)
         X       0.7937      Y       0.6531      Z      -4.4758
       Tot       4.5923
    Quadrupole Moments (Debye-Ang)
        XX     -30.5653     XY      -1.9514     YY     -36.2556
        XZ       5.0730     YZ       0.4564     ZZ     -27.1101
    Octopole Moments (Debye-Ang^2)
       XXX      90.2828    XXY      24.3244    XYY      36.4750
       YYY      70.1349    XXZ     -27.8549    XYZ       0.3271
       YYZ     -25.7234    XZZ      23.4409    YZZ      12.5874
       ZZZ     -71.1138
    Hexadecapole Moments (Debye-Ang^3)
      XXXX    -254.1144   XXXY     -72.8784   XXYY     -92.4550
      XYYY     -72.2499   YYYY    -263.2055   XXXZ      44.1230
      XXYZ       1.7414   XYYZ      12.4408   YYYZ      16.1472
      XXZZ     -74.6970   XYZZ     -13.8895   YYZZ     -88.6628
      XZZZ      49.1501   YZZZ      -7.3481   ZZZZ    -282.8605
 -----------------------------------------------------------------
 Calculating analytic gradient of the SCF energy
 Gradient of CDS energy
            1           2           3           4           5           6
    1  -0.0021216  -0.0005548   0.0030648  -0.0000211  -0.0000381   0.0000460
    2  -0.0024386   0.0013829   0.0003473   0.0000533   0.0002641  -0.0000964
    3  -0.0002454  -0.0016980   0.0018781   0.0001951  -0.0000708   0.0002971
            7           8
    1  -0.0002466  -0.0001286
    2   0.0000997   0.0003877
    3  -0.0003687   0.0000127
 Gradient of SCF Energy
            1           2           3           4           5           6
    1  -0.0105116  -0.0009792  -0.0023639  -0.0001442  -0.0002779   0.0011854
    2  -0.0032092  -0.0054250  -0.0120570   0.0002378   0.0015692   0.0013857
    3   0.0105188  -0.0000554   0.0212014   0.0015295  -0.0002895  -0.0001867
            7           8
    1   0.0018660   0.0112254
    2   0.0119299   0.0055685
    3  -0.0213993  -0.0113188
 Max gradient component =       2.140E-02
 RMS gradient           =       8.562E-03
 Computing fast CPCM-SWIG gradient
 Updating gradient with PCM contributions...
 -- total gradient after adding PCM contribution --
---------------------------------------------------
  Atom         X              Y              Z     
---------------------------------------------------
   1       0.000059      -0.000039      -0.000023
   2       0.000048       0.000055       0.000007
   3       0.000004       0.000050       0.000040
   4       0.000009      -0.000028       0.000007
   5      -0.000058      -0.000046      -0.000031
   6      -0.000082      -0.000002       0.000020
   7       0.000019      -0.000062      -0.000039
   8       0.000001       0.000071       0.000018
---------------------------------------------------
 Number of fixed atoms: 0
 Gradient time:  CPU 36.52 s  wall 5.56 s
 ######################################################
 ######################################################
 # Starting finite difference calculation for IDERIV  #
 Finite diff step size:  1.88973e-03 a.u.
 ----------------------------------------------------------------
             Standard Nuclear Orientation (Angstroms)
    I     Atom           X                Y                Z
 ----------------------------------------------------------------
    1      C      -0.7800584394    -1.0313684003    -0.0130717950
    2      O      -0.6171866242    -1.7992946399     0.9987064448
    3      O      -1.9573646450    -1.0882447582    -0.6271257013
    4      O      -0.8811540911     0.6028206347     0.9991739583
    5      O      -0.7509082308     0.1715181256     2.2029674936
    6      H      -0.6227170061    -1.0426385845     1.8744591052
    7      H      -1.9241926953    -0.5886526155    -1.4554772085
    8      H       0.0624558320    -0.6954249620    -0.6094695970
 ----------------------------------------------------------------
 Nuclear Repulsion Energy =         189.03388449 hartrees
 There are       21 alpha and       20 beta electrons
 Discretize the solute cavity surface with Lebedev spheres
	Using 110 Lebedev grid points for each H atom
	Using 194 Lebedev grid points for other atoms
	Atomic van der Waals radii will be scaled by 1.20
 Remove points where switching function is < 1.0e-08
 Keep 722 surface tesserae and discard 578 interior tesserae
 Molecular Surface Area = 86.076 Angst**2

                       Distance Matrix (Angstroms)
             C (  1)   O (  2)   O (  3)   O (  4)   O (  5)   H (  6)
   O (  2)  1.280599
   O (  3)  1.329040  2.223735
   O (  4)  1.924951  2.416575  2.581237
   O (  5)  2.521630  2.313489  3.324450  1.285342
   H (  6)  1.894111  1.157368  2.835717  1.881608  1.264329
   H (  7)  1.893561  3.032645  0.967915  2.921104  3.916462  3.603945
   H (  8)  1.085531  2.065592  2.057740  2.272350  3.053351  2.599985
             H (  7)
   H (  8)  2.161921
 
 Requested basis set is 6-311++G(2df,2p)
 There are 58 shells and 200 basis functions
 A cutoff of  1.0D-12 yielded   1647 shell pairs
 There are     19903 function pairs (     25261 Cartesian)
 Smallest overlap matrix eigenvalue = 4.05E-04
 Guess MOs from SCF MO coefficient file

 -----------------------------------------------------------------------
  General SCF calculation program by
  Eric Jon Sundstrom, Paul Horn, Yuezhi Mao, Dmitri Zuev, Alec White,
  David Stuck, Shaama M.S., Shane Yost, Joonho Lee, David Small,
  Daniel Levine, Susi Lehtola, Hugh Burton, Evgeny Epifanovsky,
  Bang C. Huynh
 -----------------------------------------------------------------------
 Exchange:     0.1500 Hartree-Fock + 1.0000 wB97M-V + LR-HF
 Correlation:  1.0000 wB97M-V
 Using SG-2 standard quadrature grid
 Nonlocal Correlation:  VV10 with C = 0.0100 and b = 6.00 and scale = 1.00000
 Grid used for NLC:  SG-1 standard quadrature
 
 Citation of the SMD model:
 Marenich, A.V.; Cramer, C.J.; Truhlar, D.G.
 J. Phys. Chem. B 2009, 113, 6378-6396.
 iSolventCode=           1
 Solvent: water                                                           
 
 vradii
            1           2           3           4           5           6
    1   1.8500000   1.5200000   1.5200000   1.5200000   1.5200000   1.2000000
            7           8
    1   1.2000000   1.2000000
 -------------------------------------------------------
 OpenMP BLAS3 based DFT computing Module                
 Release: version 1.0, May 2013, Q-Chem Inc. Pittsburgh 
 -------------------------------------------------------
 A unrestricted SCF calculation will be
 performed using Roothaan-Hall, DIIS, GDM
 SCF converges when RMS gradient is below 1.0e-07
 ---------------------------------------
  Cycle       Energy         DIIS error
 ---------------------------------------
    1    -340.6734425012      3.75e-04  Roothaan Step
 ---------------------------------------
  Cycle       Energy         DIIS error
 ---------------------------------------
    1    -340.6953454450      4.17e-04  
    2    -340.6989234926      3.27e-04  Done DIIS. Switching to GDM
 ---------------------------------------
  Cycle       Energy        RMS Gradient
 ---------------------------------------
    1    -340.6989234926      9.66e-03   Normal BFGS step
    2    -340.6987044922      1.67e-02  Line search: overstep
    3    -340.7002954219      3.13e-03   Normal BFGS step
    4    -340.7003957190      2.35e-03   Normal BFGS step
    5    -340.7004254958      1.15e-03   Normal BFGS step
    6    -340.7004323437      1.42e-04   Normal BFGS step
    7    -340.7004328356      2.28e-04   Normal BFGS step
    8    -340.7004330673      9.23e-05   Normal BFGS step
    9    -340.7004331034      5.64e-05   Normal BFGS step
   10    -340.7004331172      1.85e-05   Normal BFGS step
   11    -340.7004331200      1.44e-05   Normal BFGS step
   12    -340.7004331207      3.15e-06   Normal BFGS step
   13    -340.7004331208      2.16e-06   Normal BFGS step
   14    -340.7004331208      1.77e-06   Normal BFGS step
   15    -340.7004331208      1.17e-06   Normal BFGS step
   16    -340.7004331208      6.06e-07   Normal BFGS step
   17    -340.7004331208      2.29e-07   Normal BFGS step
   18    -340.7004331208      1.50e-07   Normal BFGS step
   19    -340.7004331208      5.56e-08  Convergence criterion met
 ---------------------------------------
 SCF time:   CPU 300.18s  wall 37.00s 
<S^2> =          0.755443258
(3)  G-ENP(liq) elect-nuc-pol free energy of system     -340.700433121 a.u.
(4)  G-CDS(liq) cavity-dispersion-solvent structure 
     free energy                                                2.9146 kcal/mol
(6)  G-S(liq) free energy of system                     -340.695788377 a.u.
 SCF   energy in the final basis set =     -340.6957883774
 Total energy in the final basis set =     -340.6957883774
 
 --------------------------------------------------------------
 
                    Orbital Energies (a.u.)
 --------------------------------------------------------------
 
 Alpha MOs
 -- Occupied --
-19.4368 -19.4343 -19.3892 -19.3510 -10.5105  -1.3487  -1.2499  -1.1733
 -0.9618  -0.7753  -0.7153  -0.6947  -0.6167  -0.6147  -0.6019  -0.5302
 -0.5090  -0.4789  -0.4342  -0.3939  -0.3887
 -- Virtual --
  0.0315   0.0508   0.0602   0.0776   0.0890   0.1058   0.1261   0.1461
  0.1743   0.1899   0.2141   0.2246   0.2374   0.2441   0.2619   0.2700
  0.2757   0.2941   0.3012   0.3028   0.3198   0.3316   0.3460   0.3618
  0.3787   0.3874   0.4057   0.4097   0.4429   0.4902   0.5817   0.5917
  0.6056   0.6461   0.6846   0.7043   0.7493   0.7867   0.8276   0.8532
  0.9080   0.9526   1.0306   1.0337   1.0636   1.0697   1.0866   1.1137
  1.1275   1.1451   1.1511   1.1603   1.1889   1.1926   1.2330   1.2394
  1.2536   1.3433   1.3753   1.4127   1.4438   1.4639   1.4922   1.5370
  1.5596   1.5889   1.6379   1.6766   1.7406   1.7502   1.8225   1.8815
  1.9866   2.0215   2.0841   2.1386   2.1625   2.2179   2.2579   2.2930
  2.3159   2.3886   2.4330   2.4801   2.5481   2.6323   2.6654   2.6858
  2.7782   2.9161   3.0873   3.1569   3.1838   3.2381   3.3162   3.3488
  3.4122   3.4952   3.5248   3.5728   3.6451   3.6749   3.7791   3.8134
  3.8625   3.9069   3.9243   3.9738   4.0982   4.1358   4.2360   4.3383
  4.4506   4.5347   4.6797   4.6865   4.7607   4.8782   5.0119   5.0262
  5.0774   5.1113   5.1195   5.1476   5.1776   5.1974   5.2119   5.2224
  5.2400   5.2417   5.2642   5.3273   5.3495   5.3692   5.4293   5.4620
  5.4790   5.5024   5.5991   5.6204   5.6280   5.6960   5.7794   6.0483
  6.0695   6.1862   6.4972   6.5274   6.6213   6.6737   6.6858   6.8110
  6.9214   6.9797   7.0197   7.0321   7.0811   7.1013   7.1270   7.2367
  7.2470   7.2982   7.3495   7.3761   7.3978   7.4302   7.4793   7.5307
  7.7276   7.7631   7.8057   7.9525   8.0088   8.1302  25.0053  50.4724
 50.4837  50.5584  50.7051
 
 Beta MOs
 -- Occupied --
-19.4209 -19.4197 -19.3892 -19.3511 -10.5108  -1.3215  -1.2484  -1.1730
 -0.9215  -0.7735  -0.7098  -0.6908  -0.6098  -0.5855  -0.5408  -0.5147
 -0.5061  -0.4726  -0.4306  -0.3729
 -- Virtual --
 -0.0260   0.0317   0.0512   0.0607   0.0789   0.0908   0.1069   0.1267
  0.1470   0.1766   0.1930   0.2189   0.2274   0.2389   0.2468   0.2630
  0.2719   0.2791   0.2973   0.3029   0.3091   0.3215   0.3327   0.3486
  0.3626   0.3798   0.3930   0.4057   0.4109   0.4433   0.4909   0.5821
  0.5926   0.6063   0.6479   0.6847   0.7040   0.7500   0.7866   0.8287
  0.8567   0.9080   0.9558   1.0320   1.0395   1.0665   1.0746   1.0974
  1.1288   1.1307   1.1501   1.1575   1.1669   1.1943   1.2074   1.2357
  1.2466   1.2554   1.3495   1.3806   1.4319   1.4463   1.4693   1.4985
  1.5523   1.5641   1.5939   1.6458   1.6959   1.7499   1.7563   1.8310
  1.8824   1.9929   2.0342   2.0879   2.1478   2.1670   2.2233   2.2675
  2.3111   2.3207   2.3913   2.4347   2.4828   2.5543   2.6339   2.6699
  2.6942   2.7778   2.9154   3.0867   3.1547   3.1823   3.2377   3.3174
  3.3477   3.4114   3.4945   3.5240   3.5715   3.6444   3.6749   3.7784
  3.8108   3.8631   3.9064   3.9242   3.9736   4.0960   4.1354   4.2360
  4.3381   4.4506   4.5757   4.6947   4.7127   4.7841   4.8899   5.0425
  5.0799   5.0926   5.1434   5.1537   5.1686   5.1990   5.2200   5.2308
  5.2438   5.2639   5.2708   5.2757   5.3377   5.3584   5.3796   5.4380
  5.4675   5.4866   5.5055   5.6048   5.6259   5.6538   5.7194   5.7801
  6.0483   6.0695   6.1876   6.5043   6.5770   6.6226   6.6739   6.6961
  6.8645   6.9816   7.0131   7.0213   7.0579   7.1329   7.1397   7.1482
  7.2426   7.2791   7.3036   7.3791   7.3954   7.4092   7.4481   7.4825
  7.5492   7.7286   7.7695   7.8094   7.9546   8.0217   8.1498  25.0051
 50.4841  50.4949  50.5588  50.7053
 --------------------------------------------------------------
 
          Ground-State Mulliken Net Atomic Charges

     Atom                 Charge (a.u.)    Spin (a.u.)
  --------------------------------------------------------
      1 C                     0.107836      -0.021566
      2 O                    -0.481144      -0.001533
      3 O                    -0.299486       0.000692
      4 O                    -0.158184       0.536722
      5 O                    -0.160372       0.493392
      6 H                     0.360586      -0.008351
      7 H                     0.344208      -0.000405
      8 H                     0.286555       0.001050
  --------------------------------------------------------
  Sum of atomic charges =     0.000000
  Sum of spin   charges =     1.000000

 -----------------------------------------------------------------
                    Cartesian Multipole Moments
 -----------------------------------------------------------------
    Charge (ESU x 10^10)
                 0.0000
    Dipole Moment (Debye)
         X       0.8016      Y       0.6539      Z      -4.4710
       Tot       4.5891
    Quadrupole Moments (Debye-Ang)
        XX     -30.5821     XY      -1.9591     YY     -36.2535
        XZ       5.0649     YZ       0.4522     ZZ     -27.1077
    Octopole Moments (Debye-Ang^2)
       XXX      90.3085    XXY      24.3405    XYY      36.4793
       YYY      70.1313    XXZ     -27.8403    XYZ       0.3357
       YYZ     -25.7114    XZZ      23.4413    YZZ      12.5887
       ZZZ     -71.0940
    Hexadecapole Moments (Debye-Ang^3)
      XXXX    -254.1638   XXXY     -72.9006   XXYY     -92.4690
      XYYY     -72.2494   YYYY    -263.1844   XXXZ      44.0916
      XXYZ       1.7261   XYYZ      12.4211   YYYZ      16.1242
      XXZZ     -74.7033   XYZZ     -13.8890   YYZZ     -88.6561
      XZZZ      49.1225   YZZZ      -7.3585   ZZZZ    -282.8370
 -----------------------------------------------------------------
 Calculating analytic gradient of the SCF energy
 Gradient of CDS energy
            1           2           3           4           5           6
    1  -0.0021514  -0.0005536   0.0030973  -0.0000219  -0.0000384   0.0000460
    2  -0.0024377   0.0013808   0.0003492   0.0000532   0.0002641  -0.0000963
    3  -0.0002640  -0.0016957   0.0018941   0.0001949  -0.0000708   0.0002970
            7           8
    1  -0.0002476  -0.0001303
    2   0.0000995   0.0003871
    3  -0.0003690   0.0000135
 Gradient of SCF Energy
            1           2           3           4           5           6
    1  -0.0093173  -0.0011693  -0.0029139  -0.0002079  -0.0002569   0.0011875
    2  -0.0030662  -0.0054278  -0.0120989   0.0002615   0.0015908   0.0013609
    3   0.0104235  -0.0000377   0.0210206   0.0015321  -0.0002493  -0.0002114
            7           8
    1   0.0018716   0.0108063
    2   0.0119174   0.0054622
    3  -0.0213751  -0.0111027
 Max gradient component =       2.138E-02
 RMS gradient           =       8.449E-03
 Computing fast CPCM-SWIG gradient
 Updating gradient with PCM contributions...
 -- total gradient after adding PCM contribution --
---------------------------------------------------
  Atom         X              Y              Z     
---------------------------------------------------
   1       0.001240       0.000108      -0.000123
   2      -0.000130       0.000056       0.000027
   3      -0.000527       0.000002      -0.000122
   4      -0.000048      -0.000004       0.000009
   5      -0.000037      -0.000028       0.000010
   6      -0.000086      -0.000025      -0.000010
   7       0.000016      -0.000062      -0.000042
   8      -0.000427      -0.000047       0.000252
---------------------------------------------------
 Number of fixed atoms: 0
 Gradient time:  CPU 35.94 s  wall 5.29 s
 ----------------------------------------------------------------
             Standard Nuclear Orientation (Angstroms)
    I     Atom           X                Y                Z
 ----------------------------------------------------------------
    1      C      -0.7820584394    -1.0313684003    -0.0130717950
    2      O      -0.6171866242    -1.7992946399     0.9987064448
    3      O      -1.9573646450    -1.0882447582    -0.6271257013
    4      O      -0.8811540911     0.6028206347     0.9991739583
    5      O      -0.7509082308     0.1715181256     2.2029674936
    6      H      -0.6227170061    -1.0426385845     1.8744591052
    7      H      -1.9241926953    -0.5886526155    -1.4554772085
    8      H       0.0624558320    -0.6954249620    -0.6094695970
 ----------------------------------------------------------------
 Nuclear Repulsion Energy =         189.05278916 hartrees
 There are       21 alpha and       20 beta electrons
 Discretize the solute cavity surface with Lebedev spheres
	Using 110 Lebedev grid points for each H atom
	Using 194 Lebedev grid points for other atoms
	Atomic van der Waals radii will be scaled by 1.20
 Remove points where switching function is < 1.0e-08
 Keep 722 surface tesserae and discard 578 interior tesserae
 Molecular Surface Area = 86.074 Angst**2

                       Distance Matrix (Angstroms)
             C (  1)   O (  2)   O (  3)   O (  4)   O (  5)   H (  6)
   O (  2)  1.280855
   O (  3)  1.327269  2.223735
   O (  4)  1.924847  2.416575  2.581237
   O (  5)  2.521654  2.313489  3.324450  1.285342
   H (  6)  1.894278  1.157368  2.835717  1.881608  1.264329
   H (  7)  1.892353  3.032645  0.967915  2.921104  3.916462  3.603945
   H (  8)  1.087084  2.065592  2.057740  2.272350  3.053351  2.599985
             H (  7)
   H (  8)  2.161921
 
 Requested basis set is 6-311++G(2df,2p)
 There are 58 shells and 200 basis functions
 A cutoff of  1.0D-12 yielded   1647 shell pairs
 There are     19903 function pairs (     25261 Cartesian)
 Smallest overlap matrix eigenvalue = 4.04E-04
 Guess MOs from SCF MO coefficient file

 -----------------------------------------------------------------------
  General SCF calculation program by
  Eric Jon Sundstrom, Paul Horn, Yuezhi Mao, Dmitri Zuev, Alec White,
  David Stuck, Shaama M.S., Shane Yost, Joonho Lee, David Small,
  Daniel Levine, Susi Lehtola, Hugh Burton, Evgeny Epifanovsky,
  Bang C. Huynh
 -----------------------------------------------------------------------
 Exchange:     0.1500 Hartree-Fock + 1.0000 wB97M-V + LR-HF
 Correlation:  1.0000 wB97M-V
 Using SG-2 standard quadrature grid
 Nonlocal Correlation:  VV10 with C = 0.0100 and b = 6.00 and scale = 1.00000
 Grid used for NLC:  SG-1 standard quadrature
 
 Citation of the SMD model:
 Marenich, A.V.; Cramer, C.J.; Truhlar, D.G.
 J. Phys. Chem. B 2009, 113, 6378-6396.
 iSolventCode=           1
 Solvent: water                                                           
 
 vradii
            1           2           3           4           5           6
    1   1.8500000   1.5200000   1.5200000   1.5200000   1.5200000   1.2000000
            7           8
    1   1.2000000   1.2000000
 -------------------------------------------------------
 OpenMP BLAS3 based DFT computing Module                
 Release: version 1.0, May 2013, Q-Chem Inc. Pittsburgh 
 -------------------------------------------------------
 A unrestricted SCF calculation will be
 performed using Roothaan-Hall, DIIS, GDM
 SCF converges when RMS gradient is below 1.0e-07
 ---------------------------------------
  Cycle       Energy         DIIS error
 ---------------------------------------
    1    -340.6734610862      3.74e-04  Roothaan Step
 ---------------------------------------
  Cycle       Energy         DIIS error
 ---------------------------------------
    1    -340.6953693819      4.15e-04  
    2    -340.6989466302      3.26e-04  Done DIIS. Switching to GDM
 ---------------------------------------
  Cycle       Energy        RMS Gradient
 ---------------------------------------
    1    -340.6989466302      9.65e-03   Normal BFGS step
    2    -340.6987324647      1.67e-02  Line search: overstep
    3    -340.7003032547      3.12e-03   Normal BFGS step
    4    -340.7004041142      2.37e-03   Normal BFGS step
    5    -340.7004336290      1.16e-03   Normal BFGS step
    6    -340.7004405641      1.42e-04   Normal BFGS step
    7    -340.7004410614      2.29e-04   Normal BFGS step
    8    -340.7004412995      9.52e-05   Normal BFGS step
    9    -340.7004413383      5.82e-05   Normal BFGS step
   10    -340.7004413544      2.25e-05   Normal BFGS step
   11    -340.7004413581      1.77e-05   Normal BFGS step
   12    -340.7004413593      1.40e-05   Normal BFGS step
   13    -340.7004413598      9.21e-06   Normal BFGS step
   14    -340.7004413600      5.49e-06   Normal BFGS step
   15    -340.7004413601      1.43e-06   Normal BFGS step
   16    -340.7004413601      5.55e-07   Normal BFGS step
   17    -340.7004413601      3.17e-07   Normal BFGS step
   18    -340.7004413601      1.61e-07   Normal BFGS step
   19    -340.7004413601      3.40e-08  Convergence criterion met
 ---------------------------------------
 SCF time:   CPU 301.60s  wall 38.00s 
<S^2> =          0.755438376
(3)  G-ENP(liq) elect-nuc-pol free energy of system     -340.700441360 a.u.
(4)  G-CDS(liq) cavity-dispersion-solvent structure 
     free energy                                                2.9197 kcal/mol
(6)  G-S(liq) free energy of system                     -340.695788598 a.u.
 SCF   energy in the final basis set =     -340.6957885980
 Total energy in the final basis set =     -340.6957885980
 
 --------------------------------------------------------------
 
                    Orbital Energies (a.u.)
 --------------------------------------------------------------
 
 Alpha MOs
 -- Occupied --
-19.4367 -19.4342 -19.3895 -19.3509 -10.5105  -1.3487  -1.2504  -1.1735
 -0.9617  -0.7754  -0.7153  -0.6948  -0.6167  -0.6147  -0.6019  -0.5305
 -0.5090  -0.4788  -0.4341  -0.3938  -0.3886
 -- Virtual --
  0.0315   0.0508   0.0602   0.0777   0.0891   0.1058   0.1261   0.1460
  0.1743   0.1899   0.2141   0.2246   0.2374   0.2440   0.2619   0.2700
  0.2756   0.2942   0.3012   0.3029   0.3198   0.3316   0.3459   0.3623
  0.3787   0.3874   0.4057   0.4097   0.4432   0.4903   0.5815   0.5915
  0.6056   0.6464   0.6847   0.7043   0.7496   0.7868   0.8275   0.8532
  0.9077   0.9527   1.0306   1.0338   1.0635   1.0697   1.0866   1.1138
  1.1274   1.1451   1.1510   1.1605   1.1890   1.1927   1.2332   1.2394
  1.2535   1.3437   1.3754   1.4129   1.4441   1.4639   1.4919   1.5369
  1.5595   1.5884   1.6375   1.6766   1.7405   1.7501   1.8229   1.8816
  1.9869   2.0216   2.0850   2.1385   2.1628   2.2183   2.2579   2.2930
  2.3159   2.3895   2.4329   2.4808   2.5482   2.6331   2.6654   2.6861
  2.7784   2.9163   3.0878   3.1570   3.1837   3.2382   3.3165   3.3501
  3.4129   3.4954   3.5251   3.5731   3.6452   3.6740   3.7790   3.8136
  3.8612   3.9063   3.9252   3.9733   4.0984   4.1359   4.2348   4.3377
  4.4489   4.5347   4.6797   4.6866   4.7607   4.8783   5.0120   5.0263
  5.0760   5.1114   5.1195   5.1478   5.1779   5.1974   5.2120   5.2224
  5.2402   5.2418   5.2642   5.3273   5.3496   5.3697   5.4293   5.4617
  5.4792   5.5026   5.5986   5.6203   5.6279   5.6960   5.7795   6.0524
  6.0690   6.1862   6.4973   6.5275   6.6229   6.6765   6.6859   6.8111
  6.9216   6.9800   7.0205   7.0321   7.0812   7.1015   7.1271   7.2372
  7.2471   7.2989   7.3497   7.3760   7.3983   7.4302   7.4797   7.5307
  7.7277   7.7632   7.8061   7.9525   8.0089   8.1303  25.0066  50.4726
 50.4838  50.5590  50.7051
 
 Beta MOs
 -- Occupied --
-19.4208 -19.4196 -19.3895 -19.3510 -10.5108  -1.3214  -1.2489  -1.1731
 -0.9215  -0.7736  -0.7098  -0.6909  -0.6099  -0.5855  -0.5409  -0.5149
 -0.5061  -0.4725  -0.4304  -0.3728
 -- Virtual --
 -0.0259   0.0317   0.0512   0.0607   0.0790   0.0910   0.1069   0.1268
  0.1469   0.1766   0.1929   0.2189   0.2274   0.2390   0.2468   0.2630
  0.2719   0.2791   0.2973   0.3029   0.3091   0.3215   0.3327   0.3486
  0.3631   0.3799   0.3930   0.4058   0.4108   0.4435   0.4910   0.5819
  0.5924   0.6063   0.6483   0.6848   0.7040   0.7502   0.7867   0.8286
  0.8567   0.9077   0.9559   1.0321   1.0395   1.0665   1.0746   1.0975
  1.1288   1.1307   1.1501   1.1574   1.1670   1.1944   1.2075   1.2358
  1.2466   1.2553   1.3499   1.3808   1.4320   1.4465   1.4693   1.4982
  1.5521   1.5639   1.5935   1.6454   1.6960   1.7497   1.7563   1.8313
  1.8825   1.9932   2.0344   2.0887   2.1477   2.1673   2.2237   2.2675
  2.3110   2.3208   2.3922   2.4346   2.4836   2.5544   2.6348   2.6699
  2.6943   2.7781   2.9156   3.0872   3.1547   3.1822   3.2379   3.3177
  3.3490   3.4121   3.4947   3.5243   3.5718   3.6445   3.6739   3.7784
  3.8110   3.8617   3.9059   3.9250   3.9731   4.0962   4.1356   4.2348
  4.3375   4.4489   4.5758   4.6947   4.7128   4.7842   4.8900   5.0424
  5.0788   5.0925   5.1433   5.1538   5.1691   5.1990   5.2199   5.2308
  5.2439   5.2641   5.2708   5.2757   5.3377   5.3586   5.3801   5.4380
  5.4672   5.4867   5.5058   5.6042   5.6258   5.6540   5.7194   5.7802
  6.0524   6.0691   6.1877   6.5044   6.5771   6.6242   6.6767   6.6962
  6.8646   6.9818   7.0135   7.0219   7.0579   7.1331   7.1398   7.1483
  7.2430   7.2793   7.3042   7.3796   7.3952   7.4095   7.4482   7.4829
  7.5493   7.7286   7.7697   7.8098   7.9546   8.0218   8.1499  25.0064
 50.4843  50.4950  50.5594  50.7053
 --------------------------------------------------------------
 
          Ground-State Mulliken Net Atomic Charges

     Atom                 Charge (a.u.)    Spin (a.u.)
  --------------------------------------------------------
      1 C                     0.107216      -0.021493
      2 O                    -0.481624      -0.001527
      3 O                    -0.297973       0.000670
      4 O                    -0.158300       0.536673
      5 O                    -0.160543       0.493379
      6 H                     0.360626      -0.008342
      7 H                     0.344528      -0.000407
      8 H                     0.286069       0.001046
  --------------------------------------------------------
  Sum of atomic charges =     0.000000
  Sum of spin   charges =     1.000000

 -----------------------------------------------------------------
                    Cartesian Multipole Moments
 -----------------------------------------------------------------
    Charge (ESU x 10^10)
                 0.0000
    Dipole Moment (Debye)
         X       0.7857      Y       0.6524      Z      -4.4806
       Tot       4.5955
    Quadrupole Moments (Debye-Ang)
        XX     -30.5484     XY      -1.9437     YY     -36.2577
        XZ       5.0811     YZ       0.4605     ZZ     -27.1126
    Octopole Moments (Debye-Ang^2)
       XXX      90.2570    XXY      24.3083    XYY      36.4707
       YYY      70.1384    XXZ     -27.8695    XYZ       0.3185
       YYZ     -25.7354    XZZ      23.4405    YZZ      12.5860
       ZZZ     -71.1336
    Hexadecapole Moments (Debye-Ang^3)
      XXXX    -254.0648   XXXY     -72.8561   XXYY     -92.4409
      XYYY     -72.2504   YYYY    -263.2265   XXXZ      44.1543
      XXYZ       1.7568   XYYZ      12.4606   YYYZ      16.1702
      XXZZ     -74.6907   XYZZ     -13.8901   YYZZ     -88.6696
      XZZZ      49.1776   YZZZ      -7.3377   ZZZZ    -282.8840
 -----------------------------------------------------------------
 Calculating analytic gradient of the SCF energy
 Gradient of CDS energy
            1           2           3           4           5           6
    1  -0.0020920  -0.0005560   0.0030327  -0.0000202  -0.0000379   0.0000460
    2  -0.0024395   0.0013849   0.0003453   0.0000534   0.0002642  -0.0000964
    3  -0.0002268  -0.0017004   0.0018622   0.0001952  -0.0000709   0.0002971
            7           8
    1  -0.0002456  -0.0001270
    2   0.0000998   0.0003883
    3  -0.0003684   0.0000119
 Gradient of SCF Energy
            1           2           3           4           5           6
    1  -0.0117079  -0.0007892  -0.0018103  -0.0000804  -0.0002988   0.0011832
    2  -0.0033511  -0.0054224  -0.0120150   0.0002141   0.0015476   0.0014105
    3   0.0106100  -0.0000728   0.0213843   0.0015270  -0.0003297  -0.0001620
            7           8
    1   0.0018604   0.0116429
    2   0.0119424   0.0056739
    3  -0.0214234  -0.0115333
 Max gradient component =       2.142E-02
 RMS gradient           =       8.684E-03
 Computing fast CPCM-SWIG gradient
 Updating gradient with PCM contributions...
 -- total gradient after adding PCM contribution --
---------------------------------------------------
  Atom         X              Y              Z     
---------------------------------------------------
   1      -0.001125      -0.000185       0.000073
   2       0.000226       0.000054      -0.000012
   3       0.000538       0.000099       0.000203
   4       0.000066      -0.000051       0.000006
   5      -0.000079      -0.000063      -0.000071
   6      -0.000077       0.000022       0.000050
   7       0.000022      -0.000062      -0.000035
   8       0.000428       0.000188      -0.000214
---------------------------------------------------
 Number of fixed atoms: 0
 Gradient time:  CPU 36.82 s  wall 5.46 s
 ----------------------------------------------------------------
             Standard Nuclear Orientation (Angstroms)
    I     Atom           X                Y                Z
 ----------------------------------------------------------------
    1      C      -0.7810584394    -1.0303684003    -0.0130717950
    2      O      -0.6171866242    -1.7992946399     0.9987064448
    3      O      -1.9573646450    -1.0882447582    -0.6271257013
    4      O      -0.8811540911     0.6028206347     0.9991739583
    5      O      -0.7509082308     0.1715181256     2.2029674936
    6      H      -0.6227170061    -1.0426385845     1.8744591052
    7      H      -1.9241926953    -0.5886526155    -1.4554772085
    8      H       0.0624558320    -0.6954249620    -0.6094695970
 ----------------------------------------------------------------
 Nuclear Repulsion Energy =         189.04219027 hartrees
 There are       21 alpha and       20 beta electrons
 Discretize the solute cavity surface with Lebedev spheres
	Using 110 Lebedev grid points for each H atom
	Using 194 Lebedev grid points for other atoms
	Atomic van der Waals radii will be scaled by 1.20
 Remove points where switching function is < 1.0e-08
 Keep 722 surface tesserae and discard 578 interior tesserae
 Molecular Surface Area = 86.069 Angst**2

                       Distance Matrix (Angstroms)
             C (  1)   O (  2)   O (  3)   O (  4)   O (  5)   H (  6)
   O (  2)  1.281326
   O (  3)  1.328197  2.223735
   O (  4)  1.924050  2.416575  2.581237
   O (  5)  2.521164  2.313489  3.324450  1.285342
   H (  6)  1.894200  1.157368  2.835717  1.881608  1.264329
   H (  7)  1.892723  3.032645  0.967915  2.921104  3.916462  3.603945
   H (  8)  1.085999  2.065592  2.057740  2.272350  3.053351  2.599985
             H (  7)
   H (  8)  2.161921
 
 Requested basis set is 6-311++G(2df,2p)
 There are 58 shells and 200 basis functions
 A cutoff of  1.0D-12 yielded   1647 shell pairs
 There are     19903 function pairs (     25261 Cartesian)
 Smallest overlap matrix eigenvalue = 4.04E-04
 Guess MOs from SCF MO coefficient file

 -----------------------------------------------------------------------
  General SCF calculation program by
  Eric Jon Sundstrom, Paul Horn, Yuezhi Mao, Dmitri Zuev, Alec White,
  David Stuck, Shaama M.S., Shane Yost, Joonho Lee, David Small,
  Daniel Levine, Susi Lehtola, Hugh Burton, Evgeny Epifanovsky,
  Bang C. Huynh
 -----------------------------------------------------------------------
 Exchange:     0.1500 Hartree-Fock + 1.0000 wB97M-V + LR-HF
 Correlation:  1.0000 wB97M-V
 Using SG-2 standard quadrature grid
 Nonlocal Correlation:  VV10 with C = 0.0100 and b = 6.00 and scale = 1.00000
 Grid used for NLC:  SG-1 standard quadrature
 
 Citation of the SMD model:
 Marenich, A.V.; Cramer, C.J.; Truhlar, D.G.
 J. Phys. Chem. B 2009, 113, 6378-6396.
 iSolventCode=           1
 Solvent: water                                                           
 
 vradii
            1           2           3           4           5           6
    1   1.8500000   1.5200000   1.5200000   1.5200000   1.5200000   1.2000000
            7           8
    1   1.2000000   1.2000000
 -------------------------------------------------------
 OpenMP BLAS3 based DFT computing Module                
 Release: version 1.0, May 2013, Q-Chem Inc. Pittsburgh 
 -------------------------------------------------------
 A unrestricted SCF calculation will be
 performed using Roothaan-Hall, DIIS, GDM
 SCF converges when RMS gradient is below 1.0e-07
 ---------------------------------------
  Cycle       Energy         DIIS error
 ---------------------------------------
    1    -340.6734268120      3.75e-04  Roothaan Step
 ---------------------------------------
  Cycle       Energy         DIIS error
 ---------------------------------------
    1    -340.6953392147      4.17e-04  
    2    -340.6989163302      3.28e-04  Done DIIS. Switching to GDM
 ---------------------------------------
  Cycle       Energy        RMS Gradient
 ---------------------------------------
    1    -340.6989163302      9.74e-03   Normal BFGS step
    2    -340.6986913736      1.68e-02  Line search: overstep
    3    -340.7002955859      3.11e-03   Normal BFGS step
    4    -340.7003959345      2.35e-03   Normal BFGS step
    5    -340.7004257947      1.14e-03   Normal BFGS step
    6    -340.7004326099      1.43e-04   Normal BFGS step
    7    -340.7004330981      2.27e-04   Normal BFGS step
    8    -340.7004333269      8.93e-05   Normal BFGS step
    9    -340.7004333611      5.51e-05   Normal BFGS step
   10    -340.7004333744      1.89e-05   Normal BFGS step
   11    -340.7004333771      1.42e-05   Normal BFGS step
   12    -340.7004333777      3.44e-06   Normal BFGS step
   13    -340.7004333779      2.66e-06   Normal BFGS step
   14    -340.7004333779      2.16e-06   Normal BFGS step
   15    -340.7004333779      1.29e-06   Normal BFGS step
   16    -340.7004333779      6.12e-07   Normal BFGS step
   17    -340.7004333779      2.50e-07   Normal BFGS step
   18    -340.7004333779      1.52e-07   Normal BFGS step
   19    -340.7004333779      5.19e-08  Convergence criterion met
 ---------------------------------------
 SCF time:   CPU 302.68s  wall 38.00s 
<S^2> =          0.755440348
(3)  G-ENP(liq) elect-nuc-pol free energy of system     -340.700433378 a.u.
(4)  G-CDS(liq) cavity-dispersion-solvent structure 
     free energy                                                2.9143 kcal/mol
(6)  G-S(liq) free energy of system                     -340.695789216 a.u.
 SCF   energy in the final basis set =     -340.6957892156
 Total energy in the final basis set =     -340.6957892156
 
 --------------------------------------------------------------
 
                    Orbital Energies (a.u.)
 --------------------------------------------------------------
 
 Alpha MOs
 -- Occupied --
-19.4369 -19.4343 -19.3893 -19.3508 -10.5105  -1.3488  -1.2500  -1.1732
 -0.9618  -0.7753  -0.7153  -0.6947  -0.6167  -0.6147  -0.6019  -0.5303
 -0.5090  -0.4788  -0.4341  -0.3939  -0.3887
 -- Virtual --
  0.0315   0.0508   0.0602   0.0777   0.0890   0.1058   0.1261   0.1460
  0.1743   0.1900   0.2141   0.2246   0.2374   0.2441   0.2619   0.2700
  0.2756   0.2942   0.3012   0.3028   0.3198   0.3316   0.3460   0.3619
  0.3787   0.3874   0.4057   0.4096   0.4430   0.4901   0.5816   0.5915
  0.6056   0.6462   0.6847   0.7041   0.7495   0.7867   0.8276   0.8531
  0.9080   0.9526   1.0307   1.0337   1.0635   1.0697   1.0866   1.1138
  1.1275   1.1452   1.1512   1.1604   1.1889   1.1926   1.2332   1.2396
  1.2537   1.3434   1.3753   1.4127   1.4439   1.4638   1.4921   1.5370
  1.5596   1.5886   1.6376   1.6765   1.7405   1.7500   1.8227   1.8816
  1.9867   2.0217   2.0842   2.1383   2.1627   2.2181   2.2579   2.2928
  2.3160   2.3888   2.4330   2.4801   2.5477   2.6324   2.6654   2.6859
  2.7780   2.9162   3.0880   3.1570   3.1842   3.2386   3.3165   3.3495
  3.4122   3.4955   3.5252   3.5727   3.6453   3.6745   3.7791   3.8135
  3.8622   3.9068   3.9246   3.9730   4.0982   4.1358   4.2354   4.3383
  4.4498   4.5347   4.6797   4.6866   4.7607   4.8783   5.0119   5.0262
  5.0773   5.1114   5.1195   5.1478   5.1778   5.1973   5.2120   5.2224
  5.2400   5.2418   5.2643   5.3274   5.3496   5.3698   5.4294   5.4615
  5.4791   5.5023   5.5986   5.6200   5.6278   5.6960   5.7796   6.0500
  6.0690   6.1847   6.4971   6.5273   6.6217   6.6725   6.6858   6.8110
  6.9214   6.9800   7.0192   7.0321   7.0811   7.1013   7.1271   7.2369
  7.2472   7.2985   7.3495   7.3760   7.3979   7.4302   7.4797   7.5307
  7.7273   7.7629   7.8058   7.9526   8.0088   8.1302  25.0048  50.4725
 50.4837  50.5586  50.7045
 
 Beta MOs
 -- Occupied --
-19.4210 -19.4197 -19.3894 -19.3510 -10.5108  -1.3216  -1.2485  -1.1728
 -0.9216  -0.7735  -0.7098  -0.6908  -0.6098  -0.5855  -0.5409  -0.5148
 -0.5061  -0.4725  -0.4305  -0.3729
 -- Virtual --
 -0.0260   0.0317   0.0512   0.0607   0.0790   0.0909   0.1069   0.1268
  0.1469   0.1766   0.1930   0.2189   0.2274   0.2390   0.2468   0.2630
  0.2719   0.2791   0.2973   0.3029   0.3091   0.3215   0.3327   0.3486
  0.3627   0.3798   0.3930   0.4057   0.4108   0.4433   0.4908   0.5820
  0.5924   0.6063   0.6481   0.6848   0.7038   0.7501   0.7867   0.8287
  0.8567   0.9080   0.9559   1.0321   1.0395   1.0666   1.0746   1.0974
  1.1288   1.1308   1.1503   1.1574   1.1670   1.1943   1.2075   1.2359
  1.2467   1.2555   1.3496   1.3806   1.4319   1.4464   1.4691   1.4984
  1.5521   1.5640   1.5936   1.6456   1.6958   1.7497   1.7562   1.8311
  1.8824   1.9930   2.0345   2.0880   2.1476   2.1672   2.2236   2.2675
  2.3109   2.3208   2.3916   2.4348   2.4828   2.5540   2.6340   2.6699
  2.6942   2.7776   2.9155   3.0874   3.1548   3.1827   3.2382   3.3178
  3.3484   3.4114   3.4948   3.5243   3.5715   3.6446   3.6744   3.7785
  3.8110   3.8627   3.9063   3.9245   3.9728   4.0960   4.1354   4.2354
  4.3382   4.4498   4.5757   4.6947   4.7127   4.7842   4.8900   5.0425
  5.0799   5.0926   5.1435   5.1537   5.1688   5.1990   5.2199   5.2308
  5.2439   5.2641   5.2708   5.2757   5.3378   5.3585   5.3802   5.4381
  5.4670   5.4865   5.5055   5.6041   5.6256   5.6538   5.7194   5.7803
  6.0500   6.0690   6.1862   6.5042   6.5769   6.6231   6.6727   6.6961
  6.8645   6.9816   7.0133   7.0208   7.0579   7.1329   7.1397   7.1483
  7.2427   7.2792   7.3039   7.3793   7.3951   7.4093   7.4482   7.4830
  7.5492   7.7282   7.7694   7.8095   7.9547   8.0217   8.1497  25.0046
 50.4842  50.4949  50.5590  50.7047
 --------------------------------------------------------------
 
          Ground-State Mulliken Net Atomic Charges

     Atom                 Charge (a.u.)    Spin (a.u.)
  --------------------------------------------------------
      1 C                     0.107336      -0.021553
      2 O                    -0.481954      -0.001534
      3 O                    -0.298756       0.000684
      4 O                    -0.157813       0.536415
      5 O                    -0.160171       0.493678
      6 H                     0.360582      -0.008335
      7 H                     0.344355      -0.000407
      8 H                     0.286421       0.001051
  --------------------------------------------------------
  Sum of atomic charges =    -0.000000
  Sum of spin   charges =     1.000000

 -----------------------------------------------------------------
                    Cartesian Multipole Moments
 -----------------------------------------------------------------
    Charge (ESU x 10^10)
                -0.0000
    Dipole Moment (Debye)
         X       0.7936      Y       0.6619      Z      -4.4742
       Tot       4.5920
    Quadrupole Moments (Debye-Ang)
        XX     -30.5654     XY      -1.9578     YY     -36.2696
        XZ       5.0703     YZ       0.4630     ZZ     -27.1053
    Octopole Moments (Debye-Ang^2)
       XXX      90.2829    XXY      24.3273    XYY      36.4838
       YYY      70.1608    XXZ     -27.8520    XYZ       0.3230
       YYZ     -25.7306    XZZ      23.4373    YZZ      12.5919
       ZZZ     -71.0980
    Hexadecapole Moments (Debye-Ang^3)
      XXXX    -254.1128   XXXY     -72.8735   XXYY     -92.4550
      XYYY     -72.2656   YYYY    -263.2265   XXXZ      44.1177
      XXYZ       1.7511   XYYZ      12.4442   YYYZ      16.1735
      XXZZ     -74.6920   XYZZ     -13.8919   YYZZ     -88.6611
      XZZZ      49.1340   YZZZ      -7.3297   ZZZZ    -282.8105
 -----------------------------------------------------------------
 Calculating analytic gradient of the SCF energy
 Gradient of CDS energy
            1           2           3           4           5           6
    1  -0.0021207  -0.0005570   0.0030667  -0.0000213  -0.0000382   0.0000461
    2  -0.0024494   0.0013930   0.0003495   0.0000532   0.0002642  -0.0000967
    3  -0.0002363  -0.0017093   0.0018793   0.0001956  -0.0000708   0.0002973
            7           8
    1  -0.0002468  -0.0001288
    2   0.0000992   0.0003869
    3  -0.0003687   0.0000129
 Gradient of SCF Energy
            1           2           3           4           5           6
    1  -0.0103685  -0.0009808  -0.0024380  -0.0001434  -0.0002645   0.0011766
    2  -0.0026874  -0.0058093  -0.0122021   0.0003412   0.0014597   0.0015415
    3   0.0100155   0.0001691   0.0212376   0.0015587  -0.0002797  -0.0001024
            7           8
    1   0.0019171   0.0111015
    2   0.0119342   0.0054222
    3  -0.0213753  -0.0112235
 Max gradient component =       2.138E-02
 RMS gradient           =       8.529E-03
 Computing fast CPCM-SWIG gradient
 Updating gradient with PCM contributions...
 -- total gradient after adding PCM contribution --
---------------------------------------------------
  Atom         X              Y              Z     
---------------------------------------------------
   1       0.000205       0.000451      -0.000531
   2       0.000050      -0.000317       0.000230
   3      -0.000065      -0.000082       0.000078
   4       0.000008       0.000070       0.000041
   5      -0.000046      -0.000150      -0.000025
   6      -0.000090       0.000145       0.000107
   7       0.000066      -0.000059      -0.000020
   8      -0.000127      -0.000060       0.000120
---------------------------------------------------
 Number of fixed atoms: 0
 Gradient time:  CPU 36.86 s  wall 5.57 s
 ----------------------------------------------------------------
             Standard Nuclear Orientation (Angstroms)
    I     Atom           X                Y                Z
 ----------------------------------------------------------------
    1      C      -0.7810584394    -1.0323684003    -0.0130717950
    2      O      -0.6171866242    -1.7992946399     0.9987064448
    3      O      -1.9573646450    -1.0882447582    -0.6271257013
    4      O      -0.8811540911     0.6028206347     0.9991739583
    5      O      -0.7509082308     0.1715181256     2.2029674936
    6      H      -0.6227170061    -1.0426385845     1.8744591052
    7      H      -1.9241926953    -0.5886526155    -1.4554772085
    8      H       0.0624558320    -0.6954249620    -0.6094695970
 ----------------------------------------------------------------
 Nuclear Repulsion Energy =         189.04447491 hartrees
 There are       21 alpha and       20 beta electrons
 Discretize the solute cavity surface with Lebedev spheres
	Using 110 Lebedev grid points for each H atom
	Using 194 Lebedev grid points for other atoms
	Atomic van der Waals radii will be scaled by 1.20
 Remove points where switching function is < 1.0e-08
 Keep 722 surface tesserae and discard 578 interior tesserae
 Molecular Surface Area = 86.081 Angst**2

                       Distance Matrix (Angstroms)
             C (  1)   O (  2)   O (  3)   O (  4)   O (  5)   H (  6)
   O (  2)  1.280127
   O (  3)  1.328112  2.223735
   O (  4)  1.925748  2.416575  2.581237
   O (  5)  2.522119  2.313489  3.324450  1.285342
   H (  6)  1.894189  1.157368  2.835717  1.881608  1.264329
   H (  7)  1.893191  3.032645  0.967915  2.921104  3.916462  3.603945
   H (  8)  1.086617  2.065592  2.057740  2.272350  3.053351  2.599985
             H (  7)
   H (  8)  2.161921
 
 Requested basis set is 6-311++G(2df,2p)
 There are 58 shells and 200 basis functions
 A cutoff of  1.0D-12 yielded   1647 shell pairs
 There are     19903 function pairs (     25261 Cartesian)
 Smallest overlap matrix eigenvalue = 4.04E-04
 Guess MOs from SCF MO coefficient file

 -----------------------------------------------------------------------
  General SCF calculation program by
  Eric Jon Sundstrom, Paul Horn, Yuezhi Mao, Dmitri Zuev, Alec White,
  David Stuck, Shaama M.S., Shane Yost, Joonho Lee, David Small,
  Daniel Levine, Susi Lehtola, Hugh Burton, Evgeny Epifanovsky,
  Bang C. Huynh
 -----------------------------------------------------------------------
 Exchange:     0.1500 Hartree-Fock + 1.0000 wB97M-V + LR-HF
 Correlation:  1.0000 wB97M-V
 Using SG-2 standard quadrature grid
 Nonlocal Correlation:  VV10 with C = 0.0100 and b = 6.00 and scale = 1.00000
 Grid used for NLC:  SG-1 standard quadrature
 
 Citation of the SMD model:
 Marenich, A.V.; Cramer, C.J.; Truhlar, D.G.
 J. Phys. Chem. B 2009, 113, 6378-6396.
 iSolventCode=           1
 Solvent: water                                                           
 
 vradii
            1           2           3           4           5           6
    1   1.8500000   1.5200000   1.5200000   1.5200000   1.5200000   1.2000000
            7           8
    1   1.2000000   1.2000000
 -------------------------------------------------------
 OpenMP BLAS3 based DFT computing Module                
 Release: version 1.0, May 2013, Q-Chem Inc. Pittsburgh 
 -------------------------------------------------------
 A unrestricted SCF calculation will be
 performed using Roothaan-Hall, DIIS, GDM
 SCF converges when RMS gradient is below 1.0e-07
 ---------------------------------------
  Cycle       Energy         DIIS error
 ---------------------------------------
    1    -340.6734563108      3.74e-04  Roothaan Step
 ---------------------------------------
  Cycle       Energy         DIIS error
 ---------------------------------------
    1    -340.6953698969      4.16e-04  
    2    -340.6989503432      3.25e-04  Done DIIS. Switching to GDM
 ---------------------------------------
  Cycle       Energy        RMS Gradient
 ---------------------------------------
    1    -340.6989503432      9.55e-03   Normal BFGS step
    2    -340.6987409028      1.67e-02  Line search: overstep
    3    -340.7003044246      3.17e-03   Normal BFGS step
    4    -340.7004050838      2.37e-03   Normal BFGS step
    5    -340.7004346988      1.18e-03   Normal BFGS step
    6    -340.7004416381      1.42e-04   Normal BFGS step
    7    -340.7004421438      2.30e-04   Normal BFGS step
    8    -340.7004423851      9.98e-05   Normal BFGS step
    9    -340.7004424261      5.96e-05   Normal BFGS step
   10    -340.7004424413      1.79e-05   Normal BFGS step
   11    -340.7004424444      1.53e-05   Normal BFGS step
   12    -340.7004424452      5.61e-06   Normal BFGS step
   13    -340.7004424453      4.29e-06   Normal BFGS step
   14    -340.7004424454      3.32e-06   Normal BFGS step
   15    -340.7004424454      1.47e-06   Normal BFGS step
   16    -340.7004424454      5.39e-07   Normal BFGS step
   17    -340.7004424454      3.01e-07   Normal BFGS step
   18    -340.7004424454      1.63e-07   Normal BFGS step
   19    -340.7004424454      4.58e-08  Convergence criterion met
 ---------------------------------------
 SCF time:   CPU 303.84s  wall 39.00s 
<S^2> =          0.755441259
(3)  G-ENP(liq) elect-nuc-pol free energy of system     -340.700442445 a.u.
(4)  G-CDS(liq) cavity-dispersion-solvent structure 
     free energy                                                2.9200 kcal/mol
(6)  G-S(liq) free energy of system                     -340.695789066 a.u.
 SCF   energy in the final basis set =     -340.6957890663
 Total energy in the final basis set =     -340.6957890663
 
 --------------------------------------------------------------
 
                    Orbital Energies (a.u.)
 --------------------------------------------------------------
 
 Alpha MOs
 -- Occupied --
-19.4366 -19.4342 -19.3893 -19.3510 -10.5105  -1.3486  -1.2502  -1.1736
 -0.9616  -0.7754  -0.7153  -0.6948  -0.6166  -0.6147  -0.6019  -0.5304
 -0.5091  -0.4789  -0.4342  -0.3937  -0.3885
 -- Virtual --
  0.0315   0.0508   0.0602   0.0776   0.0890   0.1058   0.1261   0.1461
  0.1743   0.1899   0.2141   0.2246   0.2374   0.2440   0.2619   0.2700
  0.2756   0.2942   0.3012   0.3028   0.3198   0.3316   0.3460   0.3622
  0.3787   0.3874   0.4058   0.4097   0.4432   0.4903   0.5815   0.5917
  0.6056   0.6463   0.6846   0.7045   0.7494   0.7867   0.8276   0.8532
  0.9077   0.9526   1.0305   1.0338   1.0636   1.0696   1.0866   1.1136
  1.1274   1.1450   1.1510   1.1604   1.1890   1.1927   1.2330   1.2392
  1.2534   1.3436   1.3754   1.4128   1.4440   1.4641   1.4920   1.5369
  1.5595   1.5887   1.6377   1.6766   1.7407   1.7502   1.8227   1.8816
  1.9868   2.0213   2.0849   2.1387   2.1625   2.2180   2.2579   2.2932
  2.3159   2.3892   2.4328   2.4808   2.5485   2.6330   2.6655   2.6860
  2.7787   2.9163   3.0871   3.1569   3.1833   3.2377   3.3162   3.3494
  3.4128   3.4951   3.5248   3.5731   3.6450   3.6745   3.7790   3.8134
  3.8616   3.9065   3.9248   3.9741   4.0984   4.1359   4.2354   4.3376
  4.4497   4.5348   4.6797   4.6866   4.7607   4.8783   5.0119   5.0262
  5.0761   5.1113   5.1195   5.1477   5.1777   5.1974   5.2120   5.2224
  5.2401   5.2417   5.2641   5.3272   5.3495   5.3692   5.4292   5.4622
  5.4792   5.5027   5.5991   5.6207   5.6282   5.6960   5.7793   6.0507
  6.0695   6.1876   6.4974   6.5275   6.6225   6.6777   6.6859   6.8111
  6.9216   6.9797   7.0210   7.0320   7.0813   7.1015   7.1270   7.2370
  7.2469   7.2986   7.3497   7.3761   7.3983   7.4302   7.4793   7.5307
  7.7280   7.7634   7.8060   7.9524   8.0089   8.1303  25.0071  50.4726
 50.4838  50.5587  50.7057
 
 Beta MOs
 -- Occupied --
-19.4207 -19.4196 -19.3894 -19.3511 -10.5108  -1.3214  -1.2487  -1.1732
 -0.9214  -0.7736  -0.7098  -0.6909  -0.6099  -0.5854  -0.5408  -0.5148
 -0.5062  -0.4726  -0.4306  -0.3727
 -- Virtual --
 -0.0258   0.0317   0.0512   0.0607   0.0790   0.0909   0.1069   0.1267
  0.1469   0.1766   0.1929   0.2189   0.2274   0.2390   0.2468   0.2630
  0.2719   0.2791   0.2973   0.3029   0.3091   0.3215   0.3327   0.3486
  0.3631   0.3799   0.3930   0.4058   0.4109   0.4435   0.4910   0.5819
  0.5926   0.6063   0.6481   0.6847   0.7042   0.7500   0.7867   0.8286
  0.8568   0.9077   0.9559   1.0320   1.0396   1.0665   1.0746   1.0975
  1.1288   1.1305   1.1499   1.1576   1.1669   1.1944   1.2075   1.2356
  1.2465   1.2552   1.3498   1.3808   1.4320   1.4464   1.4694   1.4982
  1.5522   1.5639   1.5937   1.6457   1.6960   1.7500   1.7564   1.8312
  1.8824   1.9931   2.0341   2.0887   2.1480   2.1671   2.2234   2.2676
  2.3111   2.3208   2.3920   2.4346   2.4835   2.5547   2.6346   2.6700
  2.6943   2.7783   2.9155   3.0865   3.1547   3.1818   3.2374   3.3174
  3.3483   3.4120   3.4944   3.5239   3.5719   3.6443   3.6744   3.7784
  3.8109   3.8621   3.9060   3.9247   3.9739   4.0962   4.1356   4.2354
  4.3375   4.4497   4.5758   4.6947   4.7127   4.7841   4.8900   5.0423
  5.0788   5.0925   5.1432   5.1538   5.1689   5.1990   5.2200   5.2308
  5.2439   5.2639   5.2708   5.2757   5.3376   5.3585   5.3796   5.4378
  5.4676   5.4868   5.5058   5.6049   5.6262   5.6539   5.7194   5.7800
  6.0507   6.0695   6.1891   6.5045   6.5772   6.6238   6.6779   6.6962
  6.8646   6.9818   7.0133   7.0224   7.0578   7.1331   7.1398   7.1483
  7.2429   7.2792   7.3038   7.3795   7.3954   7.4095   7.4482   7.4825
  7.5492   7.7289   7.7698   7.8097   7.9545   8.0218   8.1499  25.0068
 50.4843  50.4950  50.5591  50.7059
 --------------------------------------------------------------
 
          Ground-State Mulliken Net Atomic Charges

     Atom                 Charge (a.u.)    Spin (a.u.)
  --------------------------------------------------------
      1 C                     0.107717      -0.021505
      2 O                    -0.480814      -0.001526
      3 O                    -0.298704       0.000678
      4 O                    -0.158671       0.536979
      5 O                    -0.160743       0.493093
      6 H                     0.360630      -0.008359
      7 H                     0.344381      -0.000406
      8 H                     0.286204       0.001045
  --------------------------------------------------------
  Sum of atomic charges =     0.000000
  Sum of spin   charges =     1.000000

 -----------------------------------------------------------------
                    Cartesian Multipole Moments
 -----------------------------------------------------------------
    Charge (ESU x 10^10)
                 0.0000
    Dipole Moment (Debye)
         X       0.7938      Y       0.6444      Z      -4.4774
       Tot       4.5927
    Quadrupole Moments (Debye-Ang)
        XX     -30.5651     XY      -1.9450     YY     -36.2417
        XZ       5.0756     YZ       0.4498     ZZ     -27.1150
    Octopole Moments (Debye-Ang^2)
       XXX      90.2827    XXY      24.3215    XYY      36.4662
       YYY      70.1089    XXZ     -27.8577    XYZ       0.3312
       YYZ     -25.7162    XZZ      23.4445    YZZ      12.5828
       ZZZ     -71.1295
    Hexadecapole Moments (Debye-Ang^3)
      XXXX    -254.1161   XXXY     -72.8833   XXYY     -92.4549
      XYYY     -72.2342   YYYY    -263.1844   XXXZ      44.1282
      XXYZ       1.7317   XYYZ      12.4375   YYYZ      16.1209
      XXZZ     -74.7021   XYZZ     -13.8872   YYZZ     -88.6646
      XZZZ      49.1661   YZZZ      -7.3665   ZZZZ    -282.9104
 -----------------------------------------------------------------
 Calculating analytic gradient of the SCF energy
 Gradient of CDS energy
            1           2           3           4           5           6
    1  -0.0021225  -0.0005527   0.0030630  -0.0000209  -0.0000381   0.0000459
    2  -0.0024279   0.0013728   0.0003451   0.0000534   0.0002641  -0.0000960
    3  -0.0002544  -0.0016869   0.0018770   0.0001945  -0.0000709   0.0002969
            7           8
    1  -0.0002463  -0.0001285
    2   0.0001001   0.0003885
    3  -0.0003686   0.0000125
 Gradient of SCF Energy
            1           2           3           4           5           6
    1  -0.0106543  -0.0009779  -0.0022898  -0.0001449  -0.0002912   0.0011941
    2  -0.0037321  -0.0050399  -0.0119121   0.0001344   0.0016788   0.0012299
    3   0.0110236  -0.0002817   0.0211650   0.0015006  -0.0002993  -0.0002711
            7           8
    1   0.0018148   0.0113491
    2   0.0119257   0.0057151
    3  -0.0214232  -0.0114139
 Max gradient component =       2.142E-02
 RMS gradient           =       8.600E-03
 Computing fast CPCM-SWIG gradient
 Updating gradient with PCM contributions...
 -- total gradient after adding PCM contribution --
---------------------------------------------------
  Atom         X              Y              Z     
---------------------------------------------------
   1      -0.000088      -0.000531       0.000486
   2       0.000046       0.000427      -0.000217
   3       0.000072       0.000182       0.000001
   4       0.000010      -0.000126      -0.000026
   5      -0.000070       0.000059      -0.000036
   6      -0.000074      -0.000149      -0.000067
   7      -0.000028      -0.000065      -0.000057
   8       0.000130       0.000202      -0.000083
---------------------------------------------------
 Number of fixed atoms: 0
 Gradient time:  CPU 36.90 s  wall 5.52 s
 ----------------------------------------------------------------
             Standard Nuclear Orientation (Angstroms)
    I     Atom           X                Y                Z
 ----------------------------------------------------------------
    1      C      -0.7810584394    -1.0313684003    -0.0120717950
    2      O      -0.6171866242    -1.7992946399     0.9987064448
    3      O      -1.9573646450    -1.0882447582    -0.6271257013
    4      O      -0.8811540911     0.6028206347     0.9991739583
    5      O      -0.7509082308     0.1715181256     2.2029674936
    6      H      -0.6227170061    -1.0426385845     1.8744591052
    7      H      -1.9241926953    -0.5886526155    -1.4554772085
    8      H       0.0624558320    -0.6954249620    -0.6094695970
 ----------------------------------------------------------------
 Nuclear Repulsion Energy =         189.05476290 hartrees
 There are       21 alpha and       20 beta electrons
 Discretize the solute cavity surface with Lebedev spheres
	Using 110 Lebedev grid points for each H atom
	Using 194 Lebedev grid points for other atoms
	Atomic van der Waals radii will be scaled by 1.20
 Remove points where switching function is < 1.0e-08
 Keep 722 surface tesserae and discard 578 interior tesserae
 Molecular Surface Area = 86.072 Angst**2

                       Distance Matrix (Angstroms)
             C (  1)   O (  2)   O (  3)   O (  4)   O (  5)   H (  6)
   O (  2)  1.279936
   O (  3)  1.328617  2.223735
   O (  4)  1.924373  2.416575  2.581237
   O (  5)  2.520763  2.313489  3.324450  1.285342
   H (  6)  1.893198  1.157368  2.835717  1.881608  1.264329
   H (  7)  1.893719  3.032645  0.967915  2.921104  3.916462  3.603945
   H (  8)  1.086857  2.065592  2.057740  2.272350  3.053351  2.599985
             H (  7)
   H (  8)  2.161921
 
 Requested basis set is 6-311++G(2df,2p)
 There are 58 shells and 200 basis functions
 A cutoff of  1.0D-12 yielded   1647 shell pairs
 There are     19903 function pairs (     25261 Cartesian)
 Smallest overlap matrix eigenvalue = 4.05E-04
 Guess MOs from SCF MO coefficient file

 -----------------------------------------------------------------------
  General SCF calculation program by
  Eric Jon Sundstrom, Paul Horn, Yuezhi Mao, Dmitri Zuev, Alec White,
  David Stuck, Shaama M.S., Shane Yost, Joonho Lee, David Small,
  Daniel Levine, Susi Lehtola, Hugh Burton, Evgeny Epifanovsky,
  Bang C. Huynh
 -----------------------------------------------------------------------
 Exchange:     0.1500 Hartree-Fock + 1.0000 wB97M-V + LR-HF
 Correlation:  1.0000 wB97M-V
 Using SG-2 standard quadrature grid
 Nonlocal Correlation:  VV10 with C = 0.0100 and b = 6.00 and scale = 1.00000
 Grid used for NLC:  SG-1 standard quadrature
 
 Citation of the SMD model:
 Marenich, A.V.; Cramer, C.J.; Truhlar, D.G.
 J. Phys. Chem. B 2009, 113, 6378-6396.
 iSolventCode=           1
 Solvent: water                                                           
 
 vradii
            1           2           3           4           5           6
    1   1.8500000   1.5200000   1.5200000   1.5200000   1.5200000   1.2000000
            7           8
    1   1.2000000   1.2000000
 -------------------------------------------------------
 OpenMP BLAS3 based DFT computing Module                
 Release: version 1.0, May 2013, Q-Chem Inc. Pittsburgh 
 -------------------------------------------------------
 A unrestricted SCF calculation will be
 performed using Roothaan-Hall, DIIS, GDM
 SCF converges when RMS gradient is below 1.0e-07
 ---------------------------------------
  Cycle       Energy         DIIS error
 ---------------------------------------
    1    -340.6734651280      3.75e-04  Roothaan Step
 ---------------------------------------
  Cycle       Energy         DIIS error
 ---------------------------------------
    1    -340.6953713969      4.16e-04  
    2    -340.6989405975      3.26e-04  Done DIIS. Switching to GDM
 ---------------------------------------
  Cycle       Energy        RMS Gradient
 ---------------------------------------
    1    -340.6989405975      9.69e-03   Normal BFGS step
    2    -340.6987226748      1.67e-02  Line search: overstep
    3    -340.7002998147      3.10e-03   Normal BFGS step
    4    -340.7003995987      2.35e-03   Normal BFGS step
    5    -340.7004292812      1.13e-03   Normal BFGS step
    6    -340.7004360416      1.41e-04   Normal BFGS step
    7    -340.7004365253      2.27e-04   Normal BFGS step
    8    -340.7004367513      8.93e-05   Normal BFGS step
    9    -340.7004367858      5.55e-05   Normal BFGS step
   10    -340.7004367996      1.90e-05   Normal BFGS step
   11    -340.7004368026      1.51e-05   Normal BFGS step
   12    -340.7004368034      9.33e-06   Normal BFGS step
   13    -340.7004368037      6.70e-06   Normal BFGS step
   14    -340.7004368038      4.68e-06   Normal BFGS step
[...]
  5.9798   6.1066   6.2392   6.2782   6.5251   6.5496   6.6266   6.8274
  6.8524   6.9751   7.0326   7.0507   7.0929   7.1165   7.1532   7.1981
  7.2349   7.2728   7.3453   7.3904   7.4137   7.4380   7.4982   7.5231
  7.6199   7.6724   7.7526   7.8276   7.8675   8.0272   8.1080  24.8078
 50.4472  50.4801  50.5536  50.6204
 --------------------------------------------------------------
 
          Ground-State Mulliken Net Atomic Charges

     Atom                 Charge (a.u.)    Spin (a.u.)
  --------------------------------------------------------
      1 C                     0.110400      -0.012552
      2 O                    -0.425414      -0.000833
      3 O                    -0.368884       0.012642
      4 O                    -0.055438       0.346162
      5 O                    -0.183525       0.653595
      6 H                     0.315114      -0.003957
      7 H                     0.342427      -0.001125
      8 H                     0.265320       0.006069
  --------------------------------------------------------
  Sum of atomic charges =    -0.000000
  Sum of spin   charges =     1.000000

 -----------------------------------------------------------------
                    Cartesian Multipole Moments
 -----------------------------------------------------------------
    Charge (ESU x 10^10)
                -0.0000
    Dipole Moment (Debye)
         X       1.2493      Y       0.7832      Z      -3.3160
       Tot       3.6290
    Quadrupole Moments (Debye-Ang)
        XX     -31.9404     XY      -2.2848     YY     -36.1690
        XZ       4.1211     YZ      -0.9979     ZZ     -25.7130
    Octopole Moments (Debye-Ang^2)
       XXX      94.9402    XXY      23.6876    XYY      37.0755
       YYY      66.3316    XXZ     -25.9047    XYZ       1.2074
       YYZ     -22.6289    XZZ      23.2620    YZZ       8.3354
       ZZZ     -65.2619
    Hexadecapole Moments (Debye-Ang^3)
      XXXX    -268.4417   XXXY     -69.5323   XXYY     -91.9909
      XYYY     -68.0717   YYYY    -253.0684   XXXZ      41.6755
      XXYZ       1.7327   XYYZ      11.1749   YYYZ      12.1183
      XXZZ     -71.7050   XYZZ     -10.4135   YYZZ     -78.8476
      XZZZ      46.5484   YZZZ     -11.4998   ZZZZ    -249.5451
 -----------------------------------------------------------------
 Calculating analytic gradient of the SCF energy
 Gradient of CDS energy
            1           2           3           4           5           6
    1  -0.0027016  -0.0010734   0.0041931  -0.0000878  -0.0000388   0.0000544
    2  -0.0050972   0.0038340   0.0007995   0.0000269   0.0002113  -0.0001481
    3   0.0008907  -0.0036535   0.0026993   0.0002230  -0.0000545   0.0003893
            7           8
    1  -0.0002526  -0.0000933
    2   0.0000355   0.0003380
    3  -0.0004071  -0.0000873
 Gradient of SCF Energy
            1           2           3           4           5           6
    1  -0.0196314   0.0008217   0.0012033   0.0005592   0.0005869  -0.0000978
    2  -0.0051918   0.0110787  -0.0096734   0.0010303  -0.0027562  -0.0099658
    3   0.0091505   0.0306365   0.0225390  -0.0031781   0.0046496  -0.0273225
            7           8
    1   0.0023350   0.0142232
    2   0.0107721   0.0047061
    3  -0.0220590  -0.0144160
 Max gradient component =       3.064E-02
 RMS gradient           =       1.305E-02
 Computing fast CPCM-SWIG gradient
 Updating gradient with PCM contributions...
 -- total gradient after adding PCM contribution --
---------------------------------------------------
  Atom         X              Y              Z     
---------------------------------------------------
   1      -0.009558      -0.004798      -0.001720
   2       0.002295       0.017806       0.035802
   3       0.003867       0.000893       0.002857
   4       0.000314      -0.000130      -0.002893
   5       0.000827      -0.004233       0.004159
   6      -0.001337      -0.012788      -0.031493
   7      -0.000620       0.001371      -0.002936
   8       0.004212       0.001879      -0.003777
---------------------------------------------------
 Number of fixed atoms: 0
 Gradient time:  CPU 36.70 s  wall 5.38 s
rPathMan2.  file_steps = 952
 IRC --- Status = 3.  Assess initial corrector step
 IRC --- bisector search: b =  0.000000 E =     -340.709422 G.B =  -0.021471
 IRC --- bisector search: b =  0.106066 E =     -340.708316 G.B =   0.045749
 IRC --- performed gradient/energy interpolation
 IRC --- bisector search:  estimate b(min) =   3.570019252740423E-002
 ----------------------------------------------------------------
             Standard Nuclear Orientation (Angstroms)
    I     Atom           X                Y                Z
 ----------------------------------------------------------------
    1      C      -0.7862968270    -0.8374925519     0.0981889932
    2      O      -0.6003943302    -1.8250686560     1.0130433330
    3      O      -1.9658797634    -1.0204163808    -0.5766553610
    4      O      -0.9158783246     0.4899750160     0.8344206051
    5      O      -0.7798038018     0.3796104993     2.1167257927
    6      H      -0.5762642162    -1.3856398037     1.8906116523
    7      H      -1.9090354911    -0.5958834930    -1.4419370219
    8      H       0.0614269041    -0.6763697117    -0.5642353298
 ----------------------------------------------------------------
 Nuclear Repulsion Energy =         192.02530552 hartrees
 There are       21 alpha and       20 beta electrons
 Discretize the solute cavity surface with Lebedev spheres
	Using 110 Lebedev grid points for each H atom
	Using 194 Lebedev grid points for other atoms
	Atomic van der Waals radii will be scaled by 1.20
 Remove points where switching function is < 1.0e-08
 Keep 720 surface tesserae and discard 580 interior tesserae
 Molecular Surface Area = 84.979 Angst**2

                       Distance Matrix (Angstroms)
             C (  1)   O (  2)   O (  3)   O (  4)   O (  5)   H (  6)
   O (  2)  1.358979
   O (  3)  1.371237  2.244807
   O (  4)  1.523482  2.343259  2.318387
   O (  5)  2.357090  2.472026  3.259011  1.294219
   H (  6)  1.886096  0.981736  2.855140  2.179176  1.791275
   H (  7)  1.921173  3.041441  0.965490  2.710582  3.858864  3.675034
   H (  8)  1.087843  2.060419  2.056330  2.066815  3.001719  2.633626
             H (  7)
   H (  8)  2.158601
 
 Applying Cartesian multipole field
    Component          Value
    ---------          -----
     (2,0,0)        1.00000E-11
     (0,2,0)        2.00000E-11
     (0,0,2)       -3.00000E-11
 Nucleus-field energy     =    -0.0000000011 hartrees
 Requested basis set is 6-311++G(2df,2p)
 There are 58 shells and 200 basis functions
 A cutoff of  1.0D-12 yielded   1653 shell pairs
 There are     19964 function pairs (     25333 Cartesian)
 Smallest overlap matrix eigenvalue = 4.20E-04
 Guess MOs from SCF MO coefficient file

 -----------------------------------------------------------------------
  General SCF calculation program by
  Eric Jon Sundstrom, Paul Horn, Yuezhi Mao, Dmitri Zuev, Alec White,
  David Stuck, Shaama M.S., Shane Yost, Joonho Lee, David Small,
  Daniel Levine, Susi Lehtola, Hugh Burton, Evgeny Epifanovsky,
  Bang C. Huynh
 -----------------------------------------------------------------------
 Exchange:     0.1500 Hartree-Fock + 1.0000 wB97M-V + LR-HF
 Correlation:  1.0000 wB97M-V
 Using SG-2 standard quadrature grid
 Nonlocal Correlation:  VV10 with C = 0.0100 and b = 6.00 and scale = 1.00000
 Grid used for NLC:  SG-1 standard quadrature
 
 Citation of the SMD model:
 Marenich, A.V.; Cramer, C.J.; Truhlar, D.G.
 J. Phys. Chem. B 2009, 113, 6378-6396.
 iSolventCode=           1
 Solvent: water                                                           
 
 vradii
            1           2           3           4           5           6
    1   1.8500000   1.5200000   1.5200000   1.5200000   1.5200000   1.2000000
            7           8
    1   1.2000000   1.2000000
 -------------------------------------------------------
 OpenMP BLAS3 based DFT computing Module                
 Release: version 1.0, May 2013, Q-Chem Inc. Pittsburgh 
 -------------------------------------------------------
 A unrestricted SCF calculation will be
 performed using Roothaan-Hall, DIIS, GDM
 SCF converges when RMS gradient is below 1.0e-07
 ---------------------------------------
  Cycle       Energy         DIIS error
 ---------------------------------------
    1    -340.6870632163      4.20e-04  Roothaan Step
 ---------------------------------------
  Cycle       Energy         DIIS error
 ---------------------------------------
    1    -340.7085642260      4.24e-04  
    2    -340.7116083604      3.62e-04  Done DIIS. Switching to GDM
 ---------------------------------------
  Cycle       Energy        RMS Gradient
 ---------------------------------------
    1    -340.7116083604      1.65e-02   Normal BFGS step
    2    -340.7110753417      2.70e-02  Line search: overstep
    3    -340.7132464057      3.59e-03   Normal BFGS step
    4    -340.7133288405      1.80e-03   Normal BFGS step
    5    -340.7133586939      9.30e-04   Normal BFGS step
    6    -340.7133628598      2.87e-04   Normal BFGS step
    7    -340.7133632822      2.33e-04   Normal BFGS step
    8    -340.7133635026      1.84e-04   Normal BFGS step
    9    -340.7133636320      1.16e-04   Normal BFGS step
   10    -340.7133636683      7.33e-05   Normal BFGS step
   11    -340.7133636909      4.72e-05   Normal BFGS step
   12    -340.7133637034      2.09e-05   Normal BFGS step
   13    -340.7133637066      6.28e-06   Normal BFGS step
   14    -340.7133637072      2.72e-06   Normal BFGS step
   15    -340.7133637074      9.48e-07   Normal BFGS step
   16    -340.7133637074      3.99e-07   Normal BFGS step
   17    -340.7133637074      1.20e-07   Normal BFGS step
   18    -340.7133637074      4.23e-08  Convergence criterion met
 ---------------------------------------
 SCF time:   CPU 289.91s  wall 36.00s 
<S^2> =          0.754143125
(3)  G-ENP(liq) elect-nuc-pol free energy of system     -340.713363707 a.u.
(4)  G-CDS(liq) cavity-dispersion-solvent structure 
     free energy                                                2.2168 kcal/mol
(6)  G-S(liq) free energy of system                     -340.709831089 a.u.
 SCF   energy in the final basis set =     -340.7098310886
 Total energy in the final basis set =     -340.7098310886
 
 --------------------------------------------------------------
 
                    Orbital Energies (a.u.)
 --------------------------------------------------------------
 
 Alpha MOs
 -- Occupied --
-19.4681 -19.4307 -19.3690 -19.3615 -10.5136  -1.3610  -1.2310  -1.1670
 -1.0030  -0.7895  -0.7123  -0.6945  -0.6369  -0.6166  -0.5970  -0.5121
 -0.5072  -0.4805  -0.4399  -0.4048  -0.4007
 -- Virtual --
  0.0314   0.0484   0.0605   0.0813   0.1036   0.1249   0.1408   0.1478
  0.1933   0.2045   0.2167   0.2262   0.2385   0.2522   0.2574   0.2660
  0.2685   0.2888   0.3006   0.3054   0.3255   0.3280   0.3371   0.3521
  0.3676   0.3766   0.4035   0.4129   0.4182   0.4790   0.5872   0.6016
  0.6061   0.6265   0.6687   0.6951   0.7680   0.7783   0.8514   0.8635
  0.9286   0.9811   1.0152   1.0369   1.0578   1.0686   1.0973   1.1181
  1.1258   1.1419   1.1472   1.1534   1.2017   1.2154   1.2379   1.2571
  1.2705   1.3145   1.3683   1.4027   1.4388   1.4738   1.4860   1.5303
  1.5574   1.5775   1.6436   1.6529   1.7096   1.7337   1.8314   1.8708
  1.9099   1.9532   1.9854   2.1245   2.1490   2.2274   2.2489   2.2556
  2.2727   2.3257   2.4290   2.4617   2.4858   2.5734   2.6367   2.6482
  2.7867   2.8912   3.1602   3.2387   3.2728   3.3046   3.3506   3.3908
  3.4847   3.5483   3.5671   3.6731   3.6817   3.6945   3.7916   3.8296
  3.8393   3.8800   3.9002   4.1091   4.1714   4.2327   4.2506   4.3670
  4.4047   4.5513   4.6761   4.7631   4.8535   4.9239   5.0290   5.0731
  5.1049   5.1171   5.1302   5.1507   5.1769   5.2010   5.2094   5.2196
  5.2377   5.2542   5.2904   5.3108   5.3596   5.3861   5.4249   5.4641
  5.5371   5.5717   5.6345   5.6439   5.7009   5.8434   5.8713   5.9766
  6.0847   6.2272   6.2501   6.4985   6.5448   6.6357   6.7767   6.8155
  6.9161   6.9621   7.0254   7.0650   7.0784   7.1291   7.1770   7.2288
  7.2532   7.3096   7.3403   7.3596   7.4149   7.4485   7.4807   7.6155
  7.6444   7.7433   7.8220   7.8715   8.0202   8.0949  24.8102  50.4356
 50.4709  50.5488  50.6010
 
 Beta MOs
 -- Occupied --
-19.4567 -19.4124 -19.3686 -19.3616 -10.5140  -1.3356  -1.2279  -1.1666
 -0.9679  -0.7829  -0.7028  -0.6860  -0.6289  -0.5870  -0.5463  -0.5068
 -0.4958  -0.4729  -0.4331  -0.3899
 -- Virtual --
 -0.0352   0.0318   0.0490   0.0608   0.0821   0.1046   0.1258   0.1440
  0.1515   0.1973   0.2059   0.2212   0.2298   0.2403   0.2539   0.2618
  0.2679   0.2718   0.2924   0.3022   0.3078   0.3263   0.3306   0.3380
  0.3551   0.3721   0.3784   0.4055   0.4136   0.4193   0.4800   0.5880
  0.6025   0.6066   0.6278   0.6689   0.6954   0.7689   0.7790   0.8519
  0.8686   0.9291   0.9833   1.0170   1.0422   1.0616   1.0771   1.1051
  1.1235   1.1370   1.1508   1.1534   1.1655   1.2119   1.2209   1.2408
  1.2601   1.2789   1.3174   1.3718   1.4055   1.4538   1.4774   1.4976
  1.5395   1.5621   1.5900   1.6504   1.6661   1.7163   1.7465   1.8463
  1.8744   1.9160   1.9572   1.9914   2.1338   2.1593   2.2311   2.2568
  2.2651   2.2801   2.3314   2.4314   2.4638   2.4910   2.5774   2.6419
  2.6591   2.7875   2.8930   3.1613   3.2390   3.2730   3.3055   3.3508
  3.3905   3.4850   3.5493   3.5668   3.6751   3.6829   3.6946   3.7914
  3.8295   3.8391   3.8804   3.9007   4.1093   4.1718   4.2341   4.2509
  4.3685   4.4060   4.5895   4.6972   4.7887   4.8657   4.9379   5.0990
  5.1145   5.1359   5.1456   5.1614   5.1694   5.2006   5.2183   5.2288
  5.2393   5.2556   5.2710   5.2948   5.3281   5.3661   5.4025   5.4372
  5.4678   5.5457   5.5725   5.6466   5.6520   5.7159   5.8514   5.8771
  5.9796   6.0870   6.2300   6.2559   6.5397   6.5553   6.6473   6.8166
  6.8508   6.9771   7.0274   7.0378   7.0825   7.1132   7.1562   7.2015
  7.2328   7.2623   7.3131   7.3466   7.3906   7.4394   7.4550   7.5005
  7.6201   7.6475   7.7483   7.8280   7.8747   8.0327   8.1156  24.8099
 50.4485  50.4805  50.5492  50.6014
 --------------------------------------------------------------
 
          Ground-State Mulliken Net Atomic Charges

     Atom                 Charge (a.u.)    Spin (a.u.)
  --------------------------------------------------------
      1 C                     0.110119      -0.012444
      2 O                    -0.435516      -0.001072
      3 O                    -0.376137       0.013259
      4 O                    -0.049487       0.346318
      5 O                    -0.181302       0.653050
      6 H                     0.326617      -0.004063
      7 H                     0.339087      -0.001126
      8 H                     0.266619       0.006078
  --------------------------------------------------------
  Sum of atomic charges =     0.000000
  Sum of spin   charges =     1.000000

 -----------------------------------------------------------------
                    Cartesian Multipole Moments
 -----------------------------------------------------------------
    Charge (ESU x 10^10)
                -0.0000
    Dipole Moment (Debye)
         X       1.3537      Y       0.8418      Z      -3.1062
       Tot       3.4914
    Quadrupole Moments (Debye-Ang)
        XX     -32.2413     XY      -2.4102     YY     -36.2617
        XZ       3.9147     YZ      -1.1818     ZZ     -25.4428
    Octopole Moments (Debye-Ang^2)
       XXX      95.7467    XXY      23.9699    XYY      37.2776
       YYY      66.6148    XXZ     -25.4674    XYZ       1.3643
       YYZ     -22.1562    XZZ      23.2497    YZZ       7.9818
       ZZZ     -63.9547
    Hexadecapole Moments (Debye-Ang^3)
      XXXX    -270.8546   XXXY     -70.0390   XXYY     -92.7632
      XYYY     -68.3266   YYYY    -255.4370   XXXZ      40.7882
      XXYZ       1.3846   XYYZ      10.8320   YYYZ      11.0484
      XXZZ     -71.7248   XYZZ     -10.2596   YYZZ     -78.0612
      XZZZ      45.5308   YZZZ     -12.9248   ZZZZ    -245.9141
 -----------------------------------------------------------------
 Calculating analytic gradient of the SCF energy
 Gradient of CDS energy
            1           2           3           4           5           6
    1  -0.0030728  -0.0010406   0.0045907  -0.0001050  -0.0000425   0.0000532
    2  -0.0051153   0.0037935   0.0008742   0.0000243   0.0002141  -0.0001456
    3   0.0005055  -0.0034722   0.0029087   0.0002253  -0.0000538   0.0003812
            7           8
    1  -0.0002685  -0.0001145
    2   0.0000295   0.0003253
    3  -0.0004146  -0.0000801
 Gradient of SCF Energy
            1           2           3           4           5           6
    1  -0.0088682  -0.0017422  -0.0036837   0.0003964  -0.0001552   0.0010137
    2   0.0003806  -0.0081167  -0.0107181   0.0008117   0.0004162   0.0057598
    3   0.0104718  -0.0074694   0.0187094   0.0003659   0.0006762   0.0061158
            7           8
    1   0.0031812   0.0098579
    2   0.0090770   0.0023896
    3  -0.0184176  -0.0104522
 Max gradient component =       1.871E-02
 RMS gradient           =       7.929E-03
 Computing fast CPCM-SWIG gradient
 Updating gradient with PCM contributions...
 -- total gradient after adding PCM contribution --
---------------------------------------------------
  Atom         X              Y              Z     
---------------------------------------------------
   1       0.001012       0.000534      -0.000447
   2      -0.000096      -0.001218      -0.001540
   3      -0.000645      -0.000302      -0.000354
   4       0.000191      -0.000305       0.000752
   5       0.000115      -0.001263       0.000161
   6      -0.000361       0.002978       0.001287
   7      -0.000051      -0.000123       0.000067
   8      -0.000165      -0.000302       0.000075
---------------------------------------------------
 Number of fixed atoms: 0
 Gradient time:  CPU 37.13 s  wall 5.50 s
rPathMan2.  file_steps = 952
 IRC --- Status = 4.  Checking bisector search.
 IRC --- Bisector search finished successfully.
 ------------------------------------------------------------------------
 Reaction path following.  The coordinates are cartesian              
 Step   9 E=    -340.709831 |G|=  0.004375 S_lin= 0.9891 S_tot= 1.0411
 ------------------------------------------------------------------------
  IRC -- convergence criterion reached.
 ----------------------------------------------------------------
             Standard Nuclear Orientation (Angstroms)
    I     Atom           X                Y                Z
 ----------------------------------------------------------------
    1      C      -0.7810584394    -1.0313684003    -0.0130717950
    2      O      -0.6171866242    -1.7992946399     0.9987064448
    3      O      -1.9573646450    -1.0882447582    -0.6271257013
    4      O      -0.8811540911     0.6028206347     0.9991739583
    5      O      -0.7509082308     0.1715181256     2.2029674936
    6      H      -0.6227170061    -1.0426385845     1.8744591052
    7      H      -1.9241926953    -0.5886526155    -1.4554772085
    8      H       0.0624558320    -0.6954249620    -0.6094695970
 ----------------------------------------------------------------
 Nuclear Repulsion Energy =         189.04333700 hartrees
 There are       21 alpha and       20 beta electrons
 Here is where we should summarize the reaction path
 Total job time:  2936.70s(wall), 22798.45s(cpu) 
 Fri Sep  1 02:32:06 2023

        *************************************************************
        *                                                           *
        *  Thank you very much for using Q-Chem.  Have a nice day.  *
        *                                                           *
        *************************************************************


