
Running Job 1 of 2 Q_in.in
qchem Q_in.in_238502.0 /scratch/ari.fischer/qChem1711053.hpc-mn1/qchem238502/ 0
/usr/local/qchem-5.4.1/exe/qcprog.exe_s Q_in.in_238502.0 /scratch/ari.fischer/qChem1711053.hpc-mn1/qchem238502/
                  Welcome to Q-Chem
     A Quantum Leap Into The Future Of Chemistry


 Q-Chem 5.4, Q-Chem, Inc., Pleasanton, CA (2021)

 License issued to: Nanyang Technological University (site)

 E. Epifanovsky,  A. T. B. Gilbert,  Xintian Feng,  Joonho Lee,  Yuezhi Mao,  
 N. Mardirossian,  P. Pokhilko,  A. White,  M. Wormit,  M. P. Coons,  
 A. L. Dempwolff,  Zhengting Gan,  D. Hait,  P. R. Horn,  L. D. Jacobson,  
 I. Kaliman,  J. Kussmann,  A. W. Lange,  Ka Un Lao,  D. S. Levine,  Jie Liu,  
 S. C. McKenzie,  A. F. Morrison,  K. Nanda,  F. Plasser,  D. R. Rehn,  
 M. L. Vidal,  Zhi-Qiang You,  Ying Zhu,  B. Alam,  B. Albrecht,  
 A. Aldossary,  E. Alguire,  J. H. Andersen,  D. Barton,  K. Begam,  A. Behn,  
 Y. A. Bernard,  E. J. Berquist,  H. Burton,  A. Carreras,  K. Carter-Fenk,  
 R. Chakraborty,  A. D. Chien,  K. D. Closser,  V. Cofer-Shabica,  
 S. Dasgupta,  Jia Deng,  M. de Wergifosse,  M. Diedenhofen,  Hainam Do,  
 S. Ehlert,  Po-Tung Fang,  S. Fatehi,  Qingguo Feng,  T. Friedhoff,  
 J. Gayvert,  Qinghui Ge,  G. Gidofalvi,  M. Goldey,  J. Gomes,  
 C. Gonzalez-Espinoza,  S. Gulania,  A. Gunina,  M. W. D. Hanson-Heine,  
 P. H. P. Harbach,  A. W. Hauser,  M. F. Herbst,  M. Hernandez Vera,  
 M. Hodecker,  Z. C. Holden,  S. Houck,  Xunkun Huang,  Kerwin Hui,  
 B. C. Huynh,  M. Ivanov,  Hyunjun Ji,  Hanjie Jiang,  B. Kaduk,  S. Kaehler,  
 K. Khistyaev,  Jaehoon Kim,  P. Klunzinger,  Z. Koczor-Benda,  
 Joong Hoon Koh,  D. Kosenkov,  L. Koulias,  T. Kowalczyk,  C. M. Krauter,  
 K. Kue,  A. Kunitsa,  T. Kus,  A. Landau,  K. V. Lawler,  D. Lefrancois,  
 S. Lehtola,  Rain Li,  Yi-Pei Li,  Jiashu Liang,  M. Liebenthal,  
 Hung-Hsuan Lin,  You-Sheng Lin,  Fenglai Liu,  Kuan-Yu Liu,  
 M. Loipersberger,  A. Luenser,  A. Manjanath,  P. Manohar,  E. Mansoor,  
 S. F. Manzer,  Shan-Ping Mao,  A. V. Marenich,  T. Markovich,  S. Mason,  
 S. A. Maurer,  P. F. McLaughlin,  M. F. S. J. Menger,  J.-M. Mewes,  
 S. A. Mewes,  P. Morgante,  J. W. Mullinax,  K. J. Oosterbaan,  G. Paran,  
 Alexander C. Paul,  Suranjan K. Paul,  F. Pavosevic,  Zheng Pei,  S. Prager,  
 E. I. Proynov,  E. Ramos,  B. Rana,  A. E. Rask,  A. Rettig,  R. M. Richard,  
 F. Rob,  E. Rossomme,  T. Scheele,  M. Scheurer,  M. Schneider,  
 N. Sergueev,  S. M. Sharada,  W. Skomorowski,  D. W. Small,  C. J. Stein,  
 Yu-Chuan Su,  E. J. Sundstrom,  Zhen Tao,  J. Thirman,  T. Tsuchimochi,  
 N. M. Tubman,  S. P. Veccham,  O. Vydrov,  J. Wenzel,  J. Witte,  A. Yamada,  
 Kun Yao,  S. Yeganeh,  S. R. Yost,  A. Zech,  Igor Ying Zhang,  Xing Zhang,  
 Yu Zhang,  D. Zuev,  A. Aspuru-Guzik,  A. T. Bell,  N. A. Besley,  
 K. B. Bravaya,  B. R. Brooks,  D. Casanova,  Jeng-Da Chai,  S. Coriani,  
 C. J. Cramer,  A. E. DePrince, III,  R. A. DiStasio Jr.,  A. Dreuw,  
 B. D. Dunietz,  T. R. Furlani,  W. A. Goddard III,  S. Grimme,  
 S. Hammes-Schiffer,  T. Head-Gordon,  W. J. Hehre,  Chao-Ping Hsu,  
 T.-C. Jagau,  Yousung Jung,  A. Klamt,  Jing Kong,  D. S. Lambrecht,  
 WanZhen Liang,  N. J. Mayhall,  C. W. McCurdy,  J. B. Neaton,  
 C. Ochsenfeld,  J. A. Parkhill,  R. Peverati,  V. A. Rassolov,  Yihan Shao,  
 L. V. Slipchenko,  T. Stauch,  R. P. Steele,  J. E. Subotnik,  
 A. J. W. Thom,  A. Tkatchenko,  D. G. Truhlar,  T. Van Voorhis,  
 T. A. Wesolowski,  K. B. Whaley,  H. L. Woodcock III,  P. M. Zimmerman,  
 S. Faraji,  P. M. W. Gill,  M. Head-Gordon,  J. M. Herbert,  A. I. Krylov

 Additional authors for Version 5.4.1: 
 S. Kotaru,  Shaozhi Li,  Xiangyuan Li,  F. Matz,  A. Molle,  Haisheng Ren,  
 Yingli Su,  Hung-Yi Tsai,  C. Utku,  Fang Wang

 Contributors to earlier versions of Q-Chem not listed above: 
 R. D. Adamson,  B. Austin,  R. Baer,  J. Baker,  G. J. O. Beran,  
 K. Brandhorst,  S. T. Brown,  E. F. C. Byrd,  A. K. Chakraborty,  
 G. K. L. Chan,  Chun-Min Chang,  Yunqing Chen,  C.-L. Cheng,  
 Siu Hung Chien,  D. M. Chipman,  D. L. Crittenden,  H. Dachsel,  
 R. J. Doerksen,  A. D. Dutoi,  R. G. Edgar,  J. Fosso-Tande,  
 L. Fusti-Molnar,  D. Ghosh,  A. Ghysels,  A. Golubeva-Zadorozhnaya,  
 J. Gonthier,  M. S. Gordon,  S. R. Gwaltney,  G. Hawkins,  J. E. Herr,  
 A. Heyden,  S. Hirata,  E. G. Hohenstein,  G. Kedziora,  F. J. Keil,  
 C. Kelley,  Jihan Kim,  R. A. King,  R. Z. Khaliullin,  P. P. Korambath,  
 W. Kurlancheek,  A. Laurent,  A. M. Lee,  M. S. Lee,  S. V. Levchenko,  
 Ching Yeh Lin,  D. Liotard,  E. Livshits,  R. C. Lochan,  I. Lotan,  
 L. A. Martinez-Martinez,  P. E. Maslen,  N. Nair,  D. P. O'Neill,  
 D. Neuhauser,  E. Neuscamman,  C. M. Oana,  R. Olivares-Amaya,  R. Olson,  
 T. M. Perrine,  B. Peters,  P. A. Pieniazek,  A. Prociuk,  Y. M. Rhee,  
 J. Ritchie,  M. A. Rohrdanz,  E. Rosta,  N. J. Russ,  H. F. Schaefer III,  
 M. W. Schmidt,  N. E. Schultz,  S. Sharma,  N. Shenvi,  C. D. Sherrill,  
 A. C. Simmonett,  A. Sodt,  T. Stein,  D. Stuck,  K. S. Thanthiriwatte,  
 V. Vanovschi,  L. Vogt,  Tao Wang,  A. Warshel,  M. A. Watson,  
 C. F. Williams,  Q. Wu,  X. Xu,  Jun Yang,  W. Zhang,  Yan Zhao

 Please cite Q-Chem as follows:
 Y. Shao et al., Mol. Phys. 113, 184-215 (2015)
 DOI: 10.1080/00268976.2014.952696

 Q-Chem 5.4.1 for Intel X86 EM64T Linux

 Parts of Q-Chem use Armadillo 9.800.1 (Horizon Scraper).
 http://arma.sourceforge.net/

 Q-Chem begins on Thu Aug 31 17:10:19 2023  

 Host: 
0

     Scratch files written to /scratch/ari.fischer/qChem1711053.hpc-mn1/qchem238502//
 Aug1521 |scratch|qcdevops|jenkins|workspace|build_RNUM 8249   
 Processing $rem in /usr/local/qchem-5.4.1/config/preferences:
 Processing $rem in /home/ari.fischer/.qchemrc:
 Symmetry turned off for PCM/SM12/SMD calculation


!!********************************************.
!!******************Warning*******************.
!!Desired Analytical derivatives not available.
!!Finite difference job might take a long time.
!!********************************************.
!!********************************************.


 2-order derivative to be evaluated numerically with 1-order analytical derivatives

 Checking the input file for inconsistencies... 	...done.

--------------------------------------------------------------
User input:
--------------------------------------------------------------
$molecule
0 2
C   -0.7702383   -0.8221058    0.0464034
O   -0.5724227   -1.7593505    1.0440470
O   -1.9409752   -1.1285395   -0.6561610
O   -0.9211412    0.4865852    0.8502196
O   -0.7823546    0.1126125    2.1082585
H   -0.6125548   -1.0870539    1.9978956
H   -1.9933078   -0.4751257   -1.4013049
H    0.1208687   -0.7983075   -0.6191955
$end

$rem
BASIS = 6-311++G(2df,2p)
GUI = 2
JOB_TYPE = Frequency
METHOD = wB97M-V
SCF_ALGORITHM = DIIS_GDM
MAX_SCF_CYCLES = 400
SCF_CONVERGENCE = 6
THRESH = 11
solvent_method = SMD
$end

--------------------------------------------------------------
 ----------------------------------------------------------------
             Standard Nuclear Orientation (Angstroms)
    I     Atom           X                Y                Z
 ----------------------------------------------------------------
    1      C      -0.7702383000    -0.8221058000     0.0464034000
    2      O      -0.5724227000    -1.7593505000     1.0440470000
    3      O      -1.9409752000    -1.1285395000    -0.6561610000
    4      O      -0.9211412000     0.4865852000     0.8502196000
    5      O      -0.7823546000     0.1126125000     2.1082585000
    6      H      -0.6125548000    -1.0870539000     1.9978956000
    7      H      -1.9933078000    -0.4751257000    -1.4013049000
    8      H       0.1208687000    -0.7983075000    -0.6191955000
 ----------------------------------------------------------------
 Nuclear Repulsion Energy =         192.73922930 hartrees
 There are       21 alpha and       20 beta electrons
 Requested basis set is 6-311++G(2df,2p)
 There are 58 shells and 200 basis functions

 Total QAlloc Memory Limit 288000 MB
 Mega-Array Size       188 MB
 MEM_STATIC part       192 MB
 
 Citation of the SMD model:
 Marenich, A.V.; Cramer, C.J.; Truhlar, D.G.
 J. Phys. Chem. B 2009, 113, 6378-6396.
 iSolventCode=           1
 Solvent: water                                                           
 
 vradii
            1           2           3           4           5           6
    1   1.8500000   1.5200000   1.5200000   1.5200000   1.5200000   1.2000000
            7           8
    1   1.2000000   1.2000000
 Changing PCM_VDW_RADII to SMD_RADIUS
 Discretize the solute cavity surface with Lebedev spheres
	Using 110 Lebedev grid points for each H atom
	Using 194 Lebedev grid points for other atoms
	Atomic van der Waals radii will be scaled by 1.20
 Remove points where switching function is < 1.0e-08
 Keep 706 surface tesserae and discard 594 interior tesserae
 Molecular Surface Area = 84.442 Angst**2

                       Distance Matrix (Angstroms)
             C (  1)   O (  2)   O (  3)   O (  4)   O (  5)   H (  6)
   O (  2)  1.383059
   O (  3)  1.399330  2.271908
   O (  4)  1.543232  2.281096  2.432668
   O (  5)  2.263867  2.163530  3.244206  1.319765
   H (  6)  1.975698  1.167656  2.968238  1.971985  1.216639
   H (  7)  1.926695  3.106106  0.992435  2.672787  3.758840  3.719610
   H (  8)  1.112502  2.042213  2.088449  2.212671  3.014066  2.733212
             H (  7)
   H (  8)  2.277254
 
 A cutoff of  1.0D-11 yielded   1645 shell pairs
 There are     19904 function pairs (     25266 Cartesian)
 Smallest overlap matrix eigenvalue = 4.13E-04
 Guess from superposition of atomic densities
 Warning:  Energy on first SCF cycle will be non-variational
 SAD guess density has 41.000000 electrons

 -----------------------------------------------------------------------
  General SCF calculation program by
  Eric Jon Sundstrom, Paul Horn, Yuezhi Mao, Dmitri Zuev, Alec White,
  David Stuck, Shaama M.S., Shane Yost, Joonho Lee, David Small,
  Daniel Levine, Susi Lehtola, Hugh Burton, Evgeny Epifanovsky,
  Bang C. Huynh
 -----------------------------------------------------------------------
 Exchange:     0.1500 Hartree-Fock + 1.0000 wB97M-V + LR-HF
 Correlation:  1.0000 wB97M-V
 Using SG-2 standard quadrature grid
 Nonlocal Correlation:  VV10 with C = 0.0100 and b = 6.00 and scale = 1.00000
 Grid used for NLC:  SG-1 standard quadrature
 using 16 threads for integral computing
 -------------------------------------------------------
 OpenMP Integral computing Module                
 Release: version 1.0, May 2013, Q-Chem Inc. Pittsburgh 
 -------------------------------------------------------
 
 Citation of the SMD model:
 Marenich, A.V.; Cramer, C.J.; Truhlar, D.G.
 J. Phys. Chem. B 2009, 113, 6378-6396.
 iSolventCode=           1
 Solvent: water                                                           
 
 vradii
            1           2           3           4           5           6
    1   1.8500000   1.5200000   1.5200000   1.5200000   1.5200000   1.2000000
            7           8
    1   1.2000000   1.2000000
 -------------------------------------------------------
 OpenMP BLAS3 based DFT computing Module                
 Release: version 1.0, May 2013, Q-Chem Inc. Pittsburgh 
 -------------------------------------------------------
 A unrestricted SCF calculation will be
 performed using DIIS, GDM
 SCF converges when RMS gradient is below 1.0e-06
 ---------------------------------------
  Cycle       Energy         DIIS error
 ---------------------------------------
    1    -341.2882686606      1.64e-02  
    2    -340.5274324448      3.10e-03  Done DIIS. Switching to GDM
 ---------------------------------------
  Cycle       Energy        RMS Gradient
 ---------------------------------------
    1    -340.5274324448      8.67e-02   Descent step
    2    -340.6627911227      1.91e-02   Normal BFGS step
    3    -340.6729211839      2.76e-02   Normal BFGS step
    4    -340.6746442446      1.05e-02   Normal BFGS step
    5    -340.6754533388      5.78e-03   Normal BFGS step
    6    -340.6755991181      2.74e-03   Normal BFGS step
    7    -340.6756545605      1.82e-03   Normal BFGS step
    8    -340.6756693438      3.26e-04   Normal BFGS step
    9    -340.6756719281      2.88e-04   Normal BFGS step
   10    -340.6756723991      1.70e-04   Normal BFGS step
   11    -340.6756725232      1.06e-04   Normal BFGS step
   12    -340.6756725645      5.15e-05   Normal BFGS step
   13    -340.6756725766      3.11e-05   Normal BFGS step
   14    -340.6756725800      2.18e-05   Normal BFGS step
   15    -340.6756725816      1.25e-05   Normal BFGS step
   16    -340.6756725823      5.99e-06   Normal BFGS step
   17    -340.6756725825      2.45e-06   Normal BFGS step
   18    -340.6756725826      1.07e-06   Normal BFGS step
   19    -340.6756725826      5.64e-07  Convergence criterion met
 ---------------------------------------
 SCF time:   CPU 355.41s  wall 22.00s 
<S^2> =          0.754109236
(3)  G-ENP(liq) elect-nuc-pol free energy of system     -340.675672583 a.u.
(4)  G-CDS(liq) cavity-dispersion-solvent structure 
     free energy                                                1.7776 kcal/mol
(6)  G-S(liq) free energy of system                     -340.672839851 a.u.
 SCF   energy in the final basis set =     -340.6728398506
 Total energy in the final basis set =     -340.6728398506
 
 --------------------------------------------------------------
 
                    Orbital Energies (a.u.)
 --------------------------------------------------------------
 
 Alpha MOs
 -- Occupied --
-19.4966 -19.4678 -19.3715 -19.3207 -10.5120  -1.3823  -1.2032  -1.1221
 -1.0394  -0.7701  -0.7329  -0.6834  -0.6480  -0.6229  -0.5727  -0.5315
 -0.4852  -0.4552  -0.4461  -0.4181  -0.3968
 -- Virtual --
  0.0319   0.0470   0.0591   0.0802   0.1030   0.1231   0.1301   0.1509
  0.1808   0.2013   0.2026   0.2275   0.2294   0.2465   0.2592   0.2670
  0.2720   0.2837   0.2980   0.3040   0.3175   0.3261   0.3346   0.3471
  0.3652   0.3848   0.3955   0.4074   0.4159   0.4738   0.5744   0.5868
  0.6047   0.6506   0.6590   0.6925   0.7582   0.7994   0.8310   0.8488
  0.9275   0.9722   1.0002   1.0455   1.0611   1.0748   1.0780   1.1085
  1.1191   1.1368   1.1429   1.1682   1.1906   1.2161   1.2423   1.2533
  1.2757   1.3261   1.3745   1.4051   1.4279   1.4644   1.5050   1.5284
  1.5529   1.5896   1.6332   1.6541   1.7350   1.7540   1.8624   1.8852
  1.9754   2.0051   2.0856   2.1021   2.1430   2.2017   2.2358   2.3028
  2.3062   2.3304   2.3970   2.4558   2.5507   2.5974   2.6302   2.6690
  2.7527   2.9180   3.1292   3.2195   3.2321   3.2796   3.3322   3.4159
  3.4584   3.4869   3.5824   3.6614   3.6673   3.6798   3.7763   3.7913
  3.8125   3.8374   3.8691   3.9121   4.0353   4.1301   4.2040   4.3132
  4.3237   4.5057   4.6768   4.7278   4.7466   4.9257   4.9937   5.0533
  5.0987   5.1149   5.1277   5.1317   5.1876   5.1905   5.2086   5.2294
  5.2477   5.2748   5.3055   5.3432   5.3614   5.3933   5.4223   5.4560
  5.4861   5.5176   5.5623   5.6384   5.7041   5.7624   5.8739   5.9148
  6.0144   6.1084   6.1307   6.3593   6.4504   6.4824   6.6072   6.7910
  6.8216   6.8852   7.0079   7.0440   7.0722   7.0765   7.1160   7.1948
  7.2499   7.3122   7.3260   7.3814   7.4139   7.4287   7.4932   7.5886
  7.6296   7.7439   7.8844   7.9374   7.9802   8.0718  24.6752  50.4167
 50.4356  50.5247  50.6267
 
 Beta MOs
 -- Occupied --
-19.4842 -19.4505 -19.3711 -19.3205 -10.5124  -1.3558  -1.2008  -1.1207
 -1.0029  -0.7616  -0.7257  -0.6654  -0.6308  -0.5675  -0.5629  -0.5118
 -0.4785  -0.4510  -0.4123  -0.3992
 -- Virtual --
 -0.0721   0.0323   0.0481   0.0594   0.0813   0.1045   0.1239   0.1366
  0.1549   0.1837   0.2038   0.2085   0.2293   0.2330   0.2485   0.2601
  0.2707   0.2753   0.2887   0.2994   0.3051   0.3187   0.3283   0.3358
  0.3496   0.3664   0.3869   0.3969   0.4085   0.4172   0.4747   0.5753
  0.5882   0.6068   0.6522   0.6592   0.6929   0.7592   0.8004   0.8358
  0.8515   0.9278   0.9753   1.0051   1.0514   1.0650   1.0777   1.0858
  1.1233   1.1310   1.1407   1.1505   1.1774   1.1996   1.2195   1.2509
  1.2559   1.2789   1.3311   1.3773   1.4090   1.4360   1.4714   1.5099
  1.5371   1.5610   1.6017   1.6464   1.6632   1.7433   1.7568   1.8717
  1.8867   1.9822   2.0142   2.1009   2.1105   2.1502   2.2123   2.2401
  2.3081   2.3105   2.3397   2.4013   2.4628   2.5585   2.6011   2.6326
  2.6768   2.7539   2.9172   3.1307   3.2202   3.2329   3.2796   3.3322
  3.4153   3.4581   3.4871   3.5820   3.6632   3.6684   3.6805   3.7755
  3.7917   3.8122   3.8383   3.8693   3.9140   4.0348   4.1302   4.2049
  4.3161   4.3270   4.5439   4.6978   4.7504   4.7610   4.9386   5.0499
  5.0982   5.1224   5.1370   5.1583   5.1703   5.2061   5.2120   5.2229
  5.2356   5.2631   5.2935   5.3150   5.3521   5.3750   5.3996   5.4361
  5.4620   5.4926   5.5258   5.5753   5.6565   5.7182   5.7689   5.8797
  5.9191   6.0186   6.1126   6.1369   6.4045   6.4573   6.4882   6.6158
  6.7922   6.8849   6.9444   7.0290   7.0770   7.0891   7.1080   7.1450
  7.2222   7.2574   7.3379   7.3502   7.3905   7.4241   7.4511   7.5204
  7.6000   7.6365   7.7477   7.8917   7.9449   7.9912   8.0890  24.6749
 50.4287  50.4459  50.5258  50.6271
 --------------------------------------------------------------
 
          Ground-State Mulliken Net Atomic Charges

     Atom                 Charge (a.u.)    Spin (a.u.)
  --------------------------------------------------------
      1 C                     0.085562      -0.015948
      2 O                    -0.619438       0.005990
      3 O                    -0.395296       0.015008
      4 O                    -0.027257       0.391249
      5 O                    -0.023204       0.599310
      6 H                     0.359149      -0.005250
      7 H                     0.348732      -0.000515
      8 H                     0.271752       0.010157
  --------------------------------------------------------
  Sum of atomic charges =     0.000000
  Sum of spin   charges =     1.000000

 -----------------------------------------------------------------
                    Cartesian Multipole Moments
 -----------------------------------------------------------------
    Charge (ESU x 10^10)
                 0.0000
    Dipole Moment (Debye)
         X       0.8857      Y       3.3237      Z      -2.3589
       Tot       4.1708
    Quadrupole Moments (Debye-Ang)
        XX     -31.1608     XY      -4.5520     YY     -39.7155
        XZ       2.9310     YZ       0.5971     ZZ     -24.2876
    Octopole Moments (Debye-Ang^2)
       XXX      91.8867    XXY      28.6475    XYY      39.5309
       YYY      80.3818    XXZ     -24.4136    XYZ       1.6357
       YYZ     -24.1000    XZZ      22.2339    YZZ      15.1723
       ZZZ     -54.6710
    Hexadecapole Moments (Debye-Ang^3)
      XXXX    -260.4033   XXXY     -78.9364   XXYY     -95.3326
      XYYY     -78.8884   YYYY    -265.7792   XXXZ      38.3191
      XXYZ       2.1726   XYYZ       8.9984   YYYZ      25.7810
      XXZZ     -71.4437   XYZZ     -16.5510   YYZZ     -84.8742
      XZZZ      35.5876   YZZZ      -3.4522   ZZZZ    -236.4177
 -----------------------------------------------------------------
 Calculating analytic gradient of the SCF energy
 Gradient of CDS energy
            1           2           3           4           5           6
    1  -0.0019165  -0.0010922   0.0036173  -0.0002799  -0.0000463   0.0000548
    2  -0.0051589   0.0041226   0.0010940  -0.0000293   0.0002474  -0.0002023
    3   0.0015580  -0.0043437   0.0025117   0.0003840  -0.0001111   0.0004060
            7           8
    1  -0.0003704   0.0000331
    2   0.0000356  -0.0001091
    3  -0.0003893  -0.0000156
 Gradient of SCF Energy
            1           2           3           4           5           6
    1  -0.0197812   0.0012571  -0.0132959  -0.0040364   0.0106599   0.0002855
    2   0.0709387  -0.0130855  -0.0543087   0.0230652  -0.0672010   0.0268864
    3  -0.0077783   0.0128129   0.0202633  -0.0283471   0.0020653   0.0465212
            7           8
    1   0.0028356   0.0220754
    2   0.0314131  -0.0177083
    3  -0.0283206  -0.0172167
 Max gradient component =       7.094E-02
 RMS gradient           =       2.967E-02
 Computing fast CPCM-SWIG gradient
 Updating gradient with PCM contributions...
 -- total gradient after adding PCM contribution --
---------------------------------------------------
  Atom         X              Y              Z     
---------------------------------------------------
   1      -0.010899       0.066629      -0.016487
   2       0.002919      -0.003736       0.015826
   3      -0.012544      -0.036927       0.004835
   4      -0.004033       0.020498      -0.026721
   5       0.010420      -0.068385       0.000705
   6      -0.000698       0.024006       0.043407
   7       0.001708       0.016917      -0.013391
   8       0.013128      -0.019003      -0.008173
---------------------------------------------------
 Number of fixed atoms: 0
 Gradient time:  CPU 42.35 s  wall 3.54 s
 ######################################################
 ######################################################
 # Starting finite difference calculation for IDERIV  #
 Finite diff step size:  1.88973e-03 a.u.
 ----------------------------------------------------------------
             Standard Nuclear Orientation (Angstroms)
    I     Atom           X                Y                Z
 ----------------------------------------------------------------
    1      C      -0.7692383000    -0.8221058000     0.0464034000
    2      O      -0.5724227000    -1.7593505000     1.0440470000
    3      O      -1.9409752000    -1.1285395000    -0.6561610000
    4      O      -0.9211412000     0.4865852000     0.8502196000
    5      O      -0.7823546000     0.1126125000     2.1082585000
    6      H      -0.6125548000    -1.0870539000     1.9978956000
    7      H      -1.9933078000    -0.4751257000    -1.4013049000
    8      H       0.1208687000    -0.7983075000    -0.6191955000
 ----------------------------------------------------------------
 Nuclear Repulsion Energy =         192.73078018 hartrees
 There are       21 alpha and       20 beta electrons
 Discretize the solute cavity surface with Lebedev spheres
	Using 110 Lebedev grid points for each H atom
	Using 194 Lebedev grid points for other atoms
	Atomic van der Waals radii will be scaled by 1.20
 Remove points where switching function is < 1.0e-08
 Keep 707 surface tesserae and discard 593 interior tesserae
 Molecular Surface Area = 84.447 Angst**2

                       Distance Matrix (Angstroms)
             C (  1)   O (  2)   O (  3)   O (  4)   O (  5)   H (  6)
   O (  2)  1.382916
   O (  3)  1.400166  2.271908
   O (  4)  1.543330  2.281096  2.432668
   O (  5)  2.263872  2.163530  3.244206  1.319765
   H (  6)  1.975619  1.167656  2.968238  1.971985  1.216639
   H (  7)  1.927330  3.106106  0.992435  2.672787  3.758840  3.719610
   H (  8)  1.111701  2.042213  2.088449  2.212671  3.014066  2.733212
             H (  7)
   H (  8)  2.277254
 
 Requested basis set is 6-311++G(2df,2p)
 There are 58 shells and 200 basis functions
 A cutoff of  1.0D-11 yielded   1645 shell pairs
 There are     19904 function pairs (     25266 Cartesian)
 Smallest overlap matrix eigenvalue = 4.13E-04
 Guess MOs from SCF MO coefficient file

 -----------------------------------------------------------------------
  General SCF calculation program by
  Eric Jon Sundstrom, Paul Horn, Yuezhi Mao, Dmitri Zuev, Alec White,
  David Stuck, Shaama M.S., Shane Yost, Joonho Lee, David Small,
  Daniel Levine, Susi Lehtola, Hugh Burton, Evgeny Epifanovsky,
  Bang C. Huynh
 -----------------------------------------------------------------------
 Exchange:     0.1500 Hartree-Fock + 1.0000 wB97M-V + LR-HF
 Correlation:  1.0000 wB97M-V
 Using SG-2 standard quadrature grid
 Nonlocal Correlation:  VV10 with C = 0.0100 and b = 6.00 and scale = 1.00000
 Grid used for NLC:  SG-1 standard quadrature
 
 Citation of the SMD model:
 Marenich, A.V.; Cramer, C.J.; Truhlar, D.G.
 J. Phys. Chem. B 2009, 113, 6378-6396.
 iSolventCode=           1
 Solvent: water                                                           
 
 vradii
            1           2           3           4           5           6
    1   1.8500000   1.5200000   1.5200000   1.5200000   1.5200000   1.2000000
            7           8
    1   1.2000000   1.2000000
 -------------------------------------------------------
 OpenMP BLAS3 based DFT computing Module                
 Release: version 1.0, May 2013, Q-Chem Inc. Pittsburgh 
 -------------------------------------------------------
 A unrestricted SCF calculation will be
 performed using Roothaan-Hall, DIIS, GDM
 SCF converges when RMS gradient is below 1.0e-06
 ---------------------------------------
  Cycle       Energy         DIIS error
 ---------------------------------------
    1    -340.6452204162      4.19e-04  Roothaan Step
 ---------------------------------------
  Cycle       Energy         DIIS error
 ---------------------------------------
    1    -340.6687878646      5.06e-04  
    2    -340.6725241419      4.87e-04  Done DIIS. Switching to GDM
 ---------------------------------------
  Cycle       Energy        RMS Gradient
 ---------------------------------------
    1    -340.6725241419      1.47e-02   Normal BFGS step
    2    -340.6713932826      2.42e-02  Line search: overstep
    3    -340.6755298999      3.21e-03   Normal BFGS step
    4    -340.6756470337      2.73e-03   Normal BFGS step
    5    -340.6756767435      1.65e-03   Normal BFGS step
    6    -340.6756879587      3.48e-04   Normal BFGS step
    7    -340.6756883274      1.82e-04   Normal BFGS step
    8    -340.6756885401      1.25e-04   Normal BFGS step
    9    -340.6756886021      5.40e-05   Normal BFGS step
   10    -340.6756886195      1.98e-05   Normal BFGS step
   11    -340.6756886211      1.40e-05   Normal BFGS step
   12    -340.6756886218      1.15e-05   Normal BFGS step
   13    -340.6756886222      4.90e-06   Normal BFGS step
   14    -340.6756886223      3.33e-06   Normal BFGS step
   15    -340.6756886223      1.92e-06   Normal BFGS step
   16    -340.6756886223      9.38e-07  Convergence criterion met
 ---------------------------------------
 SCF time:   CPU 321.48s  wall 21.00s 
<S^2> =          0.754109529
(3)  G-ENP(liq) elect-nuc-pol free energy of system     -340.675688622 a.u.
(4)  G-CDS(liq) cavity-dispersion-solvent structure 
     free energy                                                1.7754 kcal/mol
(6)  G-S(liq) free energy of system                     -340.672859388 a.u.
 SCF   energy in the final basis set =     -340.6728593881
 Total energy in the final basis set =     -340.6728593881
 
 --------------------------------------------------------------
 
                    Orbital Energies (a.u.)
 --------------------------------------------------------------
 
 Alpha MOs
 -- Occupied --
-19.4967 -19.4678 -19.3714 -19.3207 -10.5120  -1.3823  -1.2030  -1.1221
 -1.0394  -0.7701  -0.7328  -0.6834  -0.6480  -0.6228  -0.5727  -0.5314
 -0.4852  -0.4552  -0.4461  -0.4181  -0.3968
 -- Virtual --
  0.0319   0.0470   0.0591   0.0802   0.1031   0.1230   0.1301   0.1510
  0.1808   0.2012   0.2026   0.2275   0.2294   0.2465   0.2591   0.2670
  0.2720   0.2837   0.2980   0.3040   0.3172   0.3262   0.3346   0.3471
  0.3652   0.3848   0.3955   0.4075   0.4159   0.4737   0.5746   0.5869
  0.6047   0.6504   0.6589   0.6925   0.7581   0.7995   0.8309   0.8488
  0.9276   0.9722   1.0002   1.0455   1.0610   1.0748   1.0780   1.1085
  1.1191   1.1369   1.1429   1.1682   1.1907   1.2160   1.2423   1.2533
  1.2755   1.3261   1.3745   1.4050   1.4279   1.4643   1.5050   1.5286
  1.5531   1.5897   1.6330   1.6541   1.7351   1.7541   1.8621   1.8851
  1.9752   2.0050   2.0855   2.1022   2.1429   2.2015   2.2356   2.3023
  2.3062   2.3305   2.3969   2.4555   2.5507   2.5974   2.6294   2.6689
  2.7527   2.9180   3.1292   3.2193   3.2319   3.2795   3.3320   3.4157
  3.4583   3.4868   3.5823   3.6615   3.6672   3.6799   3.7766   3.7917
  3.8128   3.8378   3.8687   3.9124   4.0354   4.1299   4.2041   4.3138
  4.3244   4.5057   4.6768   4.7278   4.7465   4.9257   4.9937   5.0534
  5.0989   5.1155   5.1278   5.1322   5.1876   5.1905   5.2086   5.2294
  5.2474   5.2748   5.3056   5.3432   5.3614   5.3932   5.4223   5.4559
  5.4861   5.5177   5.5623   5.6384   5.7041   5.7622   5.8725   5.9148
  6.0140   6.1074   6.1303   6.3592   6.4502   6.4818   6.6071   6.7903
  6.8215   6.8851   7.0078   7.0440   7.0721   7.0765   7.1160   7.1947
  7.2497   7.3123   7.3258   7.3813   7.4138   7.4285   7.4932   7.5885
  7.6293   7.7438   7.8842   7.9374   7.9801   8.0717  24.6749  50.4166
 50.4355  50.5246  50.6268
 
 Beta MOs
 -- Occupied --
-19.4842 -19.4505 -19.3710 -19.3205 -10.5124  -1.3558  -1.2006  -1.1207
 -1.0029  -0.7617  -0.7256  -0.6653  -0.6308  -0.5674  -0.5629  -0.5118
 -0.4785  -0.4510  -0.4124  -0.3993
 -- Virtual --
 -0.0721   0.0323   0.0481   0.0594   0.0813   0.1045   0.1238   0.1366
  0.1549   0.1837   0.2038   0.2085   0.2292   0.2330   0.2484   0.2601
  0.2707   0.2753   0.2886   0.2994   0.3051   0.3185   0.3283   0.3358
  0.3497   0.3663   0.3869   0.3969   0.4086   0.4172   0.4746   0.5754
  0.5882   0.6068   0.6521   0.6592   0.6929   0.7592   0.8005   0.8356
  0.8516   0.9280   0.9753   1.0050   1.0514   1.0649   1.0777   1.0859
  1.1233   1.1311   1.1408   1.1505   1.1774   1.1996   1.2194   1.2509
  1.2559   1.2788   1.3311   1.3774   1.4089   1.4360   1.4713   1.5100
  1.5374   1.5611   1.6019   1.6462   1.6633   1.7434   1.7569   1.8715
  1.8867   1.9820   2.0142   2.1008   2.1105   2.1502   2.2122   2.2399
  2.3077   2.3104   2.3398   2.4012   2.4625   2.5586   2.6011   2.6318
  2.6768   2.7538   2.9173   3.1306   3.2200   3.2327   3.2794   3.3320
  3.4152   3.4580   3.4871   3.5819   3.6633   3.6684   3.6806   3.7758
  3.7920   3.8125   3.8388   3.8689   3.9143   4.0348   4.1300   4.2051
  4.3168   4.3277   4.5439   4.6978   4.7504   4.7610   4.9386   5.0499
  5.0986   5.1235   5.1371   5.1583   5.1703   5.2060   5.2119   5.2228
  5.2357   5.2630   5.2934   5.3151   5.3520   5.3750   5.3994   5.4361
  5.4619   5.4925   5.5258   5.5753   5.6566   5.7182   5.7686   5.8784
  5.9190   6.0182   6.1115   6.1366   6.4045   6.4571   6.4877   6.6157
  6.7915   6.8849   6.9444   7.0290   7.0770   7.0891   7.1080   7.1449
  7.2221   7.2572   7.3380   7.3500   7.3905   7.4241   7.4510   7.5204
  7.5999   7.6362   7.7476   7.8916   7.9449   7.9911   8.0889  24.6746
 50.4286  50.4458  50.5256  50.6271
 --------------------------------------------------------------
 
          Ground-State Mulliken Net Atomic Charges

     Atom                 Charge (a.u.)    Spin (a.u.)
  --------------------------------------------------------
      1 C                     0.085751      -0.015972
      2 O                    -0.619290       0.005978
      3 O                    -0.395851       0.015044
      4 O                    -0.027246       0.391279
      5 O                    -0.023194       0.599315
      6 H                     0.359165      -0.005252
      7 H                     0.348619      -0.000514
      8 H                     0.272047       0.010122
  --------------------------------------------------------
  Sum of atomic charges =     0.000000
  Sum of spin   charges =     1.000000

 -----------------------------------------------------------------
                    Cartesian Multipole Moments
 -----------------------------------------------------------------
    Charge (ESU x 10^10)
                 0.0000
    Dipole Moment (Debye)
         X       0.8927      Y       3.3241      Z      -2.3560
       Tot       4.1710
    Quadrupole Moments (Debye-Ang)
        XX     -31.1745     XY      -4.5574     YY     -39.7142
        XZ       2.9254     YZ       0.5936     ZZ     -24.2866
    Octopole Moments (Debye-Ang^2)
       XXX      91.9042    XXY      28.6584    XYY      39.5319
       YYY      80.3788    XXZ     -24.4038    XYZ       1.6431
       YYZ     -24.0909    XZZ      22.2349    YZZ      15.1723
       ZZZ     -54.6585
    Hexadecapole Moments (Debye-Ang^3)
      XXXX    -260.4308   XXXY     -78.9500   XXYY     -95.3391
      XYYY     -78.8841   YYYY    -265.7647   XXXZ      38.2959
      XXYZ       2.1605   XYYZ       8.9817   YYYZ      25.7615
      XXZZ     -71.4498   XYZZ     -16.5487   YYZZ     -84.8691
      XZZZ      35.5673   YZZZ      -3.4639   ZZZZ    -236.4089
 -----------------------------------------------------------------
 Calculating analytic gradient of the SCF energy
 Gradient of CDS energy
            1           2           3           4           5           6
    1  -0.0017839  -0.0010908   0.0034885  -0.0002805  -0.0000466   0.0000548
    2  -0.0051273   0.0041236   0.0010603  -0.0000297   0.0002474  -0.0002021
    3   0.0016375  -0.0043443   0.0024333   0.0003838  -0.0001111   0.0004059
            7           8
    1  -0.0003713   0.0000300
    2   0.0000353  -0.0001075
    3  -0.0003897  -0.0000155
 Gradient of SCF Energy
            1           2           3           4           5           6
    1  -0.0186522   0.0010887  -0.0138017  -0.0041562   0.0106907   0.0002778
    2   0.0710244  -0.0131012  -0.0543909   0.0230992  -0.0671876   0.0268650
    3  -0.0078514   0.0128424   0.0200744  -0.0283280   0.0020853   0.0465113
            7           8
    1   0.0028372   0.0217158
    2   0.0313960  -0.0177047
    3  -0.0283137  -0.0170203
 Max gradient component =       7.102E-02
 RMS gradient           =       2.964E-02
 Computing fast CPCM-SWIG gradient
 Updating gradient with PCM contributions...
 -- total gradient after adding PCM contribution --
---------------------------------------------------
  Atom         X              Y              Z     
---------------------------------------------------
   1      -0.009777       0.066712      -0.016574
   2       0.002759      -0.003751       0.015858
   3      -0.013030      -0.037018       0.004662
   4      -0.004145       0.020533      -0.026702
   5       0.010450      -0.068372       0.000725
   6      -0.000711       0.023986       0.043392
   7       0.001700       0.016909      -0.013401
   8       0.012754      -0.019000      -0.007959
---------------------------------------------------
 Number of fixed atoms: 0
 Gradient time:  CPU 41.93 s  wall 3.40 s
 ----------------------------------------------------------------
             Standard Nuclear Orientation (Angstroms)
    I     Atom           X                Y                Z
 ----------------------------------------------------------------
    1      C      -0.7712383000    -0.8221058000     0.0464034000
    2      O      -0.5724227000    -1.7593505000     1.0440470000
    3      O      -1.9409752000    -1.1285395000    -0.6561610000
    4      O      -0.9211412000     0.4865852000     0.8502196000
    5      O      -0.7823546000     0.1126125000     2.1082585000
    6      H      -0.6125548000    -1.0870539000     1.9978956000
    7      H      -1.9933078000    -0.4751257000    -1.4013049000
    8      H       0.1208687000    -0.7983075000    -0.6191955000
 ----------------------------------------------------------------
 Nuclear Repulsion Energy =         192.74767252 hartrees
 There are       21 alpha and       20 beta electrons
 Discretize the solute cavity surface with Lebedev spheres
	Using 110 Lebedev grid points for each H atom
	Using 194 Lebedev grid points for other atoms
	Atomic van der Waals radii will be scaled by 1.20
 Remove points where switching function is < 1.0e-08
 Keep 705 surface tesserae and discard 595 interior tesserae
 Molecular Surface Area = 84.437 Angst**2

                       Distance Matrix (Angstroms)
             C (  1)   O (  2)   O (  3)   O (  4)   O (  5)   H (  6)
   O (  2)  1.383202
   O (  3)  1.398493  2.271908
   O (  4)  1.543134  2.281096  2.432668
   O (  5)  2.263861  2.163530  3.244206  1.319765
   H (  6)  1.975778  1.167656  2.968238  1.971985  1.216639
   H (  7)  1.926060  3.106106  0.992435  2.672787  3.758840  3.719610
   H (  8)  1.113303  2.042213  2.088449  2.212671  3.014066  2.733212
             H (  7)
   H (  8)  2.277254
 
 Requested basis set is 6-311++G(2df,2p)
 There are 58 shells and 200 basis functions
 A cutoff of  1.0D-11 yielded   1645 shell pairs
 There are     19904 function pairs (     25266 Cartesian)
 Smallest overlap matrix eigenvalue = 4.13E-04
 Guess MOs from SCF MO coefficient file

 -----------------------------------------------------------------------
  General SCF calculation program by
  Eric Jon Sundstrom, Paul Horn, Yuezhi Mao, Dmitri Zuev, Alec White,
  David Stuck, Shaama M.S., Shane Yost, Joonho Lee, David Small,
  Daniel Levine, Susi Lehtola, Hugh Burton, Evgeny Epifanovsky,
  Bang C. Huynh
 -----------------------------------------------------------------------
 Exchange:     0.1500 Hartree-Fock + 1.0000 wB97M-V + LR-HF
 Correlation:  1.0000 wB97M-V
 Using SG-2 standard quadrature grid
 Nonlocal Correlation:  VV10 with C = 0.0100 and b = 6.00 and scale = 1.00000
 Grid used for NLC:  SG-1 standard quadrature
 
 Citation of the SMD model:
 Marenich, A.V.; Cramer, C.J.; Truhlar, D.G.
 J. Phys. Chem. B 2009, 113, 6378-6396.
 iSolventCode=           1
 Solvent: water                                                           
 
 vradii
            1           2           3           4           5           6
    1   1.8500000   1.5200000   1.5200000   1.5200000   1.5200000   1.2000000
            7           8
    1   1.2000000   1.2000000
 -------------------------------------------------------
 OpenMP BLAS3 based DFT computing Module                
 Release: version 1.0, May 2013, Q-Chem Inc. Pittsburgh 
 -------------------------------------------------------
 A unrestricted SCF calculation will be
 performed using Roothaan-Hall, DIIS, GDM
 SCF converges when RMS gradient is below 1.0e-06
 ---------------------------------------
  Cycle       Energy         DIIS error
 ---------------------------------------
    1    -340.6451918642      4.19e-04  Roothaan Step
 ---------------------------------------
  Cycle       Energy         DIIS error
 ---------------------------------------
    1    -340.6687772430      5.04e-04  
    2    -340.6725123988      4.85e-04  Done DIIS. Switching to GDM
 ---------------------------------------
  Cycle       Energy        RMS Gradient
 ---------------------------------------
    1    -340.6725123988      1.47e-02   Normal BFGS step
    2    -340.6713890142      2.40e-02  Line search: overstep
    3    -340.6754962028      3.18e-03   Normal BFGS step
    4    -340.6756132670      2.73e-03   Normal BFGS step
    5    -340.6756427357      1.64e-03   Normal BFGS step
    6    -340.6756539696      3.09e-04   Normal BFGS step
    7    -340.6756543465      1.92e-04   Normal BFGS step
    8    -340.6756545692      1.37e-04   Normal BFGS step
    9    -340.6756546404      8.05e-05   Normal BFGS step
   10    -340.6756546641      2.75e-05   Normal BFGS step
   11    -340.6756546678      2.93e-05   Normal BFGS step
   12    -340.6756546702      2.17e-05   Normal BFGS step
   13    -340.6756546713      5.94e-06   Normal BFGS step
   14    -340.6756546716      2.77e-06   Normal BFGS step
   15    -340.6756546717      1.87e-06   Normal BFGS step
   16    -340.6756546717      9.54e-07  Convergence criterion met
 ---------------------------------------
 SCF time:   CPU 326.46s  wall 21.00s 
<S^2> =          0.754108966
(3)  G-ENP(liq) elect-nuc-pol free energy of system     -340.675654672 a.u.
(4)  G-CDS(liq) cavity-dispersion-solvent structure 
     free energy                                                1.7799 kcal/mol
(6)  G-S(liq) free energy of system                     -340.672818199 a.u.
 SCF   energy in the final basis set =     -340.6728181993
 Total energy in the final basis set =     -340.6728181993
 
 --------------------------------------------------------------
 
                    Orbital Energies (a.u.)
 --------------------------------------------------------------
 
 Alpha MOs
 -- Occupied --
-19.4966 -19.4678 -19.3716 -19.3206 -10.5120  -1.3822  -1.2035  -1.1221
 -1.0394  -0.7700  -0.7329  -0.6834  -0.6479  -0.6229  -0.5728  -0.5316
 -0.4852  -0.4552  -0.4461  -0.4181  -0.3967
 -- Virtual --
  0.0319   0.0470   0.0591   0.0802   0.1030   0.1231   0.1301   0.1509
  0.1808   0.2014   0.2026   0.2276   0.2295   0.2466   0.2592   0.2670
  0.2720   0.2837   0.2980   0.3040   0.3177   0.3261   0.3347   0.3470
  0.3653   0.3848   0.3955   0.4074   0.4159   0.4738   0.5743   0.5868
  0.6047   0.6507   0.6590   0.6925   0.7582   0.7993   0.8312   0.8488
  0.9274   0.9723   1.0003   1.0454   1.0611   1.0748   1.0780   1.1085
  1.1191   1.1367   1.1428   1.1682   1.1906   1.2162   1.2423   1.2533
  1.2758   1.3261   1.3745   1.4053   1.4279   1.4645   1.5049   1.5281
  1.5527   1.5895   1.6333   1.6540   1.7349   1.7540   1.8626   1.8852
  1.9756   2.0051   2.0856   2.1021   2.1430   2.2018   2.2360   2.3033
  2.3062   2.3302   2.3970   2.4562   2.5506   2.5974   2.6310   2.6691
  2.7528   2.9180   3.1293   3.2197   3.2323   3.2798   3.3325   3.4160
  3.4585   3.4870   3.5825   3.6614   3.6673   3.6797   3.7760   3.7910
  3.8122   3.8370   3.8696   3.9118   4.0353   4.1302   4.2039   4.3126
  4.3231   4.5057   4.6768   4.7278   4.7467   4.9257   4.9937   5.0532
  5.0984   5.1143   5.1275   5.1313   5.1875   5.1905   5.2087   5.2293
  5.2479   5.2749   5.3054   5.3432   5.3614   5.3934   5.4223   5.4561
  5.4862   5.5176   5.5622   5.6384   5.7041   5.7627   5.8754   5.9147
  6.0148   6.1093   6.1311   6.3593   6.4505   6.4829   6.6074   6.7917
  6.8216   6.8852   7.0079   7.0440   7.0722   7.0765   7.1161   7.1950
  7.2501   7.3122   7.3263   7.3814   7.4139   7.4289   7.4933   7.5886
  7.6300   7.7440   7.8845   7.9375   7.9802   8.0718  24.6755  50.4167
 50.4356  50.5249  50.6267
 
 Beta MOs
 -- Occupied --
-19.4842 -19.4505 -19.3712 -19.3204 -10.5124  -1.3557  -1.2011  -1.1207
 -1.0029  -0.7616  -0.7257  -0.6654  -0.6308  -0.5675  -0.5630  -0.5119
 -0.4784  -0.4510  -0.4123  -0.3992
 -- Virtual --
 -0.0721   0.0323   0.0481   0.0594   0.0813   0.1045   0.1239   0.1366
  0.1549   0.1836   0.2038   0.2086   0.2293   0.2330   0.2485   0.2601
  0.2708   0.2753   0.2887   0.2994   0.3051   0.3189   0.3283   0.3359
  0.3496   0.3664   0.3869   0.3969   0.4085   0.4172   0.4747   0.5751
  0.5881   0.6068   0.6524   0.6592   0.6929   0.7593   0.8003   0.8360
  0.8515   0.9277   0.9753   1.0051   1.0513   1.0651   1.0777   1.0858
  1.1233   1.1310   1.1406   1.1505   1.1774   1.1996   1.2196   1.2508
  1.2559   1.2790   1.3311   1.3773   1.4092   1.4360   1.4715   1.5099
  1.5368   1.5609   1.6016   1.6466   1.6632   1.7432   1.7568   1.8720
  1.8868   1.9825   2.0142   2.1009   2.1104   2.1502   2.2125   2.2402
  2.3085   2.3106   2.3396   2.4014   2.4632   2.5585   2.6011   2.6334
  2.6769   2.7540   2.9172   3.1308   3.2204   3.2331   3.2797   3.3325
  3.4155   3.4582   3.4872   3.5822   3.6631   3.6685   3.6804   3.7752
  3.7914   3.8119   3.8379   3.8698   3.9137   4.0348   4.1303   4.2048
  4.3155   4.3264   4.5439   4.6978   4.7504   4.7611   4.9386   5.0499
  5.0978   5.1213   5.1370   5.1582   5.1703   5.2061   5.2120   5.2229
  5.2355   5.2633   5.2936   5.3149   5.3521   5.3750   5.3997   5.4361
  5.4621   5.4926   5.5257   5.5753   5.6565   5.7182   5.7691   5.8811
  5.9191   6.0191   6.1137   6.1372   6.4045   6.4575   6.4888   6.6159
  6.7929   6.8850   6.9444   7.0291   7.0770   7.0891   7.1081   7.1451
  7.2223   7.2576   7.3378   7.3505   7.3906   7.4241   7.4513   7.5204
  7.6001   7.6368   7.7478   7.8918   7.9450   7.9912   8.0891  24.6752
 50.4287  50.4460  50.5259  50.6270
 --------------------------------------------------------------
 
          Ground-State Mulliken Net Atomic Charges

     Atom                 Charge (a.u.)    Spin (a.u.)
  --------------------------------------------------------
      1 C                     0.085372      -0.015925
      2 O                    -0.619585       0.006003
      3 O                    -0.394740       0.014971
      4 O                    -0.027267       0.391221
      5 O                    -0.023216       0.599302
      6 H                     0.359134      -0.005249
      7 H                     0.348845      -0.000516
      8 H                     0.271457       0.010193
  --------------------------------------------------------
  Sum of atomic charges =     0.000000
  Sum of spin   charges =     1.000000

 -----------------------------------------------------------------
                    Cartesian Multipole Moments
 -----------------------------------------------------------------
    Charge (ESU x 10^10)
                 0.0000
    Dipole Moment (Debye)
         X       0.8788      Y       3.3232      Z      -2.3619
       Tot       4.1707
    Quadrupole Moments (Debye-Ang)
        XX     -31.1470     XY      -4.5467     YY     -39.7168
        XZ       2.9367     YZ       0.6006     ZZ     -24.2887
    Octopole Moments (Debye-Ang^2)
       XXX      91.8691    XXY      28.6365    XYY      39.5299
       YYY      80.3848    XXZ     -24.4235    XYZ       1.6284
       YYZ     -24.1091    XZZ      22.2330    YZZ      15.1723
       ZZZ     -54.6835
    Hexadecapole Moments (Debye-Ang^3)
      XXXX    -260.3757   XXXY     -78.9226   XXYY     -95.3260
      XYYY     -78.8927   YYYY    -265.7936   XXXZ      38.3423
      XXYZ       2.1846   XYYZ       9.0151   YYYZ      25.8006
      XXZZ     -71.4377   XYZZ     -16.5533   YYZZ     -84.8792
      XZZZ      35.6080   YZZZ      -3.4405   ZZZZ    -236.4268
 -----------------------------------------------------------------
 Calculating analytic gradient of the SCF energy
 Gradient of CDS energy
            1           2           3           4           5           6
    1  -0.0020408  -0.0010936   0.0037378  -0.0002792  -0.0000459   0.0000549
    2  -0.0051884   0.0041215   0.0011256  -0.0000289   0.0002475  -0.0002025
    3   0.0014831  -0.0043430   0.0025853   0.0003842  -0.0001111   0.0004061
            7           8
    1  -0.0003694   0.0000361
    2   0.0000360  -0.0001107
    3  -0.0003888  -0.0000157
 Gradient of SCF Energy
            1           2           3           4           5           6
    1  -0.0209021   0.0014253  -0.0127966  -0.0039165   0.0106292   0.0002932
    2   0.0708550  -0.0130699  -0.0542281   0.0230312  -0.0672143   0.0269077
    3  -0.0077036   0.0127839   0.0204485  -0.0283663   0.0020454   0.0465312
            7           8
    1   0.0028341   0.0224335
    2   0.0314302  -0.0177118
    3  -0.0283274  -0.0174116
 Max gradient component =       7.086E-02
 RMS gradient           =       2.970E-02
 Computing fast CPCM-SWIG gradient
 Updating gradient with PCM contributions...
 -- total gradient after adding PCM contribution --
---------------------------------------------------
  Atom         X              Y              Z     
---------------------------------------------------
   1      -0.012014       0.066547      -0.016399
   2       0.003079      -0.003721       0.015794
   3      -0.012065      -0.036838       0.005004
   4      -0.003921       0.020464      -0.026740
   5       0.010389      -0.068398       0.000685
   6      -0.000686       0.024027       0.043422
   7       0.001717       0.016925      -0.013381
   8       0.013500      -0.019005      -0.008386
---------------------------------------------------
 Number of fixed atoms: 0
 Gradient time:  CPU 41.69 s  wall 3.42 s
 ----------------------------------------------------------------
             Standard Nuclear Orientation (Angstroms)
    I     Atom           X                Y                Z
 ----------------------------------------------------------------
    1      C      -0.7702383000    -0.8211058000     0.0464034000
    2      O      -0.5724227000    -1.7593505000     1.0440470000
    3      O      -1.9409752000    -1.1285395000    -0.6561610000
    4      O      -0.9211412000     0.4865852000     0.8502196000
    5      O      -0.7823546000     0.1126125000     2.1082585000
    6      H      -0.6125548000    -1.0870539000     1.9978956000
    7      H      -1.9933078000    -0.4751257000    -1.4013049000
    8      H       0.1208687000    -0.7983075000    -0.6191955000
 ----------------------------------------------------------------
 Nuclear Repulsion Energy =         192.73858050 hartrees
 There are       21 alpha and       20 beta electrons
 Discretize the solute cavity surface with Lebedev spheres
	Using 110 Lebedev grid points for each H atom
	Using 194 Lebedev grid points for other atoms
	Atomic van der Waals radii will be scaled by 1.20
 Remove points where switching function is < 1.0e-08
 Keep 705 surface tesserae and discard 595 interior tesserae
 Molecular Surface Area = 84.443 Angst**2

                       Distance Matrix (Angstroms)
             C (  1)   O (  2)   O (  3)   O (  4)   O (  5)   H (  6)
   O (  2)  1.383737
   O (  3)  1.399549  2.271908
   O (  4)  1.542384  2.281096  2.432668
   O (  5)  2.263454  2.163530  3.244206  1.319765
   H (  6)  1.975833  1.167656  2.968238  1.971985  1.216639
   H (  7)  1.926515  3.106106  0.992435  2.672787  3.758840  3.719610
   H (  8)  1.112481  2.042213  2.088449  2.212671  3.014066  2.733212
             H (  7)
   H (  8)  2.277254
 
 Requested basis set is 6-311++G(2df,2p)
 There are 58 shells and 200 basis functions
 A cutoff of  1.0D-11 yielded   1645 shell pairs
 There are     19904 function pairs (     25266 Cartesian)
 Smallest overlap matrix eigenvalue = 4.13E-04
 Guess MOs from SCF MO coefficient file

 -----------------------------------------------------------------------
  General SCF calculation program by
  Eric Jon Sundstrom, Paul Horn, Yuezhi Mao, Dmitri Zuev, Alec White,
  David Stuck, Shaama M.S., Shane Yost, Joonho Lee, David Small,
  Daniel Levine, Susi Lehtola, Hugh Burton, Evgeny Epifanovsky,
  Bang C. Huynh
 -----------------------------------------------------------------------
 Exchange:     0.1500 Hartree-Fock + 1.0000 wB97M-V + LR-HF
 Correlation:  1.0000 wB97M-V
 Using SG-2 standard quadrature grid
 Nonlocal Correlation:  VV10 with C = 0.0100 and b = 6.00 and scale = 1.00000
 Grid used for NLC:  SG-1 standard quadrature
 
 Citation of the SMD model:
 Marenich, A.V.; Cramer, C.J.; Truhlar, D.G.
 J. Phys. Chem. B 2009, 113, 6378-6396.
 iSolventCode=           1
 Solvent: water                                                           
 
 vradii
            1           2           3           4           5           6
    1   1.8500000   1.5200000   1.5200000   1.5200000   1.5200000   1.2000000
            7           8
    1   1.2000000   1.2000000
 -------------------------------------------------------
 OpenMP BLAS3 based DFT computing Module                
 Release: version 1.0, May 2013, Q-Chem Inc. Pittsburgh 
 -------------------------------------------------------
 A unrestricted SCF calculation will be
 performed using Roothaan-Hall, DIIS, GDM
 SCF converges when RMS gradient is below 1.0e-06
 ---------------------------------------
  Cycle       Energy         DIIS error
 ---------------------------------------
    1    -340.6450544564      4.19e-04  Roothaan Step
 ---------------------------------------
  Cycle       Energy         DIIS error
 ---------------------------------------
    1    -340.6686184848      5.06e-04  
    2    -340.6723504280      4.88e-04  Done DIIS. Switching to GDM
 ---------------------------------------
  Cycle       Energy        RMS Gradient
 ---------------------------------------
    1    -340.6723504280      1.49e-02   Normal BFGS step
    2    -340.6712039531      2.43e-02  Line search: overstep
    3    -340.6753774533      3.19e-03   Normal BFGS step
    4    -340.6754947495      2.76e-03   Normal BFGS step
    5    -340.6755246483      1.63e-03   Normal BFGS step
    6    -340.6755358137      3.44e-04   Normal BFGS step
    7    -340.6755361730      1.80e-04   Normal BFGS step
    8    -340.6755363815      1.26e-04   Normal BFGS step
    9    -340.6755364399      5.72e-05   Normal BFGS step
   10    -340.6755364571      1.94e-05   Normal BFGS step
   11    -340.6755364586      1.29e-05   Normal BFGS step
   12    -340.6755364593      1.11e-05   Normal BFGS step
   13    -340.6755364596      4.67e-06   Normal BFGS step
   14    -340.6755364597      3.21e-06   Normal BFGS step
   15    -340.6755364598      1.87e-06   Normal BFGS step
   16    -340.6755364597      9.26e-07  Convergence criterion met
 ---------------------------------------
 SCF time:   CPU 322.44s  wall 20.00s 
<S^2> =          0.754106780
(3)  G-ENP(liq) elect-nuc-pol free energy of system     -340.675536460 a.u.
(4)  G-CDS(liq) cavity-dispersion-solvent structure 
     free energy                                                1.7715 kcal/mol
(6)  G-S(liq) free energy of system                     -340.672713464 a.u.
 SCF   energy in the final basis set =     -340.6727134641
 Total energy in the final basis set =     -340.6727134641
 
 --------------------------------------------------------------
 
                    Orbital Energies (a.u.)
 --------------------------------------------------------------
 
 Alpha MOs
 -- Occupied --
-19.4968 -19.4679 -19.3715 -19.3206 -10.5120  -1.3824  -1.2031  -1.1219
 -1.0396  -0.7702  -0.7328  -0.6835  -0.6481  -0.6228  -0.5726  -0.5315
 -0.4852  -0.4551  -0.4461  -0.4181  -0.3967
 -- Virtual --
  0.0319   0.0470   0.0591   0.0802   0.1030   0.1231   0.1300   0.1509
  0.1809   0.2014   0.2026   0.2276   0.2295   0.2466   0.2591   0.2669
  0.2720   0.2837   0.2980   0.3040   0.3173   0.3261   0.3346   0.3471
  0.3652   0.3848   0.3954   0.4074   0.4158   0.4737   0.5744   0.5868
  0.6047   0.6505   0.6588   0.6925   0.7582   0.7994   0.8308   0.8488
  0.9277   0.9722   1.0002   1.0454   1.0611   1.0748   1.0781   1.1084
  1.1190   1.1368   1.1428   1.1682   1.1906   1.2162   1.2423   1.2532
  1.2757   1.3262   1.3745   1.4051   1.4279   1.4644   1.5049   1.5283
  1.5529   1.5895   1.6332   1.6541   1.7350   1.7540   1.8625   1.8849
  1.9754   2.0052   2.0856   2.1019   2.1432   2.2014   2.2358   2.3025
  2.3061   2.3303   2.3970   2.4557   2.5505   2.5973   2.6302   2.6689
  2.7528   2.9179   3.1291   3.2196   3.2322   3.2795   3.3321   3.4157
  3.4583   3.4868   3.5826   3.6618   3.6673   3.6798   3.7761   3.7913
  3.8121   3.8374   3.8689   3.9122   4.0353   4.1300   4.2040   4.3132
  4.3235   4.5057   4.6767   4.7279   4.7467   4.9259   4.9937   5.0533
  5.0987   5.1149   5.1276   5.1319   5.1876   5.1905   5.2085   5.2293
  5.2477   5.2749   5.3056   5.3433   5.3617   5.3930   5.4221   5.4559
  5.4861   5.5177   5.5623   5.6386   5.7041   5.7620   5.8745   5.9147
  6.0135   6.1072   6.1303   6.3592   6.4504   6.4823   6.6073   6.7896
  6.8215   6.8851   7.0078   7.0440   7.0722   7.0765   7.1161   7.1950
  7.2499   7.3121   7.3260   7.3813   7.4138   7.4287   7.4932   7.5885
  7.6291   7.7438   7.8844   7.9374   7.9803   8.0718  24.6741  50.4167
 50.4355  50.5247  50.6264
 
 Beta MOs
 -- Occupied --
-19.4843 -19.4506 -19.3711 -19.3204 -10.5124  -1.3559  -1.2007  -1.1205
 -1.0031  -0.7617  -0.7257  -0.6653  -0.6309  -0.5673  -0.5630  -0.5119
 -0.4785  -0.4509  -0.4123  -0.3992
 -- Virtual --
 -0.0722   0.0323   0.0481   0.0594   0.0813   0.1045   0.1239   0.1365
  0.1549   0.1837   0.2038   0.2086   0.2293   0.2331   0.2485   0.2600
  0.2707   0.2754   0.2887   0.2994   0.3051   0.3186   0.3283   0.3358
  0.3496   0.3664   0.3868   0.3968   0.4085   0.4171   0.4746   0.5752
  0.5882   0.6068   0.6522   0.6590   0.6929   0.7592   0.8004   0.8356
  0.8515   0.9280   0.9752   1.0050   1.0513   1.0650   1.0778   1.0858
  1.1232   1.1309   1.1407   1.1504   1.1774   1.1995   1.2195   1.2509
  1.2558   1.2789   1.3312   1.3773   1.4091   1.4360   1.4715   1.5098
  1.5372   1.5610   1.6017   1.6464   1.6633   1.7433   1.7568   1.8719
  1.8865   1.9823   2.0143   2.1009   2.1103   2.1504   2.2121   2.2401
  2.3078   2.3105   2.3397   2.4014   2.4627   2.5584   2.6010   2.6326
  2.6768   2.7539   2.9172   3.1306   3.2203   3.2330   3.2794   3.3321
  3.4152   3.4580   3.4870   3.5822   3.6635   3.6685   3.6805   3.7754
  3.7917   3.8117   3.8384   3.8691   3.9141   4.0348   4.1301   4.2050
  4.3161   4.3269   4.5439   4.6978   4.7505   4.7611   4.9389   5.0499
  5.0983   5.1226   5.1371   5.1583   5.1703   5.2061   5.2120   5.2227
  5.2356   5.2631   5.2936   5.3150   5.3521   5.3752   5.3993   5.4359
  5.4619   5.4925   5.5258   5.5752   5.6567   5.7182   5.7685   5.8802
  5.9191   6.0177   6.1112   6.1368   6.4044   6.4573   6.4882   6.6159
  6.7908   6.8849   6.9444   7.0290   7.0769   7.0891   7.1081   7.1451
  7.2224   7.2574   7.3378   7.3501   7.3905   7.4241   7.4511   7.5204
  7.5999   7.6360   7.7476   7.8918   7.9449   7.9913   8.0891  24.6738
 50.4287  50.4459  50.5257  50.6267
 --------------------------------------------------------------
 
          Ground-State Mulliken Net Atomic Charges

     Atom                 Charge (a.u.)    Spin (a.u.)
  --------------------------------------------------------
      1 C                     0.085572      -0.015931
      2 O                    -0.619875       0.006042
      3 O                    -0.395372       0.015053
      4 O                    -0.027053       0.390791
      5 O                    -0.022881       0.599620
      6 H                     0.359102      -0.005248
      7 H                     0.348693      -0.000516
      8 H                     0.271813       0.010188
  --------------------------------------------------------
  Sum of atomic charges =     0.000000
  Sum of spin   charges =     1.000000

 -----------------------------------------------------------------
                    Cartesian Multipole Moments
 -----------------------------------------------------------------
    Charge (ESU x 10^10)
                 0.0000
    Dipole Moment (Debye)
         X       0.8860      Y       3.3304      Z      -2.3572
       Tot       4.1753
    Quadrupole Moments (Debye-Ang)
        XX     -31.1622     XY      -4.5569     YY     -39.7260
        XZ       2.9279     YZ       0.6021     ZZ     -24.2839
    Octopole Moments (Debye-Ang^2)
       XXX      91.8903    XXY      28.6491    XYY      39.5373
       YYY      80.3941    XXZ     -24.4097    XYZ       1.6334
       YYZ     -24.1063    XZZ      22.2312    YZZ      15.1753
       ZZZ     -54.6566
    Hexadecapole Moments (Debye-Ang^3)
      XXXX    -260.4155   XXXY     -78.9312   XXYY     -95.3324
      XYYY     -78.8933   YYYY    -265.7864   XXXZ      38.3102
      XXYZ       2.1795   XYYZ       9.0013   YYYZ      25.7987
      XXZZ     -71.4417   XYZZ     -16.5515   YYZZ     -84.8744
      XZZZ      35.5710   YZZZ      -3.4371   ZZZZ    -236.3815
 -----------------------------------------------------------------
 Calculating analytic gradient of the SCF energy
 Gradient of CDS energy
            1           2           3           4           5           6
    1  -0.0018858  -0.0010900   0.0035840  -0.0002800  -0.0000463   0.0000550
    2  -0.0051452   0.0041185   0.0010876  -0.0000296   0.0002474  -0.0002032
    3   0.0015674  -0.0043352   0.0024921   0.0003842  -0.0001111   0.0004065
            7           8
    1  -0.0003708   0.0000340
    2   0.0000352  -0.0001106
    3  -0.0003893  -0.0000146
 Gradient of SCF Energy
            1           2           3           4           5           6
    1  -0.0196982   0.0012493  -0.0134175  -0.0040170   0.0106683   0.0002656
    2   0.0714591  -0.0133487  -0.0544788   0.0229905  -0.0672531   0.0270135
    3  -0.0079320   0.0128756   0.0202332  -0.0282728   0.0020182   0.0465786
            7           8
    1   0.0028846   0.0220649
    2   0.0314242  -0.0178067
    3  -0.0282890  -0.0172119
 Max gradient component =       7.146E-02
 RMS gradient           =       2.975E-02
 Computing fast CPCM-SWIG gradient
 Updating gradient with PCM contributions...
 -- total gradient after adding PCM contribution --
---------------------------------------------------
  Atom         X              Y              Z     
---------------------------------------------------
   1      -0.010817       0.067133      -0.016628
   2       0.002912      -0.003982       0.015880
   3      -0.012659      -0.037090       0.004812
   4      -0.004011       0.020415      -0.026648
   5       0.010426      -0.068435       0.000652
   6      -0.000717       0.024126       0.043463
   7       0.001753       0.016925      -0.013365
   8       0.013114      -0.019092      -0.008166
---------------------------------------------------
 Number of fixed atoms: 0
 Gradient time:  CPU 42.03 s  wall 3.58 s
 ----------------------------------------------------------------
             Standard Nuclear Orientation (Angstroms)
    I     Atom           X                Y                Z
 ----------------------------------------------------------------
    1      C      -0.7702383000    -0.8231058000     0.0464034000
    2      O      -0.5724227000    -1.7593505000     1.0440470000
    3      O      -1.9409752000    -1.1285395000    -0.6561610000
    4      O      -0.9211412000     0.4865852000     0.8502196000
    5      O      -0.7823546000     0.1126125000     2.1082585000
    6      H      -0.6125548000    -1.0870539000     1.9978956000
    7      H      -1.9933078000    -0.4751257000    -1.4013049000
    8      H       0.1208687000    -0.7983075000    -0.6191955000
 ----------------------------------------------------------------
 Nuclear Repulsion Energy =         192.73987762 hartrees
 There are       21 alpha and       20 beta electrons
 Discretize the solute cavity surface with Lebedev spheres
	Using 110 Lebedev grid points for each H atom
	Using 194 Lebedev grid points for other atoms
	Atomic van der Waals radii will be scaled by 1.20
 Remove points where switching function is < 1.0e-08
 Keep 707 surface tesserae and discard 593 interior tesserae
 Molecular Surface Area = 84.440 Angst**2

                       Distance Matrix (Angstroms)
             C (  1)   O (  2)   O (  3)   O (  4)   O (  5)   H (  6)
   O (  2)  1.382381
   O (  3)  1.399111  2.271908
   O (  4)  1.544080  2.281096  2.432668
   O (  5)  2.264280  2.163530  3.244206  1.319765
   H (  6)  1.975564  1.167656  2.968238  1.971985  1.216639
   H (  7)  1.926875  3.106106  0.992435  2.672787  3.758840  3.719610
   H (  8)  1.112523  2.042213  2.088449  2.212671  3.014066  2.733212
             H (  7)
   H (  8)  2.277254
 
 Requested basis set is 6-311++G(2df,2p)
 There are 58 shells and 200 basis functions
 A cutoff of  1.0D-11 yielded   1645 shell pairs
 There are     19904 function pairs (     25266 Cartesian)
 Smallest overlap matrix eigenvalue = 4.13E-04
 Guess MOs from SCF MO coefficient file

 -----------------------------------------------------------------------
  General SCF calculation program by
  Eric Jon Sundstrom, Paul Horn, Yuezhi Mao, Dmitri Zuev, Alec White,
  David Stuck, Shaama M.S., Shane Yost, Joonho Lee, David Small,
  Daniel Levine, Susi Lehtola, Hugh Burton, Evgeny Epifanovsky,
  Bang C. Huynh
 -----------------------------------------------------------------------
 Exchange:     0.1500 Hartree-Fock + 1.0000 wB97M-V + LR-HF
 Correlation:  1.0000 wB97M-V
 Using SG-2 standard quadrature grid
 Nonlocal Correlation:  VV10 with C = 0.0100 and b = 6.00 and scale = 1.00000
 Grid used for NLC:  SG-1 standard quadrature
 
 Citation of the SMD model:
 Marenich, A.V.; Cramer, C.J.; Truhlar, D.G.
 J. Phys. Chem. B 2009, 113, 6378-6396.
 iSolventCode=           1
 Solvent: water                                                           
 
 vradii
            1           2           3           4           5           6
    1   1.8500000   1.5200000   1.5200000   1.5200000   1.5200000   1.2000000
            7           8
    1   1.2000000   1.2000000
 -------------------------------------------------------
 OpenMP BLAS3 based DFT computing Module                
 Release: version 1.0, May 2013, Q-Chem Inc. Pittsburgh 
 -------------------------------------------------------
 A unrestricted SCF calculation will be
 performed using Roothaan-Hall, DIIS, GDM
 SCF converges when RMS gradient is below 1.0e-06
 ---------------------------------------
  Cycle       Energy         DIIS error
 ---------------------------------------
    1    -340.6453483804      4.19e-04  Roothaan Step
 ---------------------------------------
  Cycle       Energy         DIIS error
 ---------------------------------------
    1    -340.6689443073      5.04e-04  
    2    -340.6726879498      4.83e-04  Done DIIS. Switching to GDM
 ---------------------------------------
  Cycle       Energy        RMS Gradient
 ---------------------------------------
    1    -340.6726879498      1.44e-02   Normal BFGS step
    2    -340.6715855950      2.39e-02  Line search: overstep
    3    -340.6756494491      3.25e-03   Normal BFGS step
    4    -340.6757664570      2.67e-03   Normal BFGS step
    5    -340.6757957314      1.67e-03   Normal BFGS step
    6    -340.6758070564      3.48e-04   Normal BFGS step
    7    -340.6758074513      1.80e-04   Normal BFGS step
    8    -340.6758076817      1.17e-04   Normal BFGS step
    9    -340.6758077548      6.10e-05   Normal BFGS step
   10    -340.6758077740      2.19e-05   Normal BFGS step
   11    -340.6758077763      2.06e-05   Normal BFGS step
   12    -340.6758077775      1.54e-05   Normal BFGS step
   13    -340.6758077782      5.92e-06   Normal BFGS step
   14    -340.6758077784      3.50e-06   Normal BFGS step
   15    -340.6758077784      1.86e-06   Normal BFGS step
   16    -340.6758077784      9.57e-07  Convergence criterion met
 ---------------------------------------
 SCF time:   CPU 326.22s  wall 21.00s 
<S^2> =          0.754111720
(3)  G-ENP(liq) elect-nuc-pol free energy of system     -340.675807778 a.u.
(4)  G-CDS(liq) cavity-dispersion-solvent structure 
     free energy                                                1.7837 kcal/mol
(6)  G-S(liq) free energy of system                     -340.672965286 a.u.
 SCF   energy in the final basis set =     -340.6729652862
 Total energy in the final basis set =     -340.6729652862
 
 --------------------------------------------------------------
 
                    Orbital Energies (a.u.)
 --------------------------------------------------------------
 
 Alpha MOs
 -- Occupied --
-19.4965 -19.4677 -19.3715 -19.3207 -10.5119  -1.3821  -1.2033  -1.1223
 -1.0392  -0.7700  -0.7329  -0.6834  -0.6479  -0.6229  -0.5729  -0.5315
 -0.4852  -0.4552  -0.4460  -0.4181  -0.3968
 -- Virtual --
  0.0319   0.0470   0.0591   0.0802   0.1030   0.1231   0.1301   0.1510
  0.1808   0.2012   0.2026   0.2275   0.2294   0.2465   0.2592   0.2670
  0.2720   0.2837   0.2980   0.3040   0.3176   0.3262   0.3346   0.3471
  0.3653   0.3849   0.3956   0.4075   0.4160   0.4738   0.5745   0.5868
  0.6047   0.6506   0.6591   0.6926   0.7582   0.7994   0.8312   0.8488
  0.9273   0.9723   1.0003   1.0455   1.0611   1.0748   1.0780   1.1086
  1.1192   1.1368   1.1429   1.1682   1.1907   1.2161   1.2423   1.2534
  1.2756   1.3260   1.3745   1.4051   1.4279   1.4643   1.5051   1.5284
  1.5528   1.5896   1.6332   1.6540   1.7350   1.7541   1.8622   1.8854
  1.9754   2.0050   2.0855   2.1023   2.1427   2.2019   2.2358   2.3031
  2.3062   2.3304   2.3969   2.4560   2.5508   2.5975   2.6301   2.6691
  2.7527   2.9181   3.1294   3.2194   3.2321   3.2798   3.3324   3.4160
  3.4585   3.4870   3.5823   3.6610   3.6673   3.6798   3.7764   3.7914
  3.8130   3.8373   3.8693   3.9120   4.0354   4.1301   4.2040   4.3132
  4.3239   4.5057   4.6768   4.7277   4.7465   4.9254   4.9938   5.0532
  5.0986   5.1149   5.1277   5.1315   5.1875   5.1905   5.2087   5.2294
  5.2477   5.2748   5.3055   5.3431   5.3612   5.3935   5.4225   5.4562
  5.4862   5.5176   5.5623   5.6382   5.7041   5.7628   5.8733   5.9149
  6.0153   6.1094   6.1312   6.3594   6.4504   6.4824   6.6072   6.7924
  6.8216   6.8852   7.0079   7.0440   7.0721   7.0765   7.1159   7.1946
  7.2499   7.3123   7.3261   7.3815   7.4139   7.4288   7.4932   7.5886
  7.6302   7.7440   7.8843   7.9374   7.9801   8.0717  24.6762  50.4167
 50.4356  50.5248  50.6271
 
 Beta MOs
 -- Occupied --
-19.4841 -19.4504 -19.3711 -19.3205 -10.5123  -1.3556  -1.2009  -1.1209
 -1.0026  -0.7616  -0.7257  -0.6654  -0.6307  -0.5676  -0.5628  -0.5118
 -0.4785  -0.4510  -0.4124  -0.3993
 -- Virtual --
 -0.0720   0.0323   0.0481   0.0594   0.0813   0.1045   0.1239   0.1366
  0.1549   0.1836   0.2038   0.2084   0.2292   0.2329   0.2485   0.2601
  0.2708   0.2753   0.2887   0.2994   0.3051   0.3189   0.3283   0.3359
  0.3497   0.3664   0.3869   0.3970   0.4086   0.4173   0.4747   0.5753
  0.5881   0.6068   0.6523   0.6593   0.6930   0.7592   0.8004   0.8360
  0.8515   0.9276   0.9754   1.0051   1.0514   1.0650   1.0777   1.0858
  1.1234   1.1312   1.1407   1.1505   1.1774   1.1997   1.2194   1.2508
  1.2560   1.2789   1.3311   1.3773   1.4090   1.4360   1.4714   1.5101
  1.5370   1.5610   1.6018   1.6464   1.6631   1.7433   1.7568   1.8716
  1.8870   1.9822   2.0142   2.1008   2.1107   2.1500   2.2126   2.2401
  2.3085   2.3105   2.3398   2.4012   2.4630   2.5587   2.6012   2.6325
  2.6769   2.7539   2.9173   3.1309   3.2202   3.2329   3.2797   3.3324
  3.4155   3.4582   3.4873   3.5819   3.6629   3.6684   3.6805   3.7756
  3.7918   3.8126   3.8383   3.8695   3.9140   4.0348   4.1302   4.2049
  4.3161   4.3272   4.5439   4.6978   4.7503   4.7610   4.9383   5.0499
  5.0981   5.1223   5.1370   5.1583   5.1704   5.2060   5.2120   5.2230
  5.2356   5.2631   5.2934   5.3149   5.3520   5.3747   5.3998   5.4363
  5.4621   5.4926   5.5258   5.5754   5.6564   5.7182   5.7693   5.8792
  5.9190   6.0195   6.1139   6.1371   6.4046   6.4573   6.4883   6.6157
  6.7936   6.8849   6.9445   7.0291   7.0770   7.0891   7.1080   7.1449
  7.2220   7.2574   7.3381   7.3503   7.3905   7.4241   7.4511   7.5204
  7.6000   7.6369   7.7478   7.8917   7.9449   7.9911   8.0889  24.6760
 50.4287  50.4460  50.5258  50.6274
 --------------------------------------------------------------
 
          Ground-State Mulliken Net Atomic Charges

     Atom                 Charge (a.u.)    Spin (a.u.)
  --------------------------------------------------------
      1 C                     0.085552      -0.015966
      2 O                    -0.618999       0.005939
      3 O                    -0.395221       0.014963
      4 O                    -0.027461       0.391709
      5 O                    -0.023529       0.598996
      6 H                     0.359196      -0.005253
      7 H                     0.348771      -0.000514
      8 H                     0.271691       0.010127
  --------------------------------------------------------
  Sum of atomic charges =     0.000000
  Sum of spin   charges =     1.000000

 -----------------------------------------------------------------
                    Cartesian Multipole Moments
 -----------------------------------------------------------------
    Charge (ESU x 10^10)
                 0.0000
    Dipole Moment (Debye)
         X       0.8855      Y       3.3169      Z      -2.3607
       Tot       4.1664
    Quadrupole Moments (Debye-Ang)
        XX     -31.1594     XY      -4.5472     YY     -39.7049
        XZ       2.9341     YZ       0.5921     ZZ     -24.2914
    Octopole Moments (Debye-Ang^2)
       XXX      91.8831    XXY      28.6458    XYY      39.5245
       YYY      80.3694    XXZ     -24.4176    XYZ       1.6381
       YYZ     -24.0937    XZZ      22.2367    YZZ      15.1692
       ZZZ     -54.6854
    Hexadecapole Moments (Debye-Ang^3)
      XXXX    -260.3912   XXXY     -78.9414   XXYY     -95.3328
      XYYY     -78.8835   YYYY    -265.7718   XXXZ      38.3280
      XXYZ       2.1656   XYYZ       8.9954   YYYZ      25.7633
      XXZZ     -71.4457   XYZZ     -16.5506   YYZZ     -84.8739
      XZZZ      35.6043   YZZZ      -3.4673   ZZZZ    -236.4542
 -----------------------------------------------------------------
 Calculating analytic gradient of the SCF energy
 Gradient of CDS energy
            1           2           3           4           5           6
    1  -0.0019470  -0.0010939   0.0036499  -0.0002797  -0.0000462   0.0000547
    2  -0.0051705   0.0041247   0.0011002  -0.0000289   0.0002475  -0.0002013
    3   0.0015469  -0.0043502   0.0025309   0.0003837  -0.0001111   0.0004055
            7           8
    1  -0.0003699   0.0000322
    2   0.0000361  -0.0001076
    3  -0.0003892  -0.0000166
 Gradient of SCF Energy
            1           2           3           4           5           6
    1  -0.0198644   0.0012651  -0.0131749  -0.0040556   0.0106516   0.0003054
    2   0.0704209  -0.0128234  -0.0541388   0.0231387  -0.0671485   0.0267588
    3  -0.0076247   0.0127516   0.0202928  -0.0284219   0.0021124   0.0464636
            7           8
    1   0.0027866   0.0220863
    2   0.0314019  -0.0176097
    3  -0.0283521  -0.0172218
 Max gradient component =       7.042E-02
 RMS gradient           =       2.959E-02
 Computing fast CPCM-SWIG gradient
 Updating gradient with PCM contributions...
 -- total gradient after adding PCM contribution --
---------------------------------------------------
  Atom         X              Y              Z     
---------------------------------------------------
   1      -0.010982       0.066127      -0.016347
   2       0.002926      -0.003490       0.015773
   3      -0.012430      -0.036764       0.004857
   4      -0.004055       0.020581      -0.026795
   5       0.010414      -0.068335       0.000759
   6      -0.000679       0.023886       0.043351
   7       0.001664       0.016909      -0.013417
   8       0.013142      -0.018913      -0.008181
---------------------------------------------------
 Number of fixed atoms: 0
 Gradient time:  CPU 41.35 s  wall 3.29 s
 ----------------------------------------------------------------
             Standard Nuclear Orientation (Angstroms)
    I     Atom           X                Y                Z
 ----------------------------------------------------------------
    1      C      -0.7702383000    -0.8221058000     0.0474034000
    2      O      -0.5724227000    -1.7593505000     1.0440470000
    3      O      -1.9409752000    -1.1285395000    -0.6561610000
    4      O      -0.9211412000     0.4865852000     0.8502196000
    5      O      -0.7823546000     0.1126125000     2.1082585000
    6      H      -0.6125548000    -1.0870539000     1.9978956000
    7      H      -1.9933078000    -0.4751257000    -1.4013049000
    8      H       0.1208687000    -0.7983075000    -0.6191955000
 ----------------------------------------------------------------
 Nuclear Repulsion Energy =         192.75099320 hartrees
 There are       21 alpha and       20 beta electrons
 Discretize the solute cavity surface with Lebedev spheres
	Using 110 Lebedev grid points for each H atom
	Using 194 Lebedev grid points for other atoms
	Atomic van der Waals radii will be scaled by 1.20
 Remove points where switching function is < 1.0e-08
 Keep 706 surface tesserae and discard 594 interior tesserae
 Molecular Surface Area = 84.438 Angst**2

                       Distance Matrix (Angstroms)
             C (  1)   O (  2)   O (  3)   O (  4)   O (  5)   H (  6)
   O (  2)  1.382338
   O (  3)  1.399832  2.271908
   O (  4)  1.542711  2.281096  2.432668
   O (  5)  2.262956  2.163530  3.244206  1.319765
   H (  6)  1.974710  1.167656  2.968238  1.971985  1.216639
   H (  7)  1.927446  3.106106  0.992435  2.672787  3.758840  3.719610
   H (  8)  1.113100  2.042213  2.088449  2.212671  3.014066  2.733212
             H (  7)
   H (  8)  2.277254
 
 Requested basis set is 6-311++G(2df,2p)
 There are 58 shells and 200 basis functions
 A cutoff of  1.0D-11 yielded   1645 shell pairs
 There are     19904 function pairs (     25266 Cartesian)
 Smallest overlap matrix eigenvalue = 4.13E-04
 Guess MOs from SCF MO coefficient file

 -----------------------------------------------------------------------
  General SCF calculation program by
  Eric Jon Sundstrom, Paul Horn, Yuezhi Mao, Dmitri Zuev, Alec White,
  David Stuck, Shaama M.S., Shane Yost, Joonho Lee, David Small,
  Daniel Levine, Susi Lehtola, Hugh Burton, Evgeny Epifanovsky,
  Bang C. Huynh
 -----------------------------------------------------------------------
 Exchange:     0.1500 Hartree-Fock + 1.0000 wB97M-V + LR-HF
 Correlation:  1.0000 wB97M-V
 Using SG-2 standard quadrature grid
 Nonlocal Correlation:  VV10 with C = 0.0100 and b = 6.00 and scale = 1.00000
 Grid used for NLC:  SG-1 standard quadrature
 
 Citation of the SMD model:
 Marenich, A.V.; Cramer, C.J.; Truhlar, D.G.
 J. Phys. Chem. B 2009, 113, 6378-6396.
 iSolventCode=           1
 Solvent: water                                                           
 
 vradii
            1           2           3           4           5           6
    1   1.8500000   1.5200000   1.5200000   1.5200000   1.5200000   1.2000000
            7           8
    1   1.2000000   1.2000000
 -------------------------------------------------------
 OpenMP BLAS3 based DFT computing Module                
 Release: version 1.0, May 2013, Q-Chem Inc. Pittsburgh 
 -------------------------------------------------------
 A unrestricted SCF calculation will be
 performed using Roothaan-Hall, DIIS, GDM
 SCF converges when RMS gradient is below 1.0e-06
 ---------------------------------------
  Cycle       Energy         DIIS error
 ---------------------------------------
    1    -340.6452654824      4.19e-04  Roothaan Step
 ---------------------------------------
  Cycle       Energy         DIIS error
 ---------------------------------------
    1    -340.6688198521      5.05e-04  
    2    -340.6725467751      4.86e-04  Done DIIS. Switching to GDM
 ---------------------------------------
  Cycle       Energy        RMS Gradient
 ---------------------------------------
    1    -340.6725467751      1.49e-02   Normal BFGS step
    2    -340.6714113858      2.43e-02  Line search: overstep
    3    -340.6755475032      3.17e-03   Normal BFGS step
    4    -340.6756641258      2.77e-03   Normal BFGS step
    5    -340.6756940655      1.61e-03   Normal BFGS step
    6    -340.6757051204      3.21e-04   Normal BFGS step
    7    -340.6757054744      1.63e-04   Normal BFGS step
    8    -340.6757056771      1.13e-04   Normal BFGS step
    9    -340.6757057355      6.40e-05   Normal BFGS step
   10    -340.6757057541      2.13e-05   Normal BFGS step
   11    -340.6757057563      1.84e-05   Normal BFGS step
   12    -340.6757057574      1.55e-05   Normal BFGS step
   13    -340.6757057580      5.54e-06   Normal BFGS step
   14    -340.6757057581      3.01e-06   Normal BFGS step
   15    -340.6757057582      1.67e-06   Normal BFGS step
   16    -340.6757057582      9.23e-07  Convergence criterion met
 ---------------------------------------
 SCF time:   CPU 327.82s  wall 21.00s 
<S^2> =          0.754108150
(3)  G-ENP(liq) elect-nuc-pol free energy of system     -340.675705758 a.u.
(4)  G-CDS(liq) cavity-dispersion-solvent structure 
     free energy                                                1.7794 kcal/mol
(6)  G-S(liq) free energy of system                     -340.672870032 a.u.
 SCF   energy in the final basis set =     -340.6728700322
 Total energy in the final basis set =     -340.6728700322
 
 --------------------------------------------------------------
 
                    Orbital Energies (a.u.)
 --------------------------------------------------------------
 
 Alpha MOs
 -- Occupied --
[...]
 -------------------------------------------------------
 A unrestricted SCF calculation will be
 performed using Roothaan-Hall, DIIS, GDM
 SCF converges when RMS gradient is below 1.0e-07
 ---------------------------------------
  Cycle       Energy         DIIS error
 ---------------------------------------
    1    -340.6734650998      3.74e-04  Roothaan Step
 ---------------------------------------
  Cycle       Energy         DIIS error
 ---------------------------------------
    1    -340.6953570775      4.16e-04  
    2    -340.6989356120      3.27e-04  Done DIIS. Switching to GDM
 ---------------------------------------
  Cycle       Energy        RMS Gradient
 ---------------------------------------
    1    -340.6989356120      9.70e-03   Normal BFGS step
    2    -340.6987179153      1.67e-02  Line search: overstep
    3    -340.7003000667      3.11e-03   Normal BFGS step
    4    -340.7004009183      2.37e-03   Normal BFGS step
    5    -340.7004306904      1.16e-03   Normal BFGS step
    6    -340.7004375955      1.42e-04   Normal BFGS step
    7    -340.7004380933      2.29e-04   Normal BFGS step
    8    -340.7004383291      9.34e-05   Normal BFGS step
    9    -340.7004383669      5.72e-05   Normal BFGS step
   10    -340.7004383816      1.89e-05   Normal BFGS step
   11    -340.7004383848      1.55e-05   Normal BFGS step
   12    -340.7004383857      9.52e-06   Normal BFGS step
   13    -340.7004383859      6.87e-06   Normal BFGS step
   14    -340.7004383860      4.78e-06   Normal BFGS step
   15    -340.7004383861      1.13e-06   Normal BFGS step
   16    -340.7004383861      4.66e-07   Normal BFGS step
   17    -340.7004383861      3.02e-07   Normal BFGS step
   18    -340.7004383861      1.55e-07   Normal BFGS step
   19    -340.7004383861      3.50e-08  Convergence criterion met
 ---------------------------------------
 SCF time:   CPU 415.24s  wall 27.00s 
<S^2> =          0.755440813
(3)  G-ENP(liq) elect-nuc-pol free energy of system     -340.700438386 a.u.
(4)  G-CDS(liq) cavity-dispersion-solvent structure 
     free energy                                                2.9172 kcal/mol
(6)  G-S(liq) free energy of system                     -340.695789605 a.u.
 SCF   energy in the final basis set =     -340.6957896053
 Total energy in the final basis set =     -340.6957896053
 
 --------------------------------------------------------------
 
                    Orbital Energies (a.u.)
 --------------------------------------------------------------
 
 Alpha MOs
 -- Occupied --
-19.4368 -19.4342 -19.3893 -19.3509 -10.5105  -1.3487  -1.2501  -1.1734
 -0.9617  -0.7753  -0.7153  -0.6947  -0.6167  -0.6147  -0.6019  -0.5303
 -0.5090  -0.4788  -0.4341  -0.3938  -0.3886
 -- Virtual --
  0.0315   0.0508   0.0602   0.0776   0.0890   0.1058   0.1261   0.1461
  0.1743   0.1899   0.2141   0.2246   0.2374   0.2441   0.2619   0.2700
  0.2756   0.2942   0.3012   0.3028   0.3198   0.3316   0.3460   0.3621
  0.3787   0.3874   0.4057   0.4097   0.4431   0.4902   0.5816   0.5916
  0.6056   0.6462   0.6847   0.7043   0.7495   0.7867   0.8276   0.8532
  0.9079   0.9526   1.0306   1.0337   1.0635   1.0697   1.0866   1.1137
  1.1274   1.1451   1.1511   1.1604   1.1889   1.1927   1.2331   1.2394
  1.2535   1.3435   1.3753   1.4128   1.4440   1.4639   1.4921   1.5370
  1.5596   1.5887   1.6377   1.6766   1.7406   1.7501   1.8227   1.8816
  1.9867   2.0215   2.0845   2.1385   2.1626   2.2181   2.2579   2.2930
  2.3159   2.3890   2.4329   2.4805   2.5481   2.6327   2.6654   2.6860
  2.7783   2.9162   3.0876   3.1569   3.1837   3.2381   3.3163   3.3494
  3.4125   3.4953   3.5250   3.5729   3.6452   3.6745   3.7790   3.8135
  3.8619   3.9066   3.9247   3.9735   4.0983   4.1359   4.2354   4.3380
  4.4498   4.5347   4.6797   4.6866   4.7607   4.8783   5.0119   5.0262
  5.0767   5.1114   5.1195   5.1477   5.1778   5.1974   5.2120   5.2224
  5.2401   5.2417   5.2642   5.3273   5.3496   5.3695   5.4293   5.4618
  5.4791   5.5025   5.5989   5.6203   5.6280   5.6960   5.7794   6.0504
  6.0692   6.1862   6.4972   6.5274   6.6221   6.6751   6.6858   6.8110
  6.9215   6.9798   7.0201   7.0321   7.0812   7.1014   7.1270   7.2370
  7.2470   7.2986   7.3496   7.3760   7.3981   7.4302   7.4795   7.5307
  7.7277   7.7631   7.8059   7.9525   8.0089   8.1303  25.0060  50.4725
 50.4837  50.5587  50.7051
 
 Beta MOs
 -- Occupied --
-19.4209 -19.4196 -19.3894 -19.3511 -10.5108  -1.3215  -1.2486  -1.1730
 -0.9215  -0.7736  -0.7098  -0.6908  -0.6098  -0.5855  -0.5408  -0.5148
 -0.5061  -0.4726  -0.4305  -0.3728
 -- Virtual --
 -0.0259   0.0317   0.0512   0.0607   0.0790   0.0909   0.1069   0.1267
  0.1469   0.1766   0.1930   0.2189   0.2274   0.2390   0.2468   0.2630
  0.2719   0.2791   0.2973   0.3029   0.3091   0.3215   0.3327   0.3486
  0.3629   0.3799   0.3930   0.4057   0.4108   0.4434   0.4909   0.5820
  0.5925   0.6063   0.6481   0.6847   0.7040   0.7501   0.7867   0.8287
  0.8567   0.9078   0.9559   1.0320   1.0395   1.0665   1.0746   1.0975
  1.1288   1.1307   1.1501   1.1575   1.1669   1.1944   1.2075   1.2358
  1.2466   1.2553   1.3497   1.3807   1.4319   1.4464   1.4693   1.4983
  1.5522   1.5640   1.5937   1.6456   1.6959   1.7498   1.7563   1.8312
  1.8824   1.9931   2.0343   2.0883   2.1478   2.1672   2.2235   2.2675
  2.3110   2.3208   2.3918   2.4347   2.4832   2.5544   2.6343   2.6699
  2.6942   2.7780   2.9155   3.0870   3.1547   3.1822   3.2378   3.3176
  3.3484   3.4117   3.4946   3.5241   3.5717   3.6444   3.6744   3.7784
  3.8109   3.8624   3.9062   3.9246   3.9734   4.0961   4.1355   4.2354
  4.3378   4.4498   4.5758   4.6947   4.7127   4.7842   4.8900   5.0424
  5.0793   5.0926   5.1433   5.1538   5.1688   5.1990   5.2200   5.2308
  5.2439   5.2640   5.2708   5.2757   5.3377   5.3585   5.3799   5.4380
  5.4673   5.4866   5.5057   5.6045   5.6258   5.6539   5.7194   5.7801
  6.0503   6.0693   6.1877   6.5044   6.5771   6.6234   6.6753   6.6961
  6.8646   6.9817   7.0133   7.0216   7.0579   7.1330   7.1398   7.1483
  7.2428   7.2792   7.3039   7.3794   7.3953   7.4094   7.4482   7.4827
  7.5492   7.7286   7.7696   7.8096   7.9546   8.0218   8.1498  25.0057
 50.4842  50.4950  50.5591  50.7053
 --------------------------------------------------------------
 
          Ground-State Mulliken Net Atomic Charges

     Atom                 Charge (a.u.)    Spin (a.u.)
  --------------------------------------------------------
      1 C                     0.107527      -0.021529
      2 O                    -0.481384      -0.001530
      3 O                    -0.298730       0.000681
      4 O                    -0.158242       0.536697
      5 O                    -0.160457       0.493386
      6 H                     0.360606      -0.008347
      7 H                     0.344368      -0.000406
      8 H                     0.286313       0.001048
  --------------------------------------------------------
  Sum of atomic charges =    -0.000000
  Sum of spin   charges =     1.000000

 -----------------------------------------------------------------
                    Cartesian Multipole Moments
 -----------------------------------------------------------------
    Charge (ESU x 10^10)
                 0.0000
    Dipole Moment (Debye)
         X       0.7937      Y       0.6532      Z      -4.4758
       Tot       4.5923
    Quadrupole Moments (Debye-Ang)
        XX     -30.5653     XY      -1.9514     YY     -36.2556
        XZ       5.0730     YZ       0.4564     ZZ     -27.1101
    Octopole Moments (Debye-Ang^2)
       XXX      90.2828    XXY      24.3244    XYY      36.4750
       YYY      70.1349    XXZ     -27.8549    XYZ       0.3271
       YYZ     -25.7234    XZZ      23.4409    YZZ      12.5874
       ZZZ     -71.1138
    Hexadecapole Moments (Debye-Ang^3)
      XXXX    -254.1144   XXXY     -72.8784   XXYY     -92.4550
      XYYY     -72.2499   YYYY    -263.2055   XXXZ      44.1230
      XXYZ       1.7414   XYYZ      12.4408   YYYZ      16.1472
      XXZZ     -74.6970   XYZZ     -13.8895   YYZZ     -88.6628
      XZZZ      49.1501   YZZZ      -7.3481   ZZZZ    -282.8605
 -----------------------------------------------------------------
 Calculating analytic gradient of the SCF energy
 Gradient of CDS energy
            1           2           3           4           5           6
    1  -0.0021216  -0.0005548   0.0030648  -0.0000211  -0.0000381   0.0000460
    2  -0.0024386   0.0013829   0.0003473   0.0000533   0.0002641  -0.0000964
    3  -0.0002454  -0.0016980   0.0018781   0.0001951  -0.0000708   0.0002971
            7           8
    1  -0.0002466  -0.0001286
    2   0.0000997   0.0003877
    3  -0.0003687   0.0000127
 Gradient of SCF Energy
            1           2           3           4           5           6
    1  -0.0105116  -0.0009792  -0.0023639  -0.0001442  -0.0002779   0.0011854
    2  -0.0032092  -0.0054250  -0.0120570   0.0002379   0.0015692   0.0013857
    3   0.0105188  -0.0000554   0.0212014   0.0015295  -0.0002895  -0.0001867
            7           8
    1   0.0018660   0.0112254
    2   0.0119299   0.0055685
    3  -0.0213993  -0.0113188
 Max gradient component =       2.140E-02
 RMS gradient           =       8.562E-03
 Computing fast CPCM-SWIG gradient
 Updating gradient with PCM contributions...
 -- total gradient after adding PCM contribution --
---------------------------------------------------
  Atom         X              Y              Z     
---------------------------------------------------
   1       0.000059      -0.000039      -0.000023
   2       0.000048       0.000055       0.000007
   3       0.000004       0.000050       0.000040
   4       0.000009      -0.000028       0.000007
   5      -0.000058      -0.000046      -0.000031
   6      -0.000082      -0.000002       0.000020
   7       0.000019      -0.000062      -0.000039
   8       0.000001       0.000071       0.000018
---------------------------------------------------
 Number of fixed atoms: 0
 Gradient time:  CPU 45.14 s  wall 3.66 s
 Geometry Optimization Parameters
   NAtoms,    NIC,     NZ,  NCons,   NDum,   NFix, NCnnct, MaxDiis
        8      47       0       0       0       0       0       0

 Cartesian Hessian Update
 Hessian updated using Powell/Murtagh-Sargent update
  Mixing factors:     0.927202 Powell                      0.072798 Murtagh-Sargent


** GEOMETRY OPTIMIZATION IN DELOCALIZED INTERNAL COORDINATES **
   Searching for a Transition State

   Optimization Cycle:  25

                       Coordinates (Angstroms)
     ATOM                X               Y               Z
      1  C        -0.7810584394   -1.0313684003   -0.0130717950
      2  O        -0.6171866242   -1.7992946399    0.9987064448
      3  O        -1.9573646450   -1.0882447582   -0.6271257013
      4  O        -0.8811540911    0.6028206347    0.9991739583
      5  O        -0.7509082308    0.1715181256    2.2029674936
      6  H        -0.6227170061   -1.0426385845    1.8744591052
      7  H        -1.9241926953   -0.5886526155   -1.4554772085
      8  H         0.0624558320   -0.6954249620   -0.6094695970
   Point Group: c1    Number of degrees of freedom:    18


   Energy is   -340.695789605

 Hessian updated using Powell/Murtagh-Sargent update
  Mixing factors:     0.805249 Powell                      0.194751 Murtagh-Sargent

 18 Hessian modes will be used to form the next step
  Hessian Eigenvalues:
    -0.029750    0.003816    0.011191    0.015719    0.033403    0.085480
     0.090928    0.103771    0.141923    0.176116    0.206300    0.277406
     0.291933    0.305735    0.325566    0.407446    0.434182    0.476137

 Transition state search - taking P-RFO step
 Searching for Lamda that Maximizes Along the Lowest mode
 Value Taken    Lamda =   0.00000000
 Searching for Lamda that Minimizes Along All other modes
 Value Taken    Lamda =  -0.00000122
 Step Taken.  Stepsize is  0.016862

                             Maximum     Tolerance    Cnvgd?
         Gradient           0.000068      0.000300     YES
         Displacement       0.010014      0.001200      NO
         Energy change     -0.000001      0.000001     YES


                       Distance Matrix (Angstroms)
             C (  1)   O (  2)   O (  3)   O (  4)   O (  5)   H (  6)
   O (  2)  1.280726
   O (  3)  1.328154  2.223735
   O (  4)  1.924899  2.416575  2.581237
   O (  5)  2.521641  2.313489  3.324450  1.285342
   H (  6)  1.894194  1.157368  2.835717  1.881608  1.264329
   H (  7)  1.892957  3.032645  0.967915  2.921104  3.916462  3.603945
   H (  8)  1.086308  2.065592  2.057740  2.272350  3.053351  2.599985
             H (  7)
   H (  8)  2.161921
 
 Final energy is   -340.695789605268     


 ******************************
 **  OPTIMIZATION CONVERGED  **
 ******************************

                       Coordinates (Angstroms)
     ATOM                X               Y               Z
      1  C        -0.7810584394   -1.0313684003   -0.0130717950
      2  O        -0.6171866242   -1.7992946399    0.9987064448
      3  O        -1.9573646450   -1.0882447582   -0.6271257013
      4  O        -0.8811540911    0.6028206347    0.9991739583
      5  O        -0.7509082308    0.1715181256    2.2029674936
      6  H        -0.6227170061   -1.0426385845    1.8744591052
      7  H        -1.9241926953   -0.5886526155   -1.4554772085
      8  H         0.0624558320   -0.6954249620   -0.6094695970

Z-matrix Print:
$molecule
0 2
O 
O  1 1.285342
H  2 1.264329 1 95.115831
O  3 1.157368 2 145.580340 1 -2.717330 0
C  4 1.280726 3 101.838953 2 2.357544 0
H  5 1.086308 4 121.318614 3 97.581381 0
O  5 1.328154 4 116.929489 3 -108.763822 0
H  7 0.967915 5 110.072896 4 -170.430212 0
$end

 
 --------------------------------------------------------------
 
                    Orbital Energies (a.u.)
 --------------------------------------------------------------
 
 Alpha MOs
 -- Occupied --
-19.4368 -19.4342 -19.3893 -19.3509 -10.5105  -1.3487  -1.2501  -1.1734
 -0.9617  -0.7753  -0.7153  -0.6947  -0.6167  -0.6147  -0.6019  -0.5303
 -0.5090  -0.4788  -0.4341  -0.3938  -0.3886
 -- Virtual --
  0.0315   0.0508   0.0602   0.0776   0.0890   0.1058   0.1261   0.1461
  0.1743   0.1899   0.2141   0.2246   0.2374   0.2441   0.2619   0.2700
  0.2756   0.2942   0.3012   0.3028   0.3198   0.3316   0.3460   0.3621
  0.3787   0.3874   0.4057   0.4097   0.4431   0.4902   0.5816   0.5916
  0.6056   0.6462   0.6847   0.7043   0.7495   0.7867   0.8276   0.8532
  0.9079   0.9526   1.0306   1.0337   1.0635   1.0697   1.0866   1.1137
  1.1274   1.1451   1.1511   1.1604   1.1889   1.1927   1.2331   1.2394
  1.2535   1.3435   1.3753   1.4128   1.4440   1.4639   1.4921   1.5370
  1.5596   1.5887   1.6377   1.6766   1.7406   1.7501   1.8227   1.8816
  1.9867   2.0215   2.0845   2.1385   2.1626   2.2181   2.2579   2.2930
  2.3159   2.3890   2.4329   2.4805   2.5481   2.6327   2.6654   2.6860
  2.7783   2.9162   3.0876   3.1569   3.1837   3.2381   3.3163   3.3494
  3.4125   3.4953   3.5250   3.5729   3.6452   3.6745   3.7790   3.8135
  3.8619   3.9066   3.9247   3.9735   4.0983   4.1359   4.2354   4.3380
  4.4498   4.5347   4.6797   4.6866   4.7607   4.8783   5.0119   5.0262
  5.0767   5.1114   5.1195   5.1477   5.1778   5.1974   5.2120   5.2224
  5.2401   5.2417   5.2642   5.3273   5.3496   5.3695   5.4293   5.4618
  5.4791   5.5025   5.5989   5.6203   5.6280   5.6960   5.7794   6.0504
  6.0692   6.1862   6.4972   6.5274   6.6221   6.6751   6.6858   6.8110
  6.9215   6.9798   7.0201   7.0321   7.0812   7.1014   7.1270   7.2370
  7.2470   7.2986   7.3496   7.3760   7.3981   7.4302   7.4795   7.5307
  7.7277   7.7631   7.8059   7.9525   8.0089   8.1303  25.0060  50.4725
 50.4837  50.5587  50.7051
 
 Beta MOs
 -- Occupied --
-19.4209 -19.4196 -19.3894 -19.3511 -10.5108  -1.3215  -1.2486  -1.1730
 -0.9215  -0.7736  -0.7098  -0.6908  -0.6098  -0.5855  -0.5408  -0.5148
 -0.5061  -0.4726  -0.4305  -0.3728
 -- Virtual --
 -0.0259   0.0317   0.0512   0.0607   0.0790   0.0909   0.1069   0.1267
  0.1469   0.1766   0.1930   0.2189   0.2274   0.2390   0.2468   0.2630
  0.2719   0.2791   0.2973   0.3029   0.3091   0.3215   0.3327   0.3486
  0.3629   0.3799   0.3930   0.4057   0.4108   0.4434   0.4909   0.5820
  0.5925   0.6063   0.6481   0.6847   0.7040   0.7501   0.7867   0.8287
  0.8567   0.9078   0.9559   1.0320   1.0395   1.0665   1.0746   1.0975
  1.1288   1.1307   1.1501   1.1575   1.1669   1.1944   1.2075   1.2358
  1.2466   1.2553   1.3497   1.3807   1.4319   1.4464   1.4693   1.4983
  1.5522   1.5640   1.5937   1.6456   1.6959   1.7498   1.7563   1.8312
  1.8824   1.9931   2.0343   2.0883   2.1478   2.1672   2.2235   2.2675
  2.3110   2.3208   2.3918   2.4347   2.4832   2.5544   2.6343   2.6699
  2.6942   2.7780   2.9155   3.0870   3.1547   3.1822   3.2378   3.3176
  3.3484   3.4117   3.4946   3.5241   3.5717   3.6444   3.6744   3.7784
  3.8109   3.8624   3.9062   3.9246   3.9734   4.0961   4.1355   4.2354
  4.3378   4.4498   4.5758   4.6947   4.7127   4.7842   4.8900   5.0424
  5.0793   5.0926   5.1433   5.1538   5.1688   5.1990   5.2200   5.2308
  5.2439   5.2640   5.2708   5.2757   5.3377   5.3585   5.3799   5.4380
  5.4673   5.4866   5.5057   5.6045   5.6258   5.6539   5.7194   5.7801
  6.0503   6.0693   6.1877   6.5044   6.5771   6.6234   6.6753   6.6961
  6.8646   6.9817   7.0133   7.0216   7.0579   7.1330   7.1398   7.1483
  7.2428   7.2792   7.3039   7.3794   7.3953   7.4094   7.4482   7.4827
  7.5492   7.7286   7.7696   7.8096   7.9546   8.0218   8.1498  25.0057
 50.4842  50.4950  50.5591  50.7053
 --------------------------------------------------------------
 
          Ground-State Mulliken Net Atomic Charges

     Atom                 Charge (a.u.)    Spin (a.u.)
  --------------------------------------------------------
      1 C                     0.107527      -0.021529
      2 O                    -0.481384      -0.001530
      3 O                    -0.298730       0.000681
      4 O                    -0.158242       0.536697
      5 O                    -0.160457       0.493386
      6 H                     0.360606      -0.008347
      7 H                     0.344368      -0.000406
      8 H                     0.286313       0.001048
  --------------------------------------------------------
  Sum of atomic charges =    -0.000000
  Sum of spin   charges =     1.000000

 -----------------------------------------------------------------
                    Cartesian Multipole Moments
 -----------------------------------------------------------------
    Charge (ESU x 10^10)
                 0.0000
    Dipole Moment (Debye)
         X       0.7937      Y       0.6532      Z      -4.4758
       Tot       4.5923
    Quadrupole Moments (Debye-Ang)
        XX     -30.5653     XY      -1.9514     YY     -36.2556
        XZ       5.0730     YZ       0.4564     ZZ     -27.1101
    Octopole Moments (Debye-Ang^2)
       XXX      90.2828    XXY      24.3244    XYY      36.4750
       YYY      70.1349    XXZ     -27.8549    XYZ       0.3271
       YYZ     -25.7234    XZZ      23.4409    YZZ      12.5874
       ZZZ     -71.1138
    Hexadecapole Moments (Debye-Ang^3)
      XXXX    -254.1144   XXXY     -72.8784   XXYY     -92.4550
      XYYY     -72.2499   YYYY    -263.2055   XXXZ      44.1230
      XXYZ       1.7414   XYYZ      12.4408   YYYZ      16.1472
      XXZZ     -74.6970   XYZZ     -13.8895   YYZZ     -88.6628
      XZZZ      49.1501   YZZZ      -7.3481   ZZZZ    -282.8605
 -----------------------------------------------------------------
 Total job time:  749.84s(wall), 11483.12s(cpu) 
 Thu Aug 31 17:44:50 2023

        *************************************************************
        *                                                           *
        *  Thank you very much for using Q-Chem.  Have a nice day.  *
        *                                                           *
        *************************************************************


