
Running Job 1 of 1 Q_in.in
qchem Q_in.in_256549.0 /scratch/ari.fischer/qChem1854155.hpc-mn1/qchem256549/ 0
/usr/local/qchem-5.4.1/exe/qcprog.exe_s Q_in.in_256549.0 /scratch/ari.fischer/qChem1854155.hpc-mn1/qchem256549/
                  Welcome to Q-Chem
     A Quantum Leap Into The Future Of Chemistry


 Q-Chem 5.4, Q-Chem, Inc., Pleasanton, CA (2021)

 License issued to: Nanyang Technological University (site)

 E. Epifanovsky,  A. T. B. Gilbert,  Xintian Feng,  Joonho Lee,  Yuezhi Mao,  
 N. Mardirossian,  P. Pokhilko,  A. White,  M. Wormit,  M. P. Coons,  
 A. L. Dempwolff,  Zhengting Gan,  D. Hait,  P. R. Horn,  L. D. Jacobson,  
 I. Kaliman,  J. Kussmann,  A. W. Lange,  Ka Un Lao,  D. S. Levine,  Jie Liu,  
 S. C. McKenzie,  A. F. Morrison,  K. Nanda,  F. Plasser,  D. R. Rehn,  
 M. L. Vidal,  Zhi-Qiang You,  Ying Zhu,  B. Alam,  B. Albrecht,  
 A. Aldossary,  E. Alguire,  J. H. Andersen,  D. Barton,  K. Begam,  A. Behn,  
 Y. A. Bernard,  E. J. Berquist,  H. Burton,  A. Carreras,  K. Carter-Fenk,  
 R. Chakraborty,  A. D. Chien,  K. D. Closser,  V. Cofer-Shabica,  
 S. Dasgupta,  Jia Deng,  M. de Wergifosse,  M. Diedenhofen,  Hainam Do,  
 S. Ehlert,  Po-Tung Fang,  S. Fatehi,  Qingguo Feng,  T. Friedhoff,  
 J. Gayvert,  Qinghui Ge,  G. Gidofalvi,  M. Goldey,  J. Gomes,  
 C. Gonzalez-Espinoza,  S. Gulania,  A. Gunina,  M. W. D. Hanson-Heine,  
 P. H. P. Harbach,  A. W. Hauser,  M. F. Herbst,  M. Hernandez Vera,  
 M. Hodecker,  Z. C. Holden,  S. Houck,  Xunkun Huang,  Kerwin Hui,  
 B. C. Huynh,  M. Ivanov,  Hyunjun Ji,  Hanjie Jiang,  B. Kaduk,  S. Kaehler,  
 K. Khistyaev,  Jaehoon Kim,  P. Klunzinger,  Z. Koczor-Benda,  
 Joong Hoon Koh,  D. Kosenkov,  L. Koulias,  T. Kowalczyk,  C. M. Krauter,  
 K. Kue,  A. Kunitsa,  T. Kus,  A. Landau,  K. V. Lawler,  D. Lefrancois,  
 S. Lehtola,  Rain Li,  Yi-Pei Li,  Jiashu Liang,  M. Liebenthal,  
 Hung-Hsuan Lin,  You-Sheng Lin,  Fenglai Liu,  Kuan-Yu Liu,  
 M. Loipersberger,  A. Luenser,  A. Manjanath,  P. Manohar,  E. Mansoor,  
 S. F. Manzer,  Shan-Ping Mao,  A. V. Marenich,  T. Markovich,  S. Mason,  
 S. A. Maurer,  P. F. McLaughlin,  M. F. S. J. Menger,  J.-M. Mewes,  
 S. A. Mewes,  P. Morgante,  J. W. Mullinax,  K. J. Oosterbaan,  G. Paran,  
 Alexander C. Paul,  Suranjan K. Paul,  F. Pavosevic,  Zheng Pei,  S. Prager,  
 E. I. Proynov,  E. Ramos,  B. Rana,  A. E. Rask,  A. Rettig,  R. M. Richard,  
 F. Rob,  E. Rossomme,  T. Scheele,  M. Scheurer,  M. Schneider,  
 N. Sergueev,  S. M. Sharada,  W. Skomorowski,  D. W. Small,  C. J. Stein,  
 Yu-Chuan Su,  E. J. Sundstrom,  Zhen Tao,  J. Thirman,  T. Tsuchimochi,  
 N. M. Tubman,  S. P. Veccham,  O. Vydrov,  J. Wenzel,  J. Witte,  A. Yamada,  
 Kun Yao,  S. Yeganeh,  S. R. Yost,  A. Zech,  Igor Ying Zhang,  Xing Zhang,  
 Yu Zhang,  D. Zuev,  A. Aspuru-Guzik,  A. T. Bell,  N. A. Besley,  
 K. B. Bravaya,  B. R. Brooks,  D. Casanova,  Jeng-Da Chai,  S. Coriani,  
 C. J. Cramer,  A. E. DePrince, III,  R. A. DiStasio Jr.,  A. Dreuw,  
 B. D. Dunietz,  T. R. Furlani,  W. A. Goddard III,  S. Grimme,  
 S. Hammes-Schiffer,  T. Head-Gordon,  W. J. Hehre,  Chao-Ping Hsu,  
 T.-C. Jagau,  Yousung Jung,  A. Klamt,  Jing Kong,  D. S. Lambrecht,  
 WanZhen Liang,  N. J. Mayhall,  C. W. McCurdy,  J. B. Neaton,  
 C. Ochsenfeld,  J. A. Parkhill,  R. Peverati,  V. A. Rassolov,  Yihan Shao,  
 L. V. Slipchenko,  T. Stauch,  R. P. Steele,  J. E. Subotnik,  
 A. J. W. Thom,  A. Tkatchenko,  D. G. Truhlar,  T. Van Voorhis,  
 T. A. Wesolowski,  K. B. Whaley,  H. L. Woodcock III,  P. M. Zimmerman,  
 S. Faraji,  P. M. W. Gill,  M. Head-Gordon,  J. M. Herbert,  A. I. Krylov

 Additional authors for Version 5.4.1: 
 S. Kotaru,  Shaozhi Li,  Xiangyuan Li,  F. Matz,  A. Molle,  Haisheng Ren,  
 Yingli Su,  Hung-Yi Tsai,  C. Utku,  Fang Wang

 Contributors to earlier versions of Q-Chem not listed above: 
 R. D. Adamson,  B. Austin,  R. Baer,  J. Baker,  G. J. O. Beran,  
 K. Brandhorst,  S. T. Brown,  E. F. C. Byrd,  A. K. Chakraborty,  
 G. K. L. Chan,  Chun-Min Chang,  Yunqing Chen,  C.-L. Cheng,  
 Siu Hung Chien,  D. M. Chipman,  D. L. Crittenden,  H. Dachsel,  
 R. J. Doerksen,  A. D. Dutoi,  R. G. Edgar,  J. Fosso-Tande,  
 L. Fusti-Molnar,  D. Ghosh,  A. Ghysels,  A. Golubeva-Zadorozhnaya,  
 J. Gonthier,  M. S. Gordon,  S. R. Gwaltney,  G. Hawkins,  J. E. Herr,  
 A. Heyden,  S. Hirata,  E. G. Hohenstein,  G. Kedziora,  F. J. Keil,  
 C. Kelley,  Jihan Kim,  R. A. King,  R. Z. Khaliullin,  P. P. Korambath,  
 W. Kurlancheek,  A. Laurent,  A. M. Lee,  M. S. Lee,  S. V. Levchenko,  
 Ching Yeh Lin,  D. Liotard,  E. Livshits,  R. C. Lochan,  I. Lotan,  
 L. A. Martinez-Martinez,  P. E. Maslen,  N. Nair,  D. P. O'Neill,  
 D. Neuhauser,  E. Neuscamman,  C. M. Oana,  R. Olivares-Amaya,  R. Olson,  
 T. M. Perrine,  B. Peters,  P. A. Pieniazek,  A. Prociuk,  Y. M. Rhee,  
 J. Ritchie,  M. A. Rohrdanz,  E. Rosta,  N. J. Russ,  H. F. Schaefer III,  
 M. W. Schmidt,  N. E. Schultz,  S. Sharma,  N. Shenvi,  C. D. Sherrill,  
 A. C. Simmonett,  A. Sodt,  T. Stein,  D. Stuck,  K. S. Thanthiriwatte,  
 V. Vanovschi,  L. Vogt,  Tao Wang,  A. Warshel,  M. A. Watson,  
 C. F. Williams,  Q. Wu,  X. Xu,  Jun Yang,  W. Zhang,  Yan Zhao

 Please cite Q-Chem as follows:
 Y. Shao et al., Mol. Phys. 113, 184-215 (2015)
 DOI: 10.1080/00268976.2014.952696

 Q-Chem 5.4.1 for Intel X86 EM64T Linux

 Parts of Q-Chem use Armadillo 9.800.1 (Horizon Scraper).
 http://arma.sourceforge.net/

 Q-Chem begins on Thu Dec  7 15:49:29 2023  

 Host: 
0

     Scratch files written to /scratch/ari.fischer/qChem1854155.hpc-mn1/qchem256549//
 Aug1521 |scratch|qcdevops|jenkins|workspace|build_RNUM 8249   
 Processing $rem in /usr/local/qchem-5.4.1/config/preferences:
 Processing $rem in /home/ari.fischer/.qchemrc:
 Symmetry turned off for PCM/SM12/SMD calculation

 Checking the input file for inconsistencies... 	...done.

--------------------------------------------------------------
User input:
--------------------------------------------------------------
$molecule
-1 2
C         0.0335825890    0.2156391192    0.2364698461
O         1.2001413651    0.0826017418    0.8943481755
H        -1.1277621868    1.3766541534   -0.6298194523
C        -0.8393693190   -0.8929137460   -0.0274891381
O        -0.5062190370   -2.0526716429    0.3744233366
O        -1.9104150558   -0.6008046154   -0.6669935653
O        -0.2722929998    1.4647120681   -0.1745756269
H         1.6345905442    0.9437645218    0.9577898244
$end

$rem
BASIS = def2-TZVPPD
JOB_TYPE = SP
METHOD = wB97M-V
SCF_ALGORITHM = DIIS_GDM
MAX_SCF_CYCLES = 400
SCF_CONVERGENCE = 7
THRESH = 12
Solvent_method = SMD
$end
--------------------------------------------------------------
 ----------------------------------------------------------------
             Standard Nuclear Orientation (Angstroms)
    I     Atom           X                Y                Z
 ----------------------------------------------------------------
    1      C       0.0335825890     0.2156391192     0.2364698461
    2      O       1.2001413651     0.0826017418     0.8943481755
    3      H      -1.1277621868     1.3766541534    -0.6298194523
    4      C      -0.8393693190    -0.8929137460    -0.0274891381
    5      O      -0.5062190370    -2.0526716429     0.3744233366
    6      O      -1.9104150558    -0.6008046154    -0.6669935653
    7      O      -0.2722929998     1.4647120681    -0.1745756269
    8      H       1.6345905442     0.9437645218     0.9577898244
 ----------------------------------------------------------------
 Nuclear Repulsion Energy =         230.26877983 hartrees
 There are       24 alpha and       23 beta electrons
 Requested basis set is def2-TZVPPD
 There are 96 shells and 268 basis functions

 Total QAlloc Memory Limit 288000 MB
 Mega-Array Size       188 MB
 MEM_STATIC part       192 MB
 
 Citation of the SMD model:
 Marenich, A.V.; Cramer, C.J.; Truhlar, D.G.
 J. Phys. Chem. B 2009, 113, 6378-6396.
 iSolventCode=           1
 Solvent: water                                                           
 
 vradii
            1           2           3           4           5           6
    1   1.8500000   1.5200000   1.2000000   1.8500000   1.5200000   1.5200000
            7           8
    1   1.5200000   1.2000000
 Changing PCM_VDW_RADII to SMD_RADIUS
 Discretize the solute cavity surface with Lebedev spheres
	Using 110 Lebedev grid points for each H atom
	Using 194 Lebedev grid points for other atoms
	Atomic van der Waals radii will be scaled by 1.20
 Remove points where switching function is < 1.0e-08
 Keep 774 surface tesserae and discard 610 interior tesserae
 Molecular Surface Area = 94.678 Angst**2

                       Distance Matrix (Angstroms)
             C (  1)   O (  2)   H (  3)   C (  4)   O (  5)   O (  6)
   O (  2)  1.345869
   H (  3)  1.856646  3.068679
   C (  4)  1.435482  2.441520  2.365779
   O (  5)  2.335733  2.782334  3.626995  1.271834
   O (  6)  2.293895  3.546885  2.127033  1.281184  2.272495
   O (  7)  1.350075  2.284927  0.973051  2.429323  3.567648  2.681842
   H (  8)  1.900972  0.966629  3.215352  3.234909  3.728540  4.194363
             O (  7)
   H (  8)  2.278123
 
 A cutoff of  1.0D-12 yielded   4452 shell pairs
 There are     35120 function pairs (     45773 Cartesian)
 Smallest overlap matrix eigenvalue = 4.49E-06

 Scale SEOQF with 1.000000e-01/1.000000e-01/1.000000e-01

 Standard Electronic Orientation quadrupole field applied
 Nucleus-field energy     =     0.0000000049 hartrees
 Guess from superposition of atomic densities
 Warning:  Energy on first SCF cycle will be non-variational
 SAD guess density has 46.000000 electrons

 -----------------------------------------------------------------------
  General SCF calculation program by
  Eric Jon Sundstrom, Paul Horn, Yuezhi Mao, Dmitri Zuev, Alec White,
  David Stuck, Shaama M.S., Shane Yost, Joonho Lee, David Small,
  Daniel Levine, Susi Lehtola, Hugh Burton, Evgeny Epifanovsky,
  Bang C. Huynh
 -----------------------------------------------------------------------
 Exchange:     0.1500 Hartree-Fock + 1.0000 wB97M-V + LR-HF
 Correlation:  1.0000 wB97M-V
 Using SG-2 standard quadrature grid
 Nonlocal Correlation:  VV10 with C = 0.0100 and b = 6.00 and scale = 1.00000
 Grid used for NLC:  SG-1 standard quadrature
 
 Citation of the SMD model:
 Marenich, A.V.; Cramer, C.J.; Truhlar, D.G.
 J. Phys. Chem. B 2009, 113, 6378-6396.
 iSolventCode=           1
 Solvent: water                                                           
 
 vradii
            1           2           3           4           5           6
    1   1.8500000   1.5200000   1.2000000   1.8500000   1.5200000   1.5200000
            7           8
    1   1.5200000   1.2000000
 using 4 threads for integral computing
 -------------------------------------------------------
 OpenMP Integral computing Module                
 Release: version 1.0, May 2013, Q-Chem Inc. Pittsburgh 
 -------------------------------------------------------
 -------------------------------------------------------
 OpenMP BLAS3 based DFT computing Module                
 Release: version 1.0, May 2013, Q-Chem Inc. Pittsburgh 
 -------------------------------------------------------
 A unrestricted SCF calculation will be
 performed using DIIS, GDM
 SCF converges when RMS gradient is below 1.0e-07
 ---------------------------------------
  Cycle       Energy         DIIS error
 ---------------------------------------
    1    -379.3731231481      1.45e-02  
    2    -378.2866760401      2.84e-03  Done DIIS. Switching to GDM
 ---------------------------------------
  Cycle       Energy        RMS Gradient
 ---------------------------------------
    1    -378.2866760401      2.10e-01   Descent step
    2    -378.4872057047      6.24e-02   Normal BFGS step
    3    -378.5128439010      1.43e-02   Normal BFGS step
    4    -378.5141674385      7.03e-03   Normal BFGS step
    5    -378.5145030553      6.18e-03   Normal BFGS step
    6    -378.5145764912      2.30e-03   Normal BFGS step
    7    -378.5145967425      4.60e-04   Normal BFGS step
    8    -378.5145981706      1.95e-04   Normal BFGS step
    9    -378.5145984025      1.29e-04   Normal BFGS step
   10    -378.5145985042      4.55e-05   Normal BFGS step
   11    -378.5145985102      1.54e-05   Normal BFGS step
   12    -378.5145985129      7.61e-06   Normal BFGS step
   13    -378.5145985131      4.35e-06   Normal BFGS step
   14    -378.5145985132      1.16e-06   Normal BFGS step
   15    -378.5145985132      4.51e-07   Normal BFGS step
   16    -378.5145985132      1.00e-07   Normal BFGS step
   17    -378.5145985131      2.85e-08  Convergence criterion met
 ---------------------------------------
 SCF time:   CPU 727.55s  wall 183.00s 
<S^2> =          0.753029569
(3)  G-ENP(liq) elect-nuc-pol free energy of system     -378.514598513 a.u.
(4)  G-CDS(liq) cavity-dispersion-solvent structure 
     free energy                                                4.9896 kcal/mol
(6)  G-S(liq) free energy of system                     -378.506647130 a.u.
 SCF   energy in the final basis set =     -378.5066471301
 Total energy in the final basis set =     -378.5066471301
 
 --------------------------------------------------------------
 
                    Orbital Energies (a.u.)
 --------------------------------------------------------------
 
 Alpha MOs
 -- Occupied --
-19.3736 -19.3701 -19.2772 -19.2759 -10.4447 -10.4332  -1.2382  -1.1697
 -1.1506  -1.0646  -0.8192  -0.7039  -0.6664  -0.5833  -0.5801  -0.5284
 -0.5175  -0.5092  -0.4981  -0.4642  -0.3755  -0.3753  -0.3544  -0.2417
 -- Virtual --
  0.0382   0.0607   0.0675   0.0853   0.0939   0.1072   0.1125   0.1158
  0.1203   0.1433   0.1484   0.1599   0.1659   0.1838   0.1876   0.2001
  0.2061   0.2414   0.2524   0.2608   0.2719   0.2836   0.3103   0.3174
  0.3349   0.3385   0.3456   0.3530   0.3688   0.3696   0.3730   0.3742
  0.4009   0.4101   0.4157   0.4189   0.4289   0.4528   0.4536   0.4716
  0.4851   0.4933   0.4983   0.5133   0.5208   0.5283   0.5413   0.5455
  0.5809   0.5961   0.6040   0.6072   0.6312   0.6329   0.6417   0.6494
  0.6512   0.6629   0.6728   0.6792   0.7037   0.7071   0.7165   0.7467
  0.7740   0.7810   0.7934   0.8163   0.8227   0.8288   0.8589   0.8885
  0.8904   0.9130   0.9362   0.9690   0.9904   0.9988   1.0187   1.0392
  1.0447   1.0550   1.0868   1.1033   1.1088   1.1529   1.1707   1.1786
  1.2219   1.2230   1.2559   1.2938   1.2976   1.3116   1.3256   1.3477
  1.3986   1.4313   1.4838   1.5071   1.5743   1.6199   1.6530   1.7052
  1.7627   1.8033   1.8438   1.8679   1.8732   1.9106   1.9226   2.0084
  2.0409   2.0609   2.1019   2.1301   2.2033   2.2095   2.2238   2.2502
  2.2955   2.3579   2.3766   2.3974   2.4021   2.4109   2.4382   2.5066
  2.6154   2.6618   2.6952   2.7451   2.7826   2.8352   2.8829   2.8838
  2.9365   2.9768   3.0507   3.1009   3.1264   3.1571   3.1836   3.2412
  3.2541   3.2892   3.3042   3.3232   3.3654   3.3717   3.4109   3.4197
  3.4558   3.4574   3.4856   3.4886   3.5023   3.5462   3.5757   3.6022
  3.6083   3.6284   3.6502   3.6939   3.7446   3.7934   3.8048   3.8550
  3.8763   3.9675   3.9795   4.0813   4.1483   4.1779   4.2007   4.2321
  4.2378   4.3506   4.4179   4.4759   4.5526   4.5781   4.7745   4.8034
  4.8900   4.9170   5.0593   5.1262   5.1760   5.2034   5.2911   5.3240
  5.3653   5.4124   5.4203   5.5037   5.6389   5.6399   5.6885   5.7023
  5.7662   5.8751   5.9082   5.9906   5.9924   6.1672   6.2152   6.2718
  6.2886   6.4130   6.5199   6.5772   6.5793   6.6120   6.6624   6.6910
  6.7018   6.7243   6.7439   6.7630   6.8574   6.8899   6.8972   6.9478
  6.9806   7.0336   7.0552   7.1148   7.1980   7.2813   7.3264   7.3429
  7.3931   7.4957   7.5618   7.6021   7.7691   7.8732  23.4343  23.9045
 44.5561  44.6258  44.7514  44.9331
 
 Beta MOs
 -- Occupied --
-19.3705 -19.3669 -19.2747 -19.2732 -10.4350 -10.4327  -1.2296  -1.1627
 -1.1458  -1.0593  -0.8000  -0.6975  -0.6594  -0.5786  -0.5506  -0.5242
 -0.5132  -0.5051  -0.4806  -0.4383  -0.3694  -0.3545  -0.3510
 -- Virtual --
  0.0370   0.0380   0.0605   0.0673   0.0860   0.0938   0.1072   0.1123
  0.1164   0.1203   0.1432   0.1484   0.1593   0.1660   0.1846   0.2001
  0.2074   0.2281   0.2424   0.2516   0.2627   0.2745   0.2834   0.3109
  0.3212   0.3361   0.3411   0.3507   0.3541   0.3708   0.3713   0.3764
  0.3795   0.4015   0.4115   0.4186   0.4240   0.4307   0.4541   0.4557
  0.4768   0.4870   0.4935   0.4988   0.5139   0.5216   0.5294   0.5422
  0.5493   0.5815   0.5968   0.6050   0.6097   0.6306   0.6335   0.6443
  0.6508   0.6528   0.6637   0.6752   0.6813   0.7053   0.7100   0.7212
  0.7473   0.7767   0.7829   0.7944   0.8171   0.8242   0.8325   0.8597
  0.8897   0.8971   0.9217   0.9362   0.9696   0.9979   0.9996   1.0298
  1.0402   1.0490   1.0568   1.0872   1.1032   1.1203   1.1542   1.1731
  1.1798   1.2233   1.2251   1.2573   1.2964   1.3076   1.3135   1.3275
  1.3565   1.4014   1.4343   1.4869   1.5086   1.5786   1.6326   1.6876
  1.7156   1.7672   1.8171   1.8499   1.8756   1.8796   1.9195   1.9264
  2.0189   2.0489   2.0814   2.1103   2.1382   2.2108   2.2157   2.2281
  2.2629   2.3068   2.3639   2.3827   2.4039   2.4059   2.4134   2.4431
  2.5132   2.6217   2.6717   2.7345   2.7520   2.7889   2.8525   2.9004
  2.9074   2.9423   2.9891   3.0623   3.1197   3.1375   3.1816   3.1974
  3.2569   3.2628   3.2953   3.3189   3.3406   3.3870   3.3965   3.4312
  3.4388   3.4651   3.4688   3.4918   3.5008   3.5082   3.5528   3.5824
  3.6133   3.6142   3.6371   3.6592   3.7011   3.7590   3.7994   3.8160
  3.8626   3.8842   3.9758   3.9901   4.0887   4.1545   4.1885   4.2142
  4.2439   4.2577   4.3563   4.4240   4.4826   4.5569   4.5861   4.7818
  4.8121   4.9056   4.9530   5.0647   5.1343   5.1806   5.2075   5.2988
  5.3314   5.3730   5.4196   5.4262   5.5103   5.6449   5.6467   5.6966
  5.7080   5.7736   5.8870   5.9197   5.9980   6.0023   6.1775   6.2255
  6.2806   6.2985   6.4207   6.5325   6.5803   6.5910   6.6240   6.6725
  6.7009   6.7080   6.7341   6.7547   6.7725   6.8696   6.8945   6.9085
  6.9590   6.9874   7.0437   7.0673   7.1213   7.2037   7.2863   7.3302
  7.3469   7.3978   7.5006   7.5661   7.6073   7.7746   7.8788  23.4425
 23.9072  44.5587  44.6280  44.7543  44.9357
 --------------------------------------------------------------
 
          Ground-State Mulliken Net Atomic Charges

     Atom                 Charge (a.u.)    Spin (a.u.)
  --------------------------------------------------------
      1 C                     0.278634       0.563844
      2 O                    -0.403011       0.082018
      3 H                     0.272071      -0.003721
      4 C                     0.868699       0.089608
      5 O                    -0.889348       0.094835
      6 O                    -0.906219       0.090892
      7 O                    -0.478733       0.086165
      8 H                     0.257908      -0.003641
  --------------------------------------------------------
  Sum of atomic charges =    -1.000000
  Sum of spin   charges =     1.000000

 -----------------------------------------------------------------
                    Cartesian Multipole Moments
 -----------------------------------------------------------------
    Charge (ESU x 10^10)
                -4.8032
    Dipole Moment (Debye)
         X       6.3591      Y       9.6206      Z       0.3542
       Tot      11.5377
    Quadrupole Moments (Debye-Ang)
        XX     -45.8435     XY      -5.5199     YY     -52.6836
        XZ      -2.4279     YZ       2.5403     ZZ     -38.1576
    Octopole Moments (Debye-Ang^2)
       XXX      75.0410    XXY      31.4564    XYY      25.7258
       YYY      68.5683    XXZ       6.9323    XYZ       7.5400
       YYZ      -8.4405    XZZ      18.2622    YZZ      16.8293
       ZZZ     -10.1068
    Hexadecapole Moments (Debye-Ang^3)
      XXXX    -324.3589   XXXY     -64.3164   XXYY    -103.4784
      XYYY     -73.4551   YYYY    -415.5971   XXXZ     -56.5569
      XXYZ       0.5578   XYYZ      -7.6242   YYYZ      21.0192
      XXZZ     -66.0056   XYZZ     -17.9721   YYZZ     -72.0595
      XZZZ     -47.3233   YZZZ      11.2777   ZZZZ     -97.7053
 -----------------------------------------------------------------
 Total job time:  183.99s(wall), 729.87s(cpu) 
 Thu Dec  7 15:52:32 2023

        *************************************************************
        *                                                           *
        *  Thank you very much for using Q-Chem.  Have a nice day.  *
        *                                                           *
        *************************************************************


