
Running Job 1 of 1 Q_in.in
qchem Q_in.in_346190.0 /scratch/ari.fischer/qChem1851775.hpc-mn1/qchem346190/ 0
/usr/local/qchem-5.4.1/exe/qcprog.exe_s Q_in.in_346190.0 /scratch/ari.fischer/qChem1851775.hpc-mn1/qchem346190/
                  Welcome to Q-Chem
     A Quantum Leap Into The Future Of Chemistry


 Q-Chem 5.4, Q-Chem, Inc., Pleasanton, CA (2021)

 License issued to: Nanyang Technological University (site)

 E. Epifanovsky,  A. T. B. Gilbert,  Xintian Feng,  Joonho Lee,  Yuezhi Mao,  
 N. Mardirossian,  P. Pokhilko,  A. White,  M. Wormit,  M. P. Coons,  
 A. L. Dempwolff,  Zhengting Gan,  D. Hait,  P. R. Horn,  L. D. Jacobson,  
 I. Kaliman,  J. Kussmann,  A. W. Lange,  Ka Un Lao,  D. S. Levine,  Jie Liu,  
 S. C. McKenzie,  A. F. Morrison,  K. Nanda,  F. Plasser,  D. R. Rehn,  
 M. L. Vidal,  Zhi-Qiang You,  Ying Zhu,  B. Alam,  B. Albrecht,  
 A. Aldossary,  E. Alguire,  J. H. Andersen,  D. Barton,  K. Begam,  A. Behn,  
 Y. A. Bernard,  E. J. Berquist,  H. Burton,  A. Carreras,  K. Carter-Fenk,  
 R. Chakraborty,  A. D. Chien,  K. D. Closser,  V. Cofer-Shabica,  
 S. Dasgupta,  Jia Deng,  M. de Wergifosse,  M. Diedenhofen,  Hainam Do,  
 S. Ehlert,  Po-Tung Fang,  S. Fatehi,  Qingguo Feng,  T. Friedhoff,  
 J. Gayvert,  Qinghui Ge,  G. Gidofalvi,  M. Goldey,  J. Gomes,  
 C. Gonzalez-Espinoza,  S. Gulania,  A. Gunina,  M. W. D. Hanson-Heine,  
 P. H. P. Harbach,  A. W. Hauser,  M. F. Herbst,  M. Hernandez Vera,  
 M. Hodecker,  Z. C. Holden,  S. Houck,  Xunkun Huang,  Kerwin Hui,  
 B. C. Huynh,  M. Ivanov,  Hyunjun Ji,  Hanjie Jiang,  B. Kaduk,  S. Kaehler,  
 K. Khistyaev,  Jaehoon Kim,  P. Klunzinger,  Z. Koczor-Benda,  
 Joong Hoon Koh,  D. Kosenkov,  L. Koulias,  T. Kowalczyk,  C. M. Krauter,  
 K. Kue,  A. Kunitsa,  T. Kus,  A. Landau,  K. V. Lawler,  D. Lefrancois,  
 S. Lehtola,  Rain Li,  Yi-Pei Li,  Jiashu Liang,  M. Liebenthal,  
 Hung-Hsuan Lin,  You-Sheng Lin,  Fenglai Liu,  Kuan-Yu Liu,  
 M. Loipersberger,  A. Luenser,  A. Manjanath,  P. Manohar,  E. Mansoor,  
 S. F. Manzer,  Shan-Ping Mao,  A. V. Marenich,  T. Markovich,  S. Mason,  
 S. A. Maurer,  P. F. McLaughlin,  M. F. S. J. Menger,  J.-M. Mewes,  
 S. A. Mewes,  P. Morgante,  J. W. Mullinax,  K. J. Oosterbaan,  G. Paran,  
 Alexander C. Paul,  Suranjan K. Paul,  F. Pavosevic,  Zheng Pei,  S. Prager,  
 E. I. Proynov,  E. Ramos,  B. Rana,  A. E. Rask,  A. Rettig,  R. M. Richard,  
 F. Rob,  E. Rossomme,  T. Scheele,  M. Scheurer,  M. Schneider,  
 N. Sergueev,  S. M. Sharada,  W. Skomorowski,  D. W. Small,  C. J. Stein,  
 Yu-Chuan Su,  E. J. Sundstrom,  Zhen Tao,  J. Thirman,  T. Tsuchimochi,  
 N. M. Tubman,  S. P. Veccham,  O. Vydrov,  J. Wenzel,  J. Witte,  A. Yamada,  
 Kun Yao,  S. Yeganeh,  S. R. Yost,  A. Zech,  Igor Ying Zhang,  Xing Zhang,  
 Yu Zhang,  D. Zuev,  A. Aspuru-Guzik,  A. T. Bell,  N. A. Besley,  
 K. B. Bravaya,  B. R. Brooks,  D. Casanova,  Jeng-Da Chai,  S. Coriani,  
 C. J. Cramer,  A. E. DePrince, III,  R. A. DiStasio Jr.,  A. Dreuw,  
 B. D. Dunietz,  T. R. Furlani,  W. A. Goddard III,  S. Grimme,  
 S. Hammes-Schiffer,  T. Head-Gordon,  W. J. Hehre,  Chao-Ping Hsu,  
 T.-C. Jagau,  Yousung Jung,  A. Klamt,  Jing Kong,  D. S. Lambrecht,  
 WanZhen Liang,  N. J. Mayhall,  C. W. McCurdy,  J. B. Neaton,  
 C. Ochsenfeld,  J. A. Parkhill,  R. Peverati,  V. A. Rassolov,  Yihan Shao,  
 L. V. Slipchenko,  T. Stauch,  R. P. Steele,  J. E. Subotnik,  
 A. J. W. Thom,  A. Tkatchenko,  D. G. Truhlar,  T. Van Voorhis,  
 T. A. Wesolowski,  K. B. Whaley,  H. L. Woodcock III,  P. M. Zimmerman,  
 S. Faraji,  P. M. W. Gill,  M. Head-Gordon,  J. M. Herbert,  A. I. Krylov

 Additional authors for Version 5.4.1: 
 S. Kotaru,  Shaozhi Li,  Xiangyuan Li,  F. Matz,  A. Molle,  Haisheng Ren,  
 Yingli Su,  Hung-Yi Tsai,  C. Utku,  Fang Wang

 Contributors to earlier versions of Q-Chem not listed above: 
 R. D. Adamson,  B. Austin,  R. Baer,  J. Baker,  G. J. O. Beran,  
 K. Brandhorst,  S. T. Brown,  E. F. C. Byrd,  A. K. Chakraborty,  
 G. K. L. Chan,  Chun-Min Chang,  Yunqing Chen,  C.-L. Cheng,  
 Siu Hung Chien,  D. M. Chipman,  D. L. Crittenden,  H. Dachsel,  
 R. J. Doerksen,  A. D. Dutoi,  R. G. Edgar,  J. Fosso-Tande,  
 L. Fusti-Molnar,  D. Ghosh,  A. Ghysels,  A. Golubeva-Zadorozhnaya,  
 J. Gonthier,  M. S. Gordon,  S. R. Gwaltney,  G. Hawkins,  J. E. Herr,  
 A. Heyden,  S. Hirata,  E. G. Hohenstein,  G. Kedziora,  F. J. Keil,  
 C. Kelley,  Jihan Kim,  R. A. King,  R. Z. Khaliullin,  P. P. Korambath,  
 W. Kurlancheek,  A. Laurent,  A. M. Lee,  M. S. Lee,  S. V. Levchenko,  
 Ching Yeh Lin,  D. Liotard,  E. Livshits,  R. C. Lochan,  I. Lotan,  
 L. A. Martinez-Martinez,  P. E. Maslen,  N. Nair,  D. P. O'Neill,  
 D. Neuhauser,  E. Neuscamman,  C. M. Oana,  R. Olivares-Amaya,  R. Olson,  
 T. M. Perrine,  B. Peters,  P. A. Pieniazek,  A. Prociuk,  Y. M. Rhee,  
 J. Ritchie,  M. A. Rohrdanz,  E. Rosta,  N. J. Russ,  H. F. Schaefer III,  
 M. W. Schmidt,  N. E. Schultz,  S. Sharma,  N. Shenvi,  C. D. Sherrill,  
 A. C. Simmonett,  A. Sodt,  T. Stein,  D. Stuck,  K. S. Thanthiriwatte,  
 V. Vanovschi,  L. Vogt,  Tao Wang,  A. Warshel,  M. A. Watson,  
 C. F. Williams,  Q. Wu,  X. Xu,  Jun Yang,  W. Zhang,  Yan Zhao

 Please cite Q-Chem as follows:
 Y. Shao et al., Mol. Phys. 113, 184-215 (2015)
 DOI: 10.1080/00268976.2014.952696

 Q-Chem 5.4.1 for Intel X86 EM64T Linux

 Parts of Q-Chem use Armadillo 9.800.1 (Horizon Scraper).
 http://arma.sourceforge.net/

 Q-Chem begins on Thu Nov 30 21:53:20 2023  

 Host: 
0

     Scratch files written to /scratch/ari.fischer/qChem1851775.hpc-mn1/qchem346190//
 Aug1521 |scratch|qcdevops|jenkins|workspace|build_RNUM 8249   
 Processing $rem in /usr/local/qchem-5.4.1/config/preferences:
 Processing $rem in /home/ari.fischer/.qchemrc:
 Symmetry turned off for PCM/SM12/SMD calculation


!!********************************************.
!!******************Warning*******************.
!!Desired Analytical derivatives not available.
!!Finite difference job might take a long time.
!!********************************************.
!!********************************************.


 2-order derivative to be evaluated numerically with 1-order analytical derivatives

 Checking the input file for inconsistencies... 	...done.

--------------------------------------------------------------
User input:
--------------------------------------------------------------
$molecule
0 2
C         0.1742585914    1.3954083047    1.1886351760
C         0.7206360242    2.5291255905    0.5591766375
C         1.5864198653    5.7442372941   -1.3367427662
O         2.0302521124    5.5864157980   -0.2167662240
O        -0.0623116198    1.3534627909    2.4259257436
O         1.0117088970    3.6076785673    1.2461463367
H        -0.0364484562    0.5447220130    0.5324336746
H         0.7923785186    5.1360282423   -1.7710196736
O         2.0068310031    6.6737168533   -2.1735030976
H         1.3861424185    4.3217739531    0.6630906601
H         2.7112796652    7.1980453208   -1.7565021409
O         0.9748001120    2.5932127536   -0.7456867755
H         0.7276086684    1.7664169186   -1.1851984506
$end

$rem
BASIS = 6-311++G(2df,2p)
GUI = 2
JOB_TYPE = Frequency
METHOD = wB97M-V
SOLVENT_METHOD = SMD
SCF_ALGORITHM = DIIS_GDM
MAX_SCF_CYCLES = 400
SCF_CONVERGENCE = 7
THRESH = 12
$end
--------------------------------------------------------------
 ----------------------------------------------------------------
             Standard Nuclear Orientation (Angstroms)
    I     Atom           X                Y                Z
 ----------------------------------------------------------------
    1      C       0.1742585914     1.3954083047     1.1886351760
    2      C       0.7206360242     2.5291255905     0.5591766375
    3      C       1.5864198653     5.7442372941    -1.3367427662
    4      O       2.0302521124     5.5864157980    -0.2167662240
    5      O      -0.0623116198     1.3534627909     2.4259257436
    6      O       1.0117088970     3.6076785673     1.2461463367
    7      H      -0.0364484562     0.5447220130     0.5324336746
    8      H       0.7923785186     5.1360282423    -1.7710196736
    9      O       2.0068310031     6.6737168533    -2.1735030976
   10      H       1.3861424185     4.3217739531     0.6630906601
   11      H       2.7112796652     7.1980453208    -1.7565021409
   12      O       0.9748001120     2.5932127536    -0.7456867755
   13      H       0.7276086684     1.7664169186    -1.1851984506
 ----------------------------------------------------------------
 Nuclear Repulsion Energy =         358.48762474 hartrees
 There are       32 alpha and       31 beta electrons
 Requested basis set is 6-311++G(2df,2p)
 There are 94 shells and 322 basis functions

 Total QAlloc Memory Limit 288000 MB
 Mega-Array Size       188 MB
 MEM_STATIC part       192 MB
 
 Citation of the SMD model:
 Marenich, A.V.; Cramer, C.J.; Truhlar, D.G.
 J. Phys. Chem. B 2009, 113, 6378-6396.
 iSolventCode=           1
 Solvent: water                                                           
 
 vradii
            1           2           3           4           5           6
    1   1.8500000   1.8500000   1.8500000   1.5200000   1.5200000   1.5200000
            7           8           9          10          11          12
    1   1.2000000   1.2000000   1.5200000   1.2000000   1.2000000   1.5200000
           13
    1   1.2000000
 Changing PCM_VDW_RADII to SMD_RADIUS
 Discretize the solute cavity surface with Lebedev spheres
	Using 110 Lebedev grid points for each H atom
	Using 194 Lebedev grid points for other atoms
	Atomic van der Waals radii will be scaled by 1.20
 Remove points where switching function is < 1.0e-08
 Keep 1186 surface tesserae and discard 916 interior tesserae
 Molecular Surface Area = 142.397 Angst**2

                       Distance Matrix (Angstroms)
             C (  1)   C (  2)   C (  3)   O (  4)   O (  5)   O (  6)
   C (  2)  1.407146
   C (  3)  5.223413  3.831584
   O (  4)  4.794206  3.415290  1.215007
   O (  5)  1.260402  2.340928  6.012894  5.411149
   O (  6)  2.366172  1.311460  3.400955  2.663258  2.761682
   H (  7)  1.094836  2.124088  5.758687  5.500112  2.059136  3.315075
   H (  8)  4.809768  3.497271  1.090420  2.037372  5.714250  3.389284
   O (  9)  6.520954  5.128301  1.319411  2.238658  7.330839  4.699453
   H ( 10)  3.210681  1.915016  2.462285  1.669834  3.743859  0.995031
   H ( 11)  6.984333  5.578875  1.885488  2.330651  7.703548  4.979475
   O ( 12)  2.411888  1.330930  3.263799  3.217608  3.559734  2.235599
   H ( 13)  2.465549  1.903843  4.072294  4.150558  3.719506  3.063070
             H (  7)   H (  8)   O (  9)   H ( 10)   H ( 11)   O ( 12)
   H (  8)  5.203167
   O (  9)  7.004403  2.000343
   H ( 10)  4.038187  2.634475  3.736730
   H ( 11)  7.553539  2.816790  0.972141  3.985393
   O ( 12)  2.617734  2.747817  4.444577  2.267549  5.024101
   H ( 13)  2.242004  3.420769  5.166696  3.221752  5.810673  0.968435

 
 A cutoff of  1.0D-12 yielded   3710 shell pairs
 There are     42819 function pairs (     53521 Cartesian)
 Smallest overlap matrix eigenvalue = 2.27E-05
 Guess from superposition of atomic densities
 Warning:  Energy on first SCF cycle will be non-variational
 SAD guess density has 63.000000 electrons

 -----------------------------------------------------------------------
  General SCF calculation program by
  Eric Jon Sundstrom, Paul Horn, Yuezhi Mao, Dmitri Zuev, Alec White,
  David Stuck, Shaama M.S., Shane Yost, Joonho Lee, David Small,
  Daniel Levine, Susi Lehtola, Hugh Burton, Evgeny Epifanovsky,
  Bang C. Huynh
 -----------------------------------------------------------------------
 Exchange:     0.1500 Hartree-Fock + 1.0000 wB97M-V + LR-HF
 Correlation:  1.0000 wB97M-V
 Using SG-2 standard quadrature grid
 Nonlocal Correlation:  VV10 with C = 0.0100 and b = 6.00 and scale = 1.00000
 Grid used for NLC:  SG-1 standard quadrature
 using 32 threads for integral computing
 -------------------------------------------------------
 OpenMP Integral computing Module                
 Release: version 1.0, May 2013, Q-Chem Inc. Pittsburgh 
 -------------------------------------------------------
 
 Citation of the SMD model:
 Marenich, A.V.; Cramer, C.J.; Truhlar, D.G.
 J. Phys. Chem. B 2009, 113, 6378-6396.
 iSolventCode=           1
 Solvent: water                                                           
 
 vradii
            1           2           3           4           5           6
    1   1.8500000   1.8500000   1.8500000   1.5200000   1.5200000   1.5200000
            7           8           9          10          11          12
    1   1.2000000   1.2000000   1.5200000   1.2000000   1.2000000   1.5200000
           13
    1   1.2000000
 -------------------------------------------------------
 OpenMP BLAS3 based DFT computing Module                
 Release: version 1.0, May 2013, Q-Chem Inc. Pittsburgh 
 -------------------------------------------------------
 A unrestricted SCF calculation will be
 performed using DIIS, GDM
 SCF converges when RMS gradient is below 1.0e-07
 ---------------------------------------
  Cycle       Energy         DIIS error
 ---------------------------------------
    1    -494.9592641716      1.46e-02  
    2    -493.2717632147      2.25e-03  Done DIIS. Switching to GDM
 ---------------------------------------
  Cycle       Energy        RMS Gradient
 ---------------------------------------
    1    -493.2717632147      1.43e-01   Descent step
    2    -493.4566277871      2.42e-02   Normal BFGS step
    3    -493.4794515114      2.01e-02   Normal BFGS step
    4    -493.4808854892      9.78e-03   Normal BFGS step
    5    -493.4818640465      3.65e-03   Normal BFGS step
    6    -493.4819372192      2.96e-03   Normal BFGS step
    7    -493.4819723740      1.19e-03   Normal BFGS step
    8    -493.4819765590      2.23e-04   Normal BFGS step
    9    -493.4819770589      8.91e-05   Normal BFGS step
   10    -493.4819771868      4.46e-05   Normal BFGS step
   11    -493.4819772107      2.48e-05   Normal BFGS step
   12    -493.4819772155      1.19e-05   Normal BFGS step
   13    -493.4819772163      4.99e-06   Normal BFGS step
   14    -493.4819772166      2.53e-06   Normal BFGS step
   15    -493.4819772166      6.38e-07   Normal BFGS step
   16    -493.4819772166      1.41e-07   Normal BFGS step
   17    -493.4819772166      1.84e-07   Normal BFGS step
   18    -493.4819772166      4.98e-08  Convergence criterion met
 ---------------------------------------
 SCF time:   CPU 1357.93s  wall 51.00s 
<S^2> =          0.756214212
(3)  G-ENP(liq) elect-nuc-pol free energy of system     -493.481977217 a.u.
(4)  G-CDS(liq) cavity-dispersion-solvent structure 
     free energy                                                8.0549 kcal/mol
(6)  G-S(liq) free energy of system                     -493.469140981 a.u.
 SCF   energy in the final basis set =     -493.4691409808
 Total energy in the final basis set =     -493.4691409808
 
 --------------------------------------------------------------
 
                    Orbital Energies (a.u.)
 --------------------------------------------------------------
 
 Alpha MOs
 -- Occupied --
-19.3972 -19.3956 -19.3819 -19.3539 -19.3191 -10.4966 -10.4858 -10.4078
 -1.2673  -1.2611  -1.1908  -1.1736  -1.1502  -0.8610  -0.7915  -0.7483
 -0.7147  -0.6465  -0.6341  -0.6076  -0.5981  -0.5793  -0.5652  -0.5314
 -0.5237  -0.5134  -0.4970  -0.4760  -0.4527  -0.4224  -0.3785  -0.2810
 -- Virtual --
  0.0288   0.0399   0.0495   0.0564   0.0628   0.0727   0.0854   0.0942
  0.1024   0.1166   0.1173   0.1232   0.1328   0.1445   0.1454   0.1653
  0.1677   0.1966   0.2058   0.2170   0.2251   0.2337   0.2429   0.2463
  0.2574   0.2665   0.2752   0.2841   0.2944   0.3033   0.3092   0.3127
  0.3178   0.3216   0.3338   0.3406   0.3450   0.3581   0.3612   0.3778
  0.3899   0.4100   0.4168   0.4356   0.4406   0.4500   0.4873   0.5034
  0.5105   0.5433   0.5843   0.5957   0.6063   0.6088   0.6254   0.6474
  0.6675   0.6710   0.6827   0.7035   0.7181   0.7265   0.7350   0.7580
  0.7775   0.7916   0.8135   0.8337   0.8416   0.8590   0.8661   0.8850
  0.9058   0.9186   0.9245   0.9405   0.9746   1.0050   1.0264   1.0589
  1.0862   1.0963   1.1075   1.1153   1.1289   1.1383   1.1542   1.1645
  1.1672   1.1764   1.1950   1.2033   1.2119   1.2197   1.2230   1.2325
  1.2572   1.2783   1.3031   1.3520   1.3681   1.3891   1.4198   1.4596
  1.5038   1.5172   1.5324   1.5601   1.5785   1.6056   1.6262   1.6635
  1.6749   1.6916   1.7293   1.7343   1.7575   1.7852   1.8232   1.8278
  1.8584   1.8705   1.9630   1.9829   2.0440   2.1089   2.1281   2.1526
  2.2134   2.2801   2.2861   2.2916   2.3383   2.3875   2.3976   2.4168
  2.4423   2.4963   2.5446   2.5710   2.5815   2.6493   2.7152   2.7389
  2.7784   2.8106   2.8302   2.8488   2.8502   2.8579   2.8886   2.9631
  2.9992   3.0107   3.1097   3.1189   3.1342   3.1401   3.2032   3.2271
  3.2473   3.2766   3.2890   3.3067   3.3110   3.3458   3.3760   3.3897
  3.4197   3.4243   3.4654   3.5145   3.5236   3.5593   3.5655   3.5721
  3.6246   3.6439   3.6631   3.7146   3.7447   3.7530   3.7680   3.8197
  3.8500   3.8632   3.9061   3.9362   3.9653   4.0154   4.0304   4.1720
  4.1777   4.2001   4.2163   4.2498   4.3205   4.3338   4.3429   4.3627
  4.4477   4.4607   4.5424   4.7588   4.8744   5.1020   5.1162   5.1226
  5.1350   5.1501   5.1633   5.1696   5.1839   5.1888   5.1966   5.2090
  5.2244   5.2332   5.2691   5.3178   5.3389   5.3467   5.3607   5.3784
  5.4305   5.4700   5.5143   5.5164   5.5221   5.5577   5.5659   5.6086
  5.6122   5.6325   5.6693   5.6956   5.7265   5.8904   5.9601   5.9654
  5.9945   6.0299   6.0709   6.1005   6.2728   6.3668   6.4228   6.6151
  6.7173   6.9008   6.9142   6.9399   6.9789   6.9924   7.0206   7.0333
  7.0518   7.0789   7.0916   7.1097   7.2330   7.2377   7.2459   7.2620
  7.2676   7.3047   7.3139   7.3367   7.3715   7.3759   7.4592   7.4893
  7.5457   7.6297   7.6576   7.7154   7.7547   7.7642   7.7978   7.8029
  7.8846   7.9835  24.8571  25.1086  25.1961  50.5524  50.5793  50.6023
 50.7065  50.7227
 
 Beta MOs
 -- Occupied --
-19.3972 -19.3927 -19.3792 -19.3539 -19.3103 -10.4966 -10.4805 -10.4054
 -1.2634  -1.2584  -1.1852  -1.1731  -1.1348  -0.8428  -0.7915  -0.7422
 -0.7101  -0.6463  -0.6332  -0.6007  -0.5798  -0.5722  -0.5584  -0.5290
 -0.5191  -0.5091  -0.4570  -0.4530  -0.4465  -0.4220  -0.3682
 -- Virtual --
 -0.0060   0.0289   0.0399   0.0498   0.0565   0.0629   0.0731   0.0867
  0.0964   0.1034   0.1158   0.1185   0.1259   0.1391   0.1457   0.1641
  0.1680   0.1743   0.1968   0.2072   0.2173   0.2252   0.2363   0.2447
  0.2494   0.2586   0.2674   0.2761   0.2872   0.2965   0.3041   0.3119
  0.3142   0.3188   0.3238   0.3350   0.3445   0.3460   0.3589   0.3632
  0.3798   0.3935   0.4126   0.4174   0.4369   0.4414   0.4540   0.4876
  0.5038   0.5173   0.5481   0.5863   0.5984   0.6085   0.6125   0.6286
  0.6526   0.6718   0.6770   0.6881   0.7065   0.7206   0.7301   0.7394
  0.7667   0.7805   0.7953   0.8156   0.8373   0.8433   0.8601   0.8700
  0.8861   0.9064   0.9219   0.9294   0.9420   0.9810   1.0062   1.0270
  1.0619   1.0886   1.0982   1.1091   1.1186   1.1293   1.1394   1.1565
  1.1667   1.1791   1.1824   1.1985   1.2067   1.2134   1.2225   1.2276
  1.2372   1.2603   1.2826   1.3056   1.3556   1.3717   1.3926   1.4243
  1.4601   1.5060   1.5214   1.5383   1.5647   1.5795   1.6081   1.6283
  1.6686   1.6795   1.6931   1.7327   1.7385   1.7703   1.7924   1.8235
  1.8366   1.8642   1.8821   1.9743   1.9900   2.0469   2.1114   2.1312
  2.1547   2.2187   2.2857   2.2880   2.2993   2.3450   2.3906   2.3994
  2.4177   2.4476   2.5013   2.5462   2.5736   2.5874   2.6559   2.7395
  2.7508   2.7836   2.8308   2.8502   2.8523   2.8734   2.8819   2.8972
  2.9636   3.0093   3.0293   3.1202   3.1228   3.1418   3.1588   3.2143
  3.2413   3.2491   3.2833   3.2937   3.3167   3.3271   3.3645   3.3870
  3.4098   3.4249   3.4340   3.4693   3.5321   3.5373   3.5632   3.5717
  3.5906   3.6289   3.6581   3.6808   3.7315   3.7559   3.7638   3.7682
  3.8317   3.8512   3.8691   3.9069   3.9432   3.9745   4.0162   4.0352
  4.1721   4.1790   4.2027   4.2261   4.2597   4.3208   4.3384   4.3578
  4.4010   4.4551   4.4624   4.5452   4.7680   4.9016   5.1035   5.1229
  5.1240   5.1363   5.1647   5.1850   5.1888   5.1935   5.2028   5.2069
  5.2097   5.2303   5.2588   5.2792   5.3287   5.3477   5.3566   5.3641
  5.3816   5.4353   5.4764   5.5153   5.5193   5.5390   5.5639   5.5798
  5.6088   5.6238   5.6351   5.6768   5.7052   5.7359   5.9014   5.9603
  5.9789   5.9947   6.0430   6.0709   6.1044   6.2948   6.3668   6.4308
  6.6222   6.7174   6.9050   6.9225   6.9796   7.0011   7.0031   7.0237
  7.0338   7.0636   7.0875   7.1064   7.1143   7.2355   7.2403   7.2580
  7.2681   7.2787   7.3072   7.3200   7.3431   7.3801   7.4005   7.4597
  7.4973   7.5555   7.6304   7.6670   7.7201   7.7566   7.7712   7.7981
  7.8069   7.8929   7.9872  24.8597  25.1086  25.2012  50.5525  50.5824
 50.6049  50.7115  50.7232
 --------------------------------------------------------------
 
          Ground-State Mulliken Net Atomic Charges

     Atom                 Charge (a.u.)    Spin (a.u.)
  --------------------------------------------------------
      1 C                    -0.099486       0.196794
      2 C                     0.340334       0.352030
      3 C                     0.233908       0.000413
      4 O                    -0.478555       0.000024
      5 O                    -0.547006       0.303939
      6 O                    -0.444311       0.078722
      7 H                     0.186355      -0.007912
      8 H                     0.235608       0.000261
      9 O                    -0.296158      -0.000085
     10 H                     0.481442      -0.000475
     11 H                     0.368141       0.000012
     12 O                    -0.329955       0.078377
     13 H                     0.349684      -0.002101
  --------------------------------------------------------
  Sum of atomic charges =    -0.000000
  Sum of spin   charges =     1.000000

 -----------------------------------------------------------------
                    Cartesian Multipole Moments
 -----------------------------------------------------------------
    Charge (ESU x 10^10)
                -0.0000
    Dipole Moment (Debye)
         X       1.9915      Y       3.4634      Z     -10.2313
       Tot      10.9836
    Quadrupole Moments (Debye-Ang)
        XX     -42.1999     XY      12.6260     YY     -11.7789
        XZ      -4.9665     YZ     -25.3049     ZZ     -63.6187
    Octopole Moments (Debye-Ang^2)
       XXX    -128.2308    XXY    -127.9854    XYY      57.0319
       YYY    -225.6506    XXZ     -20.7780    XYZ     -34.0184
       YYZ    -108.6238    XZZ     -45.3072    YZZ    -197.8603
       ZZZ     -65.1849
    Hexadecapole Moments (Debye-Ang^3)
      XXXX    -444.7783   XXXY    -578.6417   XXYY    -528.7012
      XYYY     151.9789   YYYY   -2630.2073   XXXZ      56.8720
      XXYZ     -24.3625   XYYZ    -206.6222   YYYZ    -323.3365
      XXZZ    -176.6460   XYZZ    -228.0291   YYZZ    -973.7347
      XZZZ     111.1246   YZZZ     213.2372   ZZZZ    -780.7939
 -----------------------------------------------------------------
 Calculating analytic gradient of the SCF energy
 Gradient of CDS energy
            1           2           3           4           5           6
    1  -0.0009925   0.0015190   0.0010225  -0.0002916   0.0004684  -0.0006890
    2  -0.0011202   0.0032621   0.0025747   0.0001755   0.0001315  -0.0024738
    3   0.0031689  -0.0015290  -0.0016450  -0.0010016  -0.0023457  -0.0014545
            7           8           9          10          11          12
    1   0.0000490   0.0001855  -0.0010131   0.0000827   0.0002671  -0.0005996
    2   0.0000589  -0.0002197  -0.0023559   0.0000124   0.0003324  -0.0001883
    3  -0.0001531   0.0001937   0.0022211   0.0001182  -0.0000773   0.0028781
           13
    1  -0.0000084
    2  -0.0001895
    3  -0.0003737
 Gradient of SCF Energy
            1           2           3           4           5           6
    1   0.0006245  -0.0013461   0.0072253   0.0057635   0.0005162  -0.0026146
    2   0.0042016   0.0010075   0.0073625  -0.0019455   0.0014542  -0.0054771
    3   0.0122652  -0.0069217  -0.0008034   0.0153193   0.0013991   0.0117294
            7           8           9          10          11          12
    1   0.0000172  -0.0132607  -0.0131922   0.0001228   0.0148255   0.0071413
    2  -0.0031763  -0.0103864  -0.0061682   0.0025033   0.0127267   0.0174430
    3  -0.0075183  -0.0069116  -0.0127190  -0.0080435   0.0058622   0.0115803
           13
    1  -0.0058228
    2  -0.0195453
    3  -0.0152380
 Max gradient component =       1.955E-02
 RMS gradient           =       9.020E-03
 Computing fast CPCM-SWIG gradient
 Updating gradient with PCM contributions...
 -- total gradient after adding PCM contribution --
---------------------------------------------------
  Atom         X              Y              Z     
---------------------------------------------------
   1       0.000008      -0.000011       0.000010
   2      -0.000002       0.000013      -0.000042
   3      -0.000026      -0.000034       0.000021
   4      -0.000008       0.000134       0.000041
   5      -0.000024       0.000015       0.000021
   6      -0.000071       0.000108       0.000062
   7      -0.000009      -0.000004      -0.000012
   8      -0.000001      -0.000001      -0.000014
   9       0.000011      -0.000007      -0.000038
  10       0.000091      -0.000197      -0.000078
  11       0.000020       0.000000       0.000002
  12       0.000013       0.000000       0.000037
  13      -0.000001      -0.000018      -0.000010
---------------------------------------------------
 Number of fixed atoms: 0
 Gradient time:  CPU 156.99 s  wall 8.03 s
 ######################################################
 ######################################################
 # Starting finite difference calculation for IDERIV  #
 Finite diff step size:  1.88973e-03 a.u.
 ----------------------------------------------------------------
             Standard Nuclear Orientation (Angstroms)
    I     Atom           X                Y                Z
 ----------------------------------------------------------------
    1      C       0.1752585914     1.3954083047     1.1886351760
    2      C       0.7206360242     2.5291255905     0.5591766375
    3      C       1.5864198653     5.7442372941    -1.3367427662
    4      O       2.0302521124     5.5864157980    -0.2167662240
    5      O      -0.0623116198     1.3534627909     2.4259257436
    6      O       1.0117088970     3.6076785673     1.2461463367
    7      H      -0.0364484562     0.5447220130     0.5324336746
    8      H       0.7923785186     5.1360282423    -1.7710196736
    9      O       2.0068310031     6.6737168533    -2.1735030976
   10      H       1.3861424185     4.3217739531     0.6630906601
   11      H       2.7112796652     7.1980453208    -1.7565021409
   12      O       0.9748001120     2.5932127536    -0.7456867755
   13      H       0.7276086684     1.7664169186    -1.1851984506
 ----------------------------------------------------------------
 Nuclear Repulsion Energy =         358.49195375 hartrees
 There are       32 alpha and       31 beta electrons
 Discretize the solute cavity surface with Lebedev spheres
	Using 110 Lebedev grid points for each H atom
	Using 194 Lebedev grid points for other atoms
	Atomic van der Waals radii will be scaled by 1.20
 Remove points where switching function is < 1.0e-08
 Keep 1186 surface tesserae and discard 916 interior tesserae
 Molecular Surface Area = 142.396 Angst**2

                       Distance Matrix (Angstroms)
             C (  1)   C (  2)   C (  3)   O (  4)   O (  5)   O (  6)
   C (  2)  1.406759
   C (  3)  5.223143  3.831584
   O (  4)  4.793819  3.415290  1.215007
   O (  5)  1.260590  2.340928  6.012894  5.411149
   O (  6)  2.365818  1.311460  3.400955  2.663258  2.761682
   H (  7)  1.095029  2.124088  5.758687  5.500112  2.059136  3.315075
   H (  8)  4.809639  3.497271  1.090420  2.037372  5.714250  3.389284
   O (  9)  6.520673  5.128301  1.319411  2.238658  7.330839  4.699453
   H ( 10)  3.210304  1.915016  2.462285  1.669834  3.743859  0.995031
   H ( 11)  6.983970  5.578875  1.885488  2.330651  7.703548  4.979475
   O ( 12)  2.411556  1.330930  3.263799  3.217608  3.559734  2.235599
   H ( 13)  2.465324  1.903843  4.072294  4.150558  3.719506  3.063070
             H (  7)   H (  8)   O (  9)   H ( 10)   H ( 11)   O ( 12)
   H (  8)  5.203167
   O (  9)  7.004403  2.000343
   H ( 10)  4.038187  2.634475  3.736730
   H ( 11)  7.553539  2.816790  0.972141  3.985393
   O ( 12)  2.617734  2.747817  4.444577  2.267549  5.024101
   H ( 13)  2.242004  3.420769  5.166696  3.221752  5.810673  0.968435

 
 Requested basis set is 6-311++G(2df,2p)
 There are 94 shells and 322 basis functions
 A cutoff of  1.0D-12 yielded   3710 shell pairs
 There are     42819 function pairs (     53521 Cartesian)
 Smallest overlap matrix eigenvalue = 2.26E-05
 Guess MOs from SCF MO coefficient file

 -----------------------------------------------------------------------
  General SCF calculation program by
  Eric Jon Sundstrom, Paul Horn, Yuezhi Mao, Dmitri Zuev, Alec White,
  David Stuck, Shaama M.S., Shane Yost, Joonho Lee, David Small,
  Daniel Levine, Susi Lehtola, Hugh Burton, Evgeny Epifanovsky,
  Bang C. Huynh
 -----------------------------------------------------------------------
 Exchange:     0.1500 Hartree-Fock + 1.0000 wB97M-V + LR-HF
 Correlation:  1.0000 wB97M-V
 Using SG-2 standard quadrature grid
 Nonlocal Correlation:  VV10 with C = 0.0100 and b = 6.00 and scale = 1.00000
 Grid used for NLC:  SG-1 standard quadrature
 
 Citation of the SMD model:
 Marenich, A.V.; Cramer, C.J.; Truhlar, D.G.
 J. Phys. Chem. B 2009, 113, 6378-6396.
 iSolventCode=           1
 Solvent: water                                                           
 
 vradii
            1           2           3           4           5           6
    1   1.8500000   1.8500000   1.8500000   1.5200000   1.5200000   1.5200000
            7           8           9          10          11          12
    1   1.2000000   1.2000000   1.5200000   1.2000000   1.2000000   1.5200000
           13
    1   1.2000000
 -------------------------------------------------------
 OpenMP BLAS3 based DFT computing Module                
 Release: version 1.0, May 2013, Q-Chem Inc. Pittsburgh 
 -------------------------------------------------------
 A unrestricted SCF calculation will be
 performed using Roothaan-Hall, DIIS, GDM
 SCF converges when RMS gradient is below 1.0e-07
 ---------------------------------------
  Cycle       Energy         DIIS error
 ---------------------------------------
    1    -493.4214680450      3.54e-04  Roothaan Step
 ---------------------------------------
  Cycle       Energy         DIIS error
 ---------------------------------------
    1    -493.4657191797      4.66e-04  
    2    -493.4709026762      5.65e-04  Done DIIS. Switching to GDM
 ---------------------------------------
  Cycle       Energy        RMS Gradient
 ---------------------------------------
    1    -493.4709026762      4.15e-02   Normal BFGS step
    2    -493.4652527834      7.17e-02  Line search: overstep
    3    -493.4814873839      7.01e-03   Normal BFGS step
    4    -493.4818680507      3.02e-03   Normal BFGS step
    5    -493.4819449180      2.15e-03   Normal BFGS step
    6    -493.4819682652      5.31e-04   Normal BFGS step
    7    -493.4819731958      3.22e-04   Normal BFGS step
    8    -493.4819747142      1.83e-04   Normal BFGS step
    9    -493.4819748822      8.62e-05   Normal BFGS step
   10    -493.4819749349      2.49e-05   Normal BFGS step
   11    -493.4819749409      1.00e-05   Normal BFGS step
   12    -493.4819749425      1.06e-05   Normal BFGS step
   13    -493.4819749428      2.58e-06   Normal BFGS step
   14    -493.4819749429      1.30e-06   Normal BFGS step
   15    -493.4819749429      8.65e-07   Normal BFGS step
   16    -493.4819749429      3.91e-07   Normal BFGS step
   17    -493.4819749429      9.80e-08  Convergence criterion met
 ---------------------------------------
 SCF time:   CPU 1380.00s  wall 52.00s 
<S^2> =          0.756219666
(3)  G-ENP(liq) elect-nuc-pol free energy of system     -493.481974943 a.u.
(4)  G-CDS(liq) cavity-dispersion-solvent structure 
     free energy                                                8.0537 kcal/mol
(6)  G-S(liq) free energy of system                     -493.469140584 a.u.
 SCF   energy in the final basis set =     -493.4691405841
 Total energy in the final basis set =     -493.4691405841
 
 --------------------------------------------------------------
 
                    Orbital Energies (a.u.)
 --------------------------------------------------------------
 
 Alpha MOs
 -- Occupied --
-19.3972 -19.3956 -19.3819 -19.3539 -19.3191 -10.4966 -10.4858 -10.4078
 -1.2673  -1.2611  -1.1908  -1.1736  -1.1502  -0.8611  -0.7915  -0.7483
 -0.7147  -0.6465  -0.6341  -0.6076  -0.5981  -0.5793  -0.5652  -0.5314
 -0.5237  -0.5134  -0.4970  -0.4760  -0.4527  -0.4224  -0.3785  -0.2811
 -- Virtual --
  0.0288   0.0399   0.0495   0.0564   0.0628   0.0728   0.0854   0.0942
  0.1024   0.1166   0.1173   0.1232   0.1328   0.1445   0.1455   0.1653
  0.1677   0.1966   0.2058   0.2170   0.2251   0.2337   0.2429   0.2463
  0.2574   0.2665   0.2752   0.2841   0.2944   0.3033   0.3092   0.3127
  0.3178   0.3216   0.3338   0.3406   0.3450   0.3581   0.3612   0.3778
  0.3899   0.4100   0.4168   0.4355   0.4406   0.4501   0.4873   0.5034
  0.5106   0.5433   0.5843   0.5957   0.6063   0.6088   0.6254   0.6475
  0.6675   0.6710   0.6827   0.7035   0.7181   0.7266   0.7349   0.7581
  0.7774   0.7916   0.8135   0.8337   0.8416   0.8590   0.8660   0.8850
  0.9058   0.9186   0.9247   0.9405   0.9745   1.0050   1.0264   1.0590
  1.0862   1.0963   1.1075   1.1153   1.1289   1.1382   1.1543   1.1645
  1.1672   1.1764   1.1950   1.2033   1.2120   1.2197   1.2230   1.2324
  1.2572   1.2783   1.3031   1.3520   1.3681   1.3892   1.4198   1.4596
  1.5038   1.5173   1.5324   1.5601   1.5785   1.6055   1.6262   1.6635
  1.6749   1.6916   1.7293   1.7343   1.7575   1.7852   1.8232   1.8278
  1.8584   1.8705   1.9628   1.9831   2.0440   2.1089   2.1281   2.1526
  2.2135   2.2801   2.2861   2.2916   2.3383   2.3876   2.3976   2.4168
  2.4424   2.4963   2.5446   2.5711   2.5815   2.6493   2.7154   2.7389
  2.7784   2.8105   2.8302   2.8488   2.8501   2.8578   2.8888   2.9631
  2.9989   3.0108   3.1098   3.1189   3.1342   3.1401   3.2033   3.2270
  3.2473   3.2766   3.2889   3.3067   3.3110   3.3458   3.3760   3.3896
  3.4196   3.4243   3.4654   3.5146   3.5233   3.5594   3.5657   3.5721
  3.6246   3.6439   3.6633   3.7146   3.7443   3.7535   3.7680   3.8199
  3.8500   3.8632   3.9061   3.9362   3.9651   4.0154   4.0304   4.1720
  4.1777   4.2002   4.2161   4.2500   4.3205   4.3338   4.3431   4.3636
  4.4476   4.4607   4.5424   4.7591   4.8746   5.1020   5.1162   5.1226
  5.1350   5.1500   5.1633   5.1696   5.1838   5.1888   5.1966   5.2090
  5.2244   5.2332   5.2691   5.3178   5.3389   5.3466   5.3607   5.3784
  5.4305   5.4700   5.5143   5.5164   5.5219   5.5577   5.5659   5.6086
  5.6121   5.6325   5.6693   5.6957   5.7264   5.8901   5.9601   5.9653
  5.9945   6.0299   6.0709   6.1005   6.2726   6.3668   6.4227   6.6149
  6.7173   6.9008   6.9142   6.9399   6.9789   6.9924   7.0207   7.0333
  7.0518   7.0789   7.0915   7.1097   7.2330   7.2377   7.2458   7.2620
  7.2677   7.3047   7.3139   7.3367   7.3714   7.3760   7.4592   7.4894
  7.5457   7.6297   7.6575   7.7154   7.7548   7.7641   7.7979   7.8029
  7.8846   7.9835  24.8566  25.1086  25.1968  50.5524  50.5793  50.6023
 50.7064  50.7227
 
 Beta MOs
 -- Occupied --
-19.3972 -19.3927 -19.3792 -19.3539 -19.3103 -10.4966 -10.4805 -10.4053
 -1.2634  -1.2584  -1.1852  -1.1731  -1.1347  -0.8429  -0.7915  -0.7423
 -0.7101  -0.6463  -0.6332  -0.6007  -0.5798  -0.5722  -0.5584  -0.5290
 -0.5191  -0.5091  -0.4570  -0.4530  -0.4464  -0.4220  -0.3682
 -- Virtual --
 -0.0061   0.0289   0.0399   0.0497   0.0565   0.0629   0.0731   0.0867
  0.0964   0.1035   0.1158   0.1185   0.1259   0.1391   0.1457   0.1641
  0.1680   0.1743   0.1968   0.2072   0.2173   0.2253   0.2363   0.2447
  0.2494   0.2586   0.2674   0.2761   0.2872   0.2965   0.3041   0.3119
  0.3142   0.3188   0.3238   0.3350   0.3445   0.3461   0.3589   0.3632
  0.3798   0.3935   0.4126   0.4174   0.4369   0.4415   0.4540   0.4876
  0.5038   0.5173   0.5482   0.5863   0.5984   0.6085   0.6125   0.6286
  0.6526   0.6717   0.6770   0.6880   0.7065   0.7206   0.7302   0.7394
  0.7667   0.7804   0.7953   0.8156   0.8373   0.8433   0.8601   0.8699
  0.8860   0.9064   0.9219   0.9295   0.9420   0.9810   1.0062   1.0270
  1.0619   1.0886   1.0983   1.1092   1.1186   1.1293   1.1394   1.1565
  1.1667   1.1791   1.1824   1.1985   1.2068   1.2134   1.2225   1.2276
  1.2372   1.2603   1.2826   1.3055   1.3556   1.3717   1.3926   1.4244
  1.4601   1.5060   1.5214   1.5383   1.5647   1.5795   1.6081   1.6283
  1.6686   1.6795   1.6931   1.7327   1.7385   1.7702   1.7924   1.8235
  1.8366   1.8642   1.8821   1.9741   1.9902   2.0469   2.1114   2.1312
  2.1548   2.2188   2.2858   2.2879   2.2994   2.3449   2.3906   2.3994
  2.4177   2.4476   2.5013   2.5463   2.5736   2.5874   2.6559   2.7396
  2.7508   2.7836   2.8308   2.8501   2.8523   2.8733   2.8819   2.8974
  2.9636   3.0092   3.0293   3.1202   3.1229   3.1418   3.1587   3.2144
  3.2412   3.2491   3.2833   3.2937   3.3168   3.3271   3.3644   3.3869
  3.4097   3.4250   3.4340   3.4693   3.5323   3.5370   3.5632   3.5717
  3.5908   3.6290   3.6582   3.6809   3.7315   3.7556   3.7642   3.7682
  3.8319   3.8512   3.8691   3.9069   3.9433   3.9743   4.0162   4.0353
  4.1721   4.1790   4.2028   4.2258   4.2598   4.3208   4.3385   4.3580
  4.4019   4.4551   4.4624   4.5452   4.7683   4.9018   5.1035   5.1229
  5.1240   5.1363   5.1647   5.1850   5.1887   5.1935   5.2028   5.2070
  5.2097   5.2303   5.2588   5.2792   5.3287   5.3477   5.3566   5.3641
  5.3816   5.4353   5.4765   5.5153   5.5194   5.5388   5.5639   5.5798
  5.6088   5.6237   5.6351   5.6768   5.7053   5.7358   5.9011   5.9603
  5.9788   5.9947   6.0429   6.0709   6.1044   6.2946   6.3668   6.4307
  6.6221   6.7174   6.9050   6.9225   6.9796   7.0011   7.0031   7.0237
  7.0338   7.0636   7.0875   7.1063   7.1143   7.2355   7.2403   7.2579
  7.2682   7.2787   7.3072   7.3201   7.3431   7.3802   7.4005   7.4597
  7.4974   7.5555   7.6304   7.6670   7.7201   7.7566   7.7712   7.7981
  7.8069   7.8929   7.9873  24.8593  25.1086  25.2019  50.5525  50.5824
 50.6050  50.7114  50.7231
 --------------------------------------------------------------
 
          Ground-State Mulliken Net Atomic Charges

     Atom                 Charge (a.u.)    Spin (a.u.)
  --------------------------------------------------------
      1 C                    -0.099788       0.196710
      2 C                     0.340797       0.351882
      3 C                     0.233915       0.000411
      4 O                    -0.478552       0.000025
      5 O                    -0.547142       0.304148
      6 O                    -0.444297       0.078748
      7 H                     0.186292      -0.007925
      8 H                     0.235612       0.000260
      9 O                    -0.296157      -0.000085
     10 H                     0.481433      -0.000476
     11 H                     0.368143       0.000011
     12 O                    -0.329955       0.078392
     13 H                     0.349699      -0.002101
  --------------------------------------------------------
  Sum of atomic charges =     0.000000
  Sum of spin   charges =     1.000000

 -----------------------------------------------------------------
                    Cartesian Multipole Moments
 -----------------------------------------------------------------
    Charge (ESU x 10^10)
                 0.0000
    Dipole Moment (Debye)
         X       1.9921      Y       3.4645      Z     -10.2322
       Tot      10.9850
    Quadrupole Moments (Debye-Ang)
        XX     -42.1989     XY      12.6277     YY     -11.7748
        XZ      -4.9659     YZ     -25.3058     ZZ     -63.6207
    Octopole Moments (Debye-Ang^2)
       XXX    -128.2454    XXY    -127.9818    XYY      57.0312
       YYY    -225.6358    XXZ     -20.7785    XYZ     -34.0172
       YYZ    -108.6249    XZZ     -45.3118    YZZ    -197.8621
       ZZZ     -65.1921
    Hexadecapole Moments (Debye-Ang^3)
      XXXX    -444.7839   XXXY    -578.6584   XXYY    -528.6916
      XYYY     151.9724   YYYY   -2630.1512   XXXZ      56.8525
      XXYZ     -24.3620   XYYZ    -206.6261   YYYZ    -323.3365
      XXZZ    -176.6480   XYZZ    -228.0335   YYZZ    -973.7363
      XZZZ     111.1015   YZZZ     213.2252   ZZZZ    -780.8165
 -----------------------------------------------------------------
 Calculating analytic gradient of the SCF energy
 Gradient of CDS energy
            1           2           3           4           5           6
    1  -0.0009940   0.0015180   0.0010225  -0.0002916   0.0004712  -0.0006890
    2  -0.0011198   0.0032620   0.0025747   0.0001755   0.0001318  -0.0024739
    3   0.0031735  -0.0015289  -0.0016450  -0.0010016  -0.0023502  -0.0014545
            7           8           9          10          11          12
    1   0.0000489   0.0001855  -0.0010131   0.0000827   0.0002671  -0.0005996
    2   0.0000585  -0.0002197  -0.0023559   0.0000124   0.0003324  -0.0001883
    3  -0.0001533   0.0001937   0.0022211   0.0001181  -0.0000773   0.0028781
           13
    1  -0.0000085
    2  -0.0001895
    3  -0.0003737
 Gradient of SCF Energy
            1           2           3           4           5           6
    1   0.0010196  -0.0015447   0.0072262   0.0057641   0.0003996  -0.0026045
    2   0.0045289   0.0008263   0.0073629  -0.0019443   0.0014243  -0.0054940
    3   0.0120834  -0.0068482  -0.0008041   0.0153204   0.0015517   0.0117404
            7           8           9          10          11          12
    1  -0.0000871  -0.0132623  -0.0131927   0.0001292   0.0148261   0.0071485
    2  -0.0032717  -0.0103883  -0.0061678   0.0025026   0.0127271   0.0174380
    3  -0.0075664  -0.0069120  -0.0127197  -0.0080432   0.0058625   0.0115745
           13
    1  -0.0058219
    2  -0.0195440
    3  -0.0152393
 Max gradient component =       1.954E-02
 RMS gradient           =       9.021E-03
 Computing fast CPCM-SWIG gradient
 Updating gradient with PCM contributions...
 -- total gradient after adding PCM contribution --
---------------------------------------------------
  Atom         X              Y              Z     
---------------------------------------------------
   1       0.000412       0.000322      -0.000177
   2      -0.000206      -0.000167       0.000036
   3      -0.000026      -0.000034       0.000021
   4      -0.000008       0.000135       0.000041
   5      -0.000146      -0.000018       0.000175
   6      -0.000062       0.000092       0.000071
   7      -0.000113      -0.000100      -0.000064
   8      -0.000001      -0.000001      -0.000014
   9       0.000011      -0.000007      -0.000039
  10       0.000096      -0.000200      -0.000077
  11       0.000020       0.000000       0.000002
  12       0.000025      -0.000005       0.000033
  13      -0.000001      -0.000016      -0.000009
---------------------------------------------------
 Number of fixed atoms: 0
 Gradient time:  CPU 155.78 s  wall 8.00 s
 ----------------------------------------------------------------
             Standard Nuclear Orientation (Angstroms)
    I     Atom           X                Y                Z
 ----------------------------------------------------------------
    1      C       0.1732585914     1.3954083047     1.1886351760
    2      C       0.7206360242     2.5291255905     0.5591766375
    3      C       1.5864198653     5.7442372941    -1.3367427662
    4      O       2.0302521124     5.5864157980    -0.2167662240
    5      O      -0.0623116198     1.3534627909     2.4259257436
    6      O       1.0117088970     3.6076785673     1.2461463367
    7      H      -0.0364484562     0.5447220130     0.5324336746
    8      H       0.7923785186     5.1360282423    -1.7710196736
    9      O       2.0068310031     6.6737168533    -2.1735030976
   10      H       1.3861424185     4.3217739531     0.6630906601
   11      H       2.7112796652     7.1980453208    -1.7565021409
   12      O       0.9748001120     2.5932127536    -0.7456867755
   13      H       0.7276086684     1.7664169186    -1.1851984506
 ----------------------------------------------------------------
 Nuclear Repulsion Energy =         358.48327552 hartrees
 There are       32 alpha and       31 beta electrons
 Discretize the solute cavity surface with Lebedev spheres
	Using 110 Lebedev grid points for each H atom
	Using 194 Lebedev grid points for other atoms
	Atomic van der Waals radii will be scaled by 1.20
 Remove points where switching function is < 1.0e-08
 Keep 1186 surface tesserae and discard 916 interior tesserae
 Molecular Surface Area = 142.398 Angst**2

                       Distance Matrix (Angstroms)
             C (  1)   C (  2)   C (  3)   O (  4)   O (  5)   O (  6)
   C (  2)  1.407535
   C (  3)  5.223684  3.831584
   O (  4)  4.794593  3.415290  1.215007
   O (  5)  1.260215  2.340928  6.012894  5.411149
   O (  6)  2.366526  1.311460  3.400955  2.663258  2.761682
   H (  7)  1.094644  2.124088  5.758687  5.500112  2.059136  3.315075
   H (  8)  4.809896  3.497271  1.090420  2.037372  5.714250  3.389284
   O (  9)  6.521235  5.128301  1.319411  2.238658  7.330839  4.699453
   H ( 10)  3.211059  1.915016  2.462285  1.669834  3.743859  0.995031
   H ( 11)  6.984696  5.578875  1.885488  2.330651  7.703548  4.979475
   O ( 12)  2.412220  1.330930  3.263799  3.217608  3.559734  2.235599
   H ( 13)  2.465773  1.903843  4.072294  4.150558  3.719506  3.063070
             H (  7)   H (  8)   O (  9)   H ( 10)   H ( 11)   O ( 12)
   H (  8)  5.203167
   O (  9)  7.004403  2.000343
   H ( 10)  4.038187  2.634475  3.736730
   H ( 11)  7.553539  2.816790  0.972141  3.985393
   O ( 12)  2.617734  2.747817  4.444577  2.267549  5.024101
   H ( 13)  2.242004  3.420769  5.166696  3.221752  5.810673  0.968435

 
 Requested basis set is 6-311++G(2df,2p)
 There are 94 shells and 322 basis functions
 A cutoff of  1.0D-12 yielded   3710 shell pairs
 There are     42819 function pairs (     53521 Cartesian)
 Smallest overlap matrix eigenvalue = 2.27E-05
 Guess MOs from SCF MO coefficient file

 -----------------------------------------------------------------------
  General SCF calculation program by
  Eric Jon Sundstrom, Paul Horn, Yuezhi Mao, Dmitri Zuev, Alec White,
  David Stuck, Shaama M.S., Shane Yost, Joonho Lee, David Small,
  Daniel Levine, Susi Lehtola, Hugh Burton, Evgeny Epifanovsky,
  Bang C. Huynh
 -----------------------------------------------------------------------
 Exchange:     0.1500 Hartree-Fock + 1.0000 wB97M-V + LR-HF
 Correlation:  1.0000 wB97M-V
 Using SG-2 standard quadrature grid
 Nonlocal Correlation:  VV10 with C = 0.0100 and b = 6.00 and scale = 1.00000
 Grid used for NLC:  SG-1 standard quadrature
 
 Citation of the SMD model:
 Marenich, A.V.; Cramer, C.J.; Truhlar, D.G.
 J. Phys. Chem. B 2009, 113, 6378-6396.
 iSolventCode=           1
 Solvent: water                                                           
 
 vradii
            1           2           3           4           5           6
    1   1.8500000   1.8500000   1.8500000   1.5200000   1.5200000   1.5200000
            7           8           9          10          11          12
    1   1.2000000   1.2000000   1.5200000   1.2000000   1.2000000   1.5200000
           13
    1   1.2000000
 -------------------------------------------------------
 OpenMP BLAS3 based DFT computing Module                
 Release: version 1.0, May 2013, Q-Chem Inc. Pittsburgh 
 -------------------------------------------------------
 A unrestricted SCF calculation will be
 performed using Roothaan-Hall, DIIS, GDM
 SCF converges when RMS gradient is below 1.0e-07
 ---------------------------------------
  Cycle       Energy         DIIS error
 ---------------------------------------
    1    -493.4214757408      3.55e-04  Roothaan Step
 ---------------------------------------
  Cycle       Energy         DIIS error
 ---------------------------------------
    1    -493.4657503097      4.65e-04  
    2    -493.4709506312      5.63e-04  Done DIIS. Switching to GDM
 ---------------------------------------
  Cycle       Energy        RMS Gradient
 ---------------------------------------
    1    -493.4709506312      4.13e-02   Normal BFGS step
    2    -493.4653379078      7.14e-02  Line search: overstep
    3    -493.4814913131      6.98e-03   Normal BFGS step
    4    -493.4818718120      3.04e-03   Normal BFGS step
    5    -493.4819487169      2.15e-03   Normal BFGS step
    6    -493.4819720306      5.33e-04   Normal BFGS step
    7    -493.4819769757      3.20e-04   Normal BFGS step
    8    -493.4819784937      1.82e-04   Normal BFGS step
    9    -493.4819786616      8.64e-05   Normal BFGS step
   10    -493.4819787148      2.49e-05   Normal BFGS step
   11    -493.4819787208      9.83e-06   Normal BFGS step
   12    -493.4819787224      1.05e-05   Normal BFGS step
   13    -493.4819787227      2.55e-06   Normal BFGS step
   14    -493.4819787228      1.30e-06   Normal BFGS step
   15    -493.4819787228      8.55e-07   Normal BFGS step
   16    -493.4819787228      3.90e-07   Normal BFGS step
   17    -493.4819787228      9.76e-08  Convergence criterion met
 ---------------------------------------
 SCF time:   CPU 1378.36s  wall 52.00s 
<S^2> =          0.756208784
(3)  G-ENP(liq) elect-nuc-pol free energy of system     -493.481978723 a.u.
(4)  G-CDS(liq) cavity-dispersion-solvent structure 
     free energy                                                8.0560 kcal/mol
(6)  G-S(liq) free energy of system                     -493.469140613 a.u.
 SCF   energy in the final basis set =     -493.4691406129
 Total energy in the final basis set =     -493.4691406129
 
 --------------------------------------------------------------
 
                    Orbital Energies (a.u.)
 --------------------------------------------------------------
 
 Alpha MOs
 -- Occupied --
-19.3972 -19.3956 -19.3819 -19.3539 -19.3191 -10.4966 -10.4858 -10.4078
 -1.2673  -1.2611  -1.1908  -1.1736  -1.1503  -0.8609  -0.7915  -0.7483
 -0.7147  -0.6465  -0.6341  -0.6076  -0.5980  -0.5793  -0.5653  -0.5314
 -0.5238  -0.5134  -0.4970  -0.4760  -0.4527  -0.4224  -0.3785  -0.2809
 -- Virtual --
  0.0288   0.0399   0.0495   0.0564   0.0628   0.0727   0.0854   0.0942
  0.1024   0.1165   0.1173   0.1231   0.1328   0.1445   0.1454   0.1653
  0.1677   0.1966   0.2059   0.2170   0.2251   0.2337   0.2430   0.2463
  0.2574   0.2665   0.2752   0.2841   0.2944   0.3033   0.3092   0.3127
  0.3178   0.3216   0.3338   0.3406   0.3450   0.3581   0.3612   0.3778
  0.3899   0.4100   0.4168   0.4356   0.4406   0.4500   0.4873   0.5034
  0.5105   0.5432   0.5844   0.5957   0.6062   0.6089   0.6253   0.6474
  0.6676   0.6710   0.6828   0.7036   0.7181   0.7263   0.7351   0.7580
  0.7775   0.7916   0.8135   0.8337   0.8416   0.8590   0.8661   0.8850
  0.9058   0.9187   0.9244   0.9405   0.9746   1.0050   1.0264   1.0589
  1.0862   1.0962   1.1075   1.1154   1.1289   1.1383   1.1542   1.1644
  1.1672   1.1764   1.1950   1.2032   1.2118   1.2197   1.2231   1.2325
  1.2572   1.2782   1.3031   1.3520   1.3680   1.3891   1.4197   1.4596
  1.5038   1.5172   1.5324   1.5600   1.5785   1.6056   1.6262   1.6635
  1.6749   1.6916   1.7292   1.7343   1.7575   1.7852   1.8232   1.8278
  1.8584   1.8704   1.9631   1.9828   2.0440   2.1088   2.1282   2.1525
  2.2132   2.2801   2.2861   2.2916   2.3384   2.3874   2.3976   2.4168
  2.4423   2.4963   2.5446   2.5710   2.5815   2.6494   2.7150   2.7389
  2.7784   2.8107   2.8302   2.8488   2.8502   2.8579   2.8885   2.9631
  2.9994   3.0107   3.1096   3.1189   3.1343   3.1401   3.2032   3.2272
  3.2473   3.2765   3.2890   3.3066   3.3110   3.3459   3.3760   3.3898
  3.4198   3.4244   3.4654   3.5143   3.5239   3.5593   3.5654   3.5721
  3.6245   3.6438   3.6629   3.7145   3.7451   3.7525   3.7680   3.8195
  3.8500   3.8633   3.9061   3.9361   3.9654   4.0154   4.0304   4.1720
  4.1777   4.2000   4.2165   4.2496   4.3205   4.3337   4.3428   4.3618
  4.4477   4.4607   4.5424   4.7586   4.8741   5.1020   5.1162   5.1226
  5.1350   5.1501   5.1634   5.1697   5.1839   5.1888   5.1966   5.2090
  5.2244   5.2332   5.2690   5.3179   5.3389   5.3468   5.3607   5.3784
  5.4305   5.4700   5.5143   5.5164   5.5222   5.5577   5.5660   5.6086
  5.6123   5.6325   5.6693   5.6956   5.7266   5.8907   5.9601   5.9655
  5.9945   6.0300   6.0709   6.1005   6.2730   6.3668   6.4229   6.6152
  6.7173   6.9008   6.9143   6.9400   6.9789   6.9924   7.0206   7.0333
  7.0519   7.0789   7.0916   7.1096   7.2329   7.2377   7.2460   7.2620
  7.2676   7.3046   7.3138   7.3366   7.3715   7.3759   7.4592   7.4892
  7.5457   7.6297   7.6577   7.7155   7.7547   7.7642   7.7978   7.8029
  7.8845   7.9834  24.8575  25.1086  25.1954  50.5524  50.5794  50.6023
 50.7066  50.7227
 
 Beta MOs
 -- Occupied --
-19.3972 -19.3927 -19.3792 -19.3539 -19.3103 -10.4966 -10.4805 -10.4054
 -1.2634  -1.2584  -1.1852  -1.1731  -1.1349  -0.8427  -0.7915  -0.7422
 -0.7101  -0.6463  -0.6332  -0.6007  -0.5798  -0.5722  -0.5584  -0.5290
 -0.5191  -0.5091  -0.4570  -0.4530  -0.4465  -0.4220  -0.3682
 -- Virtual --
 -0.0059   0.0289   0.0399   0.0498   0.0565   0.0629   0.0731   0.0867
  0.0964   0.1034   0.1158   0.1185   0.1259   0.1391   0.1457   0.1641
  0.1679   0.1742   0.1968   0.2072   0.2173   0.2252   0.2363   0.2447
  0.2494   0.2586   0.2674   0.2761   0.2872   0.2965   0.3041   0.3119
  0.3142   0.3188   0.3238   0.3350   0.3445   0.3460   0.3589   0.3632
  0.3798   0.3935   0.4126   0.4175   0.4369   0.4414   0.4539   0.4876
  0.5038   0.5172   0.5481   0.5864   0.5984   0.6085   0.6126   0.6286
  0.6525   0.6719   0.6770   0.6881   0.7065   0.7206   0.7299   0.7395
  0.7666   0.7805   0.7953   0.8156   0.8373   0.8433   0.8600   0.8700
  0.8861   0.9064   0.9219   0.9293   0.9420   0.9810   1.0062   1.0270
  1.0619   1.0887   1.0982   1.1091   1.1186   1.1293   1.1394   1.1564
  1.1667   1.1790   1.1825   1.1986   1.2067   1.2133   1.2224   1.2276
  1.2373   1.2603   1.2825   1.3056   1.3556   1.3716   1.3926   1.4243
  1.4601   1.5060   1.5214   1.5383   1.5646   1.5795   1.6082   1.6283
  1.6686   1.6794   1.6931   1.7327   1.7384   1.7703   1.7925   1.8235
  1.8366   1.8642   1.8821   1.9744   1.9898   2.0469   2.1114   2.1312
  2.1547   2.2185   2.2857   2.2880   2.2993   2.3450   2.3905   2.3994
  2.4177   2.4475   2.5013   2.5462   2.5735   2.5874   2.6559   2.7393
  2.7508   2.7837   2.8308   2.8503   2.8523   2.8736   2.8819   2.8970
  2.9636   3.0095   3.0293   3.1202   3.1228   3.1418   3.1589   3.2143
  3.2414   3.2491   3.2833   3.2938   3.3166   3.3271   3.3645   3.3870
  3.4100   3.4249   3.4341   3.4693   3.5319   3.5377   3.5632   3.5717
  3.5903   3.6289   3.6580   3.6806   3.7314   3.7563   3.7634   3.7681
  3.8315   3.8512   3.8691   3.9069   3.9432   3.9747   4.0162   4.0352
  4.1721   4.1789   4.2027   4.2263   4.2595   4.3208   4.3384   4.3575
  4.4002   4.4552   4.4624   4.5452   4.7677   4.9013   5.1035   5.1230
  5.1240   5.1363   5.1647   5.1850   5.1888   5.1935   5.2029   5.2069
  5.2097   5.2303   5.2588   5.2791   5.3288   5.3477   5.3567   5.3641
  5.3816   5.4353   5.4764   5.5153   5.5193   5.5392   5.5640   5.5798
  5.6088   5.6239   5.6351   5.6767   5.7052   5.7360   5.9017   5.9603
  5.9790   5.9947   6.0430   6.0709   6.1044   6.2950   6.3668   6.4309
  6.6224   6.7174   6.9050   6.9226   6.9796   7.0011   7.0031   7.0237
  7.0338   7.0637   7.0875   7.1064   7.1143   7.2355   7.2403   7.2581
  7.2681   7.2787   7.3071   7.3199   7.3430   7.3800   7.4005   7.4597
  7.4972   7.5555   7.6304   7.6671   7.7201   7.7566   7.7713   7.7981
  7.8068   7.8929   7.9872  24.8601  25.1086  25.2005  50.5525  50.5824
 50.6049  50.7116  50.7232
 --------------------------------------------------------------
 
          Ground-State Mulliken Net Atomic Charges

     Atom                 Charge (a.u.)    Spin (a.u.)
  --------------------------------------------------------
      1 C                    -0.099187       0.196879
      2 C                     0.339872       0.352176
      3 C                     0.233901       0.000415
      4 O                    -0.478558       0.000023
      5 O                    -0.546868       0.303732
      6 O                    -0.444324       0.078696
      7 H                     0.186416      -0.007899
      8 H                     0.235604       0.000262
      9 O                    -0.296160      -0.000085
     10 H                     0.481451      -0.000473
     11 H                     0.368139       0.000012
     12 O                    -0.329955       0.078363
     13 H                     0.349668      -0.002100
  --------------------------------------------------------
  Sum of atomic charges =     0.000000
  Sum of spin   charges =     1.000000

 -----------------------------------------------------------------
                    Cartesian Multipole Moments
 -----------------------------------------------------------------
    Charge (ESU x 10^10)
                 0.0000
    Dipole Moment (Debye)
         X       1.9910      Y       3.4622      Z     -10.2304
       Tot      10.9823
    Quadrupole Moments (Debye-Ang)
        XX     -42.2008     XY      12.6243     YY     -11.7829
        XZ      -4.9670     YZ     -25.3041     ZZ     -63.6168
    Octopole Moments (Debye-Ang^2)
       XXX    -128.2162    XXY    -127.9889    XYY      57.0327
       YYY    -225.6652    XXZ     -20.7775    XYZ     -34.0196
       YYZ    -108.6227    XZZ     -45.3026    YZZ    -197.8585
       ZZZ     -65.1776
    Hexadecapole Moments (Debye-Ang^3)
      XXXX    -444.7728   XXXY    -578.6250   XXYY    -528.7107
      XYYY     151.9856   YYYY   -2630.2627   XXXZ      56.8916
      XXYZ     -24.3630   XYYZ    -206.6183   YYYZ    -323.3365
      XXZZ    -176.6440   XYZZ    -228.0247   YYZZ    -973.7330
      XZZZ     111.1478   YZZZ     213.2491   ZZZZ    -780.7714
 -----------------------------------------------------------------
 Calculating analytic gradient of the SCF energy
 Gradient of CDS energy
            1           2           3           4           5           6
    1  -0.0009910   0.0015200   0.0010225  -0.0002916   0.0004657  -0.0006890
    2  -0.0011206   0.0032623   0.0025747   0.0001755   0.0001313  -0.0024738
    3   0.0031644  -0.0015291  -0.0016450  -0.0010016  -0.0023412  -0.0014546
            7           8           9          10          11          12
    1   0.0000492   0.0001855  -0.0010131   0.0000827   0.0002671  -0.0005996
    2   0.0000593  -0.0002197  -0.0023559   0.0000124   0.0003324  -0.0001883
    3  -0.0001530   0.0001937   0.0022211   0.0001182  -0.0000773   0.0028781
           13
    1  -0.0000083
    2  -0.0001896
    3  -0.0003737
 Gradient of SCF Energy
            1           2           3           4           5           6
    1   0.0002299  -0.0011475   0.0072244   0.0057629   0.0006325  -0.0026246
    2   0.0038749   0.0011881   0.0073621  -0.0019467   0.0014842  -0.0054601
    3   0.0124469  -0.0069950  -0.0008028   0.0153183   0.0012466   0.0117185
            7           8           9          10          11          12
    1   0.0001212  -0.0132590  -0.0131917   0.0001165   0.0148249   0.0071341
    2  -0.0030810  -0.0103846  -0.0061686   0.0025040   0.0127262   0.0174480
    3  -0.0074702  -0.0069111  -0.0127183  -0.0080438   0.0058619   0.0115860
           13
    1  -0.0058237
    2  -0.0195465
    3  -0.0152368
 Max gradient component =       1.955E-02
 RMS gradient           =       9.021E-03
 Computing fast CPCM-SWIG gradient
 Updating gradient with PCM contributions...
 -- total gradient after adding PCM contribution --
---------------------------------------------------
  Atom         X              Y              Z     
---------------------------------------------------
   1      -0.000397      -0.000343       0.000198
   2       0.000202       0.000192      -0.000119
   3      -0.000026      -0.000033       0.000021
   4      -0.000008       0.000134       0.000042
   5       0.000098       0.000047      -0.000134
   6      -0.000081       0.000125       0.000053
   7       0.000095       0.000092       0.000039
   8      -0.000001      -0.000001      -0.000014
   9       0.000011      -0.000007      -0.000038
  10       0.000086      -0.000195      -0.000079
  11       0.000020       0.000000       0.000002
  12       0.000002       0.000006       0.000042
  13      -0.000001      -0.000019      -0.000011
---------------------------------------------------
 Number of fixed atoms: 0
 Gradient time:  CPU 160.13 s  wall 8.21 s
 ----------------------------------------------------------------
             Standard Nuclear Orientation (Angstroms)
    I     Atom           X                Y                Z
 ----------------------------------------------------------------
    1      C       0.1742585914     1.3964083047     1.1886351760
    2      C       0.7206360242     2.5291255905     0.5591766375
    3      C       1.5864198653     5.7442372941    -1.3367427662
    4      O       2.0302521124     5.5864157980    -0.2167662240
    5      O      -0.0623116198     1.3534627909     2.4259257436
    6      O       1.0117088970     3.6076785673     1.2461463367
    7      H      -0.0364484562     0.5447220130     0.5324336746
    8      H       0.7923785186     5.1360282423    -1.7710196736
    9      O       2.0068310031     6.6737168533    -2.1735030976
   10      H       1.3861424185     4.3217739531     0.6630906601
   11      H       2.7112796652     7.1980453208    -1.7565021409
   12      O       0.9748001120     2.5932127536    -0.7456867755
   13      H       0.7276086684     1.7664169186    -1.1851984506
 ----------------------------------------------------------------
 Nuclear Repulsion Energy =         358.50174680 hartrees
 There are       32 alpha and       31 beta electrons
 Discretize the solute cavity surface with Lebedev spheres
	Using 110 Lebedev grid points for each H atom
	Using 194 Lebedev grid points for other atoms
	Atomic van der Waals radii will be scaled by 1.20
 Remove points where switching function is < 1.0e-08
 Keep 1186 surface tesserae and discard 916 interior tesserae
 Molecular Surface Area = 142.393 Angst**2

                       Distance Matrix (Angstroms)
             C (  1)   C (  2)   C (  3)   O (  4)   O (  5)   O (  6)
   C (  2)  1.406341
   C (  3)  5.222581  3.831584
   O (  4)  4.793332  3.415290  1.215007
   O (  5)  1.260436  2.340928  6.012894  5.411149
   O (  6)  2.365237  1.311460  3.400955  2.663258  2.761682
   H (  7)  1.095613  2.124088  5.758687  5.500112  2.059136  3.315075
   H (  8)  4.808990  3.497271  1.090420  2.037372  5.714250  3.389284
   O (  9)  6.520144  5.128301  1.319411  2.238658  7.330839  4.699453
   H ( 10)  3.209770  1.915016  2.462285  1.669834  3.743859  0.995031
   H ( 11)  6.983502  5.578875  1.885488  2.330651  7.703548  4.979475
   O ( 12)  2.411392  1.330930  3.263799  3.217608  3.559734  2.235599
   H ( 13)  2.465398  1.903843  4.072294  4.150558  3.719506  3.063070
             H (  7)   H (  8)   O (  9)   H ( 10)   H ( 11)   O ( 12)
   H (  8)  5.203167
   O (  9)  7.004403  2.000343
   H ( 10)  4.038187  2.634475  3.736730
   H ( 11)  7.553539  2.816790  0.972141  3.985393
   O ( 12)  2.617734  2.747817  4.444577  2.267549  5.024101
   H ( 13)  2.242004  3.420769  5.166696  3.221752  5.810673  0.968435

 
 Requested basis set is 6-311++G(2df,2p)
 There are 94 shells and 322 basis functions
 A cutoff of  1.0D-12 yielded   3710 shell pairs
 There are     42819 function pairs (     53521 Cartesian)
 Smallest overlap matrix eigenvalue = 2.26E-05
 Guess MOs from SCF MO coefficient file

 -----------------------------------------------------------------------
  General SCF calculation program by
  Eric Jon Sundstrom, Paul Horn, Yuezhi Mao, Dmitri Zuev, Alec White,
  David Stuck, Shaama M.S., Shane Yost, Joonho Lee, David Small,
  Daniel Levine, Susi Lehtola, Hugh Burton, Evgeny Epifanovsky,
  Bang C. Huynh
 -----------------------------------------------------------------------
 Exchange:     0.1500 Hartree-Fock + 1.0000 wB97M-V + LR-HF
 Correlation:  1.0000 wB97M-V
 Using SG-2 standard quadrature grid
 Nonlocal Correlation:  VV10 with C = 0.0100 and b = 6.00 and scale = 1.00000
 Grid used for NLC:  SG-1 standard quadrature
 
 Citation of the SMD model:
 Marenich, A.V.; Cramer, C.J.; Truhlar, D.G.
 J. Phys. Chem. B 2009, 113, 6378-6396.
 iSolventCode=           1
 Solvent: water                                                           
 
 vradii
            1           2           3           4           5           6
    1   1.8500000   1.8500000   1.8500000   1.5200000   1.5200000   1.5200000
            7           8           9          10          11          12
    1   1.2000000   1.2000000   1.5200000   1.2000000   1.2000000   1.5200000
           13
    1   1.2000000
 -------------------------------------------------------
 OpenMP BLAS3 based DFT computing Module                
 Release: version 1.0, May 2013, Q-Chem Inc. Pittsburgh 
 -------------------------------------------------------
 A unrestricted SCF calculation will be
 performed using Roothaan-Hall, DIIS, GDM
 SCF converges when RMS gradient is below 1.0e-07
 ---------------------------------------
  Cycle       Energy         DIIS error
 ---------------------------------------
    1    -493.4214729898      3.54e-04  Roothaan Step
 ---------------------------------------
  Cycle       Energy         DIIS error
 ---------------------------------------
    1    -493.4657200095      4.66e-04  
    2    -493.4708980032      5.65e-04  Done DIIS. Switching to GDM
 ---------------------------------------
  Cycle       Energy        RMS Gradient
 ---------------------------------------
    1    -493.4708980032      4.15e-02   Normal BFGS step
    2    -493.4652466976      7.16e-02  Line search: overstep
    3    -493.4814872571      6.98e-03   Normal BFGS step
    4    -493.4818674274      3.03e-03   Normal BFGS step
    5    -493.4819440886      2.15e-03   Normal BFGS step
    6    -493.4819674017      5.32e-04   Normal BFGS step
    7    -493.4819723067      3.21e-04   Normal BFGS step
    8    -493.4819738203      1.83e-04   Normal BFGS step
    9    -493.4819739884      8.59e-05   Normal BFGS step
   10    -493.4819740408      2.50e-05   Normal BFGS step
   11    -493.4819740469      1.00e-05   Normal BFGS step
   12    -493.4819740484      1.06e-05   Normal BFGS step
   13    -493.4819740488      2.59e-06   Normal BFGS step
   14    -493.4819740489      1.29e-06   Normal BFGS step
   15    -493.4819740489      8.67e-07   Normal BFGS step
   16    -493.4819740489      3.91e-07   Normal BFGS step
   17    -493.4819740489      9.72e-08  Convergence criterion met
 ---------------------------------------
 SCF time:   CPU 1384.03s  wall 51.00s 
<S^2> =          0.756220770
(3)  G-ENP(liq) elect-nuc-pol free energy of system     -493.481974049 a.u.
(4)  G-CDS(liq) cavity-dispersion-solvent structure 
     free energy                                                8.0535 kcal/mol
(6)  G-S(liq) free energy of system                     -493.469139929 a.u.
 SCF   energy in the final basis set =     -493.4691399293
 Total energy in the final basis set =     -493.4691399293
 
 --------------------------------------------------------------
 
                    Orbital Energies (a.u.)
 --------------------------------------------------------------
 
 Alpha MOs
 -- Occupied --
-19.3972 -19.3956 -19.3819 -19.3539 -19.3191 -10.4966 -10.4858 -10.4078
 -1.2673  -1.2611  -1.1908  -1.1736  -1.1502  -0.8612  -0.7915  -0.7483
 -0.7147  -0.6465  -0.6341  -0.6076  -0.5981  -0.5793  -0.5652  -0.5315
 -0.5237  -0.5135  -0.4970  -0.4760  -0.4527  -0.4224  -0.3785  -0.2811
 -- Virtual --
  0.0288   0.0399   0.0495   0.0564   0.0628   0.0727   0.0854   0.0942
  0.1024   0.1165   0.1173   0.1232   0.1329   0.1446   0.1454   0.1653
  0.1677   0.1966   0.2058   0.2170   0.2251   0.2337   0.2430   0.2463
  0.2574   0.2665   0.2752   0.2841   0.2944   0.3033   0.3091   0.3127
  0.3178   0.3216   0.3338   0.3407   0.3450   0.3581   0.3612   0.3778
  0.3898   0.4100   0.4168   0.4356   0.4407   0.4501   0.4873   0.5034
  0.5108   0.5434   0.5843   0.5957   0.6062   0.6088   0.6253   0.6475
  0.6675   0.6710   0.6826   0.7036   0.7182   0.7264   0.7350   0.7581
  0.7775   0.7917   0.8135   0.8337   0.8416   0.8590   0.8660   0.8850
  0.9058   0.9187   0.9245   0.9405   0.9746   1.0050   1.0264   1.0589
  1.0862   1.0963   1.1075   1.1154   1.1289   1.1383   1.1542   1.1645
  1.1672   1.1764   1.1950   1.2033   1.2118   1.2196   1.2230   1.2325
  1.2573   1.2783   1.3031   1.3519   1.3681   1.3893   1.4199   1.4596
  1.5038   1.5173   1.5323   1.5602   1.5785   1.6055   1.6262   1.6636
  1.6750   1.6916   1.7293   1.7343   1.7575   1.7851   1.8232   1.8279
  1.8585   1.8706   1.9630   1.9830   2.0440   2.1089   2.1282   2.1526
  2.2137   2.2802   2.2861   2.2916   2.3382   2.3878   2.3976   2.4168
  2.4424   2.4965   2.5447   2.5712   2.5818   2.6495   2.7155   2.7390
  2.7784   2.8104   2.8302   2.8486   2.8502   2.8577   2.8890   2.9631
  2.9989   3.0105   3.1098   3.1189   3.1340   3.1401   3.2032   3.2271
  3.2473   3.2767   3.2889   3.3069   3.3110   3.3457   3.3761   3.3897
  3.4195   3.4243   3.4654   3.5144   3.5231   3.5594   3.5659   3.5721
  3.6247   3.6442   3.6633   3.7146   3.7451   3.7531   3.7680   3.8200
  3.8500   3.8634   3.9062   3.9360   3.9647   4.0154   4.0305   4.1720
  4.1778   4.2003   4.2152   4.2502   4.3205   4.3339   4.3433   4.3645
  4.4478   4.4607   4.5423   4.7591   4.8746   5.1021   5.1162   5.1226
  5.1349   5.1500   5.1632   5.1696   5.1839   5.1888   5.1966   5.2090
  5.2245   5.2332   5.2691   5.3178   5.3389   5.3466   5.3608   5.3784
  5.4305   5.4700   5.5143   5.5164   5.5221   5.5577   5.5659   5.6086
  5.6118   5.6325   5.6693   5.6959   5.7264   5.8901   5.9601   5.9654
  5.9945   6.0299   6.0709   6.1005   6.2733   6.3668   6.4232   6.6148
  6.7173   6.9009   6.9142   6.9399   6.9791   6.9924   7.0207   7.0333
  7.0519   7.0790   7.0918   7.1098   7.2330   7.2377   7.2459   7.2621
  7.2677   7.3049   7.3142   7.3369   7.3715   7.3762   7.4592   7.4896
  7.5459   7.6297   7.6574   7.7155   7.7548   7.7641   7.7979   7.8029
  7.8846   7.9836  24.8564  25.1086  25.1977  50.5524  50.5793  50.6024
 50.7066  50.7227
 
 Beta MOs
 -- Occupied --
-19.3972 -19.3927 -19.3791 -19.3539 -19.3103 -10.4966 -10.4805 -10.4053
 -1.2634  -1.2584  -1.1852  -1.1731  -1.1348  -0.8430  -0.7915  -0.7422
 -0.7101  -0.6463  -0.6332  -0.6006  -0.5798  -0.5722  -0.5583  -0.5290
 -0.5191  -0.5091  -0.4570  -0.4530  -0.4465  -0.4220  -0.3682
 -- Virtual --
 -0.0061   0.0289   0.0399   0.0497   0.0565   0.0629   0.0731   0.0867
  0.0964   0.1034   0.1158   0.1185   0.1259   0.1391   0.1457   0.1641
  0.1679   0.1744   0.1968   0.2072   0.2173   0.2252   0.2363   0.2447
  0.2494   0.2586   0.2674   0.2761   0.2872   0.2965   0.3041   0.3119
  0.3141   0.3188   0.3238   0.3350   0.3445   0.3461   0.3589   0.3632
  0.3798   0.3935   0.4126   0.4175   0.4370   0.4415   0.4540   0.4876
  0.5038   0.5175   0.5482   0.5863   0.5984   0.6085   0.6125   0.6286
  0.6526   0.6719   0.6770   0.6880   0.7065   0.7207   0.7301   0.7394
  0.7667   0.7805   0.7954   0.8157   0.8373   0.8433   0.8601   0.8699
  0.8860   0.9064   0.9219   0.9294   0.9420   0.9811   1.0062   1.0270
  1.0618   1.0886   1.0982   1.1091   1.1187   1.1293   1.1394   1.1565
  1.1667   1.1791   1.1825   1.1985   1.2068   1.2133   1.2224   1.2276
  1.2372   1.2603   1.2826   1.3056   1.3555   1.3717   1.3927   1.4245
  1.4601   1.5060   1.5214   1.5382   1.5648   1.5794   1.6081   1.6282
  1.6686   1.6795   1.6931   1.7327   1.7386   1.7703   1.7923   1.8235
  1.8367   1.8643   1.8822   1.9743   1.9900   2.0469   2.1114   2.1313
  2.1548   2.2190   2.2857   2.2880   2.2995   2.3449   2.3909   2.3994
  2.4177   2.4476   2.5015   2.5463   2.5737   2.5876   2.6561   2.7396
  2.7511   2.7836   2.8308   2.8500   2.8521   2.8732   2.8819   2.8976
  2.9636   3.0091   3.0291   3.1202   3.1229   3.1418   3.1586   3.2143
  3.2413   3.2491   3.2833   3.2937   3.3170   3.3270   3.3643   3.3870
  3.4098   3.4249   3.4339   3.4692   3.5320   3.5369   3.5633   3.5717
  3.5910   3.6290   3.6585   3.6810   3.7315   3.7562   3.7639   3.7682
  3.8320   3.8512   3.8694   3.9069   3.9431   3.9740   4.0163   4.0353
  4.1721   4.1790   4.2029   4.2250   4.2601   4.3208   4.3385   4.3582
  4.4028   4.4553   4.4624   4.5452   4.7682   4.9018   5.1035   5.1230
  5.1241   5.1363   5.1647   5.1849   5.1887   5.1935   5.2029   5.2070
  5.2097   5.2303   5.2589   5.2792   5.3287   5.3477   5.3566   5.3641
  5.3816   5.4353   5.4764   5.5153   5.5194   5.5390   5.5639   5.5798
  5.6088   5.6234   5.6351   5.6768   5.7055   5.7358   5.9011   5.9603
  5.9789   5.9947   6.0429   6.0709   6.1044   6.2954   6.3668   6.4312
  6.6219   6.7174   6.9050   6.9225   6.9796   7.0013   7.0031   7.0237
  7.0338   7.0637   7.0876   7.1065   7.1145   7.2355   7.2403   7.2581
  7.2681   7.2787   7.3072   7.3205   7.3432   7.3803   7.4006   7.4597
  7.4976   7.5557   7.6304   7.6669   7.7201   7.7567   7.7712   7.7981
  7.8069   7.8930   7.9873  24.8591  25.1086  25.2028  50.5525  50.5824
 50.6050  50.7117  50.7232
 --------------------------------------------------------------
 
          Ground-State Mulliken Net Atomic Charges

     Atom                 Charge (a.u.)    Spin (a.u.)
  --------------------------------------------------------
      1 C                    -0.099232       0.196579
      2 C                     0.340521       0.351916
      3 C                     0.233905       0.000414
      4 O                    -0.478554       0.000024
      5 O                    -0.547075       0.304150
      6 O                    -0.444306       0.078829
      7 H                     0.186025      -0.007941
      8 H                     0.235611       0.000261
      9 O                    -0.296157      -0.000085
     10 H                     0.481413      -0.000479
     11 H                     0.368140       0.000012
     12 O                    -0.329999       0.078420
     13 H                     0.349708      -0.002101
  --------------------------------------------------------
  Sum of atomic charges =    -0.000000
  Sum of spin   charges =     1.000000

 -----------------------------------------------------------------
                    Cartesian Multipole Moments
 -----------------------------------------------------------------
    Charge (ESU x 10^10)
                -0.0000
    Dipole Moment (Debye)
         X       1.9920      Y       3.4650      Z     -10.2304
       Tot      10.9834
    Quadrupole Moments (Debye-Ang)
        XX     -42.1986     XY      12.6261     YY     -11.7759
        XZ      -4.9666     YZ     -25.3039     ZZ     -63.6158
    Octopole Moments (Debye-Ang^2)
       XXX    -128.2280    XXY    -127.9885    XYY      57.0293
       YYY    -225.6643    XXZ     -20.7764    XYZ     -34.0190
       YYZ    -108.6231    XZZ     -45.3073    YZZ    -197.8629
       ZZZ     -65.1779
    Hexadecapole Moments (Debye-Ang^3)
      XXXX    -444.7720   XXXY    -578.6424   XXYY    -528.7157
      XYYY     151.9576   YYYY   -2630.3214   XXXZ      56.8739
      XXYZ     -24.3674   XYYZ    -206.6248   YYYZ    -323.3574
      XXZZ    -176.6419   XYZZ    -228.0295   YYZZ    -973.7481
      XZZZ     111.1216   YZZZ     213.2145   ZZZZ    -780.7740
 -----------------------------------------------------------------
 Calculating analytic gradient of the SCF energy
 Gradient of CDS energy
            1           2           3           4           5           6
    1  -0.0009921   0.0015188   0.0010225  -0.0002916   0.0004686  -0.0006890
    2  -0.0011195   0.0032609   0.0025747   0.0001755   0.0001335  -0.0024739
    3   0.0031703  -0.0015287  -0.0016450  -0.0010016  -0.0023468  -0.0014545
            7           8           9          10          11          12
    1   0.0000486   0.0001855  -0.0010131   0.0000827   0.0002671  -0.0005996
    2   0.0000575  -0.0002197  -0.0023559   0.0000124   0.0003324  -0.0001883
    3  -0.0001538   0.0001937   0.0022211   0.0001181  -0.0000773   0.0028781
           13
    1  -0.0000084
    2  -0.0001896
    3  -0.0003737
 Gradient of SCF Energy
            1           2           3           4           5           6
    1   0.0009529  -0.0015278   0.0072250   0.0057639   0.0004876  -0.0026508
    2   0.0053043   0.0004977   0.0073630  -0.0019468   0.0013070  -0.0055471
    3   0.0123049  -0.0067668  -0.0008047   0.0153223   0.0014087   0.0117422
            7           8           9          10          11          12
    1  -0.0000743  -0.0132618  -0.0131921   0.0001229   0.0148259   0.0071476
    2  -0.0035807  -0.0103877  -0.0061684   0.0025065   0.0127270   0.0174607
    3  -0.0077126  -0.0069118  -0.0127190  -0.0080510   0.0058624   0.0115637
           13
    1  -0.0058190
    2  -0.0195353
    3  -0.0152384
 Max gradient component =       1.954E-02
 RMS gradient           =       9.044E-03
 Computing fast CPCM-SWIG gradient
 Updating gradient with PCM contributions...
 -- total gradient after adding PCM contribution --
---------------------------------------------------
  Atom         X              Y              Z     
---------------------------------------------------
   1       0.000340       0.001124       0.000066
   2      -0.000178      -0.000501       0.000103
   3      -0.000027      -0.000033       0.000020
   4      -0.000008       0.000133       0.000043
   5      -0.000057      -0.000145       0.000036
   6      -0.000110       0.000031       0.000074
   7      -0.000101      -0.000415      -0.000220
   8      -0.000001      -0.000001      -0.000014
   9       0.000011      -0.000007      -0.000038
  10       0.000091      -0.000195      -0.000086
  11       0.000020       0.000000       0.000002
  12       0.000020       0.000023       0.000022
  13       0.000001      -0.000014      -0.000009
---------------------------------------------------
 Number of fixed atoms: 0
 Gradient time:  CPU 156.52 s  wall 8.11 s
 ----------------------------------------------------------------
             Standard Nuclear Orientation (Angstroms)
    I     Atom           X                Y                Z
 ----------------------------------------------------------------
    1      C       0.1742585914     1.3944083047     1.1886351760
    2      C       0.7206360242     2.5291255905     0.5591766375
    3      C       1.5864198653     5.7442372941    -1.3367427662
    4      O       2.0302521124     5.5864157980    -0.2167662240
    5      O      -0.0623116198     1.3534627909     2.4259257436
    6      O       1.0117088970     3.6076785673     1.2461463367
    7      H      -0.0364484562     0.5447220130     0.5324336746
    8      H       0.7923785186     5.1360282423    -1.7710196736
    9      O       2.0068310031     6.6737168533    -2.1735030976
   10      H       1.3861424185     4.3217739531     0.6630906601
[...]
 Raman Active:       YES                    YES                    YES
               X      Y      Z        X      Y      Z        X      Y      Z
 C          0.134 -0.087  0.053   -0.035 -0.035  0.108   -0.087  0.032 -0.034
 C         -0.124  0.010  0.004   -0.009 -0.107 -0.002    0.041  0.001  0.023
 C          0.124  0.001 -0.123    0.110  0.046 -0.130    0.097 -0.120 -0.090
 O         -0.238  0.079  0.031   -0.008 -0.053 -0.097   -0.175  0.133  0.053
 O          0.295 -0.144  0.082   -0.040  0.095  0.112   -0.059 -0.020 -0.031
 O         -0.223  0.049 -0.017    0.014 -0.049 -0.105    0.233 -0.089  0.084
 H          0.191 -0.113  0.068   -0.050 -0.094  0.191   -0.218  0.103 -0.084
 H          0.313 -0.072 -0.366    0.329 -0.076 -0.361    0.453 -0.448 -0.280
 O          0.338  0.002 -0.015   -0.011  0.320  0.113   -0.008 -0.020 -0.034
 H         -0.305  0.079 -0.034    0.011 -0.102 -0.172    0.115 -0.035  0.078
 H          0.166  0.058  0.206   -0.204  0.416  0.320   -0.322  0.272  0.129
 O         -0.285  0.071 -0.024   -0.008 -0.233 -0.008   -0.018  0.059  0.015
 H         -0.170  0.028 -0.006   -0.031 -0.265  0.065   -0.200  0.141 -0.038
 TransDip  -0.009  0.012 -0.020    0.005 -0.030  0.003   -0.045  0.010 -0.019

 Mode:                 4                      5                      6
 Frequency:        94.24                 117.52                 154.50
 Force Cnst:      0.0188                 0.0685                 0.1234
 Red. Mass:       3.5925                 8.4205                 8.7724
 IR Active:          YES                    YES                    YES
 IR Intens:        1.038                  5.352                 12.622
 Raman Active:       YES                    YES                    YES
               X      Y      Z        X      Y      Z        X      Y      Z
 C         -0.038 -0.022  0.029    0.014  0.045  0.017   -0.057 -0.132  0.043
 C          0.042 -0.076 -0.001   -0.022 -0.043 -0.171   -0.076 -0.095  0.077
 C         -0.169  0.216  0.031    0.067 -0.092  0.227    0.158  0.168  0.012
 O         -0.149  0.094  0.005    0.020  0.230  0.296    0.292  0.415 -0.009
 O         -0.043  0.032  0.030    0.111  0.256  0.045   -0.073 -0.259  0.030
 O          0.145 -0.095 -0.017   -0.013  0.008 -0.270   -0.100 -0.054  0.059
 H         -0.099 -0.025  0.053   -0.040 -0.057  0.169   -0.028 -0.086 -0.029
 H         -0.453  0.520  0.122    0.221 -0.350  0.310    0.179 -0.009  0.218
 O          0.168 -0.011 -0.054   -0.076 -0.194  0.056   -0.081  0.054 -0.259
 H          0.012 -0.051 -0.044    0.052  0.021 -0.224    0.012 -0.114  0.111
 H          0.420 -0.292 -0.128   -0.207  0.052 -0.031   -0.094  0.253 -0.492
 O          0.017 -0.112 -0.009   -0.082 -0.196 -0.191   -0.062 -0.107  0.087
 H         -0.105 -0.080 -0.000   -0.094 -0.252 -0.079    0.009 -0.133  0.095
 TransDip  -0.028 -0.016 -0.006   -0.006 -0.063 -0.039   -0.021 -0.092  0.063

 Mode:                 7                      8                      9
 Frequency:       248.26                 301.76                 402.95
 Force Cnst:      0.1235                 0.3732                 0.1160
 Red. Mass:       3.4012                 6.9561                 1.2126
 IR Active:          YES                    YES                    YES
 IR Intens:        6.629                 44.026                218.778
 Raman Active:       YES                    YES                    YES
               X      Y      Z        X      Y      Z        X      Y      Z
 C          0.278 -0.114  0.050    0.062  0.125  0.047   -0.001  0.000 -0.004
 C          0.094 -0.044  0.014    0.063  0.175  0.100    0.055 -0.022  0.009
 C          0.011 -0.001  0.004   -0.025 -0.026  0.016   -0.002  0.000 -0.001
 O          0.023  0.003  0.000   -0.034 -0.023  0.027   -0.004  0.001 -0.000
 O         -0.208  0.086 -0.036   -0.138 -0.319 -0.017   -0.017  0.014 -0.006
 O          0.036 -0.027  0.013    0.168  0.329 -0.213    0.018 -0.012  0.008
 H          0.753 -0.306  0.146    0.179  0.271 -0.196   -0.083  0.033 -0.020
 H          0.010 -0.007  0.015   -0.021 -0.026  0.011   -0.001  0.001 -0.004
 O         -0.009  0.000 -0.005    0.008 -0.033  0.056    0.001  0.000 -0.000
 H         -0.068  0.016  0.001    0.144  0.245 -0.394    0.053 -0.024  0.017
 H         -0.009  0.010 -0.018    0.007 -0.053  0.086    0.002 -0.002  0.002
 O         -0.153  0.066 -0.028   -0.091 -0.167  0.038   -0.092  0.034 -0.015
 H         -0.317  0.139 -0.072   -0.122 -0.296  0.301    0.905 -0.358  0.162
 TransDip   0.072 -0.039  0.012    0.075  0.199  0.004    0.432 -0.179  0.078

 Mode:                10                     11                     12
 Frequency:       508.68                 562.71                 654.51
 Force Cnst:      0.7640                 0.6849                 0.8347
 Red. Mass:       5.0110                 3.6709                 3.3070
 IR Active:          YES                    YES                    YES
 IR Intens:       33.652                  7.670                164.331
 Raman Active:       YES                    YES                    YES
               X      Y      Z        X      Y      Z        X      Y      Z
 C         -0.071 -0.097  0.168   -0.053  0.017 -0.005   -0.002 -0.016 -0.003
 C         -0.044 -0.103 -0.046    0.415 -0.162  0.071   -0.002 -0.013 -0.001
 C         -0.003 -0.002  0.005    0.003  0.001  0.001   -0.146 -0.140 -0.098
 O         -0.002  0.006  0.008    0.001 -0.002  0.002    0.089  0.212 -0.159
 O         -0.078 -0.112  0.208   -0.006 -0.001  0.005    0.001  0.005 -0.004
 O          0.042 -0.023 -0.262   -0.135  0.050 -0.029   -0.014  0.001  0.006
 H         -0.075 -0.141  0.234   -0.688  0.261 -0.117   -0.007 -0.020  0.003
 H          0.002 -0.010  0.010    0.002  0.001  0.003   -0.129 -0.194 -0.052
 O         -0.002 -0.011  0.008   -0.001 -0.000 -0.002    0.027 -0.039  0.188
 H          0.057 -0.131 -0.399   -0.099  0.036 -0.023    0.170 -0.061  0.063
 H         -0.001 -0.010  0.005   -0.002  0.006 -0.008    0.172 -0.569  0.621
 O          0.110  0.282 -0.021   -0.058  0.031 -0.013   -0.003 -0.000  0.006
 H          0.313  0.434 -0.414   -0.408  0.168 -0.075   -0.016  0.012 -0.011
 TransDip   0.047 -0.006 -0.180   -0.080  0.034 -0.019   -0.096 -0.382  0.115

 Mode:                13                     14                     15
 Frequency:       667.68                 670.22                 807.53
 Force Cnst:      1.8095                 0.3425                 0.4080
 Red. Mass:       6.8892                 1.2940                 1.0620
 IR Active:          YES                    YES                    YES
 IR Intens:       42.817                232.696                168.419
 Raman Active:       YES                    YES                    YES
               X      Y      Z        X      Y      Z        X      Y      Z
 C         -0.051 -0.224 -0.191    0.003  0.011  0.008    0.023  0.001  0.005
 C         -0.079 -0.117  0.198    0.004  0.006 -0.008   -0.002  0.004 -0.001
 C          0.022  0.001  0.003    0.077 -0.043 -0.023   -0.005  0.008  0.006
 O         -0.014  0.001  0.021   -0.039  0.006  0.032   -0.025 -0.011  0.010
 O          0.097  0.168 -0.186   -0.005 -0.008  0.008   -0.005 -0.000 -0.000
 O          0.057  0.071 -0.197   -0.002 -0.003  0.008   -0.041  0.013 -0.004
 H         -0.061 -0.235 -0.171    0.004  0.012  0.007   -0.009  0.016 -0.004
 H          0.044 -0.023 -0.002    0.137 -0.094 -0.060    0.014 -0.000 -0.017
 O         -0.019  0.006  0.003   -0.070  0.066  0.015    0.007  0.007 -0.016
 H          0.077 -0.219 -0.567   -0.014  0.012  0.019    0.913 -0.367  0.150
 H          0.152 -0.121 -0.126    0.663 -0.577 -0.416    0.004  0.025 -0.033
 O         -0.055  0.036  0.398    0.003 -0.002 -0.018   -0.003  0.000 -0.004
 H          0.012  0.159  0.151    0.000 -0.008 -0.006   -0.051  0.015 -0.005
 TransDip   0.016 -0.147 -0.149    0.371 -0.255 -0.190    0.381 -0.144  0.083

 Mode:                16                     17                     18
 Frequency:       875.73                 939.94                1089.03
 Force Cnst:      0.7573                 3.3779                 1.0769
 Red. Mass:       1.6759                 6.4894                 1.5412
 IR Active:          YES                    YES                    YES
 IR Intens:       27.542                166.869                  3.895
 Raman Active:       YES                    YES                    YES
               X      Y      Z        X      Y      Z        X      Y      Z
 C         -0.200  0.075 -0.036    0.155  0.426  0.008    0.000  0.002  0.000
 C          0.094 -0.036  0.017    0.020  0.021 -0.052   -0.000 -0.000  0.001
 C         -0.001  0.000  0.000   -0.005 -0.004 -0.001   -0.141  0.133  0.074
 O         -0.001 -0.001  0.001    0.007  0.009 -0.005    0.037 -0.033 -0.019
 O          0.044 -0.017  0.006   -0.016 -0.051 -0.013    0.000 -0.000 -0.000
 O         -0.008  0.007  0.001   -0.095 -0.334 -0.177    0.000 -0.000  0.003
 H          0.887 -0.348  0.164    0.308  0.596 -0.249   -0.000  0.002 -0.000
 H          0.001 -0.000 -0.001   -0.005 -0.007  0.001    0.661 -0.611 -0.349
 O          0.000  0.001 -0.001    0.002  0.002 -0.002    0.022 -0.023 -0.011
 H          0.064 -0.023  0.011   -0.122 -0.186  0.021   -0.033 -0.002 -0.022
 H          0.000  0.001 -0.002   -0.001 -0.018  0.029    0.095 -0.090 -0.051
 O         -0.015  0.004 -0.004   -0.037  0.012  0.236    0.000  0.000 -0.002
 H          0.001  0.000 -0.006    0.008  0.082  0.093    0.001 -0.000 -0.002
 TransDip   0.151 -0.066  0.030    0.158  0.356 -0.140    0.034 -0.044 -0.030

 Mode:                19                     20                     21
 Frequency:      1148.80                1202.07                1275.96
 Force Cnst:      2.3098                 1.1727                 1.9950
 Red. Mass:       2.9705                 1.3775                 2.0798
 IR Active:          YES                    YES                    YES
 IR Intens:      470.224                245.866                413.762
 Raman Active:       YES                    YES                    YES
               X      Y      Z        X      Y      Z        X      Y      Z
 C          0.003  0.007  0.001   -0.020 -0.060 -0.022    0.013  0.062  0.057
 C         -0.001 -0.001  0.006    0.027  0.085  0.031   -0.058 -0.050  0.218
 C          0.104  0.158 -0.086   -0.001  0.002 -0.004    0.021  0.021 -0.008
 O         -0.027  0.029 -0.100    0.003  0.001  0.001    0.000  0.003  0.008
 O          0.000 -0.000 -0.001   -0.003  0.003  0.025    0.015  0.012 -0.059
 O         -0.006 -0.008  0.009   -0.015 -0.065 -0.055   -0.014 -0.021  0.036
 H          0.006  0.010 -0.004   -0.040 -0.111  0.045    0.123  0.226 -0.190
 H          0.110  0.298 -0.288    0.002 -0.003 -0.003    0.004  0.008  0.051
 O         -0.058 -0.187  0.222   -0.000  0.000 -0.001   -0.012 -0.009 -0.009
 H          0.039 -0.050 -0.043    0.004  0.032  0.060   -0.112 -0.538 -0.680
 H          0.018  0.410 -0.707   -0.000 -0.005  0.007   -0.026 -0.109  0.154
 O          0.001  0.001 -0.006    0.032  0.067 -0.036    0.031  0.019 -0.137
 H         -0.005 -0.005  0.009   -0.285 -0.338  0.869   -0.031 -0.059  0.040
 TransDip   0.197  0.471 -0.471    0.004  0.234  0.444   -0.216 -0.309  0.532

 Mode:                22                     23                     24
 Frequency:      1320.33                1354.05                1427.17
 Force Cnst:      1.9478                 1.6362                 2.5415
 Red. Mass:       1.8964                 1.5147                 2.1178
 IR Active:          YES                    YES                    YES
 IR Intens:      121.808                197.885                495.358
 Raman Active:       YES                    YES                    YES
               X      Y      Z        X      Y      Z        X      Y      Z
 C          0.000 -0.005 -0.012    0.018  0.086  0.085   -0.023 -0.002  0.124
 C          0.011  0.009 -0.046   -0.005 -0.043 -0.070   -0.025  0.026  0.199
 C          0.135  0.185 -0.069   -0.003 -0.009  0.007   -0.005  0.006 -0.016
 O         -0.021 -0.034  0.021   -0.001  0.002 -0.002    0.014 -0.005  0.023
 O         -0.003 -0.004  0.010    0.008 -0.033 -0.119    0.024  0.006 -0.126
 O          0.000  0.005  0.004    0.004  0.022  0.028   -0.003 -0.052 -0.096
 H         -0.033 -0.055  0.065   -0.288 -0.366  0.796   -0.056 -0.046  0.199
 H          0.138  0.086  0.113   -0.008 -0.008  0.012    0.016  0.139 -0.245
 O         -0.081 -0.075 -0.025    0.003  0.003  0.001   -0.011 -0.007 -0.007
 H          0.037  0.038  0.055   -0.037 -0.166 -0.208    0.103  0.514  0.662
 H         -0.135 -0.553  0.740    0.005  0.020 -0.025   -0.013 -0.045  0.051
 O         -0.006 -0.003  0.024    0.001  0.016  0.028    0.007 -0.005 -0.052
 H          0.003  0.008 -0.001   -0.046 -0.053  0.175    0.075  0.086 -0.236
 TransDip   0.139  0.212 -0.246   -0.168 -0.380  0.173   -0.050  0.254  0.664

 Mode:                25                     26                     27
 Frequency:      1438.77                1519.89                1682.68
 Force Cnst:      1.4794                 3.4165                 8.5632
 Red. Mass:       1.2130                 2.5102                 5.1331
 IR Active:          YES                    YES                    YES
 IR Intens:       94.487                376.451                 22.342
 Raman Active:       YES                    YES                    YES
               X      Y      Z        X      Y      Z        X      Y      Z
 C         -0.004 -0.002  0.020    0.036  0.003 -0.197   -0.132 -0.199  0.311
 C         -0.004  0.005  0.032    0.060  0.218  0.138    0.161  0.356 -0.141
 C          0.037  0.036  0.007   -0.008 -0.003 -0.011    0.002 -0.006  0.013
 O         -0.049 -0.009 -0.079    0.006  0.005  0.007   -0.001  0.005 -0.005
 O          0.004  0.001 -0.019   -0.022 -0.015  0.091    0.033  0.021 -0.137
 O         -0.001 -0.009 -0.016   -0.026 -0.076 -0.017   -0.035 -0.086  0.011
 H         -0.004 -0.001  0.020   -0.266 -0.431  0.528    0.119  0.154 -0.339
 H          0.000 -0.485  0.842   -0.013 -0.020  0.022   -0.001  0.012 -0.008
 O          0.020  0.008  0.025    0.003  0.002  0.001    0.000  0.000 -0.001
 H          0.020  0.089  0.118   -0.036 -0.186 -0.233   -0.094 -0.421 -0.445
 H          0.030  0.083 -0.093    0.004  0.014 -0.016   -0.001 -0.001  0.002
 O          0.001 -0.001 -0.008   -0.016 -0.050 -0.019   -0.028 -0.044  0.063
 H          0.012  0.013 -0.035    0.141  0.152 -0.447    0.095  0.121 -0.278
 TransDip   0.062  0.037  0.303    0.221  0.495 -0.304    0.061  0.139  0.004

 Mode:                28                     29                     30
 Frequency:      1711.31                3053.81                3139.34
 Force Cnst:     10.8638                 5.9668                 6.3257
 Red. Mass:       6.2961                 1.0859                 1.0894
 IR Active:          YES                    YES                    YES
 IR Intens:      959.065                 67.248                350.055
 Raman Active:       YES                    YES                    YES
               X      Y      Z        X      Y      Z        X      Y      Z
 C          0.004  0.001 -0.019   -0.019 -0.069 -0.044   -0.000  0.000  0.001
 C         -0.000  0.010  0.023    0.001  0.002 -0.003   -0.000 -0.002 -0.002
 C          0.189 -0.088  0.511    0.000  0.000 -0.000   -0.059 -0.046 -0.031
 O         -0.131  0.044 -0.326    0.000 -0.000  0.000    0.001  0.001  0.001
 O         -0.002 -0.001  0.009    0.000  0.000 -0.002    0.000  0.000 -0.001
 O          0.004  0.002 -0.015    0.000  0.001  0.000   -0.009 -0.017  0.014
 H         -0.016 -0.026  0.029    0.201  0.787  0.577    0.001  0.004  0.001
 H          0.278  0.495 -0.346   -0.001 -0.001 -0.000    0.677  0.525  0.361
 O         -0.026 -0.000 -0.048    0.000 -0.000  0.000    0.002  0.002 -0.001
 H         -0.044 -0.048  0.078   -0.002 -0.004  0.002    0.136  0.258 -0.207
 H         -0.058 -0.206  0.257   -0.000 -0.000 -0.000   -0.011 -0.004 -0.013
 O          0.000 -0.001 -0.006   -0.000 -0.000  0.001   -0.000  0.000  0.001
 H          0.003  0.002 -0.014   -0.001  0.000  0.007    0.000  0.001  0.002
 TransDip   0.086 -0.421  0.894    0.008 -0.096 -0.244    0.127  0.452 -0.372

 Mode:                31                     32                     33
 Frequency:      3176.42                3718.91                3765.57
 Force Cnst:      6.4245                 8.6741                 8.9059
 Red. Mass:       1.0807                 1.0645                 1.0660
 IR Active:          YES                    YES                    YES
 IR Intens:     2393.272                193.995                241.936
 Raman Active:       YES                    YES                    YES
               X      Y      Z        X      Y      Z        X      Y      Z
 C         -0.000  0.001  0.003    0.000 -0.000 -0.000    0.000  0.000  0.000
 C         -0.001 -0.005 -0.004    0.000 -0.000 -0.000   -0.001 -0.002 -0.001
 C          0.025  0.015  0.022   -0.003 -0.003  0.000    0.000 -0.000  0.000
 O         -0.002  0.003 -0.007   -0.000  0.001 -0.001    0.000  0.000 -0.000
 O          0.000  0.000 -0.002   -0.000 -0.000 -0.000   -0.000 -0.000  0.001
 O         -0.023 -0.043  0.037    0.000  0.001 -0.000    0.000  0.001  0.001
 H          0.003  0.008  0.001    0.000  0.000  0.000   -0.000 -0.002 -0.003
 H         -0.253 -0.192 -0.142    0.015  0.012  0.006   -0.000 -0.000 -0.000
 O         -0.001  0.001 -0.003   -0.045 -0.034 -0.025    0.000  0.000  0.000
 H          0.356  0.675 -0.538   -0.004 -0.009  0.007   -0.002 -0.003  0.002
 H          0.013  0.005  0.015    0.725  0.551  0.408   -0.000 -0.000 -0.000
 O         -0.000  0.000  0.001   -0.000 -0.000 -0.000   -0.015 -0.053 -0.030
 H          0.000  0.003  0.004    0.000  0.000  0.000    0.249  0.845  0.469
 TransDip   0.562  1.268 -0.729    0.318  0.306  0.066    0.048  0.299  0.395

 STANDARD THERMODYNAMIC QUANTITIES AT   298.15 K  AND     1.00 ATM

   This Molecule has  0 Imaginary Frequencies
   Zero point vibrational energy:       55.971 kcal/mol

   Atom    1 Element C  Has Mass   12.00000
   Atom    2 Element C  Has Mass   12.00000
   Atom    3 Element C  Has Mass   12.00000
   Atom    4 Element O  Has Mass   15.99491
   Atom    5 Element O  Has Mass   15.99491
   Atom    6 Element O  Has Mass   15.99491
   Atom    7 Element H  Has Mass    1.00783
   Atom    8 Element H  Has Mass    1.00783
   Atom    9 Element O  Has Mass   15.99491
   Atom   10 Element H  Has Mass    1.00783
   Atom   11 Element H  Has Mass    1.00783
   Atom   12 Element O  Has Mass   15.99491
   Atom   13 Element H  Has Mass    1.00783
   Molecular Mass:   121.013700 amu
   Principal axes and moments of inertia in amu*Bohr^2:
                             1           2           3
    Eigenvalues --      265.72215  2561.90637  2792.38891
          X               0.29633     0.12161     0.94731
          Y               0.79056     0.52532    -0.31473
          Z              -0.53592     0.84217     0.05953
   Rotational Symmetry Number is   1
   The Molecule is an Asymmetric Top
   Translational Enthalpy:        0.889 kcal/mol
   Rotational Enthalpy:           0.889 kcal/mol
   Vibrational Enthalpy:         60.329 kcal/mol
   gas constant (RT):             0.592 kcal/mol
   Translational Entropy:        40.286  cal/mol.K
   Rotational Entropy:           29.032  cal/mol.K
   Vibrational Entropy:          33.871  cal/mol.K

   Total Enthalpy:               62.699 kcal/mol
   Total Entropy:               103.189  cal/mol.K
 Total job time:  4780.54s(wall), 123330.34s(cpu) 
 Thu Nov 30 23:13:01 2023

        *************************************************************
        *                                                           *
        *  Thank you very much for using Q-Chem.  Have a nice day.  *
        *                                                           *
        *************************************************************


