
Running Job 1 of 1 Q_in.in
qchem Q_in.in_153230.0 /scratch/ari.fischer/qChem1851116.hpc-mn1/qchem153230/ 0
/usr/local/qchem-5.4.1/exe/qcprog.exe_s Q_in.in_153230.0 /scratch/ari.fischer/qChem1851116.hpc-mn1/qchem153230/
                  Welcome to Q-Chem
     A Quantum Leap Into The Future Of Chemistry


 Q-Chem 5.4, Q-Chem, Inc., Pleasanton, CA (2021)

 License issued to: Nanyang Technological University (site)

 E. Epifanovsky,  A. T. B. Gilbert,  Xintian Feng,  Joonho Lee,  Yuezhi Mao,  
 N. Mardirossian,  P. Pokhilko,  A. White,  M. Wormit,  M. P. Coons,  
 A. L. Dempwolff,  Zhengting Gan,  D. Hait,  P. R. Horn,  L. D. Jacobson,  
 I. Kaliman,  J. Kussmann,  A. W. Lange,  Ka Un Lao,  D. S. Levine,  Jie Liu,  
 S. C. McKenzie,  A. F. Morrison,  K. Nanda,  F. Plasser,  D. R. Rehn,  
 M. L. Vidal,  Zhi-Qiang You,  Ying Zhu,  B. Alam,  B. Albrecht,  
 A. Aldossary,  E. Alguire,  J. H. Andersen,  D. Barton,  K. Begam,  A. Behn,  
 Y. A. Bernard,  E. J. Berquist,  H. Burton,  A. Carreras,  K. Carter-Fenk,  
 R. Chakraborty,  A. D. Chien,  K. D. Closser,  V. Cofer-Shabica,  
 S. Dasgupta,  Jia Deng,  M. de Wergifosse,  M. Diedenhofen,  Hainam Do,  
 S. Ehlert,  Po-Tung Fang,  S. Fatehi,  Qingguo Feng,  T. Friedhoff,  
 J. Gayvert,  Qinghui Ge,  G. Gidofalvi,  M. Goldey,  J. Gomes,  
 C. Gonzalez-Espinoza,  S. Gulania,  A. Gunina,  M. W. D. Hanson-Heine,  
 P. H. P. Harbach,  A. W. Hauser,  M. F. Herbst,  M. Hernandez Vera,  
 M. Hodecker,  Z. C. Holden,  S. Houck,  Xunkun Huang,  Kerwin Hui,  
 B. C. Huynh,  M. Ivanov,  Hyunjun Ji,  Hanjie Jiang,  B. Kaduk,  S. Kaehler,  
 K. Khistyaev,  Jaehoon Kim,  P. Klunzinger,  Z. Koczor-Benda,  
 Joong Hoon Koh,  D. Kosenkov,  L. Koulias,  T. Kowalczyk,  C. M. Krauter,  
 K. Kue,  A. Kunitsa,  T. Kus,  A. Landau,  K. V. Lawler,  D. Lefrancois,  
 S. Lehtola,  Rain Li,  Yi-Pei Li,  Jiashu Liang,  M. Liebenthal,  
 Hung-Hsuan Lin,  You-Sheng Lin,  Fenglai Liu,  Kuan-Yu Liu,  
 M. Loipersberger,  A. Luenser,  A. Manjanath,  P. Manohar,  E. Mansoor,  
 S. F. Manzer,  Shan-Ping Mao,  A. V. Marenich,  T. Markovich,  S. Mason,  
 S. A. Maurer,  P. F. McLaughlin,  M. F. S. J. Menger,  J.-M. Mewes,  
 S. A. Mewes,  P. Morgante,  J. W. Mullinax,  K. J. Oosterbaan,  G. Paran,  
 Alexander C. Paul,  Suranjan K. Paul,  F. Pavosevic,  Zheng Pei,  S. Prager,  
 E. I. Proynov,  E. Ramos,  B. Rana,  A. E. Rask,  A. Rettig,  R. M. Richard,  
 F. Rob,  E. Rossomme,  T. Scheele,  M. Scheurer,  M. Schneider,  
 N. Sergueev,  S. M. Sharada,  W. Skomorowski,  D. W. Small,  C. J. Stein,  
 Yu-Chuan Su,  E. J. Sundstrom,  Zhen Tao,  J. Thirman,  T. Tsuchimochi,  
 N. M. Tubman,  S. P. Veccham,  O. Vydrov,  J. Wenzel,  J. Witte,  A. Yamada,  
 Kun Yao,  S. Yeganeh,  S. R. Yost,  A. Zech,  Igor Ying Zhang,  Xing Zhang,  
 Yu Zhang,  D. Zuev,  A. Aspuru-Guzik,  A. T. Bell,  N. A. Besley,  
 K. B. Bravaya,  B. R. Brooks,  D. Casanova,  Jeng-Da Chai,  S. Coriani,  
 C. J. Cramer,  A. E. DePrince, III,  R. A. DiStasio Jr.,  A. Dreuw,  
 B. D. Dunietz,  T. R. Furlani,  W. A. Goddard III,  S. Grimme,  
 S. Hammes-Schiffer,  T. Head-Gordon,  W. J. Hehre,  Chao-Ping Hsu,  
 T.-C. Jagau,  Yousung Jung,  A. Klamt,  Jing Kong,  D. S. Lambrecht,  
 WanZhen Liang,  N. J. Mayhall,  C. W. McCurdy,  J. B. Neaton,  
 C. Ochsenfeld,  J. A. Parkhill,  R. Peverati,  V. A. Rassolov,  Yihan Shao,  
 L. V. Slipchenko,  T. Stauch,  R. P. Steele,  J. E. Subotnik,  
 A. J. W. Thom,  A. Tkatchenko,  D. G. Truhlar,  T. Van Voorhis,  
 T. A. Wesolowski,  K. B. Whaley,  H. L. Woodcock III,  P. M. Zimmerman,  
 S. Faraji,  P. M. W. Gill,  M. Head-Gordon,  J. M. Herbert,  A. I. Krylov

 Additional authors for Version 5.4.1: 
 S. Kotaru,  Shaozhi Li,  Xiangyuan Li,  F. Matz,  A. Molle,  Haisheng Ren,  
 Yingli Su,  Hung-Yi Tsai,  C. Utku,  Fang Wang

 Contributors to earlier versions of Q-Chem not listed above: 
 R. D. Adamson,  B. Austin,  R. Baer,  J. Baker,  G. J. O. Beran,  
 K. Brandhorst,  S. T. Brown,  E. F. C. Byrd,  A. K. Chakraborty,  
 G. K. L. Chan,  Chun-Min Chang,  Yunqing Chen,  C.-L. Cheng,  
 Siu Hung Chien,  D. M. Chipman,  D. L. Crittenden,  H. Dachsel,  
 R. J. Doerksen,  A. D. Dutoi,  R. G. Edgar,  J. Fosso-Tande,  
 L. Fusti-Molnar,  D. Ghosh,  A. Ghysels,  A. Golubeva-Zadorozhnaya,  
 J. Gonthier,  M. S. Gordon,  S. R. Gwaltney,  G. Hawkins,  J. E. Herr,  
 A. Heyden,  S. Hirata,  E. G. Hohenstein,  G. Kedziora,  F. J. Keil,  
 C. Kelley,  Jihan Kim,  R. A. King,  R. Z. Khaliullin,  P. P. Korambath,  
 W. Kurlancheek,  A. Laurent,  A. M. Lee,  M. S. Lee,  S. V. Levchenko,  
 Ching Yeh Lin,  D. Liotard,  E. Livshits,  R. C. Lochan,  I. Lotan,  
 L. A. Martinez-Martinez,  P. E. Maslen,  N. Nair,  D. P. O'Neill,  
 D. Neuhauser,  E. Neuscamman,  C. M. Oana,  R. Olivares-Amaya,  R. Olson,  
 T. M. Perrine,  B. Peters,  P. A. Pieniazek,  A. Prociuk,  Y. M. Rhee,  
 J. Ritchie,  M. A. Rohrdanz,  E. Rosta,  N. J. Russ,  H. F. Schaefer III,  
 M. W. Schmidt,  N. E. Schultz,  S. Sharma,  N. Shenvi,  C. D. Sherrill,  
 A. C. Simmonett,  A. Sodt,  T. Stein,  D. Stuck,  K. S. Thanthiriwatte,  
 V. Vanovschi,  L. Vogt,  Tao Wang,  A. Warshel,  M. A. Watson,  
 C. F. Williams,  Q. Wu,  X. Xu,  Jun Yang,  W. Zhang,  Yan Zhao

 Please cite Q-Chem as follows:
 Y. Shao et al., Mol. Phys. 113, 184-215 (2015)
 DOI: 10.1080/00268976.2014.952696

 Q-Chem 5.4.1 for Intel X86 EM64T Linux

 Parts of Q-Chem use Armadillo 9.800.1 (Horizon Scraper).
 http://arma.sourceforge.net/

 Q-Chem begins on Thu Nov 30 11:49:42 2023  

 Host: 
0

     Scratch files written to /scratch/ari.fischer/qChem1851116.hpc-mn1/qchem153230//
 Aug1521 |scratch|qcdevops|jenkins|workspace|build_RNUM 8249   
 Processing $rem in /usr/local/qchem-5.4.1/config/preferences:
 Processing $rem in /home/ari.fischer/.qchemrc:
 Symmetry turned off for PCM/SM12/SMD calculation

 Checking the input file for inconsistencies... 	...done.

--------------------------------------------------------------
User input:
--------------------------------------------------------------
$molecule
0 2
C         0.1375146710    1.4234258113    1.1445093121
C         0.7472992493    2.5523096550    0.5595316458
C         1.5625772452    5.7077824652   -1.2951276521
O         2.1306476585    5.5513480794   -0.2257091331
O        -0.1671061155    1.3815027443    2.3689911621
O         1.0236946262    3.6171787722    1.2902742858
H        -0.0573395826    0.5798843666    0.4645637088
H         0.7091449554    5.1135155795   -1.6337826622
O         1.9076207683    6.6188976119   -2.1914564662
H         1.4480317498    4.3243553323    0.7270814714
H         2.6722548139    7.1249125941   -1.8475115012
O         1.0820577607    2.6368877096   -0.7332357154
H         0.8271579998    1.8182436788   -1.1981393557
$end

$rem
BASIS = 6-311++G(2df,2p)
GUI = 2
JOB_TYPE = Optimization
METHOD = wB97M-V
SCF_ALGORITHM = DIIS_GDM
MAX_SCF_CYCLES = 400
GEOM_OPT_MAX_CYCLES = 150
SCF_CONVERGENCE = 7
THRESH = 12
Solvent_method = SMD
$end
--------------------------------------------------------------
 ----------------------------------------------------------------
             Standard Nuclear Orientation (Angstroms)
    I     Atom           X                Y                Z
 ----------------------------------------------------------------
    1      C       0.1375146710     1.4234258113     1.1445093121
    2      C       0.7472992493     2.5523096550     0.5595316458
    3      C       1.5625772452     5.7077824652    -1.2951276521
    4      O       2.1306476585     5.5513480794    -0.2257091331
    5      O      -0.1671061155     1.3815027443     2.3689911621
    6      O       1.0236946262     3.6171787722     1.2902742858
    7      H      -0.0573395826     0.5798843666     0.4645637088
    8      H       0.7091449554     5.1135155795    -1.6337826622
    9      O       1.9076207683     6.6188976119    -2.1914564662
   10      H       1.4480317498     4.3243553323     0.7270814714
   11      H       2.6722548139     7.1249125941    -1.8475115012
   12      O       1.0820577607     2.6368877096    -0.7332357154
   13      H       0.8271579998     1.8182436788    -1.1981393557
 ----------------------------------------------------------------
 Nuclear Repulsion Energy =         359.06157268 hartrees
 There are       32 alpha and       31 beta electrons
 Requested basis set is 6-311++G(2df,2p)
 There are 94 shells and 322 basis functions

 Total QAlloc Memory Limit 288000 MB
 Mega-Array Size       188 MB
 MEM_STATIC part       192 MB
 
 Citation of the SMD model:
 Marenich, A.V.; Cramer, C.J.; Truhlar, D.G.
 J. Phys. Chem. B 2009, 113, 6378-6396.
 iSolventCode=           1
 Solvent: water                                                           
 
 vradii
            1           2           3           4           5           6
    1   1.8500000   1.8500000   1.8500000   1.5200000   1.5200000   1.5200000
            7           8           9          10          11          12
    1   1.2000000   1.2000000   1.5200000   1.2000000   1.2000000   1.5200000
           13
    1   1.2000000
 Changing PCM_VDW_RADII to SMD_RADIUS
 Discretize the solute cavity surface with Lebedev spheres
	Using 110 Lebedev grid points for each H atom
	Using 194 Lebedev grid points for other atoms
	Atomic van der Waals radii will be scaled by 1.20
 Remove points where switching function is < 1.0e-08
 Keep 1185 surface tesserae and discard 917 interior tesserae
 Molecular Surface Area = 141.788 Angst**2
 A cutoff of  1.0D-12 yielded   3729 shell pairs
 There are     43035 function pairs (     53797 Cartesian)
 Smallest overlap matrix eigenvalue = 2.44E-05

 Scale SEOQF with 1.000000e-01/1.000000e-02/1.000000e-01

 Standard Electronic Orientation quadrupole field applied
 Nucleus-field energy     =    -0.0000000019 hartrees
 Guess from superposition of atomic densities
 Warning:  Energy on first SCF cycle will be non-variational
 SAD guess density has 63.000000 electrons

 -----------------------------------------------------------------------
  General SCF calculation program by
  Eric Jon Sundstrom, Paul Horn, Yuezhi Mao, Dmitri Zuev, Alec White,
  David Stuck, Shaama M.S., Shane Yost, Joonho Lee, David Small,
  Daniel Levine, Susi Lehtola, Hugh Burton, Evgeny Epifanovsky,
  Bang C. Huynh
 -----------------------------------------------------------------------
 Exchange:     0.1500 Hartree-Fock + 1.0000 wB97M-V + LR-HF
 Correlation:  1.0000 wB97M-V
 Using SG-2 standard quadrature grid
 Nonlocal Correlation:  VV10 with C = 0.0100 and b = 6.00 and scale = 1.00000
 Grid used for NLC:  SG-1 standard quadrature
 
 Citation of the SMD model:
 Marenich, A.V.; Cramer, C.J.; Truhlar, D.G.
 J. Phys. Chem. B 2009, 113, 6378-6396.
 iSolventCode=           1
 Solvent: water                                                           
 
 vradii
            1           2           3           4           5           6
    1   1.8500000   1.8500000   1.8500000   1.5200000   1.5200000   1.5200000
            7           8           9          10          11          12
    1   1.2000000   1.2000000   1.5200000   1.2000000   1.2000000   1.5200000
           13
    1   1.2000000
 using 8 threads for integral computing
 -------------------------------------------------------
 OpenMP Integral computing Module                
 Release: version 1.0, May 2013, Q-Chem Inc. Pittsburgh 
 -------------------------------------------------------
 -------------------------------------------------------
 OpenMP BLAS3 based DFT computing Module                
 Release: version 1.0, May 2013, Q-Chem Inc. Pittsburgh 
 -------------------------------------------------------
 A unrestricted SCF calculation will be
 performed using DIIS, GDM
 SCF converges when RMS gradient is below 1.0e-07
 ---------------------------------------
  Cycle       Energy         DIIS error
 ---------------------------------------
    1    -494.8816396558      1.44e-02  
    2    -493.2689541109      2.26e-03  Done DIIS. Switching to GDM
 ---------------------------------------
  Cycle       Energy        RMS Gradient
 ---------------------------------------
    1    -493.2689541109      1.43e-01   Descent step
    2    -493.4554836841      2.48e-02   Normal BFGS step
    3    -493.4786648979      1.97e-02   Normal BFGS step
    4    -493.4801031737      9.90e-03   Normal BFGS step
    5    -493.4810988058      3.64e-03   Normal BFGS step
    6    -493.4811754324      2.92e-03   Normal BFGS step
    7    -493.4812122670      1.16e-03   Normal BFGS step
    8    -493.4812165900      2.45e-04   Normal BFGS step
    9    -493.4812171637      9.85e-05   Normal BFGS step
   10    -493.4812173459      4.13e-05   Normal BFGS step
   11    -493.4812173718      2.88e-05   Normal BFGS step
   12    -493.4812173771      1.22e-05   Normal BFGS step
   13    -493.4812173780      4.69e-06   Normal BFGS step
   14    -493.4812173783      2.92e-06   Normal BFGS step
   15    -493.4812173784      6.89e-07   Normal BFGS step
   16    -493.4812173784      1.42e-07   Normal BFGS step
   17    -493.4812173784      1.97e-07   Normal BFGS step
   18    -493.4812173784      5.69e-08  Convergence criterion met
 ---------------------------------------
 SCF time:   CPU 884.67s  wall 117.00s 
<S^2> =          0.756383895
(3)  G-ENP(liq) elect-nuc-pol free energy of system     -493.481217378 a.u.
(4)  G-CDS(liq) cavity-dispersion-solvent structure 
     free energy                                                7.9201 kcal/mol
(6)  G-S(liq) free energy of system                     -493.468595835 a.u.
 SCF   energy in the final basis set =     -493.4685958354
 Total energy in the final basis set =     -493.4685958354
 
 --------------------------------------------------------------
 
                    Orbital Energies (a.u.)
 --------------------------------------------------------------
 
 Alpha MOs
 -- Occupied --
-19.3981 -19.3969 -19.3833 -19.3543 -19.3205 -10.4976 -10.4874 -10.4105
 -1.2639  -1.2580  -1.1884  -1.1709  -1.1502  -0.8601  -0.7886  -0.7449
 -0.7105  -0.6438  -0.6332  -0.6070  -0.5958  -0.5772  -0.5649  -0.5322
 -0.5251  -0.5139  -0.4970  -0.4756  -0.4518  -0.4219  -0.3793  -0.2828
 -- Virtual --
  0.0287   0.0400   0.0501   0.0552   0.0623   0.0714   0.0864   0.0933
  0.1033   0.1154   0.1172   0.1225   0.1343   0.1432   0.1440   0.1671
  0.1679   0.1961   0.2068   0.2139   0.2233   0.2317   0.2407   0.2449
  0.2570   0.2644   0.2813   0.2862   0.2911   0.3029   0.3085   0.3112
  0.3174   0.3208   0.3371   0.3390   0.3429   0.3553   0.3630   0.3762
  0.3831   0.4102   0.4124   0.4320   0.4412   0.4473   0.4802   0.4964
  0.5055   0.5396   0.5822   0.5922   0.6019   0.6078   0.6228   0.6452
  0.6686   0.6721   0.6800   0.7025   0.7131   0.7248   0.7373   0.7586
  0.7775   0.7892   0.8120   0.8312   0.8394   0.8573   0.8635   0.8877
  0.9053   0.9199   0.9279   0.9397   0.9749   1.0048   1.0200   1.0548
  1.0858   1.0954   1.1060   1.1132   1.1357   1.1378   1.1565   1.1627
  1.1667   1.1765   1.1976   1.2051   1.2096   1.2199   1.2251   1.2414
  1.2551   1.2767   1.3023   1.3411   1.3603   1.3820   1.4170   1.4541
  1.4967   1.5131   1.5257   1.5534   1.5829   1.6019   1.6229   1.6571
  1.6661   1.6878   1.7300   1.7368   1.7557   1.7786   1.8181   1.8257
  1.8577   1.8668   1.9610   1.9749   2.0426   2.1046   2.1233   2.1397
  2.2060   2.2734   2.2879   2.2908   2.3334   2.3840   2.3898   2.4146
  2.4392   2.4885   2.5427   2.5719   2.5824   2.6487   2.7111   2.7320
  2.7699   2.8119   2.8329   2.8434   2.8508   2.8541   2.8801   2.9625
  2.9886   3.0076   3.1061   3.1182   3.1382   3.1426   3.2022   3.2255
  3.2495   3.2756   3.2845   3.3079   3.3103   3.3473   3.3730   3.3841
  3.4133   3.4246   3.4645   3.5091   3.5149   3.5560   3.5638   3.5675
  3.6197   3.6342   3.6625   3.7015   3.7397   3.7510   3.7635   3.8172
  3.8429   3.8644   3.8960   3.9267   3.9625   4.0081   4.0214   4.1644
  4.1695   4.1914   4.2066   4.2394   4.2969   4.3114   4.3382   4.3565
  4.4237   4.4505   4.5133   4.7434   4.8628   5.0945   5.1166   5.1241
  5.1356   5.1551   5.1614   5.1687   5.1829   5.1897   5.1997   5.2089
  5.2237   5.2337   5.2699   5.3180   5.3366   5.3420   5.3634   5.3642
  5.4230   5.4554   5.5045   5.5075   5.5169   5.5473   5.5568   5.5908
  5.6055   5.6237   5.6523   5.6722   5.7144   5.8821   5.9417   5.9436
  5.9627   6.0094   6.0567   6.0679   6.2551   6.3453   6.3992   6.5983
  6.6962   6.8826   6.9125   6.9381   6.9621   6.9909   7.0064   7.0199
  7.0337   7.0679   7.0847   7.0943   7.2175   7.2347   7.2400   7.2542
  7.2634   7.2777   7.3089   7.3208   7.3404   7.3670   7.4304   7.4803
  7.5406   7.6227   7.6491   7.7069   7.7522   7.7585   7.7897   7.7968
  7.8849   7.9733  24.8299  25.0823  25.1655  50.5443  50.5689  50.5935
 50.6977  50.7118
 
 Beta MOs
 -- Occupied --
-19.3980 -19.3940 -19.3806 -19.3543 -19.3118 -10.4976 -10.4820 -10.4082
 -1.2603  -1.2549  -1.1826  -1.1705  -1.1348  -0.8417  -0.7885  -0.7389
 -0.7059  -0.6435  -0.6325  -0.6000  -0.5775  -0.5699  -0.5582  -0.5296
 -0.5205  -0.5096  -0.4566  -0.4523  -0.4466  -0.4216  -0.3691
 -- Virtual --
 -0.0078   0.0287   0.0400   0.0504   0.0553   0.0624   0.0718   0.0876
  0.0963   0.1038   0.1148   0.1185   0.1276   0.1391   0.1444   0.1653
  0.1682   0.1726   0.1964   0.2083   0.2142   0.2236   0.2341   0.2419
  0.2482   0.2586   0.2653   0.2822   0.2895   0.2933   0.3040   0.3114
  0.3122   0.3183   0.3231   0.3384   0.3435   0.3445   0.3562   0.3642
  0.3786   0.3859   0.4107   0.4147   0.4330   0.4429   0.4506   0.4805
  0.4968   0.5123   0.5447   0.5842   0.5938   0.6034   0.6129   0.6274
  0.6488   0.6721   0.6794   0.6855   0.7055   0.7160   0.7285   0.7415
  0.7658   0.7802   0.7929   0.8160   0.8351   0.8413   0.8583   0.8667
  0.8895   0.9060   0.9241   0.9312   0.9416   0.9803   1.0066   1.0208
  1.0569   1.0881   1.0975   1.1082   1.1149   1.1370   1.1387   1.1593
  1.1651   1.1796   1.1820   1.2004   1.2084   1.2114   1.2262   1.2293
  1.2434   1.2586   1.2800   1.3050   1.3434   1.3653   1.3854   1.4220
  1.4545   1.4986   1.5168   1.5317   1.5578   1.5845   1.6037   1.6252
  1.6617   1.6703   1.6905   1.7338   1.7403   1.7686   1.7859   1.8184
  1.8345   1.8636   1.8783   1.9717   1.9826   2.0450   2.1080   2.1255
  2.1420   2.2112   2.2833   2.2899   2.2948   2.3386   2.3868   2.3928
  2.4154   2.4437   2.4940   2.5449   2.5749   2.5876   2.6549   2.7292
  2.7480   2.7770   2.8333   2.8490   2.8520   2.8685   2.8811   2.8889
  2.9633   2.9982   3.0258   3.1183   3.1202   3.1416   3.1657   3.2132
  3.2402   3.2515   3.2840   3.2898   3.3166   3.3258   3.3662   3.3841
  3.4047   3.4251   3.4272   3.4690   3.5252   3.5302   3.5594   3.5668
  3.5891   3.6243   3.6483   3.6796   3.7184   3.7511   3.7633   3.7638
  3.8258   3.8474   3.8689   3.8970   3.9336   3.9721   4.0086   4.0263
  4.1648   4.1713   4.1931   4.2160   4.2493   4.2972   4.3146   4.3543
  4.3947   4.4308   4.4527   4.5158   4.7525   4.8901   5.0960   5.1236
  5.1252   5.1374   5.1696   5.1823   5.1890   5.1966   5.2031   5.2057
  5.2103   5.2313   5.2570   5.2803   5.3290   5.3455   5.3520   5.3646
  5.3703   5.4265   5.4620   5.5053   5.5120   5.5337   5.5534   5.5688
  5.5914   5.6165   5.6265   5.6599   5.6819   5.7235   5.8926   5.9420
  5.9567   5.9629   6.0221   6.0569   6.0717   6.2774   6.3453   6.4070
  6.6055   6.6963   6.8910   6.9160   6.9770   6.9798   7.0010   7.0074
  7.0236   7.0519   7.0740   7.0966   7.1032   7.2186   7.2388   7.2508
  7.2613   7.2741   7.2848   7.3093   7.3259   7.3466   7.3963   7.4312
  7.4887   7.5502   7.6237   7.6577   7.7110   7.7567   7.7639   7.7917
  7.7992   7.8934   7.9767  24.8326  25.0823  25.1706  50.5444  50.5719
 50.5961  50.7026  50.7125
 --------------------------------------------------------------
 
          Ground-State Mulliken Net Atomic Charges

     Atom                 Charge (a.u.)    Spin (a.u.)
  --------------------------------------------------------
      1 C                    -0.078684       0.190224
      2 C                     0.311976       0.359521
      3 C                     0.218558       0.000315
      4 O                    -0.466008      -0.000085
      5 O                    -0.543609       0.303570
      6 O                    -0.430345       0.078261
      7 H                     0.186450      -0.007831
      8 H                     0.242287       0.000438
      9 O                    -0.296893      -0.000081
     10 H                     0.460918      -0.000472
     11 H                     0.369459       0.000022
     12 O                    -0.327322       0.078184
     13 H                     0.353213      -0.002066
  --------------------------------------------------------
  Sum of atomic charges =    -0.000000
  Sum of spin   charges =     1.000000

 -----------------------------------------------------------------
                    Cartesian Multipole Moments
 -----------------------------------------------------------------
    Charge (ESU x 10^10)
                -0.0000
    Dipole Moment (Debye)
         X       2.1194      Y       3.2935      Z     -10.0559
       Tot      10.7916
    Quadrupole Moments (Debye-Ang)
        XX     -43.1503     XY      11.8735     YY     -13.5461
        XZ      -4.5849     YZ     -25.1660     ZZ     -62.6760
    Octopole Moments (Debye-Ang^2)
       XXX    -131.2664    XXY    -133.4773    XYY      49.8308
       YYY    -241.7956    XXZ     -22.0733    XYZ     -35.2672
       YYZ    -108.6200    XZZ     -41.1470    YZZ    -195.7028
       ZZZ     -61.9304
    Hexadecapole Moments (Debye-Ang^3)
      XXXX    -466.7647   XXXY    -596.3766   XXYY    -559.9171
      XYYY      97.5096   YYYY   -2739.7990   XXXZ      54.9336
      XXYZ     -35.7855   XYYZ    -221.8560   YYYZ    -336.4313
      XXZZ    -169.0333   XYZZ    -209.1959   YYZZ    -949.7551
      XZZZ     110.5652   YZZZ     203.2533   ZZZZ    -757.6500
 -----------------------------------------------------------------
 Calculating analytic gradient of the SCF energy
 Gradient of CDS energy
            1           2           3           4           5           6
    1  -0.0012011   0.0017864   0.0010209  -0.0004417   0.0006113  -0.0007269
    2  -0.0011118   0.0034848   0.0027317   0.0001511   0.0001375  -0.0026940
    3   0.0031486  -0.0012628  -0.0018307  -0.0010296  -0.0023615  -0.0017297
            7           8           9          10          11          12
    1   0.0000548   0.0002042  -0.0008747   0.0000936   0.0002659  -0.0008027
    2   0.0000488  -0.0002471  -0.0024465   0.0000150   0.0003265  -0.0002161
    3  -0.0001543   0.0001490   0.0024829   0.0001244  -0.0001128   0.0029619
           13
    1   0.0000100
    2  -0.0001800
    3  -0.0003851
 Gradient of SCF Energy
            1           2           3           4           5           6
    1   0.0001558  -0.0030001   0.0046128   0.0126867  -0.0001920  -0.0044535
    2   0.0043494  -0.0023657   0.0075299  -0.0032434   0.0018876  -0.0036886
    3   0.0128432  -0.0069163  -0.0046072   0.0220206   0.0054702   0.0194445
            7           8           9          10          11          12
    1  -0.0002925  -0.0157664  -0.0199762   0.0016838   0.0203986   0.0121444
    2  -0.0063463  -0.0113594  -0.0061947   0.0049916   0.0144394   0.0250090
    3  -0.0104902  -0.0069488  -0.0185314  -0.0096806   0.0077025   0.0077923
           13
    1  -0.0080015
    2  -0.0250086
    3  -0.0180987
 Max gradient component =       2.501E-02
 RMS gradient           =       1.183E-02
 Computing fast CPCM-SWIG gradient
 Updating gradient with PCM contributions...
 -- total gradient after adding PCM contribution --
---------------------------------------------------
  Atom         X              Y              Z     
---------------------------------------------------
   1      -0.000026       0.000226       0.000576
   2      -0.001406      -0.003863      -0.000506
   3      -0.002680      -0.000040      -0.003262
   4       0.005424      -0.000826       0.007873
   5      -0.000766       0.000553       0.004135
   6      -0.001350       0.002100       0.008261
   7      -0.000546      -0.002833      -0.002691
   8      -0.001704      -0.001003      -0.001579
   9      -0.005278      -0.000466      -0.007073
  10       0.001416       0.002076      -0.002545
  11       0.004743       0.002281       0.003412
  12       0.004073       0.007187      -0.004157
  13      -0.001899      -0.005392      -0.002444
---------------------------------------------------
 Number of fixed atoms: 0
 Gradient time:  CPU 128.55 s  wall 20.50 s
 Geometry Optimization Parameters
   NAtoms,    NIC,     NZ,  NCons,   NDum,   NFix, NCnnct, MaxDiis
       13      66       0       0       0       0       0       0


** GEOMETRY OPTIMIZATION IN DELOCALIZED INTERNAL COORDINATES **
   Searching for a Minimum

   Optimization Cycle:   1

                       Coordinates (Angstroms)
     ATOM                X               Y               Z
      1  C         0.1375146710    1.4234258113    1.1445093121
      2  C         0.7472992493    2.5523096550    0.5595316458
      3  C         1.5625772452    5.7077824652   -1.2951276521
      4  O         2.1306476585    5.5513480794   -0.2257091331
      5  O        -0.1671061155    1.3815027443    2.3689911621
      6  O         1.0236946262    3.6171787722    1.2902742858
      7  H        -0.0573395826    0.5798843666    0.4645637088
      8  H         0.7091449554    5.1135155795   -1.6337826622
      9  O         1.9076207683    6.6188976119   -2.1914564662
     10  H         1.4480317498    4.3243553323    0.7270814714
     11  H         2.6722548139    7.1249125941   -1.8475115012
     12  O         1.0820577607    2.6368877096   -0.7332357154
     13  H         0.8271579998    1.8182436788   -1.1981393557
   Point Group: c1    Number of degrees of freedom:    33


   Energy is   -493.468595835


 Attempting to generate delocalized internal coordinates
 Initial Hessian constructed with Jon Baker's OPTIMIZE code

 33 Hessian modes will be used to form the next step
  Hessian Eigenvalues:
     0.002073    0.021069    0.021069    0.022879    0.023836    0.025718
     0.026131    0.033329    0.039324    0.074546    0.160000    0.160000
     0.160000    0.160000    0.160000    0.160000    0.200000    0.200000
     0.220000    0.220000    0.250000    0.250000    0.335890    0.343882
     0.439850    0.479225    0.515224    0.523007    0.576369    0.609810
     0.617501    0.787839    0.949432

 Minimum search - taking simple RFO step
 Searching for Lamda that Minimizes Along All modes
 Value Taken    Lamda =  -0.00089219
 Step Taken.  Stepsize is  0.152849

                             Maximum     Tolerance    Cnvgd?
         Gradient           0.007200      0.000300      NO
         Displacement       0.100116      0.001200      NO
         Energy change     *********      0.000001      NO


 New Cartesian Coordinates Obtained by Inverse Iteration

 Displacement from previous Coordinates is:  0.598681
 ----------------------------------------------------------------
             Standard Nuclear Orientation (Angstroms)
    I     Atom           X                Y                Z
 ----------------------------------------------------------------
    1      C       0.1260002673     1.4164651279     1.1628514062
    2      C       0.7509343633     2.5161000338     0.5477730123
    3      C       1.5408150306     5.7752078850    -1.2927913265
    4      O       2.1534554261     5.5201308587    -0.2743874603
    5      O      -0.2130261246     1.4229972982     2.3760618002
    6      O       1.0119671825     3.6091735326     1.2312410184
    7      H      -0.0502641878     0.5488711822     0.5190613356
    8      H       0.6233826301     5.2716551348    -1.5978094284
    9      O       1.9088218470     6.7009812075    -2.1599161456
   10      H       1.4473081462     4.3042539634     0.6692232630
   11      H       2.7272493361     7.1302576739    -1.8554011595
   12      O       1.1179336223     2.5341258087    -0.7321436105
   13      H       0.8789782610     1.7000246936    -1.1637736046
 ----------------------------------------------------------------
 Nuclear Repulsion Energy =         358.33529727 hartrees
 There are       32 alpha and       31 beta electrons
 Discretize the solute cavity surface with Lebedev spheres
	Using 110 Lebedev grid points for each H atom
	Using 194 Lebedev grid points for other atoms
	Atomic van der Waals radii will be scaled by 1.20
 Remove points where switching function is < 1.0e-08
 Keep 1178 surface tesserae and discard 924 interior tesserae
 Molecular Surface Area = 143.208 Angst**2
 Applying Cartesian multipole field
    Component          Value
    ---------          -----
     (2,0,0)        1.00000E-11
     (0,2,0)        2.00000E-12
     (0,0,2)       -3.00000E-11
 Nucleus-field energy     =    -0.0000000016 hartrees
 Requested basis set is 6-311++G(2df,2p)
 There are 94 shells and 322 basis functions
 A cutoff of  1.0D-12 yielded   3710 shell pairs
 There are     42886 function pairs (     53616 Cartesian)
 Smallest overlap matrix eigenvalue = 2.49E-05
 Guess MOs from SCF MO coefficient file

 -----------------------------------------------------------------------
  General SCF calculation program by
  Eric Jon Sundstrom, Paul Horn, Yuezhi Mao, Dmitri Zuev, Alec White,
  David Stuck, Shaama M.S., Shane Yost, Joonho Lee, David Small,
  Daniel Levine, Susi Lehtola, Hugh Burton, Evgeny Epifanovsky,
  Bang C. Huynh
 -----------------------------------------------------------------------
 Exchange:     0.1500 Hartree-Fock + 1.0000 wB97M-V + LR-HF
 Correlation:  1.0000 wB97M-V
 Using SG-2 standard quadrature grid
 Nonlocal Correlation:  VV10 with C = 0.0100 and b = 6.00 and scale = 1.00000
 Grid used for NLC:  SG-1 standard quadrature
 
 Citation of the SMD model:
 Marenich, A.V.; Cramer, C.J.; Truhlar, D.G.
 J. Phys. Chem. B 2009, 113, 6378-6396.
 iSolventCode=           1
 Solvent: water                                                           
 
 vradii
            1           2           3           4           5           6
    1   1.8500000   1.8500000   1.8500000   1.5200000   1.5200000   1.5200000
            7           8           9          10          11          12
    1   1.2000000   1.2000000   1.5200000   1.2000000   1.2000000   1.5200000
           13
    1   1.2000000
 -------------------------------------------------------
 OpenMP BLAS3 based DFT computing Module                
 Release: version 1.0, May 2013, Q-Chem Inc. Pittsburgh 
 -------------------------------------------------------
 A unrestricted SCF calculation will be
 performed using Roothaan-Hall, DIIS, GDM
 SCF converges when RMS gradient is below 1.0e-07
 ---------------------------------------
  Cycle       Energy         DIIS error
 ---------------------------------------
    1    -493.4073064024      5.63e-04  Roothaan Step
 ---------------------------------------
  Cycle       Energy         DIIS error
 ---------------------------------------
    1    -493.4643182468      4.78e-04  
    2    -493.4704920380      5.65e-04  Done DIIS. Switching to GDM
 ---------------------------------------
  Cycle       Energy        RMS Gradient
 ---------------------------------------
    1    -493.4704920380      4.07e-02   Normal BFGS step
    2    -493.4649978148      7.01e-02  Line search: overstep
    3    -493.4811793807      6.82e-03   Normal BFGS step
    4    -493.4816347845      3.38e-03   Normal BFGS step
    5    -493.4817252041      2.23e-03   Normal BFGS step
    6    -493.4817524617      5.86e-04   Normal BFGS step
    7    -493.4817577671      3.33e-04   Normal BFGS step
    8    -493.4817593858      2.30e-04   Normal BFGS step
    9    -493.4817596385      8.78e-05   Normal BFGS step
   10    -493.4817597053      3.19e-05   Normal BFGS step
   11    -493.4817597159      2.57e-05   Normal BFGS step
   12    -493.4817597187      1.69e-05   Normal BFGS step
   13    -493.4817597196      8.55e-06   Normal BFGS step
   14    -493.4817597198      4.49e-06   Normal BFGS step
   15    -493.4817597199      1.45e-06   Normal BFGS step
   16    -493.4817597199      5.50e-07   Normal BFGS step
   17    -493.4817597199      2.96e-07   Normal BFGS step
   18    -493.4817597199      1.29e-07   Normal BFGS step
   19    -493.4817597199      4.18e-08  Convergence criterion met
 ---------------------------------------
 SCF time:   CPU 964.47s  wall 127.00s 
<S^2> =          0.756269672
(3)  G-ENP(liq) elect-nuc-pol free energy of system     -493.481759720 a.u.
(4)  G-CDS(liq) cavity-dispersion-solvent structure 
     free energy                                                8.0114 kcal/mol
(6)  G-S(liq) free energy of system                     -493.468992793 a.u.
 SCF   energy in the final basis set =     -493.4689927926
 Total energy in the final basis set =     -493.4689927926
 
 --------------------------------------------------------------
 
                    Orbital Energies (a.u.)
 --------------------------------------------------------------
 
 Alpha MOs
 -- Occupied --
-19.3968 -19.3962 -19.3824 -19.3535 -19.3195 -10.4966 -10.4863 -10.4082
 -1.2664  -1.2603  -1.1906  -1.1726  -1.1509  -0.8614  -0.7909  -0.7481
 -0.7138  -0.6459  -0.6334  -0.6085  -0.5975  -0.5787  -0.5657  -0.5309
 -0.5237  -0.5145  -0.4974  -0.4761  -0.4522  -0.4219  -0.3788  -0.2817
 -- Virtual --
  0.0286   0.0401   0.0501   0.0544   0.0627   0.0708   0.0872   0.0926
  0.1037   0.1141   0.1176   0.1232   0.1366   0.1423   0.1441   0.1668
  0.1685   0.1961   0.2055   0.2113   0.2236   0.2297   0.2406   0.2446
  0.2578   0.2647   0.2828   0.2867   0.2910   0.3049   0.3104   0.3110
  0.3161   0.3222   0.3331   0.3401   0.3442   0.3560   0.3637   0.3756
  0.3872   0.4086   0.4174   0.4308   0.4370   0.4502   0.4831   0.4992
  0.5079   0.5430   0.5775   0.5966   0.6058   0.6088   0.6236   0.6481
  0.6674   0.6709   0.6839   0.7042   0.7190   0.7224   0.7377   0.7550
  0.7734   0.7911   0.8133   0.8326   0.8403   0.8579   0.8657   0.8834
  0.9086   0.9202   0.9287   0.9423   0.9786   1.0071   1.0147   1.0519
  1.0922   1.1012   1.1064   1.1114   1.1341   1.1378   1.1563   1.1579
  1.1664   1.1764   1.1889   1.2011   1.2127   1.2169   1.2241   1.2419
  1.2517   1.2780   1.3019   1.3405   1.3647   1.3882   1.4178   1.4519
  1.4965   1.5138   1.5285   1.5536   1.5764   1.6030   1.6222   1.6574
  1.6692   1.6973   1.7395   1.7415   1.7575   1.7840   1.8233   1.8279
  1.8589   1.8710   1.9682   1.9809   2.0433   2.1019   2.1213   2.1447
  2.2125   2.2784   2.2858   2.3011   2.3320   2.3679   2.3903   2.4179
  2.4403   2.4873   2.5446   2.5648   2.5820   2.6542   2.7144   2.7373
  2.7741   2.8103   2.8274   2.8457   2.8499   2.8546   2.8829   2.9611
  2.9968   3.0099   3.1097   3.1148   3.1332   3.1409   3.2014   3.2253
  3.2456   3.2794   3.2845   3.3030   3.3106   3.3462   3.3706   3.3882
  3.4218   3.4287   3.4649   3.5137   3.5217   3.5580   3.5649   3.5724
  3.6250   3.6399   3.6606   3.7107   3.7452   3.7518   3.7668   3.8192
  3.8441   3.8721   3.9041   3.9322   3.9648   4.0181   4.0283   4.1634
  4.1711   4.1989   4.2171   4.2454   4.3158   4.3280   4.3393   4.3649
  4.4442   4.4595   4.5261   4.7595   4.8742   5.1021   5.1181   5.1251
  5.1364   5.1497   5.1635   5.1698   5.1835   5.1893   5.2002   5.2088
  5.2252   5.2346   5.2688   5.3179   5.3368   5.3445   5.3603   5.3657
  5.4281   5.4669   5.5111   5.5164   5.5223   5.5603   5.5626   5.6084
  5.6118   5.6255   5.6622   5.6902   5.7255   5.8880   5.9588   5.9592
  5.9861   6.0279   6.0667   6.0931   6.2704   6.3633   6.4211   6.6117
  6.7094   6.8982   6.9215   6.9398   6.9771   6.9914   7.0238   7.0305
  7.0550   7.0695   7.0933   7.1090   7.2314   7.2388   7.2454   7.2553
  7.2658   7.3025   7.3089   7.3273   7.3687   7.3706   7.4529   7.4828
  7.5444   7.6229   7.6572   7.7098   7.7534   7.7573   7.7951   7.7994
  7.8855   7.9864  24.8483  25.1031  25.1935  50.5501  50.5749  50.6010
 50.7047  50.7208
 
 Beta MOs
 -- Occupied --
-19.3968 -19.3932 -19.3797 -19.3535 -19.3107 -10.4966 -10.4809 -10.4059
 -1.2625  -1.2576  -1.1848  -1.1722  -1.1355  -0.8431  -0.7908  -0.7420
 -0.7091  -0.6457  -0.6326  -0.6016  -0.5787  -0.5719  -0.5588  -0.5286
 -0.5188  -0.5104  -0.4570  -0.4524  -0.4471  -0.4215  -0.3685
 -- Virtual --
 -0.0066   0.0287   0.0402   0.0504   0.0544   0.0628   0.0711   0.0886
  0.0952   0.1042   0.1136   0.1193   0.1273   0.1398   0.1443   0.1653
  0.1688   0.1732   0.1964   0.2068   0.2118   0.2238   0.2324   0.2420
  0.2473   0.2594   0.2659   0.2836   0.2908   0.2923   0.3063   0.3109
  0.3139   0.3171   0.3247   0.3349   0.3439   0.3459   0.3568   0.3643
  0.3788   0.3899   0.4094   0.4193   0.4320   0.4396   0.4532   0.4834
  0.4999   0.5144   0.5480   0.5792   0.5994   0.6083   0.6126   0.6282
  0.6512   0.6693   0.6795   0.6890   0.7075   0.7238   0.7244   0.7433
  0.7617   0.7762   0.7944   0.8158   0.8367   0.8419   0.8592   0.8681
  0.8854   0.9094   0.9263   0.9326   0.9430   0.9835   1.0093   1.0154
  1.0543   1.0941   1.1042   1.1076   1.1126   1.1360   1.1393   1.1580
  1.1610   1.1765   1.1844   1.1929   1.2037   1.2148   1.2178   1.2324
  1.2434   1.2550   1.2819   1.3043   1.3436   1.3696   1.3910   1.4223
  1.4526   1.4991   1.5178   1.5344   1.5582   1.5774   1.6050   1.6244
  1.6625   1.6730   1.7006   1.7418   1.7455   1.7703   1.7912   1.8236
  1.8368   1.8653   1.8825   1.9785   1.9887   2.0454   2.1058   2.1225
  2.1478   2.2178   2.2828   2.2935   2.3049   2.3362   2.3717   2.3935
  2.4187   2.4448   2.4925   2.5466   2.5682   2.5872   2.6606   2.7348
  2.7529   2.7801   2.8277   2.8476   2.8514   2.8690   2.8818   2.8918
  2.9616   3.0069   3.0284   3.1173   3.1230   3.1400   3.1590   3.2122
  3.2406   3.2468   3.2855   3.2891   3.3132   3.3270   3.3648   3.3816
  3.4086   3.4271   3.4382   3.4683   3.5307   3.5357   3.5624   3.5721
  3.5898   3.6312   3.6522   3.6781   3.7284   3.7559   3.7621   3.7673
  3.8329   3.8457   3.8758   3.9053   3.9391   3.9740   4.0186   4.0335
  4.1649   4.1715   4.2006   4.2267   4.2557   4.3159   4.3312   4.3561
  4.4031   4.4518   4.4608   4.5287   4.7687   4.9014   5.1037   5.1255
  5.1258   5.1379   5.1651   5.1844   5.1882   5.1970   5.2043   5.2067
  5.2098   5.2319   5.2586   5.2791   5.3286   5.3456   5.3536   5.3646
  5.3687   5.4322   5.4741   5.5128   5.5188   5.5393   5.5664   5.5756
  5.6087   5.6234   5.6281   5.6700   5.6999   5.7348   5.8988   5.9592
  5.9725   5.9862   6.0407   6.0668   6.0969   6.2926   6.3633   6.4291
  6.6189   6.7095   6.9056   6.9260   6.9792   6.9995   7.0025   7.0267
  7.0309   7.0676   7.0794   7.1055   7.1146   7.2333   7.2430   7.2532
  7.2645   7.2767   7.3071   7.3131   7.3339   7.3731   7.3994   7.4536
  7.4909   7.5539   7.6239   7.6664   7.7132   7.7554   7.7656   7.7972
  7.8015   7.8938   7.9902  24.8510  25.1031  25.1986  50.5502  50.5780
 50.6035  50.7097  50.7214
 --------------------------------------------------------------
 
          Ground-State Mulliken Net Atomic Charges

     Atom                 Charge (a.u.)    Spin (a.u.)
  --------------------------------------------------------
      1 C                    -0.069194       0.193172
      2 C                     0.301877       0.355373
      3 C                     0.217487       0.000223
      4 O                    -0.464909      -0.000009
      5 O                    -0.545620       0.303924
      6 O                    -0.433131       0.078167
      7 H                     0.186319      -0.007773
      8 H                     0.242377       0.000499
      9 O                    -0.296601      -0.000055
     10 H                     0.468330      -0.000602
     11 H                     0.367076       0.000023
     12 O                    -0.322539       0.079204
     13 H                     0.348528      -0.002145
  --------------------------------------------------------
  Sum of atomic charges =     0.000000
  Sum of spin   charges =     1.000000

 -----------------------------------------------------------------
                    Cartesian Multipole Moments
 -----------------------------------------------------------------
    Charge (ESU x 10^10)
                 0.0000
    Dipole Moment (Debye)
         X       2.3118      Y       3.2321      Z      -9.9193
       Tot      10.6856
    Quadrupole Moments (Debye-Ang)
        XX     -42.8243     XY      12.4124     YY     -12.6054
        XZ      -4.2129     YZ     -25.0449     ZZ     -62.5897
    Octopole Moments (Debye-Ang^2)
       XXX    -128.9584    XXY    -130.5487    XYY      53.6561
       YYY    -235.2847    XXZ     -22.8149    XYZ     -34.8360
       YYZ    -107.2975    XZZ     -39.0411    YZZ    -195.5097
       ZZZ     -61.6254
    Hexadecapole Moments (Debye-Ang^3)
      XXXX    -464.2554   XXXY    -581.7889   XXYY    -540.9949
      XYYY     122.7997   YYYY   -2756.3533   XXXZ      55.0097
      XXYZ     -40.5563   XYYZ    -221.7561   YYYZ    -313.5752
      XXZZ    -164.9149   XYZZ    -202.3533   YYZZ    -950.3261
      XZZZ     115.0308   YZZZ     204.1973   ZZZZ    -748.1234
 -----------------------------------------------------------------
 Calculating analytic gradient of the SCF energy
 Gradient of CDS energy
            1           2           3           4           5           6
    1  -0.0012727   0.0018059   0.0010003  -0.0004521   0.0006592  -0.0006525
    2  -0.0009868   0.0032272   0.0026689   0.0002264   0.0000406  -0.0025963
    3   0.0030865  -0.0015291  -0.0018126  -0.0009318  -0.0022807  -0.0015058
            7           8           9          10          11          12
    1   0.0000627   0.0001763  -0.0008514   0.0000896   0.0002840  -0.0008668
    2   0.0000527  -0.0002631  -0.0023814   0.0000021   0.0003082  -0.0000982
    3  -0.0001504   0.0001782   0.0023344   0.0001093  -0.0001125   0.0029824
           13
    1   0.0000174
    2  -0.0002005
    3  -0.0003681
 Gradient of SCF Energy
            1           2           3           4           5           6
    1   0.0001001  -0.0031741   0.0055382   0.0093031   0.0007497  -0.0032766
    2   0.0046882  -0.0027802   0.0058776  -0.0029206   0.0017114  -0.0046474
    3   0.0117301  -0.0066956  -0.0027971   0.0134676   0.0009989   0.0124629
            7           8           9          10          11          12
    1   0.0005334  -0.0147937  -0.0156189   0.0004952   0.0176773   0.0082741
    2  -0.0034858  -0.0087214  -0.0037058   0.0045159   0.0112316   0.0185553
    3  -0.0072990  -0.0044372  -0.0104234  -0.0064128   0.0037299   0.0098781
           13
    1  -0.0058079
    2  -0.0203189
    3  -0.0142026
 Max gradient component =       2.032E-02
 RMS gradient           =       9.035E-03
 Computing fast CPCM-SWIG gradient
 Updating gradient with PCM contributions...
 -- total gradient after adding PCM contribution --
---------------------------------------------------
  Atom         X              Y              Z     
---------------------------------------------------
   1       0.000047      -0.000099       0.000100
   2      -0.001562      -0.003389      -0.000402
   3      -0.002132      -0.001394      -0.001147
   4       0.001477       0.000655       0.000015
   5       0.000221       0.000349      -0.000417
   6       0.000131       0.001234       0.001070
   7      -0.000046       0.000037       0.000131
   8       0.000298       0.000178       0.000301
   9       0.000087       0.000616      -0.000156
  10       0.000243       0.001298       0.001016
  11       0.000729       0.000364       0.000127
  12       0.000833       0.000740      -0.000710
  13      -0.000325      -0.000589       0.000072
---------------------------------------------------
 Number of fixed atoms: 0
 Gradient time:  CPU 126.18 s  wall 20.07 s
 Geometry Optimization Parameters
   NAtoms,    NIC,     NZ,  NCons,   NDum,   NFix, NCnnct, MaxDiis
       13      66       0       0       0       0       0       0

 Cartesian Hessian Update
 Hessian updated using BFGS update


** GEOMETRY OPTIMIZATION IN DELOCALIZED INTERNAL COORDINATES **
   Searching for a Minimum

   Optimization Cycle:   2

                       Coordinates (Angstroms)
     ATOM                X               Y               Z
      1  C         0.1260002673    1.4164651279    1.1628514062
      2  C         0.7509343633    2.5161000338    0.5477730123
      3  C         1.5408150306    5.7752078850   -1.2927913265
      4  O         2.1534554261    5.5201308587   -0.2743874603
      5  O        -0.2130261246    1.4229972982    2.3760618002
      6  O         1.0119671825    3.6091735326    1.2312410184
      7  H        -0.0502641878    0.5488711822    0.5190613356
      8  H         0.6233826301    5.2716551348   -1.5978094284
      9  O         1.9088218470    6.7009812075   -2.1599161456
     10  H         1.4473081462    4.3042539634    0.6692232630
     11  H         2.7272493361    7.1302576739   -1.8554011595
     12  O         1.1179336223    2.5341258087   -0.7321436105
     13  H         0.8789782610    1.7000246936   -1.1637736046
   Point Group: c1    Number of degrees of freedom:    33


   Energy is   -493.468992793

 Hessian updated using BFGS update

 29 Hessian modes will be used to form the next step
  Hessian Eigenvalues:
     0.002542    0.021069    0.021070    0.022938    0.023818    0.025717
     0.026270    0.033518    0.039167    0.073105    0.154341    0.179820
     0.197284    0.200026    0.218059    0.226384    0.247037    0.250961
     0.333957    0.345961    0.431974    0.448357    0.496517    0.519846
     0.558046    0.601835    0.614680    0.792603    0.927770

 Minimum search - taking simple RFO step
 Searching for Lamda that Minimizes Along All modes
 Value Taken    Lamda =  -0.00020093
 Step Taken.  Stepsize is  0.193855

                             Maximum     Tolerance    Cnvgd?
         Gradient           0.002157      0.000300      NO
         Displacement       0.128604      0.001200      NO
         Energy change     -0.000397      0.000001      NO


 New Cartesian Coordinates Obtained by Inverse Iteration

 Displacement from previous Coordinates is:  0.650810
 ----------------------------------------------------------------
             Standard Nuclear Orientation (Angstroms)
    I     Atom           X                Y                Z
 ----------------------------------------------------------------
    1      C       0.1456823527     1.4227781189     1.1531473273
    2      C       0.7414881718     2.5479793426     0.5567606902
    3      C       1.5729899310     5.7134321855    -1.3008330365
    4      O       2.1015378236     5.5659383357    -0.2184547769
    5      O      -0.1413891149     1.3748034843     2.3783532432
    6      O       1.0280786595     3.6131141494     1.2657528734
    7      H      -0.0553000440     0.5830823532     0.4826386003
    8      H       0.7492258216     5.1004156204    -1.6658511654
    9      O       1.9317985602     6.6294163239    -2.1797681514
   10      H       1.4388676013     4.3242575006     0.7099432234
   11      H       2.6657397814     7.1576768655    -1.8269787848
   12      O       1.0485402569     2.6161689617    -0.7347758661
   13      H       0.7962959988     1.8011811584    -1.1899450765
 ----------------------------------------------------------------
 Nuclear Repulsion Energy =         359.86593819 hartrees
 There are       32 alpha and       31 beta electrons
 Discretize the solute cavity surface with Lebedev spheres
	Using 110 Lebedev grid points for each H atom
	Using 194 Lebedev grid points for other atoms
	Atomic van der Waals radii will be scaled by 1.20
 Remove points where switching function is < 1.0e-08
 Keep 1190 surface tesserae and discard 912 interior tesserae
 Molecular Surface Area = 141.517 Angst**2
 Applying Cartesian multipole field
    Component          Value
    ---------          -----
     (2,0,0)        1.00000E-11
     (0,2,0)        2.00000E-12
     (0,0,2)       -3.00000E-11
 Nucleus-field energy     =    -0.0000000019 hartrees
 Requested basis set is 6-311++G(2df,2p)
 There are 94 shells and 322 basis functions
 A cutoff of  1.0D-12 yielded   3728 shell pairs
 There are     43010 function pairs (     53761 Cartesian)
 Smallest overlap matrix eigenvalue = 2.34E-05
 Guess MOs from SCF MO coefficient file

 -----------------------------------------------------------------------
  General SCF calculation program by
  Eric Jon Sundstrom, Paul Horn, Yuezhi Mao, Dmitri Zuev, Alec White,
  David Stuck, Shaama M.S., Shane Yost, Joonho Lee, David Small,
  Daniel Levine, Susi Lehtola, Hugh Burton, Evgeny Epifanovsky,
  Bang C. Huynh
 -----------------------------------------------------------------------
 Exchange:     0.1500 Hartree-Fock + 1.0000 wB97M-V + LR-HF
 Correlation:  1.0000 wB97M-V
 Using SG-2 standard quadrature grid
 Nonlocal Correlation:  VV10 with C = 0.0100 and b = 6.00 and scale = 1.00000
 Grid used for NLC:  SG-1 standard quadrature
 
 Citation of the SMD model:
 Marenich, A.V.; Cramer, C.J.; Truhlar, D.G.
 J. Phys. Chem. B 2009, 113, 6378-6396.
 iSolventCode=           1
 Solvent: water                                                           
 
 vradii
            1           2           3           4           5           6
    1   1.8500000   1.8500000   1.8500000   1.5200000   1.5200000   1.5200000
            7           8           9          10          11          12
    1   1.2000000   1.2000000   1.5200000   1.2000000   1.2000000   1.5200000
           13
    1   1.2000000
 -------------------------------------------------------
 OpenMP BLAS3 based DFT computing Module                
 Release: version 1.0, May 2013, Q-Chem Inc. Pittsburgh 
 -------------------------------------------------------
 A unrestricted SCF calculation will be
 performed using Roothaan-Hall, DIIS, GDM
 SCF converges when RMS gradient is below 1.0e-07
 ---------------------------------------
  Cycle       Energy         DIIS error
 ---------------------------------------
    1    -493.3999024401      6.42e-04  Roothaan Step
 ---------------------------------------
  Cycle       Energy         DIIS error
 ---------------------------------------
    1    -493.4631607017      4.89e-04  
    2    -493.4699561722      5.79e-04  Done DIIS. Switching to GDM
 ---------------------------------------
  Cycle       Energy        RMS Gradient
 ---------------------------------------
    1    -493.4699561722      4.33e-02   Normal BFGS step
    2    -493.4642301316      7.45e-02  Line search: overstep
    3    -493.4811823553      7.37e-03   Normal BFGS step
    4    -493.4817062526      3.18e-03   Normal BFGS step
    5    -493.4818117768      2.21e-03   Normal BFGS step
    6    -493.4818405079      5.98e-04   Normal BFGS step
    7    -493.4818463566      3.61e-04   Normal BFGS step
    8    -493.4818480392      2.56e-04   Normal BFGS step
    9    -493.4818483357      8.61e-05   Normal BFGS step
   10    -493.4818484069      3.09e-05   Normal BFGS step
   11    -493.4818484198      2.59e-05   Normal BFGS step
   12    -493.4818484227      1.70e-05   Normal BFGS step
   13    -493.4818484237      8.78e-06   Normal BFGS step
   14    -493.4818484239      4.78e-06   Normal BFGS step
   15    -493.4818484240      1.68e-06   Normal BFGS step
   16    -493.4818484240      5.65e-07   Normal BFGS step
   17    -493.4818484240      2.80e-07   Normal BFGS step
   18    -493.4818484240      1.31e-07   Normal BFGS step
   19    -493.4818484240      4.56e-08  Convergence criterion met
 ---------------------------------------
 SCF time:   CPU 982.08s  wall 130.00s 
<S^2> =          0.756208555
(3)  G-ENP(liq) elect-nuc-pol free energy of system     -493.481848424 a.u.
(4)  G-CDS(liq) cavity-dispersion-solvent structure 
     free energy                                                8.0302 kcal/mol
(6)  G-S(liq) free energy of system                     -493.469051524 a.u.
 SCF   energy in the final basis set =     -493.4690515243
 Total energy in the final basis set =     -493.4690515243
 
 --------------------------------------------------------------
 
                    Orbital Energies (a.u.)
 --------------------------------------------------------------
 
 Alpha MOs
 -- Occupied --
-19.3965 -19.3957 -19.3824 -19.3533 -19.3191 -10.4956 -10.4858 -10.4074
 -1.2683  -1.2611  -1.1919  -1.1737  -1.1508  -0.8617  -0.7915  -0.7492
 -0.7153  -0.6470  -0.6336  -0.6084  -0.5986  -0.5792  -0.5656  -0.5314
 -0.5243  -0.5133  -0.4973  -0.4766  -0.4525  -0.4219  -0.3785  -0.2810
 -- Virtual --
  0.0288   0.0400   0.0501   0.0560   0.0626   0.0731   0.0863   0.0941
  0.1028   0.1160   0.1176   0.1235   0.1345   0.1440   0.1445   0.1668
  0.1681   0.1973   0.2077   0.2156   0.2248   0.2330   0.2424   0.2454
  0.2579   0.2659   0.2798   0.2858   0.2939   0.3040   0.3095   0.3125
  0.3180   0.3219   0.3370   0.3417   0.3437   0.3562   0.3629   0.3779
  0.3874   0.4107   0.4154   0.4342   0.4421   0.4498   0.4849   0.4999
  0.5103   0.5435   0.5832   0.5963   0.6074   0.6101   0.6252   0.6473
  0.6690   0.6729   0.6837   0.7061   0.7160   0.7261   0.7391   0.7599
  0.7803   0.7919   0.8136   0.8349   0.8398   0.8584   0.8654   0.8864
  0.9046   0.9205   0.9300   0.9419   0.9765   1.0061   1.0221   1.0568
  1.0845   1.0954   1.1070   1.1137   1.1332   1.1378   1.1569   1.1642
  1.1671   1.1762   1.1980   1.2040   1.2114   1.2230   1.2265   1.2416
  1.2570   1.2778   1.3032   1.3483   1.3643   1.3861   1.4211   1.4585
  1.5027   1.5186   1.5317   1.5596   1.5829   1.6034   1.6256   1.6605
  1.6729   1.6951   1.7325   1.7381   1.7585   1.7856   1.8241   1.8293
  1.8620   1.8720   1.9664   1.9842   2.0458   2.1112   2.1289   2.1462
  2.2152   2.2804   2.2866   2.2940   2.3388   2.3872   2.3924   2.4203
  2.4437   2.4902   2.5455   2.5719   2.5852   2.6508   2.7163   2.7382
  2.7783   2.8118   2.8332   2.8468   2.8506   2.8559   2.8896   2.9652
  2.9990   3.0118   3.1088   3.1194   3.1341   3.1435   3.2023   3.2277
  3.2481   3.2798   3.2853   3.3100   3.3118   3.3463   3.3770   3.3906
  3.4202   3.4270   3.4674   3.5167   3.5258   3.5608   3.5660   3.5756
  3.6263   3.6439   3.6652   3.7145   3.7460   3.7549   3.7695   3.8252
  3.8517   3.8673   3.9070   3.9377   3.9689   4.0202   4.0333   4.1740
  4.1789   4.2019   4.2193   4.2520   4.3241   4.3383   4.3416   4.3660
  4.4522   4.4658   4.5348   4.7624   4.8770   5.1014   5.1177   5.1246
  5.1351   5.1555   5.1640   5.1703   5.1844   5.1911   5.1999   5.2097
  5.2256   5.2349   5.2707   5.3189   5.3397   5.3491   5.3621   5.3697
  5.4315   5.4701   5.5137   5.5189   5.5246   5.5639   5.5657   5.6125
  5.6157   5.6325   5.6665   5.6983   5.7303   5.8942   5.9623   5.9677
  5.9950   6.0346   6.0733   6.1038   6.2766   6.3729   6.4292   6.6173
  6.7181   6.9036   6.9177   6.9404   6.9805   6.9934   7.0220   7.0377
  7.0609   7.0798   7.1002   7.1166   7.2370   7.2393   7.2493   7.2582
  7.2675   7.3064   7.3212   7.3328   7.3720   7.3879   7.4647   7.4920
  7.5462   7.6275   7.6586   7.7115   7.7579   7.7623   7.7979   7.8032
  7.8857   7.9903  24.8607  25.1118  25.2033  50.5544  50.5797  50.6046
 50.7079  50.7250
 
 Beta MOs
 -- Occupied --
-19.3965 -19.3928 -19.3797 -19.3534 -19.3103 -10.4956 -10.4804 -10.4050
 -1.2638  -1.2590  -1.1861  -1.1733  -1.1354  -0.8434  -0.7914  -0.7431
 -0.7106  -0.6467  -0.6328  -0.6015  -0.5796  -0.5728  -0.5587  -0.5288
 -0.5197  -0.5090  -0.4574  -0.4529  -0.4470  -0.4216  -0.3682
 -- Virtual --
 -0.0060   0.0289   0.0400   0.0504   0.0561   0.0628   0.0735   0.0875
  0.0967   0.1034   0.1153   0.1185   0.1275   0.1391   0.1449   0.1656
  0.1682   0.1744   0.1976   0.2092   0.2158   0.2251   0.2354   0.2436
  0.2488   0.2594   0.2667   0.2806   0.2892   0.2958   0.3048   0.3124
  0.3134   0.3192   0.3242   0.3382   0.3443   0.3465   0.3570   0.3645
  0.3804   0.3904   0.4119   0.4173   0.4353   0.4433   0.4537   0.4852
  0.5003   0.5171   0.5484   0.5853   0.5992   0.6087   0.6144   0.6293
  0.6514   0.6731   0.6794   0.6887   0.7094   0.7188   0.7305   0.7428
  0.7677   0.7830   0.7956   0.8169   0.8384   0.8419   0.8595   0.8690
  0.8878   0.9053   0.9242   0.9340   0.9437   0.9820   1.0079   1.0228
  1.0593   1.0870   1.0975   1.1090   1.1158   1.1338   1.1389   1.1596
  1.1664   1.1794   1.1824   1.2008   1.2074   1.2131   1.2271   1.2320
  1.2440   1.2605   1.2814   1.3058   1.3510   1.3689   1.3894   1.4260
  1.4590   1.5047   1.5226   1.5376   1.5639   1.5842   1.6054   1.6279
  1.6655   1.6774   1.6969   1.7358   1.7422   1.7713   1.7928   1.8244
  1.8381   1.8679   1.8837   1.9774   1.9914   2.0484   2.1139   2.1316
  2.1486   2.2204   2.2845   2.2906   2.3014   2.3447   2.3901   2.3950
  2.4213   2.4483   2.4955   2.5478   2.5746   2.5905   2.6574   2.7368
  2.7539   2.7837   2.8337   2.8499   2.8515   2.8709   2.8825   2.8983
  2.9659   3.0093   3.0304   3.1203   3.1221   3.1456   3.1582   3.2134
  3.2411   3.2508   3.2866   3.2897   3.3199   3.3281   3.3647   3.3877
  3.4107   3.4272   3.4339   3.4727   3.5339   3.5400   3.5645   3.5753
  3.5908   3.6321   3.6581   3.6816   3.7313   3.7571   3.7665   3.7696
  3.8347   3.8556   3.8724   3.9079   3.9447   3.9781   4.0208   4.0383
  4.1744   4.1805   4.2040   4.2290   4.2619   4.3245   4.3419   4.3572
  4.4041   4.4596   4.4678   4.5375   4.7715   4.9042   5.1033   5.1244
  5.1259   5.1366   5.1698   5.1852   5.1906   5.1975   5.2041   5.2073
  5.2105   5.2321   5.2594   5.2808   5.3298   5.3485   5.3586   5.3651
  5.3741   5.4348   5.4780   5.5149   5.5217   5.5417   5.5701   5.5788
  5.6126   5.6269   5.6355   5.6744   5.7079   5.7397   5.9051   5.9626
  5.9813   5.9951   6.0476   6.0733   6.1078   6.2987   6.3729   6.4372
  6.6245   6.7182   6.9078   6.9256   6.9799   7.0037   7.0044   7.0255
  7.0379   7.0742   7.0894   7.1123   7.1206   7.2396   7.2439   7.2569
  7.2657   7.2794   7.3080   7.3284   7.3394   7.3919   7.4012   7.4654
  7.5000   7.5557   7.6284   7.6676   7.7159   7.7597   7.7701   7.8005
  7.8048   7.8939   7.9941  24.8633  25.1118  25.2084  50.5545  50.5828
 50.6072  50.7129  50.7256
 --------------------------------------------------------------
 
          Ground-State Mulliken Net Atomic Charges

     Atom                 Charge (a.u.)    Spin (a.u.)
  --------------------------------------------------------
      1 C                    -0.086130       0.195827
      2 C                     0.322730       0.352870
      3 C                     0.223243       0.000335
      4 O                    -0.469189      -0.000029
      5 O                    -0.546875       0.303843
      6 O                    -0.435268       0.078316
      7 H                     0.186516      -0.007845
      8 H                     0.239493       0.000421
      9 O                    -0.295660      -0.000088
     10 H                     0.469652      -0.000444
     11 H                     0.367265       0.000022
     12 O                    -0.325910       0.078811
     13 H                     0.350133      -0.002039
  --------------------------------------------------------
  Sum of atomic charges =    -0.000000
  Sum of spin   charges =     1.000000

 -----------------------------------------------------------------
                    Cartesian Multipole Moments
 -----------------------------------------------------------------
    Charge (ESU x 10^10)
                -0.0000
    Dipole Moment (Debye)
         X       2.1259      Y       3.4126      Z     -10.0842
       Tot      10.8562
    Quadrupole Moments (Debye-Ang)
        XX     -42.8311     XY      12.2365     YY     -12.5210
        XZ      -4.6581     YZ     -25.1460     ZZ     -62.8791
    Octopole Moments (Debye-Ang^2)
       XXX    -130.4551    XXY    -131.9462    XYY      52.7371
       YYY    -232.5969    XXZ     -21.6023    XYZ     -35.0756
       YYZ    -109.0374    XZZ     -42.0792    YZZ    -195.9008
       ZZZ     -62.4552
    Hexadecapole Moments (Debye-Ang^3)
      XXXX    -461.0484   XXXY    -592.8278   XXYY    -551.6652
      XYYY     120.4552   YYYY   -2662.3861   XXXZ      55.6272
      XXYZ     -32.8808   XYYZ    -220.3509   YYYZ    -343.2590
      XXZZ    -170.2124   XYZZ    -213.1271   YYZZ    -951.7280
      XZZZ     110.4344   YZZZ     204.9262   ZZZZ    -759.0394
 -----------------------------------------------------------------
 Calculating analytic gradient of the SCF energy
 Gradient of CDS energy
            1           2           3           4           5           6
    1  -0.0011372   0.0016223   0.0009119  -0.0003711   0.0005591  -0.0006815
    2  -0.0011252   0.0031946   0.0025968   0.0001477   0.0001410  -0.0024356
    3   0.0030869  -0.0012902  -0.0017759  -0.0009686  -0.0022960  -0.0015002
            7           8           9          10          11          12
    1   0.0000570   0.0002161  -0.0008430   0.0000900   0.0002616  -0.0006861
    2   0.0000620  -0.0002434  -0.0023114   0.0000088   0.0003301  -0.0001786
    3  -0.0001495   0.0002016   0.0023196   0.0001169  -0.0001025   0.0027314
           13
    1   0.0000008
    2  -0.0001868
    3  -0.0003736
 Gradient of SCF Energy
            1           2           3           4           5           6
    1   0.0002502  -0.0015161   0.0067785   0.0064605   0.0008171  -0.0028108
    2   0.0041983   0.0010425   0.0077252  -0.0017710   0.0013231  -0.0055225
    3   0.0122725  -0.0069396   0.0003080   0.0118126   0.0002041   0.0095725
            7           8           9          10          11          12
    1   0.0004496  -0.0129472  -0.0129235  -0.0003065   0.0142710   0.0071193
    2  -0.0024768  -0.0108182  -0.0062716   0.0021316   0.0122124   0.0164773
    3  -0.0069124  -0.0054548  -0.0103350  -0.0058215   0.0038675   0.0122928
           13
    1  -0.0056421
    2  -0.0182504
    3  -0.0148667
 Max gradient component =       1.825E-02
 RMS gradient           =       8.458E-03
 Computing fast CPCM-SWIG gradient
 Updating gradient with PCM contributions...
 -- total gradient after adding PCM contribution --
---------------------------------------------------
  Atom         X              Y              Z     
---------------------------------------------------
   1      -0.000137       0.000118       0.000136
   2       0.000016      -0.000256      -0.000196
   3      -0.000215       0.000053       0.001739
   4      -0.000358       0.000347      -0.002615
   5       0.000290      -0.000066      -0.001361
   6       0.000274       0.000375      -0.001926
   7       0.000233       0.000791       0.000776
   8       0.000625      -0.000136       0.000164
   9       0.001150       0.000152       0.001038
  10      -0.000654      -0.000905       0.001626
  11      -0.000997      -0.000672      -0.000561
  12      -0.000551      -0.000976       0.000403
  13       0.000323       0.001175       0.000779
---------------------------------------------------
 Number of fixed atoms: 0
 Gradient time:  CPU 128.35 s  wall 20.48 s
 Geometry Optimization Parameters
   NAtoms,    NIC,     NZ,  NCons,   NDum,   NFix, NCnnct, MaxDiis
       13      66       0       0       0       0       0       0

 Cartesian Hessian Update
 Hessian updated using BFGS update


** GEOMETRY OPTIMIZATION IN DELOCALIZED INTERNAL COORDINATES **
   Searching for a Minimum

   Optimization Cycle:   3

                       Coordinates (Angstroms)
     ATOM                X               Y               Z
      1  C         0.1456823527    1.4227781189    1.1531473273
      2  C         0.7414881718    2.5479793426    0.5567606902
      3  C         1.5729899310    5.7134321855   -1.3008330365
      4  O         2.1015378236    5.5659383357   -0.2184547769
      5  O        -0.1413891149    1.3748034843    2.3783532432
      6  O         1.0280786595    3.6131141494    1.2657528734
      7  H        -0.0553000440    0.5830823532    0.4826386003
      8  H         0.7492258216    5.1004156204   -1.6658511654
      9  O         1.9317985602    6.6294163239   -2.1797681514
     10  H         1.4388676013    4.3242575006    0.7099432234
     11  H         2.6657397814    7.1576768655   -1.8269787848
     12  O         1.0485402569    2.6161689617   -0.7347758661
     13  H         0.7962959988    1.8011811584   -1.1899450765
   Point Group: c1    Number of degrees of freedom:    33


   Energy is   -493.469051524

 Hessian updated using BFGS update

 31 Hessian modes will be used to form the next step
  Hessian Eigenvalues:
     0.003101    0.021069    0.021097    0.022942    0.023791    0.025714
     0.026377    0.035408    0.038789    0.071254    0.149098    0.160000
     0.161322    0.184301    0.192781    0.200022    0.220165    0.227501
     0.248179    0.254071    0.338530    0.345012    0.441016    0.492227
     0.515811    0.527135    0.564011    0.595947    0.611284    0.792820
     0.958721

 Minimum search - taking simple RFO step
 Searching for Lamda that Minimizes Along All modes
 Value Taken    Lamda =  -0.00006016
 Step Taken.  Stepsize is  0.046129

                             Maximum     Tolerance    Cnvgd?
         Gradient           0.002157      0.000300      NO
         Displacement       0.033064      0.001200      NO
         Energy change     -0.000059      0.000001      NO


 New Cartesian Coordinates Obtained by Inverse Iteration

 Displacement from previous Coordinates is:  0.171588
 ----------------------------------------------------------------
             Standard Nuclear Orientation (Angstroms)
    I     Atom           X                Y                Z
 ----------------------------------------------------------------
    1      C       0.1418546039     1.4191774470     1.1591182859
    2      C       0.7439032286     2.5386239663     0.5556757892
    3      C       1.5663086147     5.7307096905    -1.3026945348
    4      O       2.1111539355     5.5543006412    -0.2314907176
    5      O      -0.1575380010     1.3853590646     2.3826811973
    6      O       1.0244992064     3.6109509723     1.2571689737
    7      H      -0.0551296129     0.5720942802     0.4942577579
    8      H       0.7155230612     5.1487290214    -1.6585841441
    9      O       1.9292436686     6.6516713803    -2.1754045178
   10      H       1.4399811304     4.3184173117     0.6976066575
   11      H       2.6850781481     7.1549831890    -1.8292399753
   12      O       1.0632025815     2.5929793143    -0.7345703298
   13      H       0.8154752349     1.7722481214    -1.1845353419
 ----------------------------------------------------------------
 Nuclear Repulsion Energy =         359.27845143 hartrees
 There are       32 alpha and       31 beta electrons
 Discretize the solute cavity surface with Lebedev spheres
	Using 110 Lebedev grid points for each H atom
	Using 194 Lebedev grid points for other atoms
	Atomic van der Waals radii will be scaled by 1.20
 Remove points where switching function is < 1.0e-08
 Keep 1182 surface tesserae and discard 920 interior tesserae
 Molecular Surface Area = 142.159 Angst**2
 Applying Cartesian multipole field
    Component          Value
    ---------          -----
     (2,0,0)        1.00000E-11
     (0,2,0)        2.00000E-12
     (0,0,2)       -3.00000E-11
 Nucleus-field energy     =    -0.0000000018 hartrees
 Requested basis set is 6-311++G(2df,2p)
 There are 94 shells and 322 basis functions
 A cutoff of  1.0D-12 yielded   3720 shell pairs
 There are     42968 function pairs (     53716 Cartesian)
 Smallest overlap matrix eigenvalue = 2.39E-05
 Guess MOs from SCF MO coefficient file

 -----------------------------------------------------------------------
  General SCF calculation program by
  Eric Jon Sundstrom, Paul Horn, Yuezhi Mao, Dmitri Zuev, Alec White,
  David Stuck, Shaama M.S., Shane Yost, Joonho Lee, David Small,
  Daniel Levine, Susi Lehtola, Hugh Burton, Evgeny Epifanovsky,
  Bang C. Huynh
 -----------------------------------------------------------------------
 Exchange:     0.1500 Hartree-Fock + 1.0000 wB97M-V + LR-HF
 Correlation:  1.0000 wB97M-V
 Using SG-2 standard quadrature grid
 Nonlocal Correlation:  VV10 with C = 0.0100 and b = 6.00 and scale = 1.00000
 Grid used for NLC:  SG-1 standard quadrature
 
 Citation of the SMD model:
 Marenich, A.V.; Cramer, C.J.; Truhlar, D.G.
 J. Phys. Chem. B 2009, 113, 6378-6396.
 iSolventCode=           1
 Solvent: water                                                           
 
 vradii
            1           2           3           4           5           6
    1   1.8500000   1.8500000   1.8500000   1.5200000   1.5200000   1.5200000
            7           8           9          10          11          12
    1   1.2000000   1.2000000   1.5200000   1.2000000   1.2000000   1.5200000
           13
    1   1.2000000
 -------------------------------------------------------
 OpenMP BLAS3 based DFT computing Module                
 Release: version 1.0, May 2013, Q-Chem Inc. Pittsburgh 
 -------------------------------------------------------
 A unrestricted SCF calculation will be
 performed using Roothaan-Hall, DIIS, GDM
 SCF converges when RMS gradient is below 1.0e-07
 ---------------------------------------
  Cycle       Energy         DIIS error
 ---------------------------------------
    1    -493.4202565188      3.75e-04  Roothaan Step
 ---------------------------------------
  Cycle       Energy         DIIS error
 ---------------------------------------
    1    -493.4656361402      4.65e-04  
    2    -493.4709113151      5.61e-04  Done DIIS. Switching to GDM
 ---------------------------------------
  Cycle       Energy        RMS Gradient
 ---------------------------------------
    1    -493.4709113151      4.13e-02   Normal BFGS step
    2    -493.4653577429      7.14e-02  Line search: overstep
    3    -493.4813816502      7.13e-03   Normal BFGS step
    4    -493.4817663180      3.13e-03   Normal BFGS step
    5    -493.4818441345      2.14e-03   Normal BFGS step
    6    -493.4818675766      5.49e-04   Normal BFGS step
    7    -493.4818725107      3.27e-04   Normal BFGS step
    8    -493.4818740265      1.88e-04   Normal BFGS step
    9    -493.4818742009      8.63e-05   Normal BFGS step
   10    -493.4818742541      2.71e-05   Normal BFGS step
   11    -493.4818742605      9.73e-06   Normal BFGS step
   12    -493.4818742621      1.04e-05   Normal BFGS step
   13    -493.4818742625      2.33e-06   Normal BFGS step
   14    -493.4818742626      1.39e-06   Normal BFGS step
   15    -493.4818742627      8.92e-07   Normal BFGS step
   16    -493.4818742627      4.22e-07   Normal BFGS step
   17    -493.4818742627      2.18e-07   Normal BFGS step
   18    -493.4818742627      1.00e-07   Normal BFGS step
   19    -493.4818742627      5.37e-08  Convergence criterion met
 ---------------------------------------
 SCF time:   CPU 966.75s  wall 127.00s 
<S^2> =          0.756219053
(3)  G-ENP(liq) elect-nuc-pol free energy of system     -493.481874263 a.u.
(4)  G-CDS(liq) cavity-dispersion-solvent structure 
     free energy                                                8.0252 kcal/mol
(6)  G-S(liq) free energy of system                     -493.469085349 a.u.
 SCF   energy in the final basis set =     -493.4690853487
 Total energy in the final basis set =     -493.4690853487
 
 --------------------------------------------------------------
 
                    Orbital Energies (a.u.)
 --------------------------------------------------------------
 
 Alpha MOs
 -- Occupied --
-19.3969 -19.3958 -19.3825 -19.3536 -19.3192 -10.4962 -10.4860 -10.4078
 -1.2676  -1.2608  -1.1914  -1.1735  -1.1505  -0.8613  -0.7913  -0.7487
 -0.7149  -0.6464  -0.6337  -0.6082  -0.5982  -0.5790  -0.5653  -0.5314
 -0.5239  -0.5136  -0.4971  -0.4764  -0.4525  -0.4220  -0.3785  -0.2811
 -- Virtual --
  0.0288   0.0400   0.0500   0.0555   0.0626   0.0724   0.0865   0.0937
  0.1030   0.1157   0.1175   0.1231   0.1347   0.1435   0.1444   0.1667
  0.1682   0.1969   0.2072   0.2145   0.2243   0.2321   0.2420   0.2452
  0.2577   0.2654   0.2805   0.2862   0.2927   0.3042   0.3096   0.3120
  0.3176   0.3215   0.3364   0.3409   0.3441   0.3559   0.3637   0.3768
  0.3871   0.4104   0.4151   0.4334   0.4407   0.4492   0.4838   0.4999
  0.5092   0.5432   0.5815   0.5961   0.6069   0.6095   0.6247   0.6472
  0.6689   0.6719   0.6834   0.7049   0.7170   0.7244   0.7383   0.7587
  0.7783   0.7914   0.8142   0.8339   0.8399   0.8585   0.8652   0.8855
  0.9053   0.9206   0.9289   0.9420   0.9768   1.0064   1.0203   1.0562
  1.0901   1.0962   1.1054   1.1127   1.1330   1.1373   1.1571   1.1632
  1.1672   1.1759   1.1953   1.2034   1.2118   1.2217   1.2241   1.2407
  1.2542   1.2784   1.3026   1.3452   1.3645   1.3875   1.4196   1.4562
  1.5006   1.5172   1.5304   1.5576   1.5802   1.6033   1.6244   1.6601
  1.6715   1.6947   1.7336   1.7386   1.7577   1.7843   1.8235   1.8284
  1.8604   1.8714   1.9664   1.9827   2.0449   2.1075   2.1269   2.1470
  2.2140   2.2796   2.2865   2.2954   2.3373   2.3863   2.3885   2.4185
  2.4421   2.4909   2.5449   2.5702   2.5834   2.6498   2.7153   2.7373
  2.7768   2.8116   2.8319   2.8472   2.8501   2.8559   2.8877   2.9630
  2.9979   3.0111   3.1087   3.1184   3.1343   3.1417   3.2024   3.2274
  3.2476   3.2793   3.2854   3.3078   3.3114   3.3466   3.3751   3.3901
  3.4199   3.4261   3.4672   3.5153   3.5232   3.5597   3.5653   3.5740
  3.6254   3.6422   3.6631   3.7136   3.7446   3.7542   3.7686   3.8235
  3.8482   3.8686   3.9053   3.9357   3.9667   4.0181   4.0302   4.1703
  4.1753   4.2006   4.2167   4.2495   4.3214   4.3346   4.3401   4.3635
  4.4490   4.4619   4.5322   4.7592   4.8745   5.1015   5.1183   5.1242
  5.1354   5.1522   5.1635   5.1700   5.1840   5.1904   5.1993   5.2094
  5.2255   5.2348   5.2690   5.3181   5.3379   5.3466   5.3608   5.3686
  5.4303   5.4679   5.5125   5.5169   5.5228   5.5612   5.5640   5.6094
  5.6126   5.6301   5.6655   5.6957   5.7275   5.8904   5.9583   5.9664
  5.9913   6.0314   6.0715   6.0993   6.2732   6.3691   6.4252   6.6145
  6.7154   6.9026   6.9175   6.9400   6.9787   6.9926   7.0219   7.0326
  7.0574   7.0762   7.0962   7.1134   7.2348   7.2384   7.2477   7.2577
  7.2669   7.3048   7.3153   7.3311   7.3715   7.3798   7.4604   7.4879
  7.5452   7.6270   7.6577   7.7112   7.7573   7.7611   7.7968   7.8013
  7.8854   7.9892  24.8561  25.1071  25.1970  50.5525  50.5780  50.6031
 50.7061  50.7229
 
 Beta MOs
 -- Occupied --
-19.3969 -19.3929 -19.3798 -19.3536 -19.3104 -10.4962 -10.4807 -10.4054
 -1.2633  -1.2585  -1.1857  -1.1730  -1.1350  -0.8431  -0.7912  -0.7427
 -0.7102  -0.6461  -0.6328  -0.6013  -0.5793  -0.5725  -0.5584  -0.5289
 -0.5193  -0.5092  -0.4572  -0.4528  -0.4469  -0.4217  -0.3683
 -- Virtual --
 -0.0061   0.0288   0.0401   0.0503   0.0556   0.0627   0.0728   0.0877
  0.0963   0.1036   0.1150   0.1186   0.1272   0.1391   0.1447   0.1654
  0.1684   0.1740   0.1971   0.2086   0.2147   0.2245   0.2347   0.2431
  0.2484   0.2592   0.2663   0.2813   0.2897   0.2946   0.3052   0.3119
  0.3134   0.3186   0.3240   0.3377   0.3444   0.3462   0.3568   0.3648
  0.3796   0.3901   0.4114   0.4172   0.4345   0.4423   0.4529   0.4841
  0.5003   0.5160   0.5482   0.5835   0.5989   0.6086   0.6137   0.6289
  0.6511   0.6723   0.6793   0.6884   0.7081   0.7199   0.7285   0.7425
  0.7663   0.7812   0.7950   0.8173   0.8376   0.8418   0.8595   0.8686
  0.8870   0.9059   0.9246   0.9330   0.9434   0.9822   1.0083   1.0210
  1.0586   1.0927   1.0983   1.1072   1.1146   1.1336   1.1386   1.1599
  1.1652   1.1787   1.1830   1.1986   1.2066   1.2137   1.2241   1.2313
  1.2428   1.2577   1.2821   1.3051   1.3482   1.3691   1.3908   1.4243
  1.4567   1.5029   1.5211   1.5364   1.5620   1.5815   1.6053   1.6267
  1.6651   1.6757   1.6970   1.7376   1.7418   1.7705   1.7915   1.8238
  1.8373   1.8665   1.8830   1.9771   1.9902   2.0474   2.1105   2.1293
  2.1495   2.2193   2.2838   2.2918   2.3014   2.3429   2.3890   2.3915
  2.4194   2.4468   2.4961   2.5470   2.5730   2.5888   2.6564   2.7359
  2.7528   2.7824   2.8323   2.8499   2.8517   2.8706   2.8823   2.8965
  2.9637   3.0083   3.0296   3.1204   3.1212   3.1430   3.1590   3.2134
  3.2416   3.2497   3.2862   3.2898   3.3172   3.3281   3.3652   3.3858
  3.4103   3.4263   3.4341   3.4719   3.5324   3.5373   3.5636   3.5737
  3.5901   3.6309   3.6563   3.6798   3.7306   3.7558   3.7655   3.7687
  3.8341   3.8514   3.8733   3.9061   3.9428   3.9759   4.0188   4.0352
  4.1711   4.1765   4.2026   4.2264   4.2595   4.3217   4.3380   4.3562
  4.4017   4.4565   4.4636   4.5348   4.7683   4.9017   5.1033   5.1245
  5.1259   5.1369   5.1670   5.1847   5.1895   5.1970   5.2037   5.2069
  5.2103   5.2321   5.2591   5.2792   5.3290   5.3467   5.3562   5.3642
  5.3724   5.4341   5.4752   5.5137   5.5199   5.5399   5.5673   5.5771
  5.6096   5.6241   5.6327   5.6734   5.7053   5.7368   5.9012   5.9585
  5.9799   5.9914   6.0444   6.0715   6.1032   6.2953   6.3691   6.4332
  6.6217   6.7155   6.9077   6.9244   6.9795   7.0014   7.0035   7.0252
  7.0329   7.0707   7.0855   7.1091   7.1176   7.2366   7.2432   7.2559
  7.2656   7.2785   7.3073   7.3214   7.3378   7.3838   7.4006   7.4611
  7.4959   7.5547   7.6279   7.6668   7.7154   7.7590   7.7690   7.7986
  7.8038   7.8937   7.9930  24.8587  25.1071  25.2021  50.5526  50.5811
 50.6057  50.7111  50.7235
 --------------------------------------------------------------
 
          Ground-State Mulliken Net Atomic Charges

     Atom                 Charge (a.u.)    Spin (a.u.)
  --------------------------------------------------------
      1 C                    -0.081516       0.195926
      2 C                     0.316805       0.353062
      3 C                     0.221904       0.000318
      4 O                    -0.468484      -0.000028
      5 O                    -0.547056       0.303661
      6 O                    -0.434800       0.078401
      7 H                     0.186153      -0.007878
      8 H                     0.239810       0.000424
      9 O                    -0.295311      -0.000075
     10 H                     0.470410      -0.000497
     11 H                     0.367396       0.000023
     12 O                    -0.325396       0.078731
     13 H                     0.350085      -0.002067
  --------------------------------------------------------
  Sum of atomic charges =     0.000000
  Sum of spin   charges =     1.000000

 -----------------------------------------------------------------
                    Cartesian Multipole Moments
 -----------------------------------------------------------------
    Charge (ESU x 10^10)
                 0.0000
    Dipole Moment (Debye)
         X       2.1842      Y       3.3924      Z     -10.0715
       Tot      10.8496
    Quadrupole Moments (Debye-Ang)
        XX     -42.7640     XY      12.3951     YY     -12.3196
        XZ      -4.5667     YZ     -25.1878     ZZ     -62.8681
    Octopole Moments (Debye-Ang^2)
       XXX    -129.8628    XXY    -131.1058    XYY      53.8418
       YYY    -231.4892    XXZ     -21.9564    XYZ     -35.0722
       YYZ    -108.9140    XZZ     -41.4094    YZZ    -195.8534
       ZZZ     -62.6515
    Hexadecapole Moments (Debye-Ang^3)
      XXXX    -460.8251   XXXY    -588.6385   XXYY    -545.7390
      XYYY     127.4627   YYYY   -2673.9537   XXXZ      55.4100
      XXYZ     -34.7551   XYYZ    -220.8528   YYYZ    -336.5817
      XXZZ    -169.3387   XYZZ    -211.0801   YYZZ    -952.2794
      XZZZ     111.8323   YZZZ     205.0299   ZZZZ    -758.8907
 -----------------------------------------------------------------
 Calculating analytic gradient of the SCF energy
 Gradient of CDS energy
            1           2           3           4           5           6
    1  -0.0011725   0.0016614   0.0009600  -0.0003883   0.0005870  -0.0006721
    2  -0.0010900   0.0031933   0.0026188   0.0001697   0.0001156  -0.0024632
[...]
  2.7508   2.7836   2.8308   2.8502   2.8523   2.8734   2.8819   2.8972
  2.9636   3.0093   3.0293   3.1202   3.1228   3.1418   3.1588   3.2143
  3.2413   3.2491   3.2833   3.2937   3.3167   3.3271   3.3645   3.3870
  3.4098   3.4249   3.4340   3.4693   3.5321   3.5373   3.5632   3.5717
  3.5906   3.6289   3.6581   3.6808   3.7315   3.7559   3.7638   3.7682
  3.8317   3.8512   3.8691   3.9069   3.9432   3.9745   4.0162   4.0352
  4.1721   4.1790   4.2027   4.2261   4.2597   4.3208   4.3384   4.3578
  4.4010   4.4551   4.4624   4.5452   4.7680   4.9016   5.1035   5.1229
  5.1240   5.1363   5.1647   5.1850   5.1888   5.1935   5.2028   5.2069
  5.2097   5.2303   5.2588   5.2792   5.3287   5.3477   5.3566   5.3641
  5.3816   5.4353   5.4764   5.5153   5.5193   5.5390   5.5639   5.5798
  5.6088   5.6238   5.6351   5.6768   5.7052   5.7359   5.9014   5.9603
  5.9789   5.9947   6.0430   6.0709   6.1044   6.2948   6.3668   6.4308
  6.6222   6.7174   6.9050   6.9225   6.9796   7.0011   7.0031   7.0237
  7.0338   7.0636   7.0875   7.1064   7.1143   7.2355   7.2403   7.2580
  7.2681   7.2787   7.3072   7.3200   7.3431   7.3801   7.4005   7.4597
  7.4973   7.5555   7.6304   7.6670   7.7201   7.7566   7.7712   7.7981
  7.8069   7.8929   7.9872  24.8597  25.1086  25.2012  50.5525  50.5824
 50.6049  50.7115  50.7232
 --------------------------------------------------------------
 
          Ground-State Mulliken Net Atomic Charges

     Atom                 Charge (a.u.)    Spin (a.u.)
  --------------------------------------------------------
      1 C                    -0.099486       0.196794
      2 C                     0.340334       0.352030
      3 C                     0.233908       0.000413
      4 O                    -0.478555       0.000024
      5 O                    -0.547006       0.303939
      6 O                    -0.444311       0.078722
      7 H                     0.186355      -0.007912
      8 H                     0.235608       0.000261
      9 O                    -0.296158      -0.000085
     10 H                     0.481442      -0.000475
     11 H                     0.368141       0.000012
     12 O                    -0.329955       0.078377
     13 H                     0.349684      -0.002101
  --------------------------------------------------------
  Sum of atomic charges =    -0.000000
  Sum of spin   charges =     1.000000

 -----------------------------------------------------------------
                    Cartesian Multipole Moments
 -----------------------------------------------------------------
    Charge (ESU x 10^10)
                -0.0000
    Dipole Moment (Debye)
         X       1.9916      Y       3.4634      Z     -10.2313
       Tot      10.9836
    Quadrupole Moments (Debye-Ang)
        XX     -42.1999     XY      12.6260     YY     -11.7789
        XZ      -4.9665     YZ     -25.3049     ZZ     -63.6187
    Octopole Moments (Debye-Ang^2)
       XXX    -128.2308    XXY    -127.9854    XYY      57.0319
       YYY    -225.6506    XXZ     -20.7780    XYZ     -34.0184
       YYZ    -108.6238    XZZ     -45.3072    YZZ    -197.8603
       ZZZ     -65.1849
    Hexadecapole Moments (Debye-Ang^3)
      XXXX    -444.7783   XXXY    -578.6417   XXYY    -528.7012
      XYYY     151.9789   YYYY   -2630.2072   XXXZ      56.8720
      XXYZ     -24.3625   XYYZ    -206.6222   YYYZ    -323.3365
      XXZZ    -176.6460   XYZZ    -228.0291   YYZZ    -973.7347
      XZZZ     111.1246   YZZZ     213.2371   ZZZZ    -780.7939
 -----------------------------------------------------------------
 Calculating analytic gradient of the SCF energy
 Gradient of CDS energy
            1           2           3           4           5           6
    1  -0.0009925   0.0015190   0.0010225  -0.0002916   0.0004684  -0.0006890
    2  -0.0011202   0.0032621   0.0025747   0.0001755   0.0001315  -0.0024738
    3   0.0031689  -0.0015290  -0.0016450  -0.0010016  -0.0023457  -0.0014545
            7           8           9          10          11          12
    1   0.0000490   0.0001855  -0.0010131   0.0000827   0.0002671  -0.0005996
    2   0.0000589  -0.0002197  -0.0023559   0.0000124   0.0003324  -0.0001883
    3  -0.0001531   0.0001937   0.0022211   0.0001182  -0.0000773   0.0028781
           13
    1  -0.0000084
    2  -0.0001895
    3  -0.0003737
 Gradient of SCF Energy
            1           2           3           4           5           6
    1   0.0006245  -0.0013461   0.0072253   0.0057635   0.0005162  -0.0026146
    2   0.0042016   0.0010074   0.0073625  -0.0019455   0.0014542  -0.0054771
    3   0.0122653  -0.0069217  -0.0008034   0.0153193   0.0013991   0.0117294
            7           8           9          10          11          12
    1   0.0000172  -0.0132607  -0.0131922   0.0001228   0.0148255   0.0071413
    2  -0.0031763  -0.0103864  -0.0061682   0.0025033   0.0127267   0.0174430
    3  -0.0075183  -0.0069116  -0.0127190  -0.0080435   0.0058622   0.0115803
           13
    1  -0.0058228
    2  -0.0195453
    3  -0.0152380
 Max gradient component =       1.955E-02
 RMS gradient           =       9.020E-03
 Computing fast CPCM-SWIG gradient
 Updating gradient with PCM contributions...
 -- total gradient after adding PCM contribution --
---------------------------------------------------
  Atom         X              Y              Z     
---------------------------------------------------
   1       0.000008      -0.000011       0.000010
   2      -0.000002       0.000013      -0.000042
   3      -0.000026      -0.000034       0.000021
   4      -0.000008       0.000134       0.000041
   5      -0.000024       0.000015       0.000021
   6      -0.000071       0.000108       0.000062
   7      -0.000009      -0.000004      -0.000012
   8      -0.000001      -0.000001      -0.000014
   9       0.000011      -0.000007      -0.000038
  10       0.000091      -0.000197      -0.000078
  11       0.000020       0.000000       0.000002
  12       0.000013       0.000000       0.000037
  13      -0.000001      -0.000018      -0.000010
---------------------------------------------------
 Number of fixed atoms: 0
 Gradient time:  CPU 124.58 s  wall 19.92 s
 Geometry Optimization Parameters
   NAtoms,    NIC,     NZ,  NCons,   NDum,   NFix, NCnnct, MaxDiis
       13      66       0       0       0       0       0       0

 Cartesian Hessian Update
 Hessian updated using BFGS update


** GEOMETRY OPTIMIZATION IN DELOCALIZED INTERNAL COORDINATES **
   Searching for a Minimum

   Optimization Cycle:  13

                       Coordinates (Angstroms)
     ATOM                X               Y               Z
      1  C         0.1742585914    1.3954083047    1.1886351760
      2  C         0.7206360242    2.5291255905    0.5591766375
      3  C         1.5864198653    5.7442372941   -1.3367427662
      4  O         2.0302521124    5.5864157980   -0.2167662240
      5  O        -0.0623116198    1.3534627909    2.4259257436
      6  O         1.0117088970    3.6076785673    1.2461463367
      7  H        -0.0364484562    0.5447220130    0.5324336746
      8  H         0.7923785186    5.1360282423   -1.7710196736
      9  O         2.0068310031    6.6737168533   -2.1735030976
     10  H         1.3861424185    4.3217739531    0.6630906601
     11  H         2.7112796652    7.1980453208   -1.7565021409
     12  O         0.9748001120    2.5932127536   -0.7456867755
     13  H         0.7276086684    1.7664169186   -1.1851984506
   Point Group: c1    Number of degrees of freedom:    33


   Energy is   -493.469140980

 Hessian updated using BFGS update

 33 Hessian modes will be used to form the next step
  Hessian Eigenvalues:
     0.002060    0.009406    0.015540    0.020995    0.022387    0.023108
     0.025012    0.028907    0.039566    0.064835    0.084278    0.123054
     0.140037    0.154151    0.160227    0.162544    0.167881    0.196812
     0.219785    0.235918    0.252655    0.261823    0.339922    0.348572
     0.440854    0.473229    0.520661    0.526926    0.564267    0.590892
     0.612451    0.789638    0.947295

 Minimum search - taking simple RFO step
 Searching for Lamda that Minimizes Along All modes
 Value Taken    Lamda =  -0.00000087
 Step Taken.  Stepsize is  0.009375

                             Maximum     Tolerance    Cnvgd?
         Gradient           0.000113      0.000300     YES
         Displacement       0.005397      0.001200      NO
         Energy change     -0.000001      0.000001     YES


                       Distance Matrix (Angstroms)
             C (  1)   C (  2)   C (  3)   O (  4)   O (  5)   O (  6)
   C (  2)  1.407146
   C (  3)  5.223413  3.831584
   O (  4)  4.794206  3.415290  1.215007
   O (  5)  1.260402  2.340928  6.012894  5.411149
   O (  6)  2.366172  1.311460  3.400955  2.663258  2.761682
   H (  7)  1.094836  2.124088  5.758687  5.500112  2.059136  3.315075
   H (  8)  4.809768  3.497271  1.090420  2.037372  5.714250  3.389284
   O (  9)  6.520954  5.128301  1.319411  2.238658  7.330839  4.699453
   H ( 10)  3.210681  1.915016  2.462285  1.669834  3.743859  0.995031
   H ( 11)  6.984333  5.578875  1.885488  2.330651  7.703548  4.979475
   O ( 12)  2.411888  1.330930  3.263799  3.217608  3.559734  2.235599
   H ( 13)  2.465549  1.903843  4.072294  4.150558  3.719506  3.063070
             H (  7)   H (  8)   O (  9)   H ( 10)   H ( 11)   O ( 12)
   H (  8)  5.203167
   O (  9)  7.004403  2.000343
   H ( 10)  4.038187  2.634475  3.736730
   H ( 11)  7.553539  2.816790  0.972141  3.985393
   O ( 12)  2.617734  2.747817  4.444577  2.267549  5.024101
   H ( 13)  2.242004  3.420769  5.166696  3.221752  5.810673  0.968435

 
 Final energy is   -493.469140979749     


 ******************************
 **  OPTIMIZATION CONVERGED  **
 ******************************

                       Coordinates (Angstroms)
     ATOM                X               Y               Z
      1  C         0.1742585914    1.3954083047    1.1886351760
      2  C         0.7206360242    2.5291255905    0.5591766375
      3  C         1.5864198653    5.7442372941   -1.3367427662
      4  O         2.0302521124    5.5864157980   -0.2167662240
      5  O        -0.0623116198    1.3534627909    2.4259257436
      6  O         1.0117088970    3.6076785673    1.2461463367
      7  H        -0.0364484562    0.5447220130    0.5324336746
      8  H         0.7923785186    5.1360282423   -1.7710196736
      9  O         2.0068310031    6.6737168533   -2.1735030976
     10  H         1.3861424185    4.3217739531    0.6630906601
     11  H         2.7112796652    7.1980453208   -1.7565021409
     12  O         0.9748001120    2.5932127536   -0.7456867755
     13  H         0.7276086684    1.7664169186   -1.1851984506

Z-matrix Print:
$molecule
0 2
O 
H  1 0.995031
C  1 1.311460 2 111.517567
O  3 1.330930 1 115.567640 2 0.055477 0
H  4 0.968435 3 110.799263 1 -179.490770 0
C  3 1.407146 1 120.961294 2 -179.834520 0
H  6 1.094836 3 115.634767 1 179.921222 0
O  6 1.260402 3 122.603312 1 0.020270 0
O  2 1.669834 1 175.886889 3 -176.584899 0
C  9 1.215007 2 116.306326 1 -146.905663 0
H  10 1.090420 9 124.102079 2 1.752759 0
O  10 1.319411 9 124.035061 2 -178.319482 0
H  12 0.972141 10 109.804624 9 -0.047231 0
$end

 
 --------------------------------------------------------------
 
                    Orbital Energies (a.u.)
 --------------------------------------------------------------
 
 Alpha MOs
 -- Occupied --
-19.3972 -19.3956 -19.3819 -19.3539 -19.3191 -10.4966 -10.4858 -10.4078
 -1.2673  -1.2611  -1.1908  -1.1736  -1.1502  -0.8610  -0.7915  -0.7483
 -0.7147  -0.6465  -0.6341  -0.6076  -0.5981  -0.5793  -0.5652  -0.5314
 -0.5237  -0.5134  -0.4970  -0.4760  -0.4527  -0.4224  -0.3785  -0.2810
 -- Virtual --
  0.0288   0.0399   0.0495   0.0564   0.0628   0.0727   0.0854   0.0942
  0.1024   0.1166   0.1173   0.1232   0.1328   0.1445   0.1454   0.1653
  0.1677   0.1966   0.2058   0.2170   0.2251   0.2337   0.2429   0.2463
  0.2574   0.2665   0.2752   0.2841   0.2944   0.3033   0.3092   0.3127
  0.3178   0.3216   0.3338   0.3406   0.3450   0.3581   0.3612   0.3778
  0.3899   0.4100   0.4168   0.4356   0.4406   0.4500   0.4873   0.5034
  0.5105   0.5433   0.5843   0.5957   0.6063   0.6088   0.6254   0.6474
  0.6675   0.6710   0.6827   0.7035   0.7181   0.7265   0.7350   0.7580
  0.7775   0.7916   0.8135   0.8337   0.8416   0.8590   0.8661   0.8850
  0.9058   0.9186   0.9245   0.9405   0.9746   1.0050   1.0264   1.0589
  1.0862   1.0963   1.1075   1.1153   1.1289   1.1383   1.1542   1.1645
  1.1672   1.1764   1.1950   1.2033   1.2119   1.2197   1.2230   1.2325
  1.2572   1.2783   1.3031   1.3520   1.3681   1.3891   1.4198   1.4596
  1.5038   1.5172   1.5324   1.5601   1.5785   1.6056   1.6262   1.6635
  1.6749   1.6916   1.7293   1.7343   1.7575   1.7852   1.8232   1.8278
  1.8584   1.8705   1.9630   1.9829   2.0440   2.1089   2.1281   2.1526
  2.2134   2.2801   2.2861   2.2916   2.3383   2.3875   2.3976   2.4168
  2.4423   2.4963   2.5446   2.5710   2.5815   2.6493   2.7152   2.7389
  2.7784   2.8106   2.8302   2.8488   2.8502   2.8579   2.8886   2.9631
  2.9992   3.0107   3.1097   3.1189   3.1342   3.1401   3.2032   3.2271
  3.2473   3.2766   3.2890   3.3067   3.3110   3.3458   3.3760   3.3897
  3.4197   3.4243   3.4654   3.5145   3.5236   3.5593   3.5655   3.5721
  3.6246   3.6439   3.6631   3.7146   3.7447   3.7530   3.7680   3.8197
  3.8500   3.8632   3.9061   3.9362   3.9653   4.0154   4.0304   4.1720
  4.1777   4.2001   4.2163   4.2498   4.3205   4.3338   4.3429   4.3627
  4.4477   4.4607   4.5424   4.7588   4.8744   5.1020   5.1162   5.1226
  5.1350   5.1501   5.1633   5.1696   5.1839   5.1888   5.1966   5.2090
  5.2244   5.2332   5.2691   5.3178   5.3389   5.3467   5.3607   5.3784
  5.4305   5.4700   5.5143   5.5164   5.5221   5.5577   5.5659   5.6086
  5.6122   5.6325   5.6693   5.6956   5.7265   5.8904   5.9601   5.9654
  5.9945   6.0299   6.0709   6.1005   6.2728   6.3668   6.4228   6.6151
  6.7173   6.9008   6.9142   6.9399   6.9789   6.9924   7.0206   7.0333
  7.0518   7.0789   7.0916   7.1097   7.2330   7.2377   7.2459   7.2620
  7.2676   7.3047   7.3139   7.3367   7.3715   7.3759   7.4592   7.4893
  7.5457   7.6297   7.6576   7.7154   7.7547   7.7642   7.7978   7.8029
  7.8846   7.9835  24.8571  25.1086  25.1961  50.5524  50.5793  50.6023
 50.7065  50.7227
 
 Beta MOs
 -- Occupied --
-19.3972 -19.3927 -19.3792 -19.3539 -19.3103 -10.4966 -10.4805 -10.4054
 -1.2634  -1.2584  -1.1852  -1.1731  -1.1348  -0.8428  -0.7915  -0.7422
 -0.7101  -0.6463  -0.6332  -0.6007  -0.5798  -0.5722  -0.5584  -0.5290
 -0.5191  -0.5091  -0.4570  -0.4530  -0.4465  -0.4220  -0.3682
 -- Virtual --
 -0.0060   0.0289   0.0399   0.0498   0.0565   0.0629   0.0731   0.0867
  0.0964   0.1034   0.1158   0.1185   0.1259   0.1391   0.1457   0.1641
  0.1680   0.1743   0.1968   0.2072   0.2173   0.2252   0.2363   0.2447
  0.2494   0.2586   0.2674   0.2761   0.2872   0.2965   0.3041   0.3119
  0.3142   0.3188   0.3238   0.3350   0.3445   0.3460   0.3589   0.3632
  0.3798   0.3935   0.4126   0.4174   0.4369   0.4414   0.4540   0.4876
  0.5038   0.5173   0.5481   0.5863   0.5984   0.6085   0.6125   0.6286
  0.6526   0.6718   0.6770   0.6881   0.7065   0.7206   0.7301   0.7394
  0.7667   0.7805   0.7953   0.8156   0.8373   0.8433   0.8601   0.8700
  0.8861   0.9064   0.9219   0.9294   0.9420   0.9810   1.0062   1.0270
  1.0619   1.0886   1.0982   1.1091   1.1186   1.1293   1.1394   1.1565
  1.1667   1.1791   1.1824   1.1985   1.2067   1.2134   1.2225   1.2276
  1.2372   1.2603   1.2826   1.3056   1.3556   1.3717   1.3926   1.4243
  1.4601   1.5060   1.5214   1.5383   1.5647   1.5795   1.6081   1.6283
  1.6686   1.6795   1.6931   1.7327   1.7385   1.7703   1.7924   1.8235
  1.8366   1.8642   1.8821   1.9743   1.9900   2.0469   2.1114   2.1312
  2.1547   2.2187   2.2857   2.2880   2.2993   2.3450   2.3906   2.3994
  2.4177   2.4476   2.5013   2.5462   2.5736   2.5874   2.6559   2.7395
  2.7508   2.7836   2.8308   2.8502   2.8523   2.8734   2.8819   2.8972
  2.9636   3.0093   3.0293   3.1202   3.1228   3.1418   3.1588   3.2143
  3.2413   3.2491   3.2833   3.2937   3.3167   3.3271   3.3645   3.3870
  3.4098   3.4249   3.4340   3.4693   3.5321   3.5373   3.5632   3.5717
  3.5906   3.6289   3.6581   3.6808   3.7315   3.7559   3.7638   3.7682
  3.8317   3.8512   3.8691   3.9069   3.9432   3.9745   4.0162   4.0352
  4.1721   4.1790   4.2027   4.2261   4.2597   4.3208   4.3384   4.3578
  4.4010   4.4551   4.4624   4.5452   4.7680   4.9016   5.1035   5.1229
  5.1240   5.1363   5.1647   5.1850   5.1888   5.1935   5.2028   5.2069
  5.2097   5.2303   5.2588   5.2792   5.3287   5.3477   5.3566   5.3641
  5.3816   5.4353   5.4764   5.5153   5.5193   5.5390   5.5639   5.5798
  5.6088   5.6238   5.6351   5.6768   5.7052   5.7359   5.9014   5.9603
  5.9789   5.9947   6.0430   6.0709   6.1044   6.2948   6.3668   6.4308
  6.6222   6.7174   6.9050   6.9225   6.9796   7.0011   7.0031   7.0237
  7.0338   7.0636   7.0875   7.1064   7.1143   7.2355   7.2403   7.2580
  7.2681   7.2787   7.3072   7.3200   7.3431   7.3801   7.4005   7.4597
  7.4973   7.5555   7.6304   7.6670   7.7201   7.7566   7.7712   7.7981
  7.8069   7.8929   7.9872  24.8597  25.1086  25.2012  50.5525  50.5824
 50.6049  50.7115  50.7232
 --------------------------------------------------------------
 
          Ground-State Mulliken Net Atomic Charges

     Atom                 Charge (a.u.)    Spin (a.u.)
  --------------------------------------------------------
      1 C                    -0.099486       0.196794
      2 C                     0.340334       0.352030
      3 C                     0.233908       0.000413
      4 O                    -0.478555       0.000024
      5 O                    -0.547006       0.303939
      6 O                    -0.444311       0.078722
      7 H                     0.186355      -0.007912
      8 H                     0.235608       0.000261
      9 O                    -0.296158      -0.000085
     10 H                     0.481442      -0.000475
     11 H                     0.368141       0.000012
     12 O                    -0.329955       0.078377
     13 H                     0.349684      -0.002101
  --------------------------------------------------------
  Sum of atomic charges =    -0.000000
  Sum of spin   charges =     1.000000

 -----------------------------------------------------------------
                    Cartesian Multipole Moments
 -----------------------------------------------------------------
    Charge (ESU x 10^10)
                -0.0000
    Dipole Moment (Debye)
         X       1.9916      Y       3.4634      Z     -10.2313
       Tot      10.9836
    Quadrupole Moments (Debye-Ang)
        XX     -42.1999     XY      12.6260     YY     -11.7789
        XZ      -4.9665     YZ     -25.3049     ZZ     -63.6187
    Octopole Moments (Debye-Ang^2)
       XXX    -128.2308    XXY    -127.9854    XYY      57.0319
       YYY    -225.6506    XXZ     -20.7780    XYZ     -34.0184
       YYZ    -108.6238    XZZ     -45.3072    YZZ    -197.8603
       ZZZ     -65.1849
    Hexadecapole Moments (Debye-Ang^3)
      XXXX    -444.7783   XXXY    -578.6417   XXYY    -528.7012
      XYYY     151.9789   YYYY   -2630.2072   XXXZ      56.8720
      XXYZ     -24.3625   XYYZ    -206.6222   YYYZ    -323.3365
      XXZZ    -176.6460   XYZZ    -228.0291   YYZZ    -973.7347
      XZZZ     111.1246   YZZZ     213.2371   ZZZZ    -780.7939
 -----------------------------------------------------------------
 Total job time:  1869.84s(wall), 13823.17s(cpu) 
 Thu Nov 30 12:20:52 2023

        *************************************************************
        *                                                           *
        *  Thank you very much for using Q-Chem.  Have a nice day.  *
        *                                                           *
        *************************************************************


