
Running Job 1 of 1 Q_in.in
qchem Q_in.in_38853.0 /scratch/ari.fischer/qChem1912907.hpc-mn1/qchem38853/ 0
/usr/local/qchem-5.4.1/exe/qcprog.exe_s Q_in.in_38853.0 /scratch/ari.fischer/qChem1912907.hpc-mn1/qchem38853/
                  Welcome to Q-Chem
     A Quantum Leap Into The Future Of Chemistry


 Q-Chem 5.4, Q-Chem, Inc., Pleasanton, CA (2021)

 License issued to: Nanyang Technological University (site)

 E. Epifanovsky,  A. T. B. Gilbert,  Xintian Feng,  Joonho Lee,  Yuezhi Mao,  
 N. Mardirossian,  P. Pokhilko,  A. White,  M. Wormit,  M. P. Coons,  
 A. L. Dempwolff,  Zhengting Gan,  D. Hait,  P. R. Horn,  L. D. Jacobson,  
 I. Kaliman,  J. Kussmann,  A. W. Lange,  Ka Un Lao,  D. S. Levine,  Jie Liu,  
 S. C. McKenzie,  A. F. Morrison,  K. Nanda,  F. Plasser,  D. R. Rehn,  
 M. L. Vidal,  Zhi-Qiang You,  Ying Zhu,  B. Alam,  B. Albrecht,  
 A. Aldossary,  E. Alguire,  J. H. Andersen,  D. Barton,  K. Begam,  A. Behn,  
 Y. A. Bernard,  E. J. Berquist,  H. Burton,  A. Carreras,  K. Carter-Fenk,  
 R. Chakraborty,  A. D. Chien,  K. D. Closser,  V. Cofer-Shabica,  
 S. Dasgupta,  Jia Deng,  M. de Wergifosse,  M. Diedenhofen,  Hainam Do,  
 S. Ehlert,  Po-Tung Fang,  S. Fatehi,  Qingguo Feng,  T. Friedhoff,  
 J. Gayvert,  Qinghui Ge,  G. Gidofalvi,  M. Goldey,  J. Gomes,  
 C. Gonzalez-Espinoza,  S. Gulania,  A. Gunina,  M. W. D. Hanson-Heine,  
 P. H. P. Harbach,  A. W. Hauser,  M. F. Herbst,  M. Hernandez Vera,  
 M. Hodecker,  Z. C. Holden,  S. Houck,  Xunkun Huang,  Kerwin Hui,  
 B. C. Huynh,  M. Ivanov,  Hyunjun Ji,  Hanjie Jiang,  B. Kaduk,  S. Kaehler,  
 K. Khistyaev,  Jaehoon Kim,  P. Klunzinger,  Z. Koczor-Benda,  
 Joong Hoon Koh,  D. Kosenkov,  L. Koulias,  T. Kowalczyk,  C. M. Krauter,  
 K. Kue,  A. Kunitsa,  T. Kus,  A. Landau,  K. V. Lawler,  D. Lefrancois,  
 S. Lehtola,  Rain Li,  Yi-Pei Li,  Jiashu Liang,  M. Liebenthal,  
 Hung-Hsuan Lin,  You-Sheng Lin,  Fenglai Liu,  Kuan-Yu Liu,  
 M. Loipersberger,  A. Luenser,  A. Manjanath,  P. Manohar,  E. Mansoor,  
 S. F. Manzer,  Shan-Ping Mao,  A. V. Marenich,  T. Markovich,  S. Mason,  
 S. A. Maurer,  P. F. McLaughlin,  M. F. S. J. Menger,  J.-M. Mewes,  
 S. A. Mewes,  P. Morgante,  J. W. Mullinax,  K. J. Oosterbaan,  G. Paran,  
 Alexander C. Paul,  Suranjan K. Paul,  F. Pavosevic,  Zheng Pei,  S. Prager,  
 E. I. Proynov,  E. Ramos,  B. Rana,  A. E. Rask,  A. Rettig,  R. M. Richard,  
 F. Rob,  E. Rossomme,  T. Scheele,  M. Scheurer,  M. Schneider,  
 N. Sergueev,  S. M. Sharada,  W. Skomorowski,  D. W. Small,  C. J. Stein,  
 Yu-Chuan Su,  E. J. Sundstrom,  Zhen Tao,  J. Thirman,  T. Tsuchimochi,  
 N. M. Tubman,  S. P. Veccham,  O. Vydrov,  J. Wenzel,  J. Witte,  A. Yamada,  
 Kun Yao,  S. Yeganeh,  S. R. Yost,  A. Zech,  Igor Ying Zhang,  Xing Zhang,  
 Yu Zhang,  D. Zuev,  A. Aspuru-Guzik,  A. T. Bell,  N. A. Besley,  
 K. B. Bravaya,  B. R. Brooks,  D. Casanova,  Jeng-Da Chai,  S. Coriani,  
 C. J. Cramer,  A. E. DePrince, III,  R. A. DiStasio Jr.,  A. Dreuw,  
 B. D. Dunietz,  T. R. Furlani,  W. A. Goddard III,  S. Grimme,  
 S. Hammes-Schiffer,  T. Head-Gordon,  W. J. Hehre,  Chao-Ping Hsu,  
 T.-C. Jagau,  Yousung Jung,  A. Klamt,  Jing Kong,  D. S. Lambrecht,  
 WanZhen Liang,  N. J. Mayhall,  C. W. McCurdy,  J. B. Neaton,  
 C. Ochsenfeld,  J. A. Parkhill,  R. Peverati,  V. A. Rassolov,  Yihan Shao,  
 L. V. Slipchenko,  T. Stauch,  R. P. Steele,  J. E. Subotnik,  
 A. J. W. Thom,  A. Tkatchenko,  D. G. Truhlar,  T. Van Voorhis,  
 T. A. Wesolowski,  K. B. Whaley,  H. L. Woodcock III,  P. M. Zimmerman,  
 S. Faraji,  P. M. W. Gill,  M. Head-Gordon,  J. M. Herbert,  A. I. Krylov

 Additional authors for Version 5.4.1: 
 S. Kotaru,  Shaozhi Li,  Xiangyuan Li,  F. Matz,  A. Molle,  Haisheng Ren,  
 Yingli Su,  Hung-Yi Tsai,  C. Utku,  Fang Wang

 Contributors to earlier versions of Q-Chem not listed above: 
 R. D. Adamson,  B. Austin,  R. Baer,  J. Baker,  G. J. O. Beran,  
 K. Brandhorst,  S. T. Brown,  E. F. C. Byrd,  A. K. Chakraborty,  
 G. K. L. Chan,  Chun-Min Chang,  Yunqing Chen,  C.-L. Cheng,  
 Siu Hung Chien,  D. M. Chipman,  D. L. Crittenden,  H. Dachsel,  
 R. J. Doerksen,  A. D. Dutoi,  R. G. Edgar,  J. Fosso-Tande,  
 L. Fusti-Molnar,  D. Ghosh,  A. Ghysels,  A. Golubeva-Zadorozhnaya,  
 J. Gonthier,  M. S. Gordon,  S. R. Gwaltney,  G. Hawkins,  J. E. Herr,  
 A. Heyden,  S. Hirata,  E. G. Hohenstein,  G. Kedziora,  F. J. Keil,  
 C. Kelley,  Jihan Kim,  R. A. King,  R. Z. Khaliullin,  P. P. Korambath,  
 W. Kurlancheek,  A. Laurent,  A. M. Lee,  M. S. Lee,  S. V. Levchenko,  
 Ching Yeh Lin,  D. Liotard,  E. Livshits,  R. C. Lochan,  I. Lotan,  
 L. A. Martinez-Martinez,  P. E. Maslen,  N. Nair,  D. P. O'Neill,  
 D. Neuhauser,  E. Neuscamman,  C. M. Oana,  R. Olivares-Amaya,  R. Olson,  
 T. M. Perrine,  B. Peters,  P. A. Pieniazek,  A. Prociuk,  Y. M. Rhee,  
 J. Ritchie,  M. A. Rohrdanz,  E. Rosta,  N. J. Russ,  H. F. Schaefer III,  
 M. W. Schmidt,  N. E. Schultz,  S. Sharma,  N. Shenvi,  C. D. Sherrill,  
 A. C. Simmonett,  A. Sodt,  T. Stein,  D. Stuck,  K. S. Thanthiriwatte,  
 V. Vanovschi,  L. Vogt,  Tao Wang,  A. Warshel,  M. A. Watson,  
 C. F. Williams,  Q. Wu,  X. Xu,  Jun Yang,  W. Zhang,  Yan Zhao

 Please cite Q-Chem as follows:
 Y. Shao et al., Mol. Phys. 113, 184-215 (2015)
 DOI: 10.1080/00268976.2014.952696

 Q-Chem 5.4.1 for Intel X86 EM64T Linux

 Parts of Q-Chem use Armadillo 9.800.1 (Horizon Scraper).
 http://arma.sourceforge.net/

 Q-Chem begins on Sun Feb  4 18:38:35 2024  

 Host: 
0

     Scratch files written to /scratch/ari.fischer/qChem1912907.hpc-mn1/qchem38853//
 Aug1521 |scratch|qcdevops|jenkins|workspace|build_RNUM 8249   
 Processing $rem in /usr/local/qchem-5.4.1/config/preferences:
 Processing $rem in /home/ari.fischer/.qchemrc:
 Symmetry turned off for PCM/SM12/SMD calculation

 Checking the input file for inconsistencies... 	...done.

--------------------------------------------------------------
User input:
--------------------------------------------------------------
$molecule
0 2
C         0.6072589961    0.0995536333    0.2712972596
O         1.4192510827   -0.7394525853    0.5581470688
H        -2.1260616732    1.1525978741    0.6669314370
C        -0.8871968854   -0.2005200305    0.1817492238
O        -1.1409735157   -1.4918035736    0.0903525274
O        -1.6789620209    0.6859210684   -0.2986863993
O         0.9279555595    1.3610302873    0.0358978246
H         0.1400538454    1.8737465506   -0.2114863691
O        -1.2145784868    0.1862517434    2.0046042293
O        -2.1040940641    1.1019168681    1.9304935257
H        -2.0845900376   -1.6251677360   -0.0954806277
$end

$rem
BASIS = def2-TZVPPD
JOB_TYPE = SP
METHOD = wB97M-V
SCF_ALGORITHM = DIIS_GDM
MAX_SCF_CYCLES = 400
SCF_CONVERGENCE = 7
THRESH = 12
Solvent_method = SMD
$end
--------------------------------------------------------------
 ----------------------------------------------------------------
             Standard Nuclear Orientation (Angstroms)
    I     Atom           X                Y                Z
 ----------------------------------------------------------------
    1      C       0.6072589961     0.0995536333     0.2712972596
    2      O       1.4192510827    -0.7394525853     0.5581470688
    3      H      -2.1260616732     1.1525978741     0.6669314370
    4      C      -0.8871968854    -0.2005200305     0.1817492238
    5      O      -1.1409735157    -1.4918035736     0.0903525274
    6      O      -1.6789620209     0.6859210684    -0.2986863993
    7      O       0.9279555595     1.3610302873     0.0358978246
    8      H       0.1400538454     1.8737465506    -0.2114863691
    9      O      -1.2145784868     0.1862517434     2.0046042293
   10      O      -2.1040940641     1.1019168681     1.9304935257
   11      H      -2.0845900376    -1.6251677360    -0.0954806277
 ----------------------------------------------------------------
 Nuclear Repulsion Energy =         412.38009705 hartrees
 There are       32 alpha and       31 beta electrons
 Requested basis set is def2-TZVPPD
 There are 131 shells and 365 basis functions

 Total QAlloc Memory Limit 288000 MB
 Mega-Array Size       188 MB
 MEM_STATIC part       192 MB
 
 Citation of the SMD model:
 Marenich, A.V.; Cramer, C.J.; Truhlar, D.G.
 J. Phys. Chem. B 2009, 113, 6378-6396.
 iSolventCode=           1
 Solvent: water                                                           
 
 vradii
            1           2           3           4           5           6
    1   1.8500000   1.5200000   1.2000000   1.8500000   1.5200000   1.5200000
            7           8           9          10          11
    1   1.5200000   1.2000000   1.5200000   1.5200000   1.2000000
 Changing PCM_VDW_RADII to SMD_RADIUS
 Discretize the solute cavity surface with Lebedev spheres
	Using 110 Lebedev grid points for each H atom
	Using 194 Lebedev grid points for other atoms
	Atomic van der Waals radii will be scaled by 1.20
 Remove points where switching function is < 1.0e-08
 Keep 991 surface tesserae and discard 891 interior tesserae
 Molecular Surface Area = 116.087 Angst**2

                       Distance Matrix (Angstroms)
             C (  1)   O (  2)   H (  3)   C (  4)   O (  5)   O (  6)
   O (  2)  1.202308
   H (  3)  2.955752  4.020066
   C (  4)  1.526912  2.398296  1.897661
   O (  5)  2.370965  2.709172  2.880226  1.319155
   O (  6)  2.428068  3.516359  1.161939  1.281986  2.276679
   O (  7)  1.322718  2.219492  3.125487  2.398852  3.524499  2.713621
   H (  8)  1.897135  3.009567  2.535144  2.347863  3.613733  2.174247
   O (  9)  2.516140  3.144237  1.885204  1.891976  2.546693  2.402180
   O ( 10)  3.333032  4.205703  1.264769  2.497056  3.322816  2.307170
   H ( 11)  3.217956  3.672686  2.880794  1.881549  0.970944  2.355198
             O (  7)   H (  8)   O (  9)   O ( 10)
   H (  8)  0.972042
   O (  9)  3.137891  3.097374
   O ( 10)  3.584684  3.196873  1.278739
   H ( 11)  4.243827  4.147879  2.906633  3.397343
 
 A cutoff of  1.0D-12 yielded   8148 shell pairs
 There are     64122 function pairs (     83179 Cartesian)
 Smallest overlap matrix eigenvalue = 5.14E-06

 Scale SEOQF with 1.000000e-01/1.000000e-01/1.000000e-01

 Standard Electronic Orientation quadrupole field applied
 Nucleus-field energy     =     0.0000000013 hartrees
 Guess from superposition of atomic densities
 Warning:  Energy on first SCF cycle will be non-variational
 SAD guess density has 63.000000 electrons

 -----------------------------------------------------------------------
  General SCF calculation program by
  Eric Jon Sundstrom, Paul Horn, Yuezhi Mao, Dmitri Zuev, Alec White,
  David Stuck, Shaama M.S., Shane Yost, Joonho Lee, David Small,
  Daniel Levine, Susi Lehtola, Hugh Burton, Evgeny Epifanovsky,
  Bang C. Huynh
 -----------------------------------------------------------------------
 Exchange:     0.1500 Hartree-Fock + 1.0000 wB97M-V + LR-HF
 Correlation:  1.0000 wB97M-V
 Using SG-2 standard quadrature grid
 Nonlocal Correlation:  VV10 with C = 0.0100 and b = 6.00 and scale = 1.00000
 Grid used for NLC:  SG-1 standard quadrature
 
 Citation of the SMD model:
 Marenich, A.V.; Cramer, C.J.; Truhlar, D.G.
 J. Phys. Chem. B 2009, 113, 6378-6396.
 iSolventCode=           1
 Solvent: water                                                           
 
 vradii
            1           2           3           4           5           6
    1   1.8500000   1.5200000   1.2000000   1.8500000   1.5200000   1.5200000
            7           8           9          10          11
    1   1.5200000   1.2000000   1.5200000   1.5200000   1.2000000
 using 4 threads for integral computing
 -------------------------------------------------------
 OpenMP Integral computing Module                
 Release: version 1.0, May 2013, Q-Chem Inc. Pittsburgh 
 -------------------------------------------------------
 -------------------------------------------------------
 OpenMP BLAS3 based DFT computing Module                
 Release: version 1.0, May 2013, Q-Chem Inc. Pittsburgh 
 -------------------------------------------------------
 A unrestricted SCF calculation will be
 performed using DIIS, GDM
 SCF converges when RMS gradient is below 1.0e-07
 ---------------------------------------
  Cycle       Energy         DIIS error
 ---------------------------------------
    1    -530.8391362651      1.25e-02  
    2    -529.1290278372      2.06e-03  Done DIIS. Switching to GDM
 ---------------------------------------
  Cycle       Energy        RMS Gradient
 ---------------------------------------
    1    -529.1290278372      1.47e-01   Descent step
    2    -529.3176465848      2.75e-02   Normal BFGS step
    3    -529.3413374524      1.34e-02   Normal BFGS step
    4    -529.3424096974      1.38e-02   Normal BFGS step
    5    -529.3435684547      2.88e-03   Normal BFGS step
    6    -529.3436027580      1.92e-03   Normal BFGS step
    7    -529.3436339244      8.76e-04   Normal BFGS step
    8    -529.3436391113      5.51e-04   Normal BFGS step
    9    -529.3436409226      3.12e-04   Normal BFGS step
   10    -529.3436413150      1.35e-04   Normal BFGS step
   11    -529.3436414038      7.51e-05   Normal BFGS step
   12    -529.3436414229      2.96e-05   Normal BFGS step
   13    -529.3436414275      2.60e-05   Normal BFGS step
   14    -529.3436414290      1.93e-05   Normal BFGS step
   15    -529.3436414299      1.19e-05   Normal BFGS step
   16    -529.3436414304      3.52e-06   Normal BFGS step
   17    -529.3436414305      1.73e-06   Normal BFGS step
   18    -529.3436414305      9.67e-07   Normal BFGS step
   19    -529.3436414305      4.08e-07   Normal BFGS step
   20    -529.3436414304      2.00e-07   Normal BFGS step
   21    -529.3436414303      5.92e-08  Convergence criterion met
 ---------------------------------------
 SCF time:   CPU 1962.20s  wall 493.00s 
<S^2> =          0.755970986
(3)  G-ENP(liq) elect-nuc-pol free energy of system     -529.343641430 a.u.
(4)  G-CDS(liq) cavity-dispersion-solvent structure 
     free energy                                                4.6432 kcal/mol
(6)  G-S(liq) free energy of system                     -529.336242048 a.u.
 SCF   energy in the final basis set =     -529.3362420483
 Total energy in the final basis set =     -529.3362420483
 
 --------------------------------------------------------------
 
                    Orbital Energies (a.u.)
 --------------------------------------------------------------
 
 Alpha MOs
 -- Occupied --
-19.4540 -19.4484 -19.3982 -19.3975 -19.3660 -19.3488 -10.5355 -10.5094
 -1.3668  -1.2775  -1.2509  -1.1931  -1.1732  -0.9761  -0.8451  -0.7535
 -0.7313  -0.7013  -0.6657  -0.6312  -0.6234  -0.6006  -0.5840  -0.5582
 -0.5313  -0.5144  -0.4922  -0.4703  -0.4514  -0.4199  -0.4035  -0.3933
 -- Virtual --
  0.0220   0.0358   0.0533   0.0558   0.0654   0.0844   0.0920   0.0993
  0.1000   0.1044   0.1343   0.1385   0.1410   0.1444   0.1495   0.1547
  0.1619   0.1653   0.1808   0.1868   0.1960   0.2026   0.2069   0.2301
  0.2394   0.2468   0.2553   0.2615   0.2629   0.2754   0.2928   0.3011
  0.3133   0.3221   0.3265   0.3341   0.3471   0.3507   0.3568   0.3588
  0.3631   0.3826   0.3869   0.3950   0.3976   0.4044   0.4219   0.4268
  0.4334   0.4366   0.4549   0.4572   0.4737   0.4812   0.4848   0.4959
  0.5059   0.5166   0.5222   0.5308   0.5483   0.5591   0.5674   0.5720
  0.5800   0.5962   0.6019   0.6083   0.6150   0.6159   0.6358   0.6417
  0.6533   0.6657   0.6745   0.6884   0.6900   0.6976   0.7055   0.7119
  0.7166   0.7236   0.7339   0.7518   0.7570   0.7656   0.7836   0.7991
  0.8085   0.8104   0.8444   0.8456   0.8593   0.8689   0.8812   0.8891
  0.9095   0.9306   0.9456   0.9476   0.9766   0.9842   1.0017   1.0057
  1.0213   1.0315   1.0463   1.0579   1.0741   1.0890   1.1043   1.1193
  1.1294   1.1459   1.1487   1.1727   1.1793   1.2003   1.2190   1.2357
  1.2500   1.2872   1.2991   1.3089   1.3175   1.3229   1.3430   1.3678
  1.3885   1.4148   1.4240   1.4536   1.4771   1.4936   1.5248   1.5648
  1.5829   1.6119   1.6530   1.6610   1.7182   1.7413   1.7626   1.7926
  1.8256   1.8710   1.8792   1.9058   1.9219   1.9486   2.0038   2.0399
  2.0690   2.0803   2.1111   2.1257   2.1495   2.1729   2.2332   2.2397
  2.2785   2.2932   2.2990   2.3227   2.3351   2.3688   2.3833   2.4343
  2.4367   2.4518   2.4909   2.5238   2.5498   2.5604   2.6349   2.6571
  2.7268   2.7453   2.8213   2.8345   2.8960   2.9014   2.9642   3.0179
  3.0425   3.0640   3.0769   3.1183   3.1523   3.1734   3.1939   3.2112
  3.2236   3.2389   3.2521   3.2818   3.3123   3.3217   3.3344   3.3657
  3.3717   3.3849   3.3963   3.4207   3.4280   3.4708   3.4871   3.4883
  3.5397   3.5641   3.5879   3.5986   3.6206   3.6397   3.6564   3.6778
  3.7077   3.7225   3.7344   3.7531   3.8260   3.8539   3.8796   3.9217
  3.9535   3.9914   4.0231   4.0383   4.0582   4.0723   4.1552   4.1832
  4.1975   4.2108   4.2379   4.3316   4.3594   4.4515   4.4979   4.5370
  4.5953   4.6084   4.6401   4.6857   4.7261   4.8210   4.8393   4.8533
  4.8690   4.9330   4.9707   5.0077   5.0561   5.1196   5.1519   5.1628
  5.2148   5.2737   5.3254   5.3399   5.3680   5.4116   5.4766   5.4930
  5.5778   5.5865   5.6656   5.7002   5.7220   5.7397   5.7730   5.8069
  5.9559   5.9762   6.0724   6.0970   6.1506   6.2002   6.2750   6.3056
  6.3093   6.3385   6.3618   6.4698   6.5092   6.5265   6.5331   6.5745
  6.6340   6.6502   6.6591   6.6869   6.7018   6.7231   6.7396   6.7471
  6.7652   6.7850   6.8332   6.8811   6.9069   6.9163   6.9480   6.9816
  7.0340   7.0531   7.0750   7.1097   7.1856   7.2283   7.2446   7.2739
  7.2770   7.3194   7.3463   7.3791   7.4491   7.5702   7.6135   7.6206
  7.7367   7.7685   7.8452   7.9312   8.7861  23.6372  23.8860  44.4174
 44.6402  44.7030  44.7686  44.9606  45.0143
 
 Beta MOs
 -- Occupied --
-19.4385 -19.4333 -19.3982 -19.3976 -19.3661 -19.3487 -10.5359 -10.5094
 -1.3399  -1.2759  -1.2506  -1.1928  -1.1731  -0.9377  -0.8415  -0.7535
 -0.7245  -0.6997  -0.6637  -0.6042  -0.6007  -0.5836  -0.5594  -0.5453
 -0.5214  -0.5132  -0.4864  -0.4685  -0.4511  -0.4121  -0.3820
 -- Virtual --
 -0.0374   0.0261   0.0360   0.0536   0.0560   0.0660   0.0848   0.0923
  0.0997   0.1006   0.1052   0.1345   0.1388   0.1415   0.1448   0.1504
  0.1548   0.1642   0.1663   0.1811   0.1890   0.1966   0.2028   0.2074
  0.2344   0.2400   0.2498   0.2564   0.2630   0.2649   0.2784   0.2932
  0.3018   0.3136   0.3227   0.3268   0.3358   0.3505   0.3514   0.3572
  0.3606   0.3655   0.3828   0.3875   0.3956   0.3984   0.4049   0.4236
  0.4277   0.4348   0.4366   0.4561   0.4585   0.4745   0.4828   0.4853
  0.4965   0.5074   0.5183   0.5236   0.5312   0.5488   0.5614   0.5705
  0.5725   0.5816   0.5967   0.6030   0.6086   0.6157   0.6170   0.6366
  0.6425   0.6537   0.6667   0.6753   0.6892   0.6906   0.6985   0.7061
  0.7124   0.7172   0.7242   0.7343   0.7533   0.7581   0.7694   0.7848
  0.7995   0.8094   0.8112   0.8445   0.8459   0.8606   0.8695   0.8819
  0.8896   0.9113   0.9331   0.9471   0.9484   0.9787   0.9854   1.0045
  1.0069   1.0224   1.0328   1.0474   1.0582   1.0749   1.0909   1.1054
  1.1203   1.1298   1.1475   1.1511   1.1731   1.1855   1.2013   1.2211
  1.2367   1.2504   1.2878   1.2995   1.3105   1.3194   1.3230   1.3437
  1.3684   1.3899   1.4150   1.4266   1.4576   1.4774   1.4953   1.5268
  1.5662   1.5877   1.6141   1.6592   1.6773   1.7204   1.7503   1.7707
  1.7951   1.8287   1.8727   1.8820   1.9064   1.9240   1.9499   2.0064
  2.0527   2.0707   2.0816   2.1219   2.1293   2.1511   2.1773   2.2354
  2.2464   2.2851   2.2953   2.3152   2.3266   2.3372   2.3705   2.3852
  2.4384   2.4396   2.4538   2.4971   2.5275   2.5519   2.5642   2.6372
  2.6597   2.7278   2.7475   2.8237   2.8368   2.9018   2.9289   2.9736
  3.0195   3.0475   3.0681   3.0951   3.1221   3.1598   3.1765   3.2057
  3.2135   3.2304   3.2404   3.2541   3.2838   3.3137   3.3270   3.3387
  3.3663   3.3752   3.3893   3.4002   3.4262   3.4306   3.4730   3.4899
  3.4935   3.5433   3.5674   3.5910   3.5999   3.6221   3.6410   3.6572
  3.6791   3.7078   3.7233   3.7359   3.7571   3.8338   3.8561   3.8809
  3.9244   3.9541   3.9919   4.0255   4.0407   4.0588   4.0715   4.1556
  4.1837   4.1993   4.2115   4.2367   4.3323   4.3668   4.4512   4.5011
  4.5435   4.5966   4.6108   4.6403   4.6877   4.7312   4.8405   4.8538
  4.8694   4.8835   4.9362   4.9788   5.0276   5.0674   5.1289   5.1550
  5.1711   5.2234   5.2750   5.3328   5.3540   5.3908   5.4150   5.4908
  5.5167   5.5836   5.6000   5.6692   5.7007   5.7252   5.7667   5.7773
  5.8085   5.9581   5.9910   6.0725   6.0974   6.1578   6.2131   6.2791
  6.3091   6.3236   6.3602   6.3914   6.4755   6.5098   6.5304   6.5649
  6.5902   6.6493   6.6740   6.6884   6.7100   6.7332   6.7465   6.7513
  6.7698   6.7867   6.7951   6.8404   6.8898   6.9117   6.9164   6.9590
  6.9848   7.0343   7.0614   7.0822   7.1100   7.2019   7.2371   7.2641
  7.2780   7.2795   7.3397   7.3498   7.3818   7.4526   7.5712   7.6184
  7.6249   7.7429   7.7693   7.8452   7.9377   8.8055  23.6369  23.8860
 44.4303  44.6407  44.7031  44.7721  44.9686  45.0157
 --------------------------------------------------------------
 
          Ground-State Mulliken Net Atomic Charges

     Atom                 Charge (a.u.)    Spin (a.u.)
  --------------------------------------------------------
      1 C                     0.572677      -0.001448
      2 O                    -0.647779       0.001117
      3 H                     0.371673      -0.015614
      4 C                     0.928344      -0.004853
      5 O                    -0.363832      -0.004045
      6 O                    -0.652651      -0.002900
      7 O                    -0.370878       0.000870
      8 H                     0.259978      -0.001809
      9 O                    -0.170842       0.509275
     10 O                    -0.152516       0.518089
     11 H                     0.225828       0.001318
  --------------------------------------------------------
  Sum of atomic charges =     0.000000
  Sum of spin   charges =     1.000000

 -----------------------------------------------------------------
                    Cartesian Multipole Moments
 -----------------------------------------------------------------
    Charge (ESU x 10^10)
                 0.0000
    Dipole Moment (Debye)
         X      -5.2113      Y       1.7875      Z      -2.3653
       Tot       5.9956
    Quadrupole Moments (Debye-Ang)
        XX     -44.9161     XY       5.1644     YY     -41.8097
        XZ      -0.2055     YZ       0.8417     ZZ     -50.4889
    Octopole Moments (Debye-Ang^2)
       XXX      44.0918    XXY     -17.8146    XYY       9.7804
       YYY      -7.7931    XXZ     -31.1452    XYZ       1.0213
       YYZ     -30.3824    XZZ      32.6059    YZZ      -8.7489
       ZZZ     -91.8908
    Hexadecapole Moments (Debye-Ang^3)
      XXXX    -500.6878   XXXY      55.5467   XXYY    -115.3519
      XYYY      32.6667   YYYY    -246.6209   XXXZ      86.0667
      XXYZ      -8.0068   XYYZ      30.4445   YYYZ     -30.4453
      XXZZ    -159.6478   XYZZ      17.8096   YYZZ    -102.4863
      XZZZ     108.5092   YZZZ     -36.7505   ZZZZ    -342.6248
 -----------------------------------------------------------------
 Total job time:  494.39s(wall), 1965.20s(cpu) 
 Sun Feb  4 18:46:49 2024

        *************************************************************
        *                                                           *
        *  Thank you very much for using Q-Chem.  Have a nice day.  *
        *                                                           *
        *************************************************************


