
Running Job 1 of 1 Q_in.in
qchem Q_in.in_13041.0 /scratch/ari.fischer/qChem1591789.hpc-mn1/qchem13041/ 0
/usr/local/qchem-5.4.1/exe/qcprog.exe_s Q_in.in_13041.0 /scratch/ari.fischer/qChem1591789.hpc-mn1/qchem13041/
                  Welcome to Q-Chem
     A Quantum Leap Into The Future Of Chemistry


 Q-Chem 5.4, Q-Chem, Inc., Pleasanton, CA (2021)

 License issued to: Nanyang Technological University (site)

 E. Epifanovsky,  A. T. B. Gilbert,  Xintian Feng,  Joonho Lee,  Yuezhi Mao,  
 N. Mardirossian,  P. Pokhilko,  A. White,  M. Wormit,  M. P. Coons,  
 A. L. Dempwolff,  Zhengting Gan,  D. Hait,  P. R. Horn,  L. D. Jacobson,  
 I. Kaliman,  J. Kussmann,  A. W. Lange,  Ka Un Lao,  D. S. Levine,  Jie Liu,  
 S. C. McKenzie,  A. F. Morrison,  K. Nanda,  F. Plasser,  D. R. Rehn,  
 M. L. Vidal,  Zhi-Qiang You,  Ying Zhu,  B. Alam,  B. Albrecht,  
 A. Aldossary,  E. Alguire,  J. H. Andersen,  D. Barton,  K. Begam,  A. Behn,  
 Y. A. Bernard,  E. J. Berquist,  H. Burton,  A. Carreras,  K. Carter-Fenk,  
 R. Chakraborty,  A. D. Chien,  K. D. Closser,  V. Cofer-Shabica,  
 S. Dasgupta,  Jia Deng,  M. de Wergifosse,  M. Diedenhofen,  Hainam Do,  
 S. Ehlert,  Po-Tung Fang,  S. Fatehi,  Qingguo Feng,  T. Friedhoff,  
 J. Gayvert,  Qinghui Ge,  G. Gidofalvi,  M. Goldey,  J. Gomes,  
 C. Gonzalez-Espinoza,  S. Gulania,  A. Gunina,  M. W. D. Hanson-Heine,  
 P. H. P. Harbach,  A. W. Hauser,  M. F. Herbst,  M. Hernandez Vera,  
 M. Hodecker,  Z. C. Holden,  S. Houck,  Xunkun Huang,  Kerwin Hui,  
 B. C. Huynh,  M. Ivanov,  Hyunjun Ji,  Hanjie Jiang,  B. Kaduk,  S. Kaehler,  
 K. Khistyaev,  Jaehoon Kim,  P. Klunzinger,  Z. Koczor-Benda,  
 Joong Hoon Koh,  D. Kosenkov,  L. Koulias,  T. Kowalczyk,  C. M. Krauter,  
 K. Kue,  A. Kunitsa,  T. Kus,  A. Landau,  K. V. Lawler,  D. Lefrancois,  
 S. Lehtola,  Rain Li,  Yi-Pei Li,  Jiashu Liang,  M. Liebenthal,  
 Hung-Hsuan Lin,  You-Sheng Lin,  Fenglai Liu,  Kuan-Yu Liu,  
 M. Loipersberger,  A. Luenser,  A. Manjanath,  P. Manohar,  E. Mansoor,  
 S. F. Manzer,  Shan-Ping Mao,  A. V. Marenich,  T. Markovich,  S. Mason,  
 S. A. Maurer,  P. F. McLaughlin,  M. F. S. J. Menger,  J.-M. Mewes,  
 S. A. Mewes,  P. Morgante,  J. W. Mullinax,  K. J. Oosterbaan,  G. Paran,  
 Alexander C. Paul,  Suranjan K. Paul,  F. Pavosevic,  Zheng Pei,  S. Prager,  
 E. I. Proynov,  E. Ramos,  B. Rana,  A. E. Rask,  A. Rettig,  R. M. Richard,  
 F. Rob,  E. Rossomme,  T. Scheele,  M. Scheurer,  M. Schneider,  
 N. Sergueev,  S. M. Sharada,  W. Skomorowski,  D. W. Small,  C. J. Stein,  
 Yu-Chuan Su,  E. J. Sundstrom,  Zhen Tao,  J. Thirman,  T. Tsuchimochi,  
 N. M. Tubman,  S. P. Veccham,  O. Vydrov,  J. Wenzel,  J. Witte,  A. Yamada,  
 Kun Yao,  S. Yeganeh,  S. R. Yost,  A. Zech,  Igor Ying Zhang,  Xing Zhang,  
 Yu Zhang,  D. Zuev,  A. Aspuru-Guzik,  A. T. Bell,  N. A. Besley,  
 K. B. Bravaya,  B. R. Brooks,  D. Casanova,  Jeng-Da Chai,  S. Coriani,  
 C. J. Cramer,  A. E. DePrince, III,  R. A. DiStasio Jr.,  A. Dreuw,  
 B. D. Dunietz,  T. R. Furlani,  W. A. Goddard III,  S. Grimme,  
 S. Hammes-Schiffer,  T. Head-Gordon,  W. J. Hehre,  Chao-Ping Hsu,  
 T.-C. Jagau,  Yousung Jung,  A. Klamt,  Jing Kong,  D. S. Lambrecht,  
 WanZhen Liang,  N. J. Mayhall,  C. W. McCurdy,  J. B. Neaton,  
 C. Ochsenfeld,  J. A. Parkhill,  R. Peverati,  V. A. Rassolov,  Yihan Shao,  
 L. V. Slipchenko,  T. Stauch,  R. P. Steele,  J. E. Subotnik,  
 A. J. W. Thom,  A. Tkatchenko,  D. G. Truhlar,  T. Van Voorhis,  
 T. A. Wesolowski,  K. B. Whaley,  H. L. Woodcock III,  P. M. Zimmerman,  
 S. Faraji,  P. M. W. Gill,  M. Head-Gordon,  J. M. Herbert,  A. I. Krylov

 Additional authors for Version 5.4.1: 
 S. Kotaru,  Shaozhi Li,  Xiangyuan Li,  F. Matz,  A. Molle,  Haisheng Ren,  
 Yingli Su,  Hung-Yi Tsai,  C. Utku,  Fang Wang

 Contributors to earlier versions of Q-Chem not listed above: 
 R. D. Adamson,  B. Austin,  R. Baer,  J. Baker,  G. J. O. Beran,  
 K. Brandhorst,  S. T. Brown,  E. F. C. Byrd,  A. K. Chakraborty,  
 G. K. L. Chan,  Chun-Min Chang,  Yunqing Chen,  C.-L. Cheng,  
 Siu Hung Chien,  D. M. Chipman,  D. L. Crittenden,  H. Dachsel,  
 R. J. Doerksen,  A. D. Dutoi,  R. G. Edgar,  J. Fosso-Tande,  
 L. Fusti-Molnar,  D. Ghosh,  A. Ghysels,  A. Golubeva-Zadorozhnaya,  
 J. Gonthier,  M. S. Gordon,  S. R. Gwaltney,  G. Hawkins,  J. E. Herr,  
 A. Heyden,  S. Hirata,  E. G. Hohenstein,  G. Kedziora,  F. J. Keil,  
 C. Kelley,  Jihan Kim,  R. A. King,  R. Z. Khaliullin,  P. P. Korambath,  
 W. Kurlancheek,  A. Laurent,  A. M. Lee,  M. S. Lee,  S. V. Levchenko,  
 Ching Yeh Lin,  D. Liotard,  E. Livshits,  R. C. Lochan,  I. Lotan,  
 L. A. Martinez-Martinez,  P. E. Maslen,  N. Nair,  D. P. O'Neill,  
 D. Neuhauser,  E. Neuscamman,  C. M. Oana,  R. Olivares-Amaya,  R. Olson,  
 T. M. Perrine,  B. Peters,  P. A. Pieniazek,  A. Prociuk,  Y. M. Rhee,  
 J. Ritchie,  M. A. Rohrdanz,  E. Rosta,  N. J. Russ,  H. F. Schaefer III,  
 M. W. Schmidt,  N. E. Schultz,  S. Sharma,  N. Shenvi,  C. D. Sherrill,  
 A. C. Simmonett,  A. Sodt,  T. Stein,  D. Stuck,  K. S. Thanthiriwatte,  
 V. Vanovschi,  L. Vogt,  Tao Wang,  A. Warshel,  M. A. Watson,  
 C. F. Williams,  Q. Wu,  X. Xu,  Jun Yang,  W. Zhang,  Yan Zhao

 Please cite Q-Chem as follows:
 Y. Shao et al., Mol. Phys. 113, 184-215 (2015)
 DOI: 10.1080/00268976.2014.952696

 Q-Chem 5.4.1 for Intel X86 EM64T Linux

 Parts of Q-Chem use Armadillo 9.800.1 (Horizon Scraper).
 http://arma.sourceforge.net/

 Q-Chem begins on Mon Jun 19 18:25:36 2023  

 Host: 
0

     Scratch files written to /scratch/ari.fischer/qChem1591789.hpc-mn1/qchem13041//
 Aug1521 |scratch|qcdevops|jenkins|workspace|build_RNUM 8249   
 Processing $rem in /usr/local/qchem-5.4.1/config/preferences:
 Processing $rem in /home/ari.fischer/.qchemrc:
 Symmetry turned off for PCM/SM12/SMD calculation

 Checking the input file for inconsistencies... 	...done.

--------------------------------------------------------------
User input:
--------------------------------------------------------------
$molecule
-1 2
C         0.0442909291    0.2183440684    0.2481717472
O         1.2240985819    0.0849788705    0.9053511110
H        -1.1443148078    1.2973513062   -0.6256563113
C        -0.8424152310   -0.8887051750   -0.0300033516
O        -0.5281989430   -2.0547924961    0.3611950236
O        -1.9028072997   -0.5489513432   -0.6730634035
O        -0.2817756501    1.4671844054   -0.1799353092
H         1.6433783204    0.9615719637    0.9580938937
$end

$rem
BASIS = 6-311++G(2df,2p)
GUI = 2
JOB_TYPE = Optimization
METHOD = wB97M-V
SCF_ALGORITHM = DIIS_GDM
MAX_SCF_CYCLES = 400
GEOM_OPT_MAX_CYCLES = 150
SCF_CONVERGENCE = 7
THRESH = 12
UNRESTRICTED = 1
Solvent_method = SMD
$end
--------------------------------------------------------------
 ----------------------------------------------------------------
             Standard Nuclear Orientation (Angstroms)
    I     Atom           X                Y                Z
 ----------------------------------------------------------------
    1      C       0.0442909291     0.2183440684     0.2481717472
    2      O       1.2240985819     0.0849788705     0.9053511110
    3      H      -1.1443148078     1.2973513062    -0.6256563113
    4      C      -0.8424152310    -0.8887051750    -0.0300033516
    5      O      -0.5281989430    -2.0547924961     0.3611950236
    6      O      -1.9028072997    -0.5489513432    -0.6730634035
    7      O      -0.2817756501     1.4671844054    -0.1799353092
    8      H       1.6433783204     0.9615719637     0.9580938937
 ----------------------------------------------------------------
 Nuclear Repulsion Energy =         229.60518284 hartrees
 There are       24 alpha and       23 beta electrons
 Requested basis set is 6-311++G(2df,2p)
 There are 60 shells and 224 basis functions

 Total QAlloc Memory Limit 288000 MB
 Mega-Array Size       188 MB
 MEM_STATIC part       192 MB
 
 Citation of the SMD model:
 Marenich, A.V.; Cramer, C.J.; Truhlar, D.G.
 J. Phys. Chem. B 2009, 113, 6378-6396.
 iSolventCode=           1
 Solvent: water                                                           
 
 vradii
            1           2           3           4           5           6
    1   1.8500000   1.5200000   1.2000000   1.8500000   1.5200000   1.5200000
            7           8
    1   1.5200000   1.2000000
 Changing PCM_VDW_RADII to SMD_RADIUS
 Discretize the solute cavity surface with Lebedev spheres
	Using 110 Lebedev grid points for each H atom
	Using 194 Lebedev grid points for other atoms
	Atomic van der Waals radii will be scaled by 1.20
 Remove points where switching function is < 1.0e-08
 Keep 775 surface tesserae and discard 609 interior tesserae
 Molecular Surface Area = 94.531 Angst**2
 A cutoff of  1.0D-12 yielded   1723 shell pairs
 There are     24350 function pairs (     31315 Cartesian)
 Smallest overlap matrix eigenvalue = 4.77E-05

 Scale SEOQF with 1.000000e-01/1.000000e-01/1.000000e-01

 Standard Electronic Orientation quadrupole field applied
 Nucleus-field energy     =     0.0000000048 hartrees
 Guess from superposition of atomic densities
 Warning:  Energy on first SCF cycle will be non-variational
 SAD guess density has 46.000000 electrons

 -----------------------------------------------------------------------
  General SCF calculation program by
  Eric Jon Sundstrom, Paul Horn, Yuezhi Mao, Dmitri Zuev, Alec White,
  David Stuck, Shaama M.S., Shane Yost, Joonho Lee, David Small,
  Daniel Levine, Susi Lehtola, Hugh Burton, Evgeny Epifanovsky,
  Bang C. Huynh
 -----------------------------------------------------------------------
 Exchange:     0.1500 Hartree-Fock + 1.0000 wB97M-V + LR-HF
 Correlation:  1.0000 wB97M-V
 Using SG-2 standard quadrature grid
 Nonlocal Correlation:  VV10 with C = 0.0100 and b = 6.00 and scale = 1.00000
 Grid used for NLC:  SG-1 standard quadrature
 
 Citation of the SMD model:
 Marenich, A.V.; Cramer, C.J.; Truhlar, D.G.
 J. Phys. Chem. B 2009, 113, 6378-6396.
 iSolventCode=           1
 Solvent: water                                                           
 
 vradii
            1           2           3           4           5           6
    1   1.8500000   1.5200000   1.2000000   1.8500000   1.5200000   1.5200000
            7           8
    1   1.5200000   1.2000000
 using 8 threads for integral computing
 -------------------------------------------------------
 OpenMP Integral computing Module                
 Release: version 1.0, May 2013, Q-Chem Inc. Pittsburgh 
 -------------------------------------------------------
 -------------------------------------------------------
 OpenMP BLAS3 based DFT computing Module                
 Release: version 1.0, May 2013, Q-Chem Inc. Pittsburgh 
 -------------------------------------------------------
 A unrestricted SCF calculation will be
 performed using DIIS, GDM
 SCF converges when RMS gradient is below 1.0e-07
 ---------------------------------------
  Cycle       Energy         DIIS error
 ---------------------------------------
    1    -379.2969311058      1.70e-02  
    2    -378.2689091363      3.31e-03  Done DIIS. Switching to GDM
 ---------------------------------------
  Cycle       Energy        RMS Gradient
 ---------------------------------------
    1    -378.2689091363      1.92e-01   Descent step
    2    -378.4627318498      5.82e-02   Normal BFGS step
    3    -378.4864057078      1.32e-02   Normal BFGS step
    4    -378.4876837304      7.66e-03   Normal BFGS step
    5    -378.4880049833      6.16e-03   Normal BFGS step
    6    -378.4880830244      2.26e-03   Normal BFGS step
    7    -378.4881026193      4.50e-04   Normal BFGS step
    8    -378.4881040529      2.31e-04   Normal BFGS step
    9    -378.4881044096      1.10e-04   Normal BFGS step
   10    -378.4881045048      5.05e-05   Normal BFGS step
   11    -378.4881045123      1.58e-05   Normal BFGS step
   12    -378.4881045151      7.92e-06   Normal BFGS step
   13    -378.4881045154      4.30e-06   Normal BFGS step
   14    -378.4881045155      1.19e-06   Normal BFGS step
   15    -378.4881045155      4.69e-07   Normal BFGS step
   16    -378.4881045155      1.45e-07   Normal BFGS step
   17    -378.4881045155      4.22e-08  Convergence criterion met
 ---------------------------------------
 SCF time:   CPU 325.77s  wall 42.00s 
<S^2> =          0.753050316
(3)  G-ENP(liq) elect-nuc-pol free energy of system     -378.488104516 a.u.
(4)  G-CDS(liq) cavity-dispersion-solvent structure 
     free energy                                                4.8474 kcal/mol
(6)  G-S(liq) free energy of system                     -378.480379617 a.u.
 SCF   energy in the final basis set =     -378.4803796174
 Total energy in the final basis set =     -378.4803796174
 
 --------------------------------------------------------------
 
                    Orbital Energies (a.u.)
 --------------------------------------------------------------
 
 Alpha MOs
 -- Occupied --
-19.3765 -19.3706 -19.2822 -19.2812 -10.4461 -10.4382  -1.2349  -1.1697
 -1.1527  -1.0700  -0.8161  -0.6968  -0.6628  -0.5881  -0.5785  -0.5312
 -0.5202  -0.5113  -0.4997  -0.4644  -0.3794  -0.3781  -0.3593  -0.2443
 -- Virtual --
  0.0350   0.0552   0.0744   0.0947   0.1042   0.1140   0.1185   0.1217
  0.1623   0.1720   0.1790   0.2145   0.2265   0.2388   0.2499   0.2695
  0.2858   0.2947   0.3034   0.3069   0.3241   0.3283   0.3332   0.3437
  0.3496   0.3615   0.3842   0.3989   0.4164   0.4288   0.4403   0.4596
  0.5608   0.5948   0.6045   0.6113   0.6880   0.6979   0.7113   0.7115
  0.7327   0.7482   0.7791   0.8406   0.8699   0.8796   0.8915   0.9191
  0.9251   0.9870   1.0606   1.0978   1.1036   1.1202   1.1284   1.1334
  1.1529   1.1658   1.1794   1.1815   1.2034   1.2607   1.2714   1.2767
  1.3089   1.4052   1.4410   1.4854   1.5172   1.5653   1.6011   1.6191
  1.6322   1.6605   1.7230   1.7514   1.8023   1.8136   1.8253   1.8320
  1.9537   1.9751   2.0018   2.0265   2.1686   2.1808   2.2874   2.3363
  2.4286   2.4400   2.4682   2.4937   2.5809   2.6182   2.6539   2.7238
  2.7485   2.8158   2.8320   2.8468   2.8864   2.9535   3.1393   3.1711
  3.1949   3.2297   3.2897   3.3055   3.3250   3.3908   3.4005   3.4428
  3.4942   3.5495   3.5649   3.6001   3.6164   3.6436   3.7137   3.7504
  3.7759   3.7923   3.7965   3.9180   4.0706   4.1472   4.1685   4.1954
  4.2631   4.2729   4.2779   4.3330   4.4390   4.8784   5.1158   5.1546
  5.1744   5.1795   5.1951   5.1969   5.2089   5.2246   5.2694   5.2743
  5.2944   5.3175   5.3530   5.3686   5.3759   5.4078   5.4660   5.5309
  5.5490   5.5697   5.5922   5.6043   5.6135   5.6990   5.7870   5.8587
  5.8830   5.9143   5.9307   6.0044   6.2623   6.3796   6.4713   6.5319
  6.8402   6.9277   6.9330   6.9813   7.0113   7.0272   7.0610   7.0868
  7.1661   7.2314   7.2380   7.2544   7.2808   7.3454   7.3492   7.4329
  7.4562   7.5027   7.5620   7.6606   7.7215   7.7650   7.8084   7.8286
  7.8525   7.9868  24.8336  25.2402  50.5570  50.5833  50.6942  50.7239
 
 Beta MOs
 -- Occupied --
-19.3734 -19.3673 -19.2798 -19.2785 -10.4377 -10.4361  -1.2263  -1.1629
 -1.1479  -1.0648  -0.7966  -0.6903  -0.6562  -0.5833  -0.5493  -0.5271
 -0.5160  -0.5071  -0.4823  -0.4383  -0.3722  -0.3588  -0.3560
 -- Virtual --
  0.0350   0.0362   0.0552   0.0746   0.0953   0.1044   0.1140   0.1185
  0.1226   0.1626   0.1724   0.2161   0.2199   0.2283   0.2406   0.2509
  0.2703   0.2863   0.2963   0.3057   0.3091   0.3252   0.3291   0.3424
  0.3466   0.3528   0.3640   0.3882   0.4029   0.4189   0.4310   0.4462
  0.4693   0.5644   0.5970   0.6063   0.6228   0.6944   0.7062   0.7198
  0.7201   0.7454   0.7549   0.7800   0.8447   0.8790   0.8830   0.8953
  0.9218   0.9357   0.9884   1.0646   1.0993   1.1128   1.1271   1.1290
  1.1348   1.1538   1.1746   1.1819   1.1892   1.2094   1.2650   1.2743
  1.2833   1.3116   1.4090   1.4482   1.4894   1.5214   1.5726   1.6049
  1.6226   1.6365   1.6648   1.7269   1.7580   1.8111   1.8219   1.8314
  1.8390   1.9591   1.9807   2.0128   2.0356   2.1741   2.1867   2.2949
  2.3407   2.4382   2.4482   2.4715   2.4975   2.5856   2.6250   2.6625
  2.7527   2.7633   2.8444   2.8585   2.8734   2.9176   2.9645   3.1603
  3.1828   3.2166   3.2541   3.3151   3.3219   3.3553   3.4096   3.4214
  3.4602   3.5108   3.5805   3.5872   3.6273   3.6307   3.6619   3.7311
  3.7675   3.7811   3.8034   3.8063   3.9266   4.0757   4.1510   4.1721
  4.2038   4.2691   4.2863   4.3206   4.3428   4.4501   4.9085   5.1252
  5.1697   5.1879   5.1894   5.2017   5.2060   5.2207   5.2325   5.2775
  5.2864   5.3012   5.3218   5.3590   5.3765   5.3848   5.4152   5.4694
  5.5350   5.5566   5.5772   5.5994   5.6110   5.6229   5.7044   5.7944
  5.8632   5.8974   5.9229   5.9432   6.0072   6.2706   6.3891   6.4767
  6.5395   6.8478   6.9384   6.9399   6.9955   7.0221   7.0395   7.0759
  7.0959   7.1718   7.2405   7.2513   7.2675   7.2849   7.3564   7.3571
  7.4408   7.4674   7.5116   7.5703   7.6646   7.7262   7.7688   7.8125
  7.8334   7.8584   7.9912  24.8402  25.2432  50.5597  50.5861  50.6961
 50.7260
 --------------------------------------------------------------
 
          Ground-State Mulliken Net Atomic Charges

     Atom                 Charge (a.u.)    Spin (a.u.)
  --------------------------------------------------------
      1 C                     0.153271       0.612693
      2 O                    -0.383960       0.075438
      3 H                     0.328491      -0.002594
      4 C                     0.386312       0.053787
      5 O                    -0.726868       0.092945
      6 O                    -0.729443       0.085869
      7 O                    -0.391917       0.082700
      8 H                     0.364115      -0.000840
  --------------------------------------------------------
  Sum of atomic charges =    -1.000000
  Sum of spin   charges =     1.000000

 -----------------------------------------------------------------
                    Cartesian Multipole Moments
 -----------------------------------------------------------------
    Charge (ESU x 10^10)
                -4.8032
    Dipole Moment (Debye)
         X       6.3174      Y       9.1212      Z       0.4302
       Tot      11.1036
    Quadrupole Moments (Debye-Ang)
        XX     -45.8087     XY      -4.9034     YY     -52.7685
        XZ      -2.4873     YZ       2.7271     ZZ     -38.2885
    Octopole Moments (Debye-Ang^2)
       XXX      74.1279    XXY      30.3487    XYY      26.2695
       YYY      65.3708    XXZ       6.7800    XYZ       7.2953
       YYZ      -7.7544    XZZ      18.0905    YZZ      16.0404
       ZZZ     -10.1005
    Hexadecapole Moments (Debye-Ang^3)
      XXXX    -325.2791   XXXY     -61.1261   XXYY    -102.5561
      XYYY     -70.4569   YYYY    -413.2721   XXXZ     -57.6623
      XXYZ       1.2487   XYYZ      -7.7832   YYYZ      21.5984
      XXZZ     -66.6820   XYZZ     -17.2037   YYZZ     -71.3965
      XZZZ     -48.3466   YZZZ      11.2082   ZZZZ     -98.4018
 -----------------------------------------------------------------
 Calculating analytic gradient of the SCF energy
 Gradient of CDS energy
            1           2           3           4           5           6
    1   0.0035507  -0.0043713  -0.0001848  -0.0023807  -0.0006159   0.0023124
    2   0.0049368   0.0003866   0.0002811  -0.0026407   0.0024345  -0.0008017
    3   0.0009206  -0.0024151  -0.0001586  -0.0008050  -0.0007953   0.0014146
            7           8
    1   0.0013356   0.0003540
    2  -0.0048284   0.0002319
    3   0.0016953   0.0001435
 Gradient of SCF Energy
            1           2           3           4           5           6
    1  -0.0214362   0.0074447   0.0220531   0.0053315  -0.0012252   0.0071674
    2  -0.0077967  -0.0063049   0.0002372  -0.0101682   0.0183748  -0.0019263
    3  -0.0110941   0.0052068   0.0120825   0.0057222  -0.0041296   0.0043693
            7           8
    1  -0.0152052  -0.0041300
    2   0.0107502  -0.0031661
    3  -0.0104862  -0.0016709
 Max gradient component =       2.205E-02
 RMS gradient           =       1.016E-02
 Computing fast CPCM-SWIG gradient
 Updating gradient with PCM contributions...
 -- total gradient after adding PCM contribution --
---------------------------------------------------
  Atom         X              Y              Z     
---------------------------------------------------
   1      -0.002582       0.000663      -0.001177
   2       0.005617      -0.008044       0.004514
   3      -0.005431      -0.004618      -0.002120
   4      -0.003354      -0.007385      -0.000741
   5       0.002364      -0.001267       0.001635
   6      -0.002350       0.004674      -0.002072
   7       0.004344       0.010154       0.000354
   8       0.001392       0.005823      -0.000392
---------------------------------------------------
 Number of fixed atoms: 0
 Gradient time:  CPU 49.48 s  wall 7.27 s
 Geometry Optimization Parameters
   NAtoms,    NIC,     NZ,  NCons,   NDum,   NFix, NCnnct, MaxDiis
        8      39       0       0       0       0       0       0


** GEOMETRY OPTIMIZATION IN DELOCALIZED INTERNAL COORDINATES **
   Searching for a Minimum

   Optimization Cycle:   1

                       Coordinates (Angstroms)
     ATOM                X               Y               Z
      1  C         0.0442909291    0.2183440684    0.2481717472
      2  O         1.2240985819    0.0849788705    0.9053511110
      3  H        -1.1443148078    1.2973513062   -0.6256563113
      4  C        -0.8424152310   -0.8887051750   -0.0300033516
      5  O        -0.5281989430   -2.0547924961    0.3611950236
      6  O        -1.9028072997   -0.5489513432   -0.6730634035
      7  O        -0.2817756501    1.4671844054   -0.1799353092
      8  H         1.6433783204    0.9615719637    0.9580938937
   Point Group: c1    Number of degrees of freedom:    18


   Energy is   -378.480379617


 Attempting to generate delocalized internal coordinates
 Initial Hessian constructed with Jon Baker's OPTIMIZE code

 18 Hessian modes will be used to form the next step
  Hessian Eigenvalues:
     0.016401    0.016401    0.018676    0.020956    0.021325    0.160000
     0.160000    0.249976    0.249981    0.250000    0.250000    0.388537
     0.503050    0.527414    0.529775    0.535459    0.712835    0.764419

 Minimum search - taking simple RFO step
 Searching for Lamda that Minimizes Along All modes
 Value Taken    Lamda =  -0.00100769
 Step Taken.  Stepsize is  0.062615

                             Maximum     Tolerance    Cnvgd?
         Gradient           0.009475      0.000300      NO
         Displacement       0.031516      0.001200      NO
         Energy change     *********      0.000001      NO


 New Cartesian Coordinates Obtained by Inverse Iteration

 Displacement from previous Coordinates is:  0.113178
 ----------------------------------------------------------------
             Standard Nuclear Orientation (Angstroms)
    I     Atom           X                Y                Z
 ----------------------------------------------------------------
    1      C       0.0385994123     0.2165877925     0.2452172630
    2      O       1.2113201700     0.0858608318     0.8986987340
    3      H      -1.1366384285     1.3422173081    -0.6292871157
    4      C      -0.8396739788    -0.8896856586    -0.0251839396
    5      O      -0.5197942601    -2.0529643917     0.3647570908
    6      O      -1.9042428003    -0.5798612604    -0.6702061916
    7      O      -0.2771761782     1.4637174275    -0.1768939321
    8      H       1.6398619634     0.9511095507     0.9570514910
 ----------------------------------------------------------------
 Nuclear Repulsion Energy =         230.16386014 hartrees
 There are       24 alpha and       23 beta electrons
 Discretize the solute cavity surface with Lebedev spheres
	Using 110 Lebedev grid points for each H atom
	Using 194 Lebedev grid points for other atoms
	Atomic van der Waals radii will be scaled by 1.20
 Remove points where switching function is < 1.0e-08
 Keep 775 surface tesserae and discard 609 interior tesserae
 Molecular Surface Area = 94.515 Angst**2
 Applying Cartesian multipole field
    Component          Value
    ---------          -----
     (2,0,0)        1.00000E-11
     (0,2,0)        2.00000E-11
     (0,0,2)       -3.00000E-11
 Nucleus-field energy     =     0.0000000048 hartrees
 Requested basis set is 6-311++G(2df,2p)
 There are 60 shells and 224 basis functions
 A cutoff of  1.0D-12 yielded   1725 shell pairs
 There are     24360 function pairs (     31327 Cartesian)
 Smallest overlap matrix eigenvalue = 4.63E-05
 Guess MOs from SCF MO coefficient file

 -----------------------------------------------------------------------
  General SCF calculation program by
  Eric Jon Sundstrom, Paul Horn, Yuezhi Mao, Dmitri Zuev, Alec White,
  David Stuck, Shaama M.S., Shane Yost, Joonho Lee, David Small,
  Daniel Levine, Susi Lehtola, Hugh Burton, Evgeny Epifanovsky,
  Bang C. Huynh
 -----------------------------------------------------------------------
 Exchange:     0.1500 Hartree-Fock + 1.0000 wB97M-V + LR-HF
 Correlation:  1.0000 wB97M-V
 Using SG-2 standard quadrature grid
 Nonlocal Correlation:  VV10 with C = 0.0100 and b = 6.00 and scale = 1.00000
 Grid used for NLC:  SG-1 standard quadrature
 
 Citation of the SMD model:
 Marenich, A.V.; Cramer, C.J.; Truhlar, D.G.
 J. Phys. Chem. B 2009, 113, 6378-6396.
 iSolventCode=           1
 Solvent: water                                                           
 
 vradii
            1           2           3           4           5           6
    1   1.8500000   1.5200000   1.2000000   1.8500000   1.5200000   1.5200000
            7           8
    1   1.5200000   1.2000000
 -------------------------------------------------------
 OpenMP BLAS3 based DFT computing Module                
 Release: version 1.0, May 2013, Q-Chem Inc. Pittsburgh 
 -------------------------------------------------------
 A unrestricted SCF calculation will be
 performed using Roothaan-Hall, DIIS, GDM
 SCF converges when RMS gradient is below 1.0e-07
 ---------------------------------------
  Cycle       Energy         DIIS error
 ---------------------------------------
    1    -378.3478958447      4.89e-04  Roothaan Step
 ---------------------------------------
  Cycle       Energy         DIIS error
 ---------------------------------------
    1    -378.4760691112      5.60e-04  
    2    -378.4833632993      5.66e-04  Done DIIS. Switching to GDM
 ---------------------------------------
  Cycle       Energy        RMS Gradient
 ---------------------------------------
    1    -378.4833632993      1.84e-02   Normal BFGS step
    2    -378.4822673679      3.18e-02  Line search: overstep
    3    -378.4885109133      8.36e-03   Normal BFGS step
    4    -378.4888298548      5.82e-03   Normal BFGS step
    5    -378.4888936716      1.71e-03   Normal BFGS step
    6    -378.4889074232      8.55e-04   Normal BFGS step
    7    -378.4889116700      7.08e-04   Normal BFGS step
    8    -378.4889126273      1.47e-04   Normal BFGS step
    9    -378.4889127586      4.14e-05   Normal BFGS step
   10    -378.4889127764      2.33e-05   Normal BFGS step
   11    -378.4889127810      8.89e-06   Normal BFGS step
   12    -378.4889127817      8.34e-06   Normal BFGS step
   13    -378.4889127819      4.14e-06   Normal BFGS step
   14    -378.4889127820      1.01e-06   Normal BFGS step
   15    -378.4889127820      4.47e-07   Normal BFGS step
   16    -378.4889127820      1.56e-07   Normal BFGS step
   17    -378.4889127820      6.15e-08  Convergence criterion met
 ---------------------------------------
 SCF time:   CPU 350.25s  wall 45.00s 
<S^2> =          0.753005726
(3)  G-ENP(liq) elect-nuc-pol free energy of system     -378.488912782 a.u.
(4)  G-CDS(liq) cavity-dispersion-solvent structure 
     free energy                                                4.9505 kcal/mol
(6)  G-S(liq) free energy of system                     -378.481023579 a.u.
 SCF   energy in the final basis set =     -378.4810235787
 Total energy in the final basis set =     -378.4810235787
 
 --------------------------------------------------------------
 
                    Orbital Energies (a.u.)
 --------------------------------------------------------------
 
 Alpha MOs
 -- Occupied --
-19.3758 -19.3711 -19.2797 -19.2789 -10.4456 -10.4353  -1.2387  -1.1715
 -1.1536  -1.0680  -0.8197  -0.7022  -0.6670  -0.5861  -0.5807  -0.5305
 -0.5198  -0.5109  -0.5001  -0.4653  -0.3778  -0.3777  -0.3568  -0.2435
 -- Virtual --
  0.0350   0.0550   0.0742   0.0946   0.1044   0.1142   0.1183   0.1215
  0.1626   0.1722   0.1822   0.2132   0.2265   0.2383   0.2500   0.2695
  0.2859   0.2975   0.3043   0.3071   0.3242   0.3288   0.3363   0.3436
  0.3492   0.3621   0.3871   0.4020   0.4168   0.4289   0.4438   0.4631
  0.5671   0.6000   0.6093   0.6118   0.6933   0.6989   0.7129   0.7154
  0.7346   0.7507   0.7788   0.8409   0.8732   0.8760   0.8858   0.9188
  0.9223   0.9810   1.0552   1.1019   1.1064   1.1191   1.1282   1.1363
  1.1540   1.1673   1.1816   1.1836   1.2028   1.2623   1.2732   1.2777
  1.3110   1.4119   1.4439   1.4800   1.5153   1.5696   1.5976   1.6224
  1.6380   1.6621   1.7243   1.7530   1.8040   1.8113   1.8234   1.8398
  1.9548   1.9745   2.0076   2.0248   2.1593   2.1941   2.2879   2.3361
  2.4298   2.4429   2.4575   2.4962   2.5854   2.6166   2.6533   2.7317
  2.7543   2.8147   2.8308   2.8524   2.8884   2.9602   3.1333   3.1673
  3.1988   3.2362   3.2961   3.3101   3.3252   3.3915   3.4035   3.4454
  3.4932   3.5497   3.5682   3.6009   3.6182   3.6464   3.7210   3.7585
  3.7795   3.7928   3.8052   3.9326   4.0781   4.1466   4.1553   4.2119
  4.2697   4.2823   4.2925   4.3483   4.4671   4.8958   5.1162   5.1548
  5.1745   5.1802   5.1951   5.1978   5.2117   5.2216   5.2674   5.2770
  5.2913   5.3199   5.3526   5.3668   5.3745   5.4092   5.4640   5.5299
  5.5674   5.5712   5.6050   5.6143   5.6429   5.7046   5.8012   5.8819
  5.8960   5.9305   5.9473   6.0308   6.2836   6.3749   6.4804   6.5559
  6.8657   6.9301   6.9453   6.9848   7.0171   7.0243   7.0613   7.0899
  7.1985   7.2439   7.2503   7.2559   7.3030   7.3537   7.3593   7.4445
  7.4572   7.5032   7.5525   7.6587   7.7379   7.7746   7.8136   7.8343
  7.8634   7.9854  24.8634  25.2676  50.5658  50.5886  50.6979  50.7296
 
 Beta MOs
 -- Occupied --
-19.3726 -19.3679 -19.2772 -19.2763 -10.4357 -10.4348  -1.2300  -1.1646
 -1.1488  -1.0628  -0.8003  -0.6957  -0.6601  -0.5813  -0.5513  -0.5264
 -0.5155  -0.5067  -0.4826  -0.4393  -0.3718  -0.3569  -0.3534
 -- Virtual --
  0.0351   0.0367   0.0550   0.0745   0.0952   0.1046   0.1143   0.1183
  0.1224   0.1630   0.1725   0.2147   0.2231   0.2283   0.2402   0.2509
  0.2702   0.2863   0.2989   0.3064   0.3093   0.3253   0.3295   0.3445
  0.3471   0.3525   0.3647   0.3914   0.4062   0.4194   0.4310   0.4501
  0.4727   0.5702   0.6028   0.6118   0.6223   0.6995   0.7069   0.7216
  0.7240   0.7476   0.7573   0.7798   0.8451   0.8779   0.8825   0.8910
  0.9209   0.9326   0.9823   1.0592   1.1035   1.1154   1.1261   1.1288
  1.1376   1.1551   1.1762   1.1842   1.1913   1.2090   1.2667   1.2760
  1.2844   1.3137   1.4157   1.4509   1.4845   1.5188   1.5770   1.6014
  1.6259   1.6424   1.6665   1.7282   1.7597   1.8124   1.8209   1.8321
  1.8433   1.9604   1.9800   2.0187   2.0338   2.1649   2.2001   2.2950
  2.3408   2.4390   2.4511   2.4616   2.4997   2.5897   2.6234   2.6629
  2.7607   2.7683   2.8442   2.8638   2.8725   2.9193   2.9711   3.1551
  3.1773   3.2218   3.2598   3.3193   3.3282   3.3540   3.4112   3.4231
  3.4627   3.5107   3.5805   3.5900   3.6280   3.6321   3.6650   3.7364
  3.7747   3.7851   3.8055   3.8165   3.9408   4.0828   4.1500   4.1593
  4.2217   4.2762   4.2975   4.3354   4.3551   4.4777   4.9256   5.1255
  5.1703   5.1888   5.1890   5.2017   5.2070   5.2239   5.2297   5.2757
  5.2891   5.2983   5.3244   5.3585   5.3749   5.3835   5.4164   5.4675
  5.5338   5.5749   5.5788   5.6123   5.6212   5.6526   5.7102   5.8091
  5.8878   5.9105   5.9377   5.9599   6.0336   6.2922   6.3846   6.4857
  6.5637   6.8732   6.9424   6.9511   6.9990   7.0279   7.0369   7.0760
  7.0999   7.2037   7.2572   7.2593   7.2691   7.3082   7.3652   7.3659
  7.4532   7.4685   7.5114   7.5604   7.6630   7.7426   7.7786   7.8185
  7.8393   7.8687   7.9900  24.8697  25.2708  50.5684  50.5914  50.6999
 50.7318
 --------------------------------------------------------------
 
          Ground-State Mulliken Net Atomic Charges

     Atom                 Charge (a.u.)    Spin (a.u.)
  --------------------------------------------------------
      1 C                     0.152331       0.606998
      2 O                    -0.382719       0.077278
      3 H                     0.330720      -0.002459
      4 C                     0.402030       0.055180
      5 O                    -0.734912       0.093671
      6 O                    -0.739768       0.087764
      7 O                    -0.391013       0.082306
      8 H                     0.363333      -0.000738
  --------------------------------------------------------
  Sum of atomic charges =    -1.000000
  Sum of spin   charges =     1.000000

 -----------------------------------------------------------------
                    Cartesian Multipole Moments
 -----------------------------------------------------------------
    Charge (ESU x 10^10)
                -4.8032
    Dipole Moment (Debye)
         X       6.3702      Y       9.4214      Z       0.4154
       Tot      11.3805
    Quadrupole Moments (Debye-Ang)
        XX     -45.8486     XY      -5.2960     YY     -52.7615
        XZ      -2.4749     YZ       2.5814     ZZ     -38.2242
    Octopole Moments (Debye-Ang^2)
       XXX      74.7780    XXY      31.1334    XYY      26.0404
       YYY      67.1273    XXZ       6.9229    XYZ       7.5281
       YYZ      -8.0843    XZZ      18.2041    YZZ      16.4970
       ZZZ     -10.1196
    Hexadecapole Moments (Debye-Ang^3)
      XXXX    -324.4281   XXXY     -63.1862   XXYY    -102.8321
      XYYY     -72.3810   YYYY    -414.2695   XXXZ     -57.1534
      XXYZ       0.7464   XYYZ      -7.6855   YYYZ      21.0564
      XXZZ     -66.2595   XYZZ     -17.7098   YYZZ     -71.5764
      XZZZ     -47.7281   YZZZ      10.9842   ZZZZ     -97.7083
 -----------------------------------------------------------------
 Calculating analytic gradient of the SCF energy
 Gradient of CDS energy
            1           2           3           4           5           6
    1   0.0032938  -0.0039980  -0.0001839  -0.0023116  -0.0006363   0.0022671
    2   0.0046751   0.0003357   0.0002831  -0.0026464   0.0023823  -0.0007414
    3   0.0008357  -0.0022074  -0.0001582  -0.0007812  -0.0007892   0.0013893
            7           8
    1   0.0012221   0.0003467
    2  -0.0045181   0.0002298
    3   0.0015712   0.0001398
 Gradient of SCF Energy
            1           2           3           4           5           6
    1  -0.0192683   0.0047472   0.0243160   0.0072936  -0.0031986   0.0090810
    2  -0.0081303  -0.0003986   0.0018262  -0.0069740   0.0207849  -0.0049367
    3  -0.0101188   0.0025948   0.0130899   0.0069754  -0.0059075   0.0056239
            7           8
    1  -0.0169881  -0.0059828
    2   0.0057509  -0.0079226
    3  -0.0105292  -0.0017286
 Max gradient component =       2.432E-02
 RMS gradient           =       1.048E-02
 Computing fast CPCM-SWIG gradient
 Updating gradient with PCM contributions...
 -- total gradient after adding PCM contribution --
---------------------------------------------------
  Atom         X              Y              Z     
---------------------------------------------------
   1      -0.000160      -0.000699       0.000025
   2       0.002262      -0.001203       0.001339
   3      -0.003123      -0.001495      -0.001427
   4      -0.000167      -0.003333       0.001656
   5      -0.000875       0.002208      -0.001291
   6      -0.000059       0.000455      -0.000562
   7       0.002199       0.003405       0.000445
   8      -0.000077       0.000661      -0.000185
---------------------------------------------------
 Number of fixed atoms: 0
 Gradient time:  CPU 48.66 s  wall 7.14 s
 Geometry Optimization Parameters
   NAtoms,    NIC,     NZ,  NCons,   NDum,   NFix, NCnnct, MaxDiis
        8      39       0       0       0       0       0       0

 Cartesian Hessian Update
 Hessian updated using BFGS update


** GEOMETRY OPTIMIZATION IN DELOCALIZED INTERNAL COORDINATES **
   Searching for a Minimum

   Optimization Cycle:   2

                       Coordinates (Angstroms)
     ATOM                X               Y               Z
      1  C         0.0385994123    0.2165877925    0.2452172630
      2  O         1.2113201700    0.0858608318    0.8986987340
      3  H        -1.1366384285    1.3422173081   -0.6292871157
      4  C        -0.8396739788   -0.8896856586   -0.0251839396
      5  O        -0.5197942601   -2.0529643917    0.3647570908
      6  O        -1.9042428003   -0.5798612604   -0.6702061916
      7  O        -0.2771761782    1.4637174275   -0.1768939321
      8  H         1.6398619634    0.9511095507    0.9570514910
   Point Group: c1    Number of degrees of freedom:    18


   Energy is   -378.481023579

 Hessian updated using BFGS update

 18 Hessian modes will be used to form the next step
  Hessian Eigenvalues:
     0.016401    0.016650    0.018651    0.020957    0.021325    0.130349
     0.160001    0.224574    0.249977    0.249995    0.266115    0.379705
     0.455199    0.521542    0.532208    0.536507    0.712858    0.800894

 Minimum search - taking simple RFO step
 Searching for Lamda that Minimizes Along All modes
 Value Taken    Lamda =  -0.00027699
 Step Taken.  Stepsize is  0.076874

                             Maximum     Tolerance    Cnvgd?
         Gradient           0.003140      0.000300      NO
         Displacement       0.038986      0.001200      NO
         Energy change     -0.000644      0.000001      NO


 New Cartesian Coordinates Obtained by Inverse Iteration

 Displacement from previous Coordinates is:  0.104191
 ----------------------------------------------------------------
             Standard Nuclear Orientation (Angstroms)
    I     Atom           X                Y                Z
 ----------------------------------------------------------------
    1      C       0.0361453309     0.2144522717     0.2333822684
    2      O       1.2003873226     0.0838480581     0.8920779923
    3      H      -1.1254315395     1.3736128201    -0.6336299083
    4      C      -0.8296403269    -0.8956401743    -0.0428007892
    5      O      -0.5104362956    -2.0509867259     0.3774514453
    6      O      -1.9159594509    -0.5971623645    -0.6540525743
    7      O      -0.2739568349     1.4638638599    -0.1725987352
    8      H       1.6311476941     0.9449938548     0.9643237010
 ----------------------------------------------------------------
 Nuclear Repulsion Energy =         230.41103665 hartrees
 There are       24 alpha and       23 beta electrons
 Discretize the solute cavity surface with Lebedev spheres
	Using 110 Lebedev grid points for each H atom
	Using 194 Lebedev grid points for other atoms
	Atomic van der Waals radii will be scaled by 1.20
 Remove points where switching function is < 1.0e-08
 Keep 771 surface tesserae and discard 613 interior tesserae
 Molecular Surface Area = 94.576 Angst**2
 Applying Cartesian multipole field
    Component          Value
    ---------          -----
     (2,0,0)        1.00000E-11
     (0,2,0)        2.00000E-11
     (0,0,2)       -3.00000E-11
 Nucleus-field energy     =     0.0000000049 hartrees
 Requested basis set is 6-311++G(2df,2p)
 There are 60 shells and 224 basis functions
 A cutoff of  1.0D-12 yielded   1725 shell pairs
 There are     24360 function pairs (     31327 Cartesian)
 Smallest overlap matrix eigenvalue = 4.58E-05
 Guess MOs from SCF MO coefficient file

 -----------------------------------------------------------------------
  General SCF calculation program by
  Eric Jon Sundstrom, Paul Horn, Yuezhi Mao, Dmitri Zuev, Alec White,
  David Stuck, Shaama M.S., Shane Yost, Joonho Lee, David Small,
  Daniel Levine, Susi Lehtola, Hugh Burton, Evgeny Epifanovsky,
  Bang C. Huynh
 -----------------------------------------------------------------------
 Exchange:     0.1500 Hartree-Fock + 1.0000 wB97M-V + LR-HF
 Correlation:  1.0000 wB97M-V
 Using SG-2 standard quadrature grid
 Nonlocal Correlation:  VV10 with C = 0.0100 and b = 6.00 and scale = 1.00000
 Grid used for NLC:  SG-1 standard quadrature
 
 Citation of the SMD model:
 Marenich, A.V.; Cramer, C.J.; Truhlar, D.G.
 J. Phys. Chem. B 2009, 113, 6378-6396.
 iSolventCode=           1
 Solvent: water                                                           
 
 vradii
            1           2           3           4           5           6
    1   1.8500000   1.5200000   1.2000000   1.8500000   1.5200000   1.5200000
            7           8
    1   1.5200000   1.2000000
 -------------------------------------------------------
 OpenMP BLAS3 based DFT computing Module                
 Release: version 1.0, May 2013, Q-Chem Inc. Pittsburgh 
 -------------------------------------------------------
 A unrestricted SCF calculation will be
 performed using Roothaan-Hall, DIIS, GDM
 SCF converges when RMS gradient is below 1.0e-07
 ---------------------------------------
  Cycle       Energy         DIIS error
 ---------------------------------------
    1    -378.3454344741      5.10e-04  Roothaan Step
 ---------------------------------------
  Cycle       Energy         DIIS error
 ---------------------------------------
    1    -378.4756525396      5.68e-04  
    2    -378.4832005505      5.73e-04  Done DIIS. Switching to GDM
 ---------------------------------------
  Cycle       Energy        RMS Gradient
 ---------------------------------------
    1    -378.4832005505      1.74e-02   Normal BFGS step
    2    -378.4820889368      3.20e-02  Line search: overstep
    3    -378.4884791294      8.60e-03   Normal BFGS step
    4    -378.4888140318      5.99e-03   Normal BFGS step
    5    -378.4888826187      1.88e-03   Normal BFGS step
    6    -378.4888986311      8.18e-04   Normal BFGS step
    7    -378.4889033469      7.25e-04   Normal BFGS step
    8    -378.4889043818      1.54e-04   Normal BFGS step
    9    -378.4889045220      4.43e-05   Normal BFGS step
   10    -378.4889045421      2.21e-05   Normal BFGS step
   11    -378.4889045472      9.62e-06   Normal BFGS step
   12    -378.4889045480      8.99e-06   Normal BFGS step
   13    -378.4889045482      4.41e-06   Normal BFGS step
   14    -378.4889045482      1.03e-06   Normal BFGS step
   15    -378.4889045483      4.61e-07   Normal BFGS step
   16    -378.4889045483      1.73e-07   Normal BFGS step
   17    -378.4889045483      6.40e-08  Convergence criterion met
 ---------------------------------------
 SCF time:   CPU 351.51s  wall 45.00s 
<S^2> =          0.752987660
(3)  G-ENP(liq) elect-nuc-pol free energy of system     -378.488904548 a.u.
(4)  G-CDS(liq) cavity-dispersion-solvent structure 
     free energy                                                5.0018 kcal/mol
(6)  G-S(liq) free energy of system                     -378.480933712 a.u.
 SCF   energy in the final basis set =     -378.4809337116
 Total energy in the final basis set =     -378.4809337116
 
 --------------------------------------------------------------
 
                    Orbital Energies (a.u.)
 --------------------------------------------------------------
 
 Alpha MOs
 -- Occupied --
-19.3752 -19.3716 -19.2789 -19.2779 -10.4453 -10.4342  -1.2412  -1.1725
 -1.1531  -1.0668  -0.8215  -0.7059  -0.6689  -0.5850  -0.5819  -0.5301
 -0.5193  -0.5108  -0.4998  -0.4659  -0.3771  -0.3770  -0.3558  -0.2429
 -- Virtual --
  0.0351   0.0549   0.0742   0.0946   0.1045   0.1145   0.1182   0.1216
  0.1627   0.1722   0.1832   0.2125   0.2265   0.2380   0.2499   0.2694
  0.2858   0.2997   0.3052   0.3071   0.3241   0.3290   0.3386   0.3435
  0.3487   0.3622   0.3884   0.4038   0.4171   0.4290   0.4451   0.4649
  0.5684   0.6026   0.6110   0.6139   0.6883   0.7047   0.7129   0.7154
  0.7379   0.7522   0.7783   0.8404   0.8726   0.8747   0.8844   0.9168
  0.9232   0.9777   1.0504   1.1046   1.1081   1.1182   1.1283   1.1375
  1.1547   1.1684   1.1846   1.1851   1.2030   1.2637   1.2757   1.2782
  1.3112   1.4154   1.4439   1.4743   1.5152   1.5719   1.5951   1.6226
  1.6393   1.6620   1.7247   1.7507   1.8027   1.8169   1.8224   1.8405
  1.9502   1.9713   2.0142   2.0238   2.1550   2.1984   2.2887   2.3372
  2.4293   2.4435   2.4484   2.4960   2.5881   2.6146   2.6509   2.7296
  2.7614   2.8145   2.8303   2.8550   2.8895   2.9610   3.1327   3.1668
  3.2008   3.2370   3.3012   3.3142   3.3256   3.3917   3.4046   3.4458
  3.4890   3.5498   3.5695   3.6024   3.6218   3.6468   3.7239   3.7632
  3.7822   3.7906   3.8108   3.9396   4.0824   4.1313   4.1592   4.2173
  4.2763   4.2877   4.3012   4.3586   4.4830   4.9053   5.1163   5.1550
  5.1743   5.1807   5.1950   5.1984   5.2131   5.2195   5.2648   5.2779
  5.2892   5.3209   5.3522   5.3664   5.3742   5.4102   5.4624   5.5288
  5.5701   5.5744   5.6101   5.6148   5.6604   5.7049   5.8056   5.8869
  5.9035   5.9423   5.9582   6.0452   6.2902   6.3691   6.4834   6.5685
  6.8816   6.9311   6.9515   6.9868   7.0177   7.0224   7.0613   7.0883
  7.2015   7.2479   7.2567   7.2682   7.3090   7.3558   7.3715   7.4486
  7.4581   7.5010   7.5498   7.6569   7.7429   7.7766   7.8136   7.8361
  7.8719   7.9840  24.8793  25.2761  50.5708  50.5924  50.6981  50.7286
 
 Beta MOs
 -- Occupied --
-19.3720 -19.3684 -19.2764 -19.2752 -10.4355 -10.4337  -1.2326  -1.1656
 -1.1483  -1.0615  -0.8023  -0.6995  -0.6619  -0.5803  -0.5524  -0.5258
 -0.5150  -0.5067  -0.4823  -0.4399  -0.3711  -0.3560  -0.3524
 -- Virtual --
  0.0351   0.0369   0.0549   0.0744   0.0951   0.1047   0.1145   0.1183
  0.1224   0.1632   0.1726   0.2140   0.2240   0.2282   0.2398   0.2508
  0.2701   0.2862   0.3010   0.3069   0.3093   0.3252   0.3297   0.3451
  0.3484   0.3521   0.3648   0.3929   0.4082   0.4198   0.4311   0.4517
  0.4743   0.5716   0.6055   0.6157   0.6222   0.6950   0.7123   0.7218
  0.7243   0.7504   0.7587   0.7796   0.8448   0.8746   0.8822   0.8908
  0.9207   0.9318   0.9790   1.0544   1.1061   1.1168   1.1251   1.1291
  1.1389   1.1560   1.1772   1.1867   1.1930   1.2095   1.2682   1.2785
  1.2849   1.3140   1.4193   1.4505   1.4793   1.5182   1.5793   1.5989
  1.6261   1.6438   1.6664   1.7285   1.7577   1.8103   1.8277   1.8308
  1.8436   1.9564   1.9769   2.0251   2.0327   2.1607   2.2044   2.2954
  2.3421   2.4373   2.4517   2.4538   2.4995   2.5922   2.6214   2.6612
  2.7545   2.7788   2.8443   2.8664   2.8720   2.9206   2.9719   3.1539
  3.1774   3.2243   3.2606   3.3229   3.3329   3.3538   3.4113   3.4239
  3.4630   3.5071   3.5802   3.5909   3.6268   3.6381   3.6654   3.7384
  3.7778   3.7881   3.8053   3.8228   3.9477   4.0870   4.1348   4.1632
  4.2281   4.2832   4.3032   4.3437   4.3643   4.4933   4.9350   5.1255
  5.1706   5.1887   5.1893   5.2016   5.2077   5.2254   5.2278   5.2733
  5.2900   5.2962   5.3257   5.3581   5.3746   5.3832   5.4173   5.4659
  5.5324   5.5779   5.5818   5.6174   5.6217   5.6703   5.7107   5.8138
  5.8941   5.9175   5.9484   5.9709   6.0480   6.2990   6.3789   6.4888
  6.5764   6.8891   6.9435   6.9575   7.0011   7.0287   7.0350   7.0759
  7.0987   7.2067   7.2612   7.2699   7.2771   7.3151   7.3675   7.3778
  7.4572   7.4695   7.5091   7.5574   7.6613   7.7477   7.7806   7.8189
  7.8414   7.8768   7.9887  24.8854  25.2795  50.5735  50.5952  50.7002
 50.7307
 --------------------------------------------------------------
 
          Ground-State Mulliken Net Atomic Charges

     Atom                 Charge (a.u.)    Spin (a.u.)
  --------------------------------------------------------
      1 C                     0.151344       0.601833
      2 O                    -0.382090       0.078344
      3 H                     0.331457      -0.002373
      4 C                     0.409520       0.057018
      5 O                    -0.740243       0.094347
      6 O                    -0.743346       0.089777
      7 O                    -0.389933       0.081759
      8 H                     0.363291      -0.000705
  --------------------------------------------------------
  Sum of atomic charges =    -1.000000
  Sum of spin   charges =     1.000000

 -----------------------------------------------------------------
                    Cartesian Multipole Moments
 -----------------------------------------------------------------
    Charge (ESU x 10^10)
                -4.8032
    Dipole Moment (Debye)
         X       6.4274      Y       9.6173      Z       0.2837
       Tot      11.5708
    Quadrupole Moments (Debye-Ang)
        XX     -46.0946     XY      -5.5362     YY     -52.7281
        XZ      -2.3035     YZ       2.6376     ZZ     -38.0789
    Octopole Moments (Debye-Ang^2)
       XXX      75.5362    XXY      31.6850    XYY      25.8290
       YYY      68.3887    XXZ       6.8878    XYZ       7.5558
       YYZ      -8.5271    XZZ      18.2374    YZZ      16.8509
       ZZZ     -10.1570
    Hexadecapole Moments (Debye-Ang^3)
      XXXX    -325.9214   XXXY     -64.7032   XXYY    -103.3448
      XYYY     -73.3087   YYYY    -415.3591   XXXZ     -56.3617
      XXYZ       0.7389   XYYZ      -7.2822   YYYZ      21.3015
      XXZZ     -65.7895   XYZZ     -17.8441   YYZZ     -71.5437
      XZZZ     -46.8213   YZZZ      11.2959   ZZZZ     -96.3898
 -----------------------------------------------------------------
 Calculating analytic gradient of the SCF energy
 Gradient of CDS energy
            1           2           3           4           5           6
    1   0.0031241  -0.0037602  -0.0001839  -0.0023243  -0.0006534   0.0023056
    2   0.0045009   0.0003094   0.0002847  -0.0027015   0.0024133  -0.0007187
    3   0.0008638  -0.0021056  -0.0001582  -0.0006394  -0.0008673   0.0013180
            7           8
    1   0.0011515   0.0003406
    2  -0.0043163   0.0002282
    3   0.0014463   0.0001424
 Gradient of SCF Energy
            1           2           3           4           5           6
    1  -0.0190901   0.0021335   0.0277318   0.0099986  -0.0036696   0.0087023
    2  -0.0073949   0.0017869   0.0023172  -0.0046886   0.0199179  -0.0053385
    3  -0.0088332   0.0011927   0.0145972   0.0023792  -0.0043315   0.0077563
            7           8
    1  -0.0193879  -0.0064187
    2   0.0027401  -0.0093400
    3  -0.0109884  -0.0017722
 Max gradient component =       2.773E-02
 RMS gradient           =       1.090E-02
 Computing fast CPCM-SWIG gradient
 Updating gradient with PCM contributions...
 -- total gradient after adding PCM contribution --
---------------------------------------------------
  Atom         X              Y              Z     
---------------------------------------------------
   1      -0.000393      -0.000331       0.002241
   2      -0.000847       0.001428      -0.000640
   3       0.000639       0.000029       0.000047
   4       0.005044      -0.002194      -0.006419
   5      -0.002243       0.002169       0.001809
   6      -0.001342       0.000262       0.002849
   7      -0.000533      -0.000407       0.000051
   8      -0.000324      -0.000955       0.000062
---------------------------------------------------
 Number of fixed atoms: 0
 Gradient time:  CPU 49.44 s  wall 7.26 s
 Geometry Optimization Parameters
   NAtoms,    NIC,     NZ,  NCons,   NDum,   NFix, NCnnct, MaxDiis
        8      39       0       0       0       0       0       0

 Cartesian Hessian Update
 Hessian updated using BFGS update


** GEOMETRY OPTIMIZATION IN DELOCALIZED INTERNAL COORDINATES **
   Searching for a Minimum

   Optimization Cycle:   3

                       Coordinates (Angstroms)
     ATOM                X               Y               Z
      1  C         0.0361453309    0.2144522717    0.2333822684
      2  O         1.2003873226    0.0838480581    0.8920779923
      3  H        -1.1254315395    1.3736128201   -0.6336299083
      4  C        -0.8296403269   -0.8956401743   -0.0428007892
      5  O        -0.5104362956   -2.0509867259    0.3774514453
      6  O        -1.9159594509   -0.5971623645   -0.6540525743
      7  O        -0.2739568349    1.4638638599   -0.1725987352
      8  H         1.6311476941    0.9449938548    0.9643237010
   Point Group: c1    Number of degrees of freedom:    18


   Energy is   -378.480933712

 Hessian updated using BFGS update

 18 Hessian modes will be used to form the next step
  Hessian Eigenvalues:
     0.016400    0.018456    0.020942    0.021324    0.056533    0.116312
     0.160324    0.211489    0.249990    0.250273    0.264577    0.378658
     0.439528    0.521464    0.532182    0.537868    0.711988    0.788141

 Minimum search - taking simple RFO step
 Searching for Lamda that Minimizes Along All modes
 Value Taken    Lamda =  -0.00054966
 Step Taken.  Stepsize is  0.088585

                             Maximum     Tolerance    Cnvgd?
         Gradient           0.003561      0.000300      NO
         Displacement       0.043897      0.001200      NO
         Energy change      0.000090      0.000001      NO


 New Cartesian Coordinates Obtained by Inverse Iteration

 Displacement from previous Coordinates is:  0.095179
 ----------------------------------------------------------------
             Standard Nuclear Orientation (Angstroms)
    I     Atom           X                Y                Z
 ----------------------------------------------------------------
    1      C       0.0273299615     0.2157086584     0.2361839539
    2      O       1.1909136475     0.0820367376     0.8898355190
    3      H      -1.1207120439     1.3979383997    -0.6284153095
    4      C      -0.8426946873    -0.8935236942    -0.0201427029
    5      O      -0.4958662013    -2.0522902786     0.3770710097
    6      O      -1.9106028528    -0.6147876760    -0.6710839134
    7      O      -0.2689531628     1.4641279500    -0.1737662295
    8      H       1.6328412388     0.9377715030     0.9544710726
 ----------------------------------------------------------------
 Nuclear Repulsion Energy =         230.49004019 hartrees
 There are       24 alpha and       23 beta electrons
 Discretize the solute cavity surface with Lebedev spheres
	Using 110 Lebedev grid points for each H atom
	Using 194 Lebedev grid points for other atoms
	Atomic van der Waals radii will be scaled by 1.20
 Remove points where switching function is < 1.0e-08
 Keep 774 surface tesserae and discard 610 interior tesserae
 Molecular Surface Area = 94.773 Angst**2
 Applying Cartesian multipole field
    Component          Value
    ---------          -----
     (2,0,0)        1.00000E-11
     (0,2,0)        2.00000E-11
     (0,0,2)       -3.00000E-11
 Nucleus-field energy     =     0.0000000049 hartrees
 Requested basis set is 6-311++G(2df,2p)
 There are 60 shells and 224 basis functions
 A cutoff of  1.0D-12 yielded   1727 shell pairs
 There are     24374 function pairs (     31347 Cartesian)
 Smallest overlap matrix eigenvalue = 4.57E-05
 Guess MOs from SCF MO coefficient file

 -----------------------------------------------------------------------
  General SCF calculation program by
  Eric Jon Sundstrom, Paul Horn, Yuezhi Mao, Dmitri Zuev, Alec White,
  David Stuck, Shaama M.S., Shane Yost, Joonho Lee, David Small,
  Daniel Levine, Susi Lehtola, Hugh Burton, Evgeny Epifanovsky,
  Bang C. Huynh
 -----------------------------------------------------------------------
 Exchange:     0.1500 Hartree-Fock + 1.0000 wB97M-V + LR-HF
 Correlation:  1.0000 wB97M-V
 Using SG-2 standard quadrature grid
 Nonlocal Correlation:  VV10 with C = 0.0100 and b = 6.00 and scale = 1.00000
 Grid used for NLC:  SG-1 standard quadrature
 
 Citation of the SMD model:
 Marenich, A.V.; Cramer, C.J.; Truhlar, D.G.
 J. Phys. Chem. B 2009, 113, 6378-6396.
 iSolventCode=           1
 Solvent: water                                                           
 
 vradii
            1           2           3           4           5           6
    1   1.8500000   1.5200000   1.2000000   1.8500000   1.5200000   1.5200000
            7           8
    1   1.5200000   1.2000000
 -------------------------------------------------------
 OpenMP BLAS3 based DFT computing Module                
 Release: version 1.0, May 2013, Q-Chem Inc. Pittsburgh 
 -------------------------------------------------------
 A unrestricted SCF calculation will be
 performed using Roothaan-Hall, DIIS, GDM
 SCF converges when RMS gradient is below 1.0e-07
 ---------------------------------------
  Cycle       Energy         DIIS error
 ---------------------------------------
    1    -378.3440241307      5.21e-04  Roothaan Step
 ---------------------------------------
  Cycle       Energy         DIIS error
 ---------------------------------------
    1    -378.4755566902      5.72e-04  
    2    -378.4832755000      5.76e-04  Done DIIS. Switching to GDM
 ---------------------------------------
  Cycle       Energy        RMS Gradient
 ---------------------------------------
    1    -378.4832755000      1.61e-02   Normal BFGS step
    2    -378.4821469734      3.22e-02  Line search: overstep
    3    -378.4886037077      8.65e-03   Normal BFGS step
    4    -378.4889451590      6.05e-03   Normal BFGS step
    5    -378.4890149304      1.99e-03   Normal BFGS step
    6    -378.4890323739      7.37e-04   Normal BFGS step
    7    -378.4890372184      7.44e-04   Normal BFGS step
    8    -378.4890382860      1.65e-04   Normal BFGS step
    9    -378.4890384305      4.66e-05   Normal BFGS step
   10    -378.4890384525      2.54e-05   Normal BFGS step
   11    -378.4890384578      1.11e-05   Normal BFGS step
   12    -378.4890384586      9.49e-06   Normal BFGS step
   13    -378.4890384589      4.57e-06   Normal BFGS step
   14    -378.4890384589      1.17e-06   Normal BFGS step
   15    -378.4890384589      4.87e-07   Normal BFGS step
   16    -378.4890384589      1.75e-07   Normal BFGS step
   17    -378.4890384589      6.05e-08  Convergence criterion met
 ---------------------------------------
 SCF time:   CPU 348.42s  wall 44.00s 
<S^2> =          0.752978629
(3)  G-ENP(liq) elect-nuc-pol free energy of system     -378.489038459 a.u.
(4)  G-CDS(liq) cavity-dispersion-solvent structure 
     free energy                                                5.0280 kcal/mol
(6)  G-S(liq) free energy of system                     -378.481025890 a.u.
 SCF   energy in the final basis set =     -378.4810258898
 Total energy in the final basis set =     -378.4810258898
 
 --------------------------------------------------------------
 
                    Orbital Energies (a.u.)
 --------------------------------------------------------------
 
 Alpha MOs
 -- Occupied --
-19.3747 -19.3720 -19.2788 -19.2774 -10.4452 -10.4339  -1.2428  -1.1732
 -1.1523  -1.0660  -0.8225  -0.7086  -0.6698  -0.5844  -0.5827  -0.5298
 -0.5188  -0.5109  -0.4995  -0.4662  -0.3767  -0.3766  -0.3555  -0.2426
 -- Virtual --
  0.0351   0.0548   0.0741   0.0946   0.1045   0.1147   0.1183   0.1215
  0.1628   0.1722   0.1836   0.2120   0.2266   0.2377   0.2496   0.2693
  0.2860   0.3012   0.3055   0.3072   0.3238   0.3290   0.3400   0.3435
  0.3483   0.3622   0.3894   0.4050   0.4174   0.4291   0.4458   0.4655
  0.5688   0.6041   0.6104   0.6168   0.6958   0.6989   0.7135   0.7174
  0.7373   0.7526   0.7775   0.8397   0.8717   0.8768   0.8824   0.9178
  0.9200   0.9761   1.0471   1.1061   1.1095   1.1176   1.1292   1.1375
  1.1551   1.1674   1.1853   1.1875   1.2031   1.2650   1.2784   1.2786
  1.3110   1.4176   1.4435   1.4694   1.5163   1.5730   1.5939   1.6226
  1.6395   1.6612   1.7239   1.7519   1.8051   1.8145   1.8227   1.8379
  1.9510   1.9739   2.0115   2.0235   2.1518   2.2002   2.2893   2.3383
  2.4267   2.4435   2.4453   2.4954   2.5897   2.6137   2.6504   2.7361
  2.7588   2.8142   2.8286   2.8539   2.8892   2.9640   3.1305   3.1652
  3.2029   3.2374   3.3014   3.3174   3.3261   3.3910   3.4045   3.4465
  3.4864   3.5508   3.5715   3.6046   3.6190   3.6461   3.7239   3.7667
  3.7837   3.7888   3.8132   3.9424   4.0864   4.1211   4.1615   4.2191
  4.2816   4.2928   4.3048   4.3650   4.4927   4.9118   5.1163   5.1549
  5.1740   5.1809   5.1952   5.1987   5.2122   5.2181   5.2634   5.2782
  5.2875   5.3210   5.3520   5.3658   5.3740   5.4100   5.4609   5.5273
  5.5686   5.5750   5.6120   5.6139   5.6729   5.7058   5.8110   5.8889
  5.9068   5.9470   5.9615   6.0553   6.2922   6.3642   6.4832   6.5736
  6.8905   6.9309   6.9552   6.9881   7.0173   7.0200   7.0613   7.0854
  7.1977   7.2500   7.2575   7.2803   7.3112   7.3557   7.3820   7.4529
  7.4582   7.4970   7.5493   7.6554   7.7444   7.7774   7.8136   7.8370
  7.8787   7.9849  24.8880  25.2775  50.5735  50.5948  50.6976  50.7274
 
 Beta MOs
 -- Occupied --
-19.3716 -19.3689 -19.2762 -19.2747 -10.4355 -10.4333  -1.2342  -1.1662
 -1.1475  -1.0607  -0.8034  -0.7023  -0.6627  -0.5797  -0.5531  -0.5255
 -0.5145  -0.5068  -0.4819  -0.4403  -0.3706  -0.3554  -0.3521
 -- Virtual --
  0.0351   0.0370   0.0548   0.0743   0.0952   0.1047   0.1147   0.1183
  0.1224   0.1633   0.1725   0.2134   0.2246   0.2284   0.2396   0.2505
  0.2700   0.2864   0.3025   0.3071   0.3094   0.3249   0.3296   0.3451
  0.3495   0.3518   0.3649   0.3939   0.4094   0.4201   0.4312   0.4527
  0.4746   0.5720   0.6068   0.6184   0.6220   0.7028   0.7058   0.7222
  0.7261   0.7506   0.7591   0.7789   0.8441   0.8730   0.8859   0.8880
  0.9204   0.9290   0.9773   1.0511   1.1075   1.1182   1.1247   1.1299
  1.1389   1.1564   1.1763   1.1887   1.1940   1.2098   1.2696   1.2813
  1.2852   1.3137   1.4215   1.4496   1.4748   1.5190   1.5804   1.5978
  1.6261   1.6440   1.6656   1.7277   1.7590   1.8127   1.8245   1.8322
  1.8408   1.9571   1.9793   2.0227   2.0325   2.1576   2.2063   2.2958
  2.3433   2.4330   2.4506   2.4535   2.4989   2.5936   2.6204   2.6608
  2.7662   2.7712   2.8425   2.8662   2.8710   2.9203   2.9749   3.1528
  3.1745   3.2264   3.2608   3.3262   3.3328   3.3541   3.4101   3.4241
  3.4638   3.5047   3.5811   3.5928   3.6278   3.6366   3.6644   3.7384
  3.7788   3.7896   3.8059   3.8253   3.9503   4.0909   4.1248   4.1655
  4.2305   4.2896   4.3069   4.3477   4.3702   4.5029   4.9416   5.1253
  5.1707   5.1885   5.1895   5.2019   5.2080   5.2246   5.2265   5.2718
  5.2905   5.2945   5.3258   5.3578   5.3741   5.3829   5.4171   5.4644
  5.5308   5.5766   5.5824   5.6192   5.6209   5.6829   5.7116   5.8194
  5.8963   5.9215   5.9521   5.9742   6.0581   6.3012   6.3741   6.4885
  6.5816   6.8980   6.9435   6.9614   7.0024   7.0282   7.0328   7.0759
  7.0960   7.2029   7.2634   7.2707   7.2891   7.3178   7.3676   7.3883
  7.4611   7.4697   7.5051   7.5568   7.6598   7.7491   7.7815   7.8192
  7.8426   7.8833   7.9897  24.8939  25.2810  50.5762  50.5975  50.6997
 50.7296
 --------------------------------------------------------------
 
          Ground-State Mulliken Net Atomic Charges

     Atom                 Charge (a.u.)    Spin (a.u.)
  --------------------------------------------------------
      1 C                     0.151494       0.598786
      2 O                    -0.381814       0.079039
      3 H                     0.331671      -0.002304
      4 C                     0.413105       0.057954
      5 O                    -0.744270       0.094648
      6 O                    -0.744529       0.091194
      7 O                    -0.389102       0.081376
      8 H                     0.363445      -0.000694
  --------------------------------------------------------
  Sum of atomic charges =    -1.000000
  Sum of spin   charges =     1.000000

 -----------------------------------------------------------------
                    Cartesian Multipole Moments
 -----------------------------------------------------------------
    Charge (ESU x 10^10)
                -4.8032
    Dipole Moment (Debye)
         X       6.3544      Y       9.7950      Z       0.3637
       Tot      11.6813
    Quadrupole Moments (Debye-Ang)
        XX     -45.8647     XY      -5.6603     YY     -52.7879
        XZ      -2.4909     YZ       2.4751     ZZ     -38.2266
    Octopole Moments (Debye-Ang^2)
       XXX      75.5001    XXY      31.9405    XYY      25.5779
       YYY      69.5046    XXZ       7.1509    XYZ       7.7599
       YYZ      -8.5984    XZZ      18.3655    YZZ      17.1139
       ZZZ     -10.1797
    Hexadecapole Moments (Debye-Ang^3)
      XXXX    -323.5805   XXXY     -65.1604   XXYY    -103.2145
      XYYY     -74.1085   YYYY    -416.7854   XXXZ     -56.8449
      XXYZ       0.2663   XYYZ      -7.6203   YYYZ      21.0213
      XXZZ     -65.9009   XYZZ     -18.2070   YYZZ     -72.1720
      XZZZ     -47.1128   YZZZ      11.1651   ZZZZ     -97.2934
 -----------------------------------------------------------------
 Calculating analytic gradient of the SCF energy
 Gradient of CDS energy
            1           2           3           4           5           6
    1   0.0030867  -0.0036372  -0.0001843  -0.0022234  -0.0007285   0.0022739
    2   0.0043609   0.0003033   0.0002862  -0.0028125   0.0024871  -0.0006785
    3   0.0007990  -0.0020215  -0.0001576  -0.0007274  -0.0008455   0.0014010
            7           8
    1   0.0010721   0.0003408
    2  -0.0041717   0.0002253
    3   0.0014141   0.0001380
 Gradient of SCF Energy
            1           2           3           4           5           6
    1  -0.0179963   0.0005197   0.0303337   0.0067475  -0.0018904   0.0098606
    2  -0.0067926   0.0023802   0.0024867  -0.0012303   0.0175891  -0.0057719
    3  -0.0101015  -0.0001472   0.0163165   0.0071027  -0.0051538   0.0054884
            7           8
    1  -0.0211457  -0.0064292
    2   0.0008585  -0.0095197
    3  -0.0118580  -0.0016472
 Max gradient component =       3.033E-02
 RMS gradient           =       1.116E-02
 Computing fast CPCM-SWIG gradient
 Updating gradient with PCM contributions...
 -- total gradient after adding PCM contribution --
---------------------------------------------------
  Atom         X              Y              Z     
---------------------------------------------------
   1       0.001310      -0.000208      -0.000133
   2      -0.002975       0.002259      -0.002169
   3       0.003552       0.000940       0.001850
   4      -0.000447       0.001858       0.003443
   5       0.000868      -0.000399      -0.000889
   6       0.000298      -0.000342      -0.001271
   7      -0.002503      -0.002798      -0.001001
   8      -0.000103      -0.001309       0.000170
---------------------------------------------------
 Number of fixed atoms: 0
 Gradient time:  CPU 48.74 s  wall 7.11 s
 Geometry Optimization Parameters
   NAtoms,    NIC,     NZ,  NCons,   NDum,   NFix, NCnnct, MaxDiis
        8      39       0       0       0       0       0       0

 Cartesian Hessian Update
 Hessian updated using BFGS update


** GEOMETRY OPTIMIZATION IN DELOCALIZED INTERNAL COORDINATES **
   Searching for a Minimum

   Optimization Cycle:   4

                       Coordinates (Angstroms)
     ATOM                X               Y               Z
      1  C         0.0273299615    0.2157086584    0.2361839539
      2  O         1.1909136475    0.0820367376    0.8898355190
      3  H        -1.1207120439    1.3979383997   -0.6284153095
      4  C        -0.8426946873   -0.8935236942   -0.0201427029
      5  O        -0.4958662013   -2.0522902786    0.3770710097
      6  O        -1.9106028528   -0.6147876760   -0.6710839134
      7  O        -0.2689531628    1.4641279500   -0.1737662295
      8  H         1.6328412388    0.9377715030    0.9544710726
   Point Group: c1    Number of degrees of freedom:    18


   Energy is   -378.481025890

 Hessian updated using BFGS update

 18 Hessian modes will be used to form the next step
  Hessian Eigenvalues:
     0.016401    0.018535    0.020943    0.021324    0.093254    0.114894
     0.160245    0.214382    0.249982    0.250077    0.265079    0.378918
     0.448755    0.521369    0.532621    0.535999    0.711947    0.782289

 Minimum search - taking simple RFO step
 Searching for Lamda that Minimizes Along All modes
 Value Taken    Lamda =  -0.00026137
 Step Taken.  Stepsize is  0.042326

                             Maximum     Tolerance    Cnvgd?
         Gradient           0.003246      0.000300      NO
         Displacement       0.023642      0.001200      NO
         Energy change     -0.000092      0.000001      NO


 New Cartesian Coordinates Obtained by Inverse Iteration

 Displacement from previous Coordinates is:  0.082404
 ----------------------------------------------------------------
             Standard Nuclear Orientation (Angstroms)
    I     Atom           X                Y                Z
 ----------------------------------------------------------------
    1      C       0.0347737702     0.2161327841     0.2390903665
    2      O       1.2033511392     0.0830263829     0.8955386914
    3      H      -1.1308404900     1.3691213502    -0.6298308870
    4      C      -0.8399367625    -0.8921073040    -0.0260176254
    5      O      -0.5094970027    -2.0531892878     0.3722355527
    6      O      -1.9086260683    -0.5961893309    -0.6689522838
    7      O      -0.2735644421     1.4647677561    -0.1753737877
    8      H       1.6365957560     0.9454192493     0.9574633731
 ----------------------------------------------------------------
 Nuclear Repulsion Energy =         230.18683472 hartrees
 There are       24 alpha and       23 beta electrons
 Discretize the solute cavity surface with Lebedev spheres
	Using 110 Lebedev grid points for each H atom
	Using 194 Lebedev grid points for other atoms
	Atomic van der Waals radii will be scaled by 1.20
 Remove points where switching function is < 1.0e-08
 Keep 774 surface tesserae and discard 610 interior tesserae
 Molecular Surface Area = 94.658 Angst**2
 Applying Cartesian multipole field
    Component          Value
    ---------          -----
     (2,0,0)        1.00000E-11
     (0,2,0)        2.00000E-11
     (0,0,2)       -3.00000E-11
 Nucleus-field energy     =     0.0000000048 hartrees
 Requested basis set is 6-311++G(2df,2p)
 There are 60 shells and 224 basis functions
 A cutoff of  1.0D-12 yielded   1725 shell pairs
 There are     24360 function pairs (     31327 Cartesian)
 Smallest overlap matrix eigenvalue = 4.62E-05
 Guess MOs from SCF MO coefficient file

 -----------------------------------------------------------------------
  General SCF calculation program by
  Eric Jon Sundstrom, Paul Horn, Yuezhi Mao, Dmitri Zuev, Alec White,
  David Stuck, Shaama M.S., Shane Yost, Joonho Lee, David Small,
  Daniel Levine, Susi Lehtola, Hugh Burton, Evgeny Epifanovsky,
  Bang C. Huynh
 -----------------------------------------------------------------------
 Exchange:     0.1500 Hartree-Fock + 1.0000 wB97M-V + LR-HF
 Correlation:  1.0000 wB97M-V
 Using SG-2 standard quadrature grid
 Nonlocal Correlation:  VV10 with C = 0.0100 and b = 6.00 and scale = 1.00000
 Grid used for NLC:  SG-1 standard quadrature
 
 Citation of the SMD model:
 Marenich, A.V.; Cramer, C.J.; Truhlar, D.G.
 J. Phys. Chem. B 2009, 113, 6378-6396.
 iSolventCode=           1
 Solvent: water                                                           
 
 vradii
            1           2           3           4           5           6
    1   1.8500000   1.5200000   1.2000000   1.8500000   1.5200000   1.5200000
            7           8
    1   1.5200000   1.2000000
 -------------------------------------------------------
 OpenMP BLAS3 based DFT computing Module                
 Release: version 1.0, May 2013, Q-Chem Inc. Pittsburgh 
 -------------------------------------------------------
 A unrestricted SCF calculation will be
 performed using Roothaan-Hall, DIIS, GDM
 SCF converges when RMS gradient is below 1.0e-07
 ---------------------------------------
  Cycle       Energy         DIIS error
 ---------------------------------------
    1    -378.3456816766      5.00e-04  Roothaan Step
 ---------------------------------------
  Cycle       Energy         DIIS error
 ---------------------------------------
    1    -378.4762614240      5.57e-04  
    2    -378.4837692057      5.52e-04  Done DIIS. Switching to GDM
 ---------------------------------------
  Cycle       Energy        RMS Gradient
 ---------------------------------------
    1    -378.4837692057      1.55e-02   Normal BFGS step
    2    -378.4826808983      3.05e-02  Line search: overstep
    3    -378.4886643682      7.85e-03   Normal BFGS step
    4    -378.4889756816      5.61e-03   Normal BFGS step
    5    -378.4890362190      1.95e-03   Normal BFGS step
    6    -378.4890525385      7.47e-04   Normal BFGS step
    7    -378.4890567797      7.31e-04   Normal BFGS step
    8    -378.4890577207      1.73e-04   Normal BFGS step
    9    -378.4890578573      4.22e-05   Normal BFGS step
   10    -378.4890578745      2.28e-05   Normal BFGS step
   11    -378.4890578792      1.00e-05   Normal BFGS step
   12    -378.4890578799      8.37e-06   Normal BFGS step
   13    -378.4890578801      4.25e-06   Normal BFGS step
   14    -378.4890578801      1.08e-06   Normal BFGS step
   15    -378.4890578801      5.76e-07   Normal BFGS step
   16    -378.4890578801      1.62e-07   Normal BFGS step
   17    -378.4890578801      6.34e-08  Convergence criterion met
 ---------------------------------------
 SCF time:   CPU 349.52s  wall 44.00s 
<S^2> =          0.753001422
(3)  G-ENP(liq) elect-nuc-pol free energy of system     -378.489057880 a.u.
(4)  G-CDS(liq) cavity-dispersion-solvent structure 
     free energy                                                4.9765 kcal/mol
(6)  G-S(liq) free energy of system                     -378.481127316 a.u.
 SCF   energy in the final basis set =     -378.4811273161
 Total energy in the final basis set =     -378.4811273161
 
 --------------------------------------------------------------
 
                    Orbital Energies (a.u.)
 --------------------------------------------------------------
 
 Alpha MOs
 -- Occupied --
-19.3754 -19.3718 -19.2795 -19.2783 -10.4456 -10.4349  -1.2400  -1.1719
 -1.1528  -1.0671  -0.8207  -0.7048  -0.6677  -0.5853  -0.5813  -0.5301
 -0.5195  -0.5109  -0.4997  -0.4657  -0.3773  -0.3772  -0.3562  -0.2433
 -- Virtual --
  0.0350   0.0549   0.0742   0.0947   0.1044   0.1144   0.1183   0.1216
  0.1627   0.1722   0.1825   0.2122   0.2265   0.2379   0.2497   0.2692
  0.2859   0.2991   0.3048   0.3071   0.3239   0.3288   0.3376   0.3434
  0.3486   0.3621   0.3879   0.4032   0.4170   0.4290   0.4443   0.4635
  0.5673   0.6015   0.6103   0.6126   0.6949   0.6981   0.7130   0.7156
  0.7358   0.7512   0.7781   0.8401   0.8736   0.8748   0.8841   0.9189
  0.9200   0.9783   1.0516   1.1039   1.1076   1.1183   1.1283   1.1369
  1.1545   1.1668   1.1835   1.1848   1.2027   1.2635   1.2757   1.2780
  1.3113   1.4142   1.4435   1.4741   1.5148   1.5705   1.5957   1.6224
  1.6386   1.6612   1.7228   1.7527   1.8047   1.8108   1.8213   1.8376
  1.9531   1.9739   2.0087   2.0232   2.1541   2.1961   2.2880   2.3368
  2.4292   2.4434   2.4495   2.4958   2.5873   2.6155   2.6508   2.7331
  2.7549   2.8146   2.8294   2.8513   2.8885   2.9606   3.1329   3.1659
  3.2007   3.2365   3.2976   3.3125   3.3255   3.3909   3.4038   3.4458
  3.4900   3.5500   3.5684   3.6019   3.6174   3.6456   3.7211   3.7620
  3.7806   3.7901   3.8079   3.9358   4.0815   4.1325   4.1569   4.2150
  4.2728   4.2854   4.2963   4.3530   4.4766   4.9014   5.1160   5.1548
  5.1741   5.1804   5.1951   5.1980   5.2116   5.2196   5.2653   5.2774
  5.2892   5.3201   5.3519   5.3656   5.3730   5.4092   5.4613   5.5268
  5.5686   5.5701   5.6063   5.6135   5.6536   5.7037   5.8051   5.8841
  5.8986   5.9349   5.9511   6.0375   6.2860   6.3674   6.4800   6.5603
  6.8734   6.9303   6.9481   6.9860   7.0169   7.0219   7.0608   7.0876
  7.1954   7.2460   7.2561   7.2594   7.3063   7.3542   7.3628   7.4446
  7.4571   7.4986   7.5496   7.6558   7.7409   7.7755   7.8135   7.8347
  7.8682   7.9850  24.8705  25.2685  50.5678  50.5903  50.6970  50.7275
 
 Beta MOs
 -- Occupied --
-19.3723 -19.3686 -19.2769 -19.2756 -10.4358 -10.4344  -1.2313  -1.1649
 -1.1481  -1.0618  -0.8014  -0.6984  -0.6608  -0.5805  -0.5518  -0.5259
 -0.5151  -0.5067  -0.4822  -0.4397  -0.3713  -0.3563  -0.3529
 -- Virtual --
  0.0351   0.0367   0.0549   0.0744   0.0953   0.1047   0.1144   0.1183
  0.1224   0.1631   0.1725   0.2137   0.2235   0.2283   0.2397   0.2506
  0.2699   0.2864   0.3005   0.3066   0.3092   0.3250   0.3295   0.3448
  0.3478   0.3520   0.3647   0.3922   0.4075   0.4196   0.4311   0.4508
  0.4729   0.5704   0.6043   0.6140   0.6221   0.7012   0.7059   0.7218
  0.7243   0.7490   0.7577   0.7793   0.8445   0.8752   0.8839   0.8895
  0.9209   0.9301   0.9796   1.0555   1.1054   1.1166   1.1253   1.1290
  1.1382   1.1557   1.1757   1.1858   1.1926   1.2091   1.2680   1.2784
  1.2847   1.3141   1.4180   1.4501   1.4790   1.5180   1.5780   1.5995
  1.6259   1.6430   1.6656   1.7266   1.7596   1.8123   1.8212   1.8303
  1.8408   1.9589   1.9793   2.0200   2.0322   2.1597   2.2021   2.2949
  2.3416   2.4376   2.4517   2.4545   2.4993   2.5914   2.6222   2.6607
  2.7628   2.7680   2.8431   2.8634   2.8716   2.9195   2.9716   3.1549
  3.1753   3.2241   3.2601   3.3216   3.3292   3.3542   3.4105   3.4234
  3.4631   3.5079   3.5807   3.5900   3.6282   3.6321   3.6641   3.7362
  3.7765   3.7863   3.8047   3.8195   3.9439   4.0861   4.1360   4.1609
  4.2255   4.2787   4.3012   4.3393   4.3592   4.4870   4.9312   5.1252
  5.1704   5.1886   5.1890   5.2017   5.2073   5.2239   5.2278   5.2737
  5.2896   5.2962   5.3248   5.3578   5.3739   5.3819   5.4163   5.4648
  5.5304   5.5764   5.5775   5.6136   5.6205   5.6634   5.7094   5.8132
  5.8907   5.9132   5.9410   5.9638   6.0403   6.2948   6.3772   6.4853
  6.5681   6.8809   6.9427   6.9541   7.0003   7.0277   7.0345   7.0755
  7.0979   7.2005   7.2593   7.2683   7.2693   7.3120   7.3659   7.3692
  7.4531   7.4686   7.5069   7.5573   7.6602   7.7456   7.7795   7.8187
  7.8399   7.8732   7.9897  24.8767  25.2718  50.5705  50.5930  50.6991
 50.7297
 --------------------------------------------------------------
 
          Ground-State Mulliken Net Atomic Charges

     Atom                 Charge (a.u.)    Spin (a.u.)
  --------------------------------------------------------
      1 C                     0.151041       0.604303
      2 O                    -0.382819       0.077767
      3 H                     0.331878      -0.002401
      4 C                     0.407463       0.056012
      5 O                    -0.739715       0.093820
      6 O                    -0.741171       0.089268
      7 O                    -0.390030       0.081969
      8 H                     0.363353      -0.000738
  --------------------------------------------------------
  Sum of atomic charges =    -1.000000
  Sum of spin   charges =     1.000000

 -----------------------------------------------------------------
                    Cartesian Multipole Moments
 -----------------------------------------------------------------
    Charge (ESU x 10^10)
                -4.8032
    Dipole Moment (Debye)
         X       6.3553      Y       9.6022      Z       0.3666
       Tot      11.5207
    Quadrupole Moments (Debye-Ang)
        XX     -45.8751     XY      -5.4796     YY     -52.7881
        XZ      -2.4531     YZ       2.5578     ZZ     -38.2216
    Octopole Moments (Debye-Ang^2)
       XXX      75.0639    XXY      31.5564    XYY      25.8243
       YYY      68.2915    XXZ       6.9823    XYZ       7.6233
[...]
 ---------------------------------------
    1    -378.4760987608      5.61e-04  
    2    -378.4836080006      5.62e-04  Done DIIS. Switching to GDM
 ---------------------------------------
  Cycle       Energy        RMS Gradient
 ---------------------------------------
    1    -378.4836080006      1.57e-02   Normal BFGS step
    2    -378.4824977484      3.13e-02  Line search: overstep
    3    -378.4886829127      8.27e-03   Normal BFGS step
    4    -378.4890035057      5.85e-03   Normal BFGS step
    5    -378.4890671547      1.97e-03   Normal BFGS step
    6    -378.4890837380      8.02e-04   Normal BFGS step
    7    -378.4890881857      7.43e-04   Normal BFGS step
    8    -378.4890891727      1.72e-04   Normal BFGS step
    9    -378.4890893119      4.43e-05   Normal BFGS step
   10    -378.4890893309      2.39e-05   Normal BFGS step
   11    -378.4890893358      1.06e-05   Normal BFGS step
   12    -378.4890893365      8.91e-06   Normal BFGS step
   13    -378.4890893368      4.41e-06   Normal BFGS step
   14    -378.4890893368      1.09e-06   Normal BFGS step
   15    -378.4890893368      5.22e-07   Normal BFGS step
   16    -378.4890893368      1.62e-07   Normal BFGS step
   17    -378.4890893368      6.20e-08  Convergence criterion met
 ---------------------------------------
 SCF time:   CPU 350.43s  wall 45.00s 
<S^2> =          0.752996061
(3)  G-ENP(liq) elect-nuc-pol free energy of system     -378.489089337 a.u.
(4)  G-CDS(liq) cavity-dispersion-solvent structure 
     free energy                                                4.9896 kcal/mol
(6)  G-S(liq) free energy of system                     -378.481137954 a.u.
 SCF   energy in the final basis set =     -378.4811379538
 Total energy in the final basis set =     -378.4811379538
 
 --------------------------------------------------------------
 
                    Orbital Energies (a.u.)
 --------------------------------------------------------------
 
 Alpha MOs
 -- Occupied --
-19.3752 -19.3719 -19.2793 -19.2780 -10.4455 -10.4346  -1.2407  -1.1722
 -1.1528  -1.0669  -0.8211  -0.7058  -0.6681  -0.5851  -0.5816  -0.5301
 -0.5193  -0.5109  -0.4997  -0.4658  -0.3771  -0.3770  -0.3561  -0.2432
 -- Virtual --
  0.0350   0.0549   0.0742   0.0946   0.1045   0.1145   0.1183   0.1216
  0.1628   0.1722   0.1828   0.2121   0.2265   0.2379   0.2497   0.2692
  0.2860   0.2996   0.3050   0.3071   0.3239   0.3288   0.3382   0.3434
  0.3485   0.3621   0.3883   0.4037   0.4170   0.4291   0.4447   0.4641
  0.5677   0.6023   0.6105   0.6135   0.6950   0.6984   0.7132   0.7163
  0.7361   0.7516   0.7780   0.8400   0.8733   0.8752   0.8836   0.9188
  0.9197   0.9777   1.0503   1.1045   1.1081   1.1181   1.1285   1.1370
  1.1546   1.1668   1.1842   1.1853   1.2028   1.2640   1.2765   1.2781
  1.3113   1.4150   1.4436   1.4728   1.5152   1.5713   1.5952   1.6224
  1.6388   1.6611   1.7232   1.7527   1.8053   1.8116   1.8213   1.8376
  1.9529   1.9740   2.0093   2.0232   2.1533   2.1972   2.2883   2.3373
  2.4288   2.4441   2.4474   2.4957   2.5881   2.6154   2.6508   2.7339
  2.7557   2.8145   2.8291   2.8519   2.8887   2.9615   3.1321   3.1658
  3.2012   3.2368   3.2985   3.3138   3.3255   3.3908   3.4041   3.4460
  3.4891   3.5502   3.5694   3.6030   3.6177   3.6456   3.7218   3.7632
  3.7812   3.7898   3.8092   3.9375   4.0832   4.1293   4.1581   4.2160
  4.2751   4.2872   4.2987   4.3558   4.4808   4.9042   5.1161   5.1548
  5.1741   5.1805   5.1952   5.1982   5.2117   5.2192   5.2648   5.2777
  5.2888   5.3205   5.3520   5.3658   5.3734   5.4095   5.4613   5.5270
  5.5686   5.5717   5.6078   5.6139   5.6584   5.7044   5.8073   5.8856
  5.9000   5.9384   5.9537   6.0418   6.2883   6.3668   6.4810   6.5632
  6.8775   6.9305   6.9506   6.9866   7.0170   7.0214   7.0610   7.0873
  7.1963   7.2470   7.2564   7.2653   7.3079   7.3546   7.3673   7.4470
  7.4575   7.4982   7.5494   7.6557   7.7419   7.7761   7.8137   7.8354
  7.8706   7.9849  24.8747  25.2714  50.5692  50.5914  50.6974  50.7275
 
 Beta MOs
 -- Occupied --
-19.3720 -19.3687 -19.2768 -19.2753 -10.4357 -10.4341  -1.2320  -1.1652
 -1.1480  -1.0616  -0.8018  -0.6994  -0.6612  -0.5803  -0.5521  -0.5258
 -0.5150  -0.5068  -0.4822  -0.4398  -0.3711  -0.3561  -0.3527
 -- Virtual --
  0.0351   0.0368   0.0549   0.0744   0.0952   0.1047   0.1145   0.1183
  0.1224   0.1632   0.1725   0.2136   0.2238   0.2283   0.2397   0.2506
  0.2699   0.2864   0.3010   0.3068   0.3092   0.3250   0.3295   0.3449
  0.3482   0.3519   0.3648   0.3927   0.4081   0.4197   0.4312   0.4513
  0.4734   0.5708   0.6051   0.6152   0.6220   0.7015   0.7060   0.7219
  0.7250   0.7494   0.7581   0.7792   0.8444   0.8747   0.8844   0.8891
  0.9208   0.9297   0.9789   1.0543   1.1060   1.1170   1.1251   1.1292
  1.1383   1.1558   1.1757   1.1867   1.1930   1.2093   1.2685   1.2793
  1.2848   1.3141   1.4189   1.4501   1.4778   1.5182   1.5787   1.5991
  1.6259   1.6433   1.6655   1.7270   1.7597   1.8126   1.8223   1.8303
  1.8407   1.9587   1.9794   2.0206   2.0322   2.1590   2.2033   2.2951
  2.3421   2.4367   2.4523   2.4530   2.4992   2.5922   2.6221   2.6608
  2.7636   2.7689   2.8429   2.8641   2.8713   2.9197   2.9724   3.1542
  3.1751   3.2247   3.2603   3.3228   3.3301   3.3540   3.4104   3.4236
  3.4634   3.5071   3.5809   3.5909   3.6289   3.6325   3.6641   3.7368
  3.7770   3.7869   3.8050   3.8209   3.9456   4.0878   4.1328   4.1621
  4.2268   4.2813   4.3028   4.3417   4.3617   4.4912   4.9340   5.1252
  5.1704   5.1885   5.1891   5.2017   5.2074   5.2240   5.2275   5.2732
  5.2899   5.2958   5.3251   5.3578   5.3741   5.3823   5.4167   5.4648
  5.5306   5.5765   5.5790   5.6150   5.6209   5.6682   5.7102   5.8155
  5.8924   5.9147   5.9442   5.9664   6.0446   6.2971   6.3766   6.4864
  6.5711   6.8851   6.9429   6.9566   7.0009   7.0278   7.0341   7.0756
  7.0976   7.2015   7.2603   7.2696   7.2741   7.3138   7.3663   7.3736
  7.4554   7.4689   7.5064   7.5571   7.6601   7.7466   7.7801   7.8190
  7.8406   7.8755   7.9896  24.8809  25.2747  50.5718  50.5941  50.6995
 50.7297
 --------------------------------------------------------------
 
          Ground-State Mulliken Net Atomic Charges

     Atom                 Charge (a.u.)    Spin (a.u.)
  --------------------------------------------------------
      1 C                     0.151090       0.603140
      2 O                    -0.382835       0.077990
      3 H                     0.331850      -0.002380
      4 C                     0.409031       0.056359
      5 O                    -0.741231       0.093944
      6 O                    -0.741605       0.089792
      7 O                    -0.389607       0.081884
      8 H                     0.363308      -0.000729
  --------------------------------------------------------
  Sum of atomic charges =    -1.000000
  Sum of spin   charges =     1.000000

 -----------------------------------------------------------------
                    Cartesian Multipole Moments
 -----------------------------------------------------------------
    Charge (ESU x 10^10)
                -4.8032
    Dipole Moment (Debye)
         X       6.3544      Y       9.6526      Z       0.3448
       Tot      11.5616
    Quadrupole Moments (Debye-Ang)
        XX     -45.8996     XY      -5.5297     YY     -52.7849
        XZ      -2.4380     YZ       2.5560     ZZ     -38.2057
    Octopole Moments (Debye-Ang^2)
       XXX      75.1788    XXY      31.6641    XYY      25.7574
       YYY      68.6151    XXZ       6.9868    XYZ       7.6368
       YYZ      -8.4602    XZZ      18.2533    YZZ      16.8838
       ZZZ     -10.1947
    Hexadecapole Moments (Debye-Ang^3)
      XXXX    -324.4452   XXXY     -64.4978   XXYY    -103.1711
      XYYY     -73.4712   YYYY    -416.0698   XXXZ     -56.8638
      XXYZ       0.5421   XYYZ      -7.5471   YYYZ      21.2049
      XXZZ     -66.0170   XYZZ     -17.9838   YYZZ     -71.9187
      XZZZ     -47.2792   YZZZ      11.2115   ZZZZ     -97.3215
 -----------------------------------------------------------------
 Calculating analytic gradient of the SCF energy
 Gradient of CDS energy
            1           2           3           4           5           6
    1   0.0032171  -0.0038383  -0.0001841  -0.0022527  -0.0006893   0.0022640
    2   0.0044925   0.0003250   0.0002857  -0.0027663   0.0024627  -0.0007015
    3   0.0008700  -0.0021430  -0.0001575  -0.0007016  -0.0008437   0.0013682
            7           8
    1   0.0011394   0.0003439
    2  -0.0043251   0.0002270
    3   0.0014667   0.0001410
 Gradient of SCF Energy
            1           2           3           4           5           6
    1  -0.0191185   0.0028601   0.0270504   0.0068729  -0.0023859   0.0096398
    2  -0.0070622   0.0005473   0.0023012  -0.0031740   0.0182360  -0.0054835
    3  -0.0101827   0.0016182   0.0144457   0.0054526  -0.0048836   0.0061705
            7           8
    1  -0.0188295  -0.0060894
    2   0.0030642  -0.0084289
    3  -0.0109117  -0.0017091
 Max gradient component =       2.705E-02
 RMS gradient           =       1.057E-02
 Computing fast CPCM-SWIG gradient
 Updating gradient with PCM contributions...
 -- total gradient after adding PCM contribution --
---------------------------------------------------
  Atom         X              Y              Z     
---------------------------------------------------
   1       0.000037      -0.000015       0.000058
   2      -0.000058       0.000020      -0.000067
   3       0.000015       0.000011      -0.000006
   4       0.000123      -0.000054       0.000097
   5      -0.000032       0.000053      -0.000006
   6      -0.000078       0.000035      -0.000042
   7      -0.000011      -0.000027      -0.000033
   8       0.000004      -0.000024      -0.000001
---------------------------------------------------
 Number of fixed atoms: 0
 Gradient time:  CPU 49.70 s  wall 7.26 s
 Geometry Optimization Parameters
   NAtoms,    NIC,     NZ,  NCons,   NDum,   NFix, NCnnct, MaxDiis
        8      39       0       0       0       0       0       0

 Cartesian Hessian Update
 Hessian updated using BFGS update


** GEOMETRY OPTIMIZATION IN DELOCALIZED INTERNAL COORDINATES **
   Searching for a Minimum

   Optimization Cycle:   7

                       Coordinates (Angstroms)
     ATOM                X               Y               Z
      1  C         0.0335825890    0.2156391192    0.2364698461
      2  O         1.2001413651    0.0826017418    0.8943481755
      3  H        -1.1277621868    1.3766541534   -0.6298194523
      4  C        -0.8393693190   -0.8929137460   -0.0274891381
      5  O        -0.5062190370   -2.0526716429    0.3744233366
      6  O        -1.9104150558   -0.6008046154   -0.6669935653
      7  O        -0.2722929998    1.4647120681   -0.1745756269
      8  H         1.6345905442    0.9437645218    0.9577898244
   Point Group: c1    Number of degrees of freedom:    18


   Energy is   -378.481137954

 Hessian updated using BFGS update

 18 Hessian modes will be used to form the next step
  Hessian Eigenvalues:
     0.016328    0.017087    0.020939    0.021154    0.111177    0.118902
     0.159117    0.231603    0.248209    0.254117    0.266565    0.385311
     0.490086    0.510208    0.525886    0.534142    0.664947    0.778554

 Minimum search - taking simple RFO step
 Searching for Lamda that Minimizes Along All modes
 Value Taken    Lamda =  -0.00000008
 Step Taken.  Stepsize is  0.001421

                             Maximum     Tolerance    Cnvgd?
         Gradient           0.000118      0.000300     YES
         Displacement       0.001216      0.001200      NO
         Energy change     -0.000000      0.000001     YES


                       Distance Matrix (Angstroms)
             C (  1)   O (  2)   H (  3)   C (  4)   O (  5)   O (  6)
   O (  2)  1.345869
   H (  3)  1.856646  3.068679
   C (  4)  1.435482  2.441520  2.365779
   O (  5)  2.335733  2.782334  3.626995  1.271834
   O (  6)  2.293895  3.546885  2.127033  1.281184  2.272495
   O (  7)  1.350075  2.284927  0.973051  2.429323  3.567648  2.681842
   H (  8)  1.900972  0.966629  3.215352  3.234909  3.728540  4.194363
             O (  7)
   H (  8)  2.278123
 
 Final energy is   -378.481137953763     


 ******************************
 **  OPTIMIZATION CONVERGED  **
 ******************************

                       Coordinates (Angstroms)
     ATOM                X               Y               Z
      1  C         0.0335825890    0.2156391192    0.2364698461
      2  O         1.2001413651    0.0826017418    0.8943481755
      3  H        -1.1277621868    1.3766541534   -0.6298194523
      4  C        -0.8393693190   -0.8929137460   -0.0274891381
      5  O        -0.5062190370   -2.0526716429    0.3744233366
      6  O        -1.9104150558   -0.6008046154   -0.6669935653
      7  O        -0.2722929998    1.4647120681   -0.1745756269
      8  H         1.6345905442    0.9437645218    0.9577898244

Z-matrix Print:
$molecule
-1 2
C 
O  1 1.345869
H  2 0.966629 1 109.486568
O  1 1.350075 2 115.890685 3 -0.143908 0
H  4 0.973051 1 104.945546 2 179.510383 0
C  1 1.435482 2 122.728037 3 179.485586 0
O  6 1.271834 1 119.130192 2 0.089975 0
O  6 1.281184 1 115.093246 2 -179.855863 0
$end

 
 --------------------------------------------------------------
 
                    Orbital Energies (a.u.)
 --------------------------------------------------------------
 
 Alpha MOs
 -- Occupied --
-19.3752 -19.3719 -19.2793 -19.2780 -10.4455 -10.4346  -1.2407  -1.1722
 -1.1528  -1.0669  -0.8211  -0.7058  -0.6681  -0.5851  -0.5816  -0.5301
 -0.5193  -0.5109  -0.4997  -0.4658  -0.3771  -0.3770  -0.3561  -0.2432
 -- Virtual --
  0.0350   0.0549   0.0742   0.0946   0.1045   0.1145   0.1183   0.1216
  0.1628   0.1722   0.1828   0.2121   0.2265   0.2379   0.2497   0.2692
  0.2860   0.2996   0.3050   0.3071   0.3239   0.3288   0.3382   0.3434
  0.3485   0.3621   0.3883   0.4037   0.4170   0.4291   0.4447   0.4641
  0.5677   0.6023   0.6105   0.6135   0.6950   0.6984   0.7132   0.7163
  0.7361   0.7516   0.7780   0.8400   0.8733   0.8752   0.8836   0.9188
  0.9197   0.9777   1.0503   1.1045   1.1081   1.1181   1.1285   1.1370
  1.1546   1.1668   1.1842   1.1853   1.2028   1.2640   1.2765   1.2781
  1.3113   1.4150   1.4436   1.4728   1.5152   1.5713   1.5952   1.6224
  1.6388   1.6611   1.7232   1.7527   1.8053   1.8116   1.8213   1.8376
  1.9529   1.9740   2.0093   2.0232   2.1533   2.1972   2.2883   2.3373
  2.4288   2.4441   2.4474   2.4957   2.5881   2.6154   2.6508   2.7339
  2.7557   2.8145   2.8291   2.8519   2.8887   2.9615   3.1321   3.1658
  3.2012   3.2368   3.2985   3.3138   3.3255   3.3908   3.4041   3.4460
  3.4891   3.5502   3.5694   3.6030   3.6177   3.6456   3.7218   3.7632
  3.7812   3.7898   3.8092   3.9375   4.0832   4.1293   4.1581   4.2160
  4.2751   4.2872   4.2987   4.3558   4.4808   4.9042   5.1161   5.1548
  5.1741   5.1805   5.1952   5.1982   5.2117   5.2192   5.2648   5.2777
  5.2888   5.3205   5.3520   5.3658   5.3734   5.4095   5.4613   5.5270
  5.5686   5.5717   5.6078   5.6139   5.6584   5.7044   5.8073   5.8856
  5.9000   5.9384   5.9537   6.0418   6.2883   6.3668   6.4810   6.5632
  6.8775   6.9305   6.9506   6.9866   7.0170   7.0214   7.0610   7.0873
  7.1963   7.2470   7.2564   7.2653   7.3079   7.3546   7.3673   7.4470
  7.4575   7.4982   7.5494   7.6557   7.7419   7.7761   7.8137   7.8354
  7.8706   7.9849  24.8747  25.2714  50.5692  50.5914  50.6974  50.7275
 
 Beta MOs
 -- Occupied --
-19.3720 -19.3687 -19.2768 -19.2753 -10.4357 -10.4341  -1.2320  -1.1652
 -1.1480  -1.0616  -0.8018  -0.6994  -0.6612  -0.5803  -0.5521  -0.5258
 -0.5150  -0.5068  -0.4822  -0.4398  -0.3711  -0.3561  -0.3527
 -- Virtual --
  0.0351   0.0368   0.0549   0.0744   0.0952   0.1047   0.1145   0.1183
  0.1224   0.1632   0.1725   0.2136   0.2238   0.2283   0.2397   0.2506
  0.2699   0.2864   0.3010   0.3068   0.3092   0.3250   0.3295   0.3449
  0.3482   0.3519   0.3648   0.3927   0.4081   0.4197   0.4312   0.4513
  0.4734   0.5708   0.6051   0.6152   0.6220   0.7015   0.7060   0.7219
  0.7250   0.7494   0.7581   0.7792   0.8444   0.8747   0.8844   0.8891
  0.9208   0.9297   0.9789   1.0543   1.1060   1.1170   1.1251   1.1292
  1.1383   1.1558   1.1757   1.1867   1.1930   1.2093   1.2685   1.2793
  1.2848   1.3141   1.4189   1.4501   1.4778   1.5182   1.5787   1.5991
  1.6259   1.6433   1.6655   1.7270   1.7597   1.8126   1.8223   1.8303
  1.8407   1.9587   1.9794   2.0206   2.0322   2.1590   2.2033   2.2951
  2.3421   2.4367   2.4523   2.4530   2.4992   2.5922   2.6221   2.6608
  2.7636   2.7689   2.8429   2.8641   2.8713   2.9197   2.9724   3.1542
  3.1751   3.2247   3.2603   3.3228   3.3301   3.3540   3.4104   3.4236
  3.4634   3.5071   3.5809   3.5909   3.6289   3.6325   3.6641   3.7368
  3.7770   3.7869   3.8050   3.8209   3.9456   4.0878   4.1328   4.1621
  4.2268   4.2813   4.3028   4.3417   4.3617   4.4912   4.9340   5.1252
  5.1704   5.1885   5.1891   5.2017   5.2074   5.2240   5.2275   5.2732
  5.2899   5.2958   5.3251   5.3578   5.3741   5.3823   5.4167   5.4648
  5.5306   5.5765   5.5790   5.6150   5.6209   5.6682   5.7102   5.8155
  5.8924   5.9147   5.9442   5.9664   6.0446   6.2971   6.3766   6.4864
  6.5711   6.8851   6.9429   6.9566   7.0009   7.0278   7.0341   7.0756
  7.0976   7.2015   7.2603   7.2696   7.2741   7.3138   7.3663   7.3736
  7.4554   7.4689   7.5064   7.5571   7.6601   7.7466   7.7801   7.8190
  7.8406   7.8755   7.9896  24.8809  25.2747  50.5718  50.5941  50.6995
 50.7297
 --------------------------------------------------------------
 
          Ground-State Mulliken Net Atomic Charges

     Atom                 Charge (a.u.)    Spin (a.u.)
  --------------------------------------------------------
      1 C                     0.151090       0.603140
      2 O                    -0.382835       0.077990
      3 H                     0.331850      -0.002380
      4 C                     0.409031       0.056359
      5 O                    -0.741231       0.093944
      6 O                    -0.741605       0.089792
      7 O                    -0.389607       0.081884
      8 H                     0.363308      -0.000729
  --------------------------------------------------------
  Sum of atomic charges =    -1.000000
  Sum of spin   charges =     1.000000

 -----------------------------------------------------------------
                    Cartesian Multipole Moments
 -----------------------------------------------------------------
    Charge (ESU x 10^10)
                -4.8032
    Dipole Moment (Debye)
         X       6.3544      Y       9.6526      Z       0.3448
       Tot      11.5616
    Quadrupole Moments (Debye-Ang)
        XX     -45.8996     XY      -5.5297     YY     -52.7849
        XZ      -2.4380     YZ       2.5560     ZZ     -38.2057
    Octopole Moments (Debye-Ang^2)
       XXX      75.1788    XXY      31.6641    XYY      25.7574
       YYY      68.6151    XXZ       6.9868    XYZ       7.6368
       YYZ      -8.4602    XZZ      18.2533    YZZ      16.8838
       ZZZ     -10.1947
    Hexadecapole Moments (Debye-Ang^3)
      XXXX    -324.4452   XXXY     -64.4978   XXYY    -103.1711
      XYYY     -73.4712   YYYY    -416.0698   XXXZ     -56.8638
      XXYZ       0.5421   XYYZ      -7.5471   YYYZ      21.2049
      XXZZ     -66.0170   XYZZ     -17.9838   YYZZ     -71.9187
      XZZZ     -47.2792   YZZZ      11.2115   ZZZZ     -97.3215
 -----------------------------------------------------------------
 Total job time:  361.38s(wall), 2798.01s(cpu) 
 Mon Jun 19 18:31:37 2023

        *************************************************************
        *                                                           *
        *  Thank you very much for using Q-Chem.  Have a nice day.  *
        *                                                           *
        *************************************************************


