
Running Job 1 of 2 Q_in.in
qchem Q_in.in_55366.0 /scratch/ari.fischer/qChem1644733.hpc-mn1/qchem55366/ 0
/usr/local/qchem-5.4.1/exe/qcprog.exe_s Q_in.in_55366.0 /scratch/ari.fischer/qChem1644733.hpc-mn1/qchem55366/
                  Welcome to Q-Chem
     A Quantum Leap Into The Future Of Chemistry


 Q-Chem 5.4, Q-Chem, Inc., Pleasanton, CA (2021)

 License issued to: Nanyang Technological University (site)

 E. Epifanovsky,  A. T. B. Gilbert,  Xintian Feng,  Joonho Lee,  Yuezhi Mao,  
 N. Mardirossian,  P. Pokhilko,  A. White,  M. Wormit,  M. P. Coons,  
 A. L. Dempwolff,  Zhengting Gan,  D. Hait,  P. R. Horn,  L. D. Jacobson,  
 I. Kaliman,  J. Kussmann,  A. W. Lange,  Ka Un Lao,  D. S. Levine,  Jie Liu,  
 S. C. McKenzie,  A. F. Morrison,  K. Nanda,  F. Plasser,  D. R. Rehn,  
 M. L. Vidal,  Zhi-Qiang You,  Ying Zhu,  B. Alam,  B. Albrecht,  
 A. Aldossary,  E. Alguire,  J. H. Andersen,  D. Barton,  K. Begam,  A. Behn,  
 Y. A. Bernard,  E. J. Berquist,  H. Burton,  A. Carreras,  K. Carter-Fenk,  
 R. Chakraborty,  A. D. Chien,  K. D. Closser,  V. Cofer-Shabica,  
 S. Dasgupta,  Jia Deng,  M. de Wergifosse,  M. Diedenhofen,  Hainam Do,  
 S. Ehlert,  Po-Tung Fang,  S. Fatehi,  Qingguo Feng,  T. Friedhoff,  
 J. Gayvert,  Qinghui Ge,  G. Gidofalvi,  M. Goldey,  J. Gomes,  
 C. Gonzalez-Espinoza,  S. Gulania,  A. Gunina,  M. W. D. Hanson-Heine,  
 P. H. P. Harbach,  A. W. Hauser,  M. F. Herbst,  M. Hernandez Vera,  
 M. Hodecker,  Z. C. Holden,  S. Houck,  Xunkun Huang,  Kerwin Hui,  
 B. C. Huynh,  M. Ivanov,  Hyunjun Ji,  Hanjie Jiang,  B. Kaduk,  S. Kaehler,  
 K. Khistyaev,  Jaehoon Kim,  P. Klunzinger,  Z. Koczor-Benda,  
 Joong Hoon Koh,  D. Kosenkov,  L. Koulias,  T. Kowalczyk,  C. M. Krauter,  
 K. Kue,  A. Kunitsa,  T. Kus,  A. Landau,  K. V. Lawler,  D. Lefrancois,  
 S. Lehtola,  Rain Li,  Yi-Pei Li,  Jiashu Liang,  M. Liebenthal,  
 Hung-Hsuan Lin,  You-Sheng Lin,  Fenglai Liu,  Kuan-Yu Liu,  
 M. Loipersberger,  A. Luenser,  A. Manjanath,  P. Manohar,  E. Mansoor,  
 S. F. Manzer,  Shan-Ping Mao,  A. V. Marenich,  T. Markovich,  S. Mason,  
 S. A. Maurer,  P. F. McLaughlin,  M. F. S. J. Menger,  J.-M. Mewes,  
 S. A. Mewes,  P. Morgante,  J. W. Mullinax,  K. J. Oosterbaan,  G. Paran,  
 Alexander C. Paul,  Suranjan K. Paul,  F. Pavosevic,  Zheng Pei,  S. Prager,  
 E. I. Proynov,  E. Ramos,  B. Rana,  A. E. Rask,  A. Rettig,  R. M. Richard,  
 F. Rob,  E. Rossomme,  T. Scheele,  M. Scheurer,  M. Schneider,  
 N. Sergueev,  S. M. Sharada,  W. Skomorowski,  D. W. Small,  C. J. Stein,  
 Yu-Chuan Su,  E. J. Sundstrom,  Zhen Tao,  J. Thirman,  T. Tsuchimochi,  
 N. M. Tubman,  S. P. Veccham,  O. Vydrov,  J. Wenzel,  J. Witte,  A. Yamada,  
 Kun Yao,  S. Yeganeh,  S. R. Yost,  A. Zech,  Igor Ying Zhang,  Xing Zhang,  
 Yu Zhang,  D. Zuev,  A. Aspuru-Guzik,  A. T. Bell,  N. A. Besley,  
 K. B. Bravaya,  B. R. Brooks,  D. Casanova,  Jeng-Da Chai,  S. Coriani,  
 C. J. Cramer,  A. E. DePrince, III,  R. A. DiStasio Jr.,  A. Dreuw,  
 B. D. Dunietz,  T. R. Furlani,  W. A. Goddard III,  S. Grimme,  
 S. Hammes-Schiffer,  T. Head-Gordon,  W. J. Hehre,  Chao-Ping Hsu,  
 T.-C. Jagau,  Yousung Jung,  A. Klamt,  Jing Kong,  D. S. Lambrecht,  
 WanZhen Liang,  N. J. Mayhall,  C. W. McCurdy,  J. B. Neaton,  
 C. Ochsenfeld,  J. A. Parkhill,  R. Peverati,  V. A. Rassolov,  Yihan Shao,  
 L. V. Slipchenko,  T. Stauch,  R. P. Steele,  J. E. Subotnik,  
 A. J. W. Thom,  A. Tkatchenko,  D. G. Truhlar,  T. Van Voorhis,  
 T. A. Wesolowski,  K. B. Whaley,  H. L. Woodcock III,  P. M. Zimmerman,  
 S. Faraji,  P. M. W. Gill,  M. Head-Gordon,  J. M. Herbert,  A. I. Krylov

 Additional authors for Version 5.4.1: 
 S. Kotaru,  Shaozhi Li,  Xiangyuan Li,  F. Matz,  A. Molle,  Haisheng Ren,  
 Yingli Su,  Hung-Yi Tsai,  C. Utku,  Fang Wang

 Contributors to earlier versions of Q-Chem not listed above: 
 R. D. Adamson,  B. Austin,  R. Baer,  J. Baker,  G. J. O. Beran,  
 K. Brandhorst,  S. T. Brown,  E. F. C. Byrd,  A. K. Chakraborty,  
 G. K. L. Chan,  Chun-Min Chang,  Yunqing Chen,  C.-L. Cheng,  
 Siu Hung Chien,  D. M. Chipman,  D. L. Crittenden,  H. Dachsel,  
 R. J. Doerksen,  A. D. Dutoi,  R. G. Edgar,  J. Fosso-Tande,  
 L. Fusti-Molnar,  D. Ghosh,  A. Ghysels,  A. Golubeva-Zadorozhnaya,  
 J. Gonthier,  M. S. Gordon,  S. R. Gwaltney,  G. Hawkins,  J. E. Herr,  
 A. Heyden,  S. Hirata,  E. G. Hohenstein,  G. Kedziora,  F. J. Keil,  
 C. Kelley,  Jihan Kim,  R. A. King,  R. Z. Khaliullin,  P. P. Korambath,  
 W. Kurlancheek,  A. Laurent,  A. M. Lee,  M. S. Lee,  S. V. Levchenko,  
 Ching Yeh Lin,  D. Liotard,  E. Livshits,  R. C. Lochan,  I. Lotan,  
 L. A. Martinez-Martinez,  P. E. Maslen,  N. Nair,  D. P. O'Neill,  
 D. Neuhauser,  E. Neuscamman,  C. M. Oana,  R. Olivares-Amaya,  R. Olson,  
 T. M. Perrine,  B. Peters,  P. A. Pieniazek,  A. Prociuk,  Y. M. Rhee,  
 J. Ritchie,  M. A. Rohrdanz,  E. Rosta,  N. J. Russ,  H. F. Schaefer III,  
 M. W. Schmidt,  N. E. Schultz,  S. Sharma,  N. Shenvi,  C. D. Sherrill,  
 A. C. Simmonett,  A. Sodt,  T. Stein,  D. Stuck,  K. S. Thanthiriwatte,  
 V. Vanovschi,  L. Vogt,  Tao Wang,  A. Warshel,  M. A. Watson,  
 C. F. Williams,  Q. Wu,  X. Xu,  Jun Yang,  W. Zhang,  Yan Zhao

 Please cite Q-Chem as follows:
 Y. Shao et al., Mol. Phys. 113, 184-215 (2015)
 DOI: 10.1080/00268976.2014.952696

 Q-Chem 5.4.1 for Intel X86 EM64T Linux

 Parts of Q-Chem use Armadillo 9.800.1 (Horizon Scraper).
 http://arma.sourceforge.net/

 Q-Chem begins on Mon Jul 24 12:41:38 2023  

 Host: 
0

     Scratch files written to /scratch/ari.fischer/qChem1644733.hpc-mn1/qchem55366//
 Aug1521 |scratch|qcdevops|jenkins|workspace|build_RNUM 8249   
 Processing $rem in /usr/local/qchem-5.4.1/config/preferences:
 Processing $rem in /home/ari.fischer/.qchemrc:
 Symmetry turned off for PCM/SM12/SMD calculation


!!********************************************.
!!******************Warning*******************.
!!Desired Analytical derivatives not available.
!!Finite difference job might take a long time.
!!********************************************.
!!********************************************.


 2-order derivative to be evaluated numerically with 1-order analytical derivatives

 Checking the input file for inconsistencies... 	...done.

--------------------------------------------------------------
User input:
--------------------------------------------------------------
$molecule
-1 2
C    0.6332017    0.2492219    0.7584201
O    1.4025855   -0.2466266    1.5928966
H   -1.9375710   -1.0123332   -0.8866207
C   -0.5876356   -0.6521106    0.4044917
O   -0.8569533   -1.6133087    1.1906388
O   -1.1874161   -0.4200235   -0.6924267
O    0.6788791    1.3139224    0.1285258
O   -1.4798179    1.1120009    2.5219901
O   -2.4778756    0.8597842    1.6870393
H   -1.6207131   -2.1609506    0.9312916
$end

$rem
BASIS = 6-311++G(2df,2p)
GUI = 2
JOB_TYPE = Frequency
METHOD = wB97M-V
SOLVENT_METHOD = SMD
SCF_ALGORITHM = DIIS_GDM
MAX_SCF_CYCLES = 400
SCF_CONVERGENCE = 7
THRESH = 12
UNRESTRICTED = 1
SYMMETRY_IGNORE = 1
$end

--------------------------------------------------------------
 ----------------------------------------------------------------
             Standard Nuclear Orientation (Angstroms)
    I     Atom           X                Y                Z
 ----------------------------------------------------------------
    1      C       0.6332017000     0.2492219000     0.7584201000
    2      O       1.4025855000    -0.2466266000     1.5928966000
    3      H      -1.9375710000    -1.0123332000    -0.8866207000
    4      C      -0.5876356000    -0.6521106000     0.4044917000
    5      O      -0.8569533000    -1.6133087000     1.1906388000
    6      O      -1.1874161000    -0.4200235000    -0.6924267000
    7      O       0.6788791000     1.3139224000     0.1285258000
    8      O      -1.4798179000     1.1120009000     2.5219901000
    9      O      -2.4778756000     0.8597842000     1.6870393000
   10      H      -1.6207131000    -2.1609506000     0.9312916000
 ----------------------------------------------------------------
 Nuclear Repulsion Energy =         379.23554525 hartrees
 There are       32 alpha and       31 beta electrons
 Requested basis set is 6-311++G(2df,2p)
 There are 76 shells and 292 basis functions

 Total QAlloc Memory Limit 288000 MB
 Mega-Array Size       188 MB
 MEM_STATIC part       192 MB
 
 Citation of the SMD model:
 Marenich, A.V.; Cramer, C.J.; Truhlar, D.G.
 J. Phys. Chem. B 2009, 113, 6378-6396.
 iSolventCode=           1
 Solvent: water                                                           
 
 vradii
            1           2           3           4           5           6
    1   1.8500000   1.5200000   1.2000000   1.8500000   1.5200000   1.5200000
            7           8           9          10
    1   1.5200000   1.5200000   1.5200000   1.2000000
 Changing PCM_VDW_RADII to SMD_RADIUS
 Discretize the solute cavity surface with Lebedev spheres
	Using 110 Lebedev grid points for each H atom
	Using 194 Lebedev grid points for other atoms
	Atomic van der Waals radii will be scaled by 1.20
 Remove points where switching function is < 1.0e-08
 Keep 1045 surface tesserae and discard 727 interior tesserae
 Molecular Surface Area = 126.290 Angst**2

                       Distance Matrix (Angstroms)
             C (  1)   O (  2)   H (  3)   C (  4)   O (  5)   O (  6)
   O (  2)  1.238615
   H (  3)  3.302507  4.229770
   C (  4)  1.558239  2.353233  1.902382
   O (  5)  2.424128  2.671170  2.417419  1.270614
   O (  6)  2.422291  3.458450  0.975333  1.271547  2.253679
   O (  7)  1.237918  2.259081  3.645243  2.354889  3.472110  2.676488
   O (  8)  2.884340  3.319237  4.042395  2.896874  3.096412  3.572824
   O (  9)  3.303623  4.036209  3.228077  2.739299  2.998331  2.994170
   H ( 10)  3.304383  3.639051  2.173597  1.902989  0.974937  2.419718
             O (  7)   O (  8)   O (  9)
   O (  8)  3.229461
   O (  9)  3.549691  1.325472
   H ( 10)  4.243501  3.641756  3.229663
 
 A cutoff of  1.0D-12 yielded   2623 shell pairs
 There are     39534 function pairs (     50980 Cartesian)
 Smallest overlap matrix eigenvalue = 5.91E-05
 Guess from superposition of atomic densities
 Warning:  Energy on first SCF cycle will be non-variational
 SAD guess density has 62.000000 electrons

 -----------------------------------------------------------------------
  General SCF calculation program by
  Eric Jon Sundstrom, Paul Horn, Yuezhi Mao, Dmitri Zuev, Alec White,
  David Stuck, Shaama M.S., Shane Yost, Joonho Lee, David Small,
  Daniel Levine, Susi Lehtola, Hugh Burton, Evgeny Epifanovsky,
  Bang C. Huynh
 -----------------------------------------------------------------------
 Exchange:     0.1500 Hartree-Fock + 1.0000 wB97M-V + LR-HF
 Correlation:  1.0000 wB97M-V
 Using SG-2 standard quadrature grid
 Nonlocal Correlation:  VV10 with C = 0.0100 and b = 6.00 and scale = 1.00000
 Grid used for NLC:  SG-1 standard quadrature
 using 16 threads for integral computing
 -------------------------------------------------------
 OpenMP Integral computing Module                
 Release: version 1.0, May 2013, Q-Chem Inc. Pittsburgh 
 -------------------------------------------------------
 
 Citation of the SMD model:
 Marenich, A.V.; Cramer, C.J.; Truhlar, D.G.
 J. Phys. Chem. B 2009, 113, 6378-6396.
 iSolventCode=           1
 Solvent: water                                                           
 
 vradii
            1           2           3           4           5           6
    1   1.8500000   1.5200000   1.2000000   1.8500000   1.5200000   1.5200000
            7           8           9          10
    1   1.5200000   1.5200000   1.5200000   1.2000000
 -------------------------------------------------------
 OpenMP BLAS3 based DFT computing Module                
 Release: version 1.0, May 2013, Q-Chem Inc. Pittsburgh 
 -------------------------------------------------------
 A unrestricted SCF calculation will be
 performed using DIIS, GDM
 SCF converges when RMS gradient is below 1.0e-07
 ---------------------------------------
  Cycle       Energy         DIIS error
 ---------------------------------------
    1    -529.7139589411      1.48e-02  
    2    -528.5912778143      2.70e-03  Done DIIS. Switching to GDM
 ---------------------------------------
  Cycle       Energy        RMS Gradient
 ---------------------------------------
    1    -528.5912778143      1.66e-01   Descent step
    2    -528.8041500407      5.25e-02   Normal BFGS step
    3    -528.8401374176      7.23e-03   Normal BFGS step
    4    -528.8416634123      4.31e-03   Normal BFGS step
    5    -528.8420721331      8.90e-04   Normal BFGS step
    6    -528.8420885166      1.60e-03   Normal BFGS step
    7    -528.8420934014      6.20e-04   Normal BFGS step
    8    -528.8420952372      6.01e-04   Normal BFGS step
    9    -528.8420959197      6.00e-04   Normal BFGS step
   10    -528.8420970958      5.96e-04   Normal BFGS step
   11    -528.8421006403      5.80e-04   Normal BFGS step
   12    -528.8421065827      8.33e-04   Normal BFGS step
   13    -528.8421184286      1.39e-03   Normal BFGS step
   14    -528.8421351095      1.91e-03   Normal BFGS step
   15    -528.8421525320      1.85e-03   Normal BFGS step
   16    -528.8421659120      9.93e-04   Normal BFGS step
   17    -528.8421684269      4.71e-04   Normal BFGS step
   18    -528.8421694375      1.98e-04   Normal BFGS step
   19    -528.8421696123      1.03e-04   Normal BFGS step
   20    -528.8421696837      2.10e-05   Normal BFGS step
   21    -528.8421696926      1.15e-05   Normal BFGS step
   22    -528.8421696940      4.45e-06   Normal BFGS step
   23    -528.8421696941      2.11e-06   Normal BFGS step
   24    -528.8421696942      1.25e-06   Normal BFGS step
   25    -528.8421696942      6.73e-07   Normal BFGS step
   26    -528.8421696942      1.15e-07   Normal BFGS step
   27    -528.8421696942      1.06e-07   Normal BFGS step
   28    -528.8421696942      9.73e-08  Convergence criterion met
 ---------------------------------------
 SCF time:   CPU 1124.19s  wall 76.00s 
<S^2> =          0.754930214
(3)  G-ENP(liq) elect-nuc-pol free energy of system     -528.842169694 a.u.
(4)  G-CDS(liq) cavity-dispersion-solvent structure 
     free energy                                                5.1142 kcal/mol
(6)  G-S(liq) free energy of system                     -528.834019692 a.u.
 SCF   energy in the final basis set =     -528.8340196922
 Total energy in the final basis set =     -528.8340196922
 
 --------------------------------------------------------------
 
                    Orbital Energies (a.u.)
 --------------------------------------------------------------
 
 Alpha MOs
 -- Occupied --
-19.4382 -19.4378 -19.3378 -19.3376 -19.3069 -19.3068 -10.5499 -10.4754
 -1.3256  -1.2445  -1.2165  -1.1959  -1.1118  -0.8687  -0.8646  -0.7748
 -0.7114  -0.6376  -0.6303  -0.5749  -0.5548  -0.5420  -0.5364  -0.5242
 -0.5202  -0.5046  -0.4912  -0.3936  -0.3899  -0.3846  -0.3246  -0.2934
 -- Virtual --
  0.0093   0.0308   0.0606   0.0670   0.0849   0.0982   0.1071   0.1157
  0.1327   0.1501   0.1576   0.1684   0.1797   0.1835   0.2202   0.2278
  0.2448   0.2614   0.2639   0.2690   0.2874   0.2895   0.3047   0.3069
  0.3088   0.3185   0.3216   0.3338   0.3410   0.3468   0.3549   0.3588
  0.3602   0.3748   0.3891   0.4007   0.4120   0.4295   0.4380   0.4405
  0.4522   0.4736   0.5429   0.5922   0.6074   0.6576   0.6668   0.6870
  0.7000   0.7250   0.7420   0.7635   0.7824   0.8152   0.8196   0.8559
  0.8763   0.8887   0.9288   0.9784   1.0210   1.0729   1.0901   1.1022
  1.1112   1.1162   1.1183   1.1223   1.1393   1.1460   1.1613   1.1807
  1.1884   1.1980   1.2222   1.2311   1.2535   1.2787   1.2921   1.2986
  1.3135   1.3738   1.4010   1.4298   1.4319   1.4442   1.4830   1.5097
  1.5153   1.5497   1.5914   1.6248   1.6265   1.6599   1.6888   1.7178
  1.7308   1.7522   1.7710   1.7974   1.8057   1.8481   1.8849   1.9156
  1.9763   2.0400   2.0553   2.0931   2.1181   2.1752   2.2161   2.2400
  2.3179   2.3521   2.3933   2.4299   2.4456   2.4512   2.4891   2.5174
  2.5972   2.6179   2.6823   2.7285   2.7465   2.8196   2.8863   2.9332
  2.9941   3.0328   3.1135   3.1200   3.1634   3.1904   3.2209   3.2741
  3.3533   3.3712   3.4452   3.4553   3.4821   3.4984   3.5253   3.5862
  3.6128   3.6567   3.6663   3.7220   3.7825   3.7968   3.8251   3.9225
  4.0078   4.0146   4.0241   4.1198   4.2098   4.2268   4.3370   4.3556
  4.5312   4.6007   4.6641   4.7352   4.7906   4.7917   4.8227   5.0693
  5.0952   5.1002   5.1080   5.1340   5.1585   5.1595   5.1652   5.1674
  5.1839   5.1944   5.2009   5.2087   5.2137   5.2170   5.2362   5.2406
  5.2553   5.2696   5.2839   5.3088   5.3132   5.3308   5.3432   5.3690
  5.4202   5.4526   5.5512   5.5594   5.5643   5.5912   5.5987   5.6204
  5.6240   5.6435   5.6808   5.7610   5.8488   5.9353   6.0913   6.1910
  6.2334   6.3412   6.4559   6.4876   6.5572   6.6678   6.8071   6.8483
  6.8803   6.9073   6.9172   6.9340   6.9520   6.9629   6.9648   6.9842
  7.0057   7.0184   7.0434   7.0483   7.0831   7.1594   7.1790   7.1894
  7.2354   7.2637   7.2956   7.3295   7.4064   7.4328   7.4696   7.4783
  7.5066   7.5240   7.6186   7.6578   7.7587   7.7850   7.8284   7.8587
  7.8819   7.9354   7.9668   7.9978  25.0549  25.2454  50.4374  50.5048
 50.5715  50.6281  50.7168  50.7395
 
 Beta MOs
 -- Occupied --
-19.4382 -19.4379 -19.3234 -19.3233 -19.3069 -19.3068 -10.5499 -10.4754
 -1.3256  -1.2445  -1.1963  -1.1871  -1.1118  -0.8687  -0.8223  -0.7748
 -0.7114  -0.6372  -0.6303  -0.5748  -0.5547  -0.5406  -0.5335  -0.5077
 -0.4995  -0.4769  -0.4373  -0.3933  -0.3896  -0.3844  -0.2743
 -- Virtual --
  0.0095   0.0309   0.0338   0.0610   0.0672   0.0853   0.0985   0.1075
  0.1167   0.1332   0.1503   0.1586   0.1687   0.1822   0.1865   0.2203
  0.2317   0.2468   0.2646   0.2663   0.2729   0.2895   0.2908   0.3075
  0.3079   0.3145   0.3219   0.3228   0.3347   0.3421   0.3474   0.3554
  0.3596   0.3638   0.3753   0.3895   0.4060   0.4126   0.4299   0.4382
  0.4435   0.4526   0.4748   0.5431   0.5924   0.6074   0.6578   0.6693
  0.6871   0.7001   0.7252   0.7426   0.7644   0.7825   0.8154   0.8203
  0.8566   0.8767   0.8889   0.9294   0.9795   1.0219   1.0759   1.0965
  1.1077   1.1155   1.1170   1.1209   1.1233   1.1408   1.1483   1.1820
  1.1839   1.1983   1.2007   1.2297   1.2390   1.2623   1.2806   1.2936
  1.3005   1.3182   1.3749   1.4049   1.4321   1.4361   1.4709   1.4868
  1.5128   1.5226   1.5545   1.5978   1.6257   1.6424   1.6688   1.6930
  1.7189   1.7418   1.7579   1.7779   1.8020   1.8228   1.8516   1.8964
  1.9162   1.9806   2.0445   2.0581   2.0953   2.1189   2.1760   2.2254
  2.2493   2.3416   2.3566   2.3942   2.4342   2.4460   2.4518   2.4894
  2.5177   2.5974   2.6182   2.6826   2.7376   2.7472   2.8197   2.8865
  2.9338   2.9942   3.0332   3.1136   3.1201   3.1635   3.1906   3.2210
  3.2742   3.3535   3.3715   3.4453   3.4554   3.4822   3.4985   3.5256
  3.5864   3.6128   3.6567   3.6664   3.7221   3.7826   3.7968   3.8251
  3.9225   4.0078   4.0146   4.0243   4.1198   4.2100   4.2270   4.3370
  4.3556   4.5312   4.6363   4.6747   4.7368   4.8155   4.8189   4.8355
  5.0744   5.1235   5.1390   5.1448   5.1518   5.1596   5.1653   5.1674
  5.1839   5.1872   5.1967   5.2053   5.2176   5.2386   5.2631   5.2706
  5.2751   5.2780   5.2839   5.2910   5.3161   5.3263   5.3445   5.3537
  5.3706   5.4205   5.4527   5.5517   5.5595   5.5645   5.5917   5.5990
  5.6403   5.6500   5.6552   5.6809   5.7612   5.8488   5.9354   6.0913
  6.1910   6.2336   6.3413   6.4984   6.5021   6.5575   6.6705   6.8437
  6.8586   6.9079   6.9158   6.9325   6.9620   6.9788   6.9836   7.0067
  7.0195   7.0261   7.0295   7.0471   7.0778   7.1068   7.1793   7.1843
  7.1954   7.2378   7.2663   7.2970   7.3301   7.4078   7.4624   7.4808
  7.4908   7.5197   7.5248   7.6195   7.6582   7.7588   7.7851   7.8288
  7.8594   7.8821   7.9375   7.9919   8.0073  25.0549  25.2454  50.4480
 50.5142  50.5718  50.6292  50.7168  50.7395
 --------------------------------------------------------------
 
          Ground-State Mulliken Net Atomic Charges

     Atom                 Charge (a.u.)    Spin (a.u.)
  --------------------------------------------------------
      1 C                     0.312188       0.005325
      2 O                    -0.576220      -0.000578
      3 H                     0.389896      -0.000071
      4 C                     0.347500      -0.003927
      5 O                    -0.173198      -0.001010
      6 O                    -0.181399       0.000575
      7 O                    -0.581434      -0.000577
      8 O                    -0.449523       0.503579
      9 O                    -0.476832       0.496713
     10 H                     0.389021      -0.000031
  --------------------------------------------------------
  Sum of atomic charges =    -1.000000
  Sum of spin   charges =     1.000000

 -----------------------------------------------------------------
                    Cartesian Multipole Moments
 -----------------------------------------------------------------
    Charge (ESU x 10^10)
                -4.8032
    Dipole Moment (Debye)
         X      -2.3906      Y     -13.1445      Z     -13.2138
       Tot      18.7909
    Quadrupole Moments (Debye-Ang)
        XX     -61.1922     XY      18.7503     YY     -47.8917
        XZ      11.6914     YZ      -8.8962     ZZ     -74.6346
    Octopole Moments (Debye-Ang^2)
       XXX      83.3153    XXY     -48.5291    XYY       9.5565
       YYY     -52.1961    XXZ     -96.4492    XYZ      23.1049
       YYZ     -57.0695    XZZ      46.4180    YZZ     -29.7534
       ZZZ    -205.0117
    Hexadecapole Moments (Debye-Ang^3)
      XXXX    -648.0887   XXXY     108.2430   XXYY    -134.1013
      XYYY      67.3284   YYYY    -278.0895   XXXZ     182.7503
      XXYZ     -58.2858   XYYZ      48.4234   YYYZ     -78.3301
      XXZZ    -270.6073   XYZZ      61.7342   YYZZ    -175.7164
      XZZZ     175.3911   YZZZ    -103.5436   ZZZZ    -731.4767
 -----------------------------------------------------------------
 Calculating analytic gradient of the SCF energy
 Gradient of CDS energy
            1           2           3           4           5           6
    1   0.0022704  -0.0011983  -0.0002617  -0.0013237   0.0003346   0.0007592
    2   0.0013408   0.0007215  -0.0000671  -0.0014518   0.0012992  -0.0001580
    3   0.0003917  -0.0011697  -0.0002669  -0.0008060  -0.0008432   0.0014812
            7           8           9          10
    1  -0.0001507  -0.0002054  -0.0000293  -0.0001951
    2  -0.0015075   0.0000302   0.0000993  -0.0003064
    3   0.0009279   0.0000339   0.0001407   0.0001105
 Gradient of SCF Energy
            1           2           3           4           5           6
    1   0.0267735  -0.0235715  -0.0046007  -0.0179999   0.0129245   0.0171250
    2   0.0136678   0.0120290  -0.0124982  -0.0234197   0.0184087   0.0105874
    3   0.0035059  -0.0204278  -0.0012383  -0.0142885   0.0031340   0.0106610
            7           8           9          10
    1  -0.0105731   0.0291179  -0.0242939  -0.0049017
    2  -0.0247302   0.0099511   0.0030900  -0.0070859
    3   0.0207141   0.0240662  -0.0154883  -0.0106383
 Max gradient component =       2.912E-02
 RMS gradient           =       1.636E-02
 Computing fast CPCM-SWIG gradient
 Updating gradient with PCM contributions...
 -- total gradient after adding PCM contribution --
---------------------------------------------------
  Atom         X              Y              Z     
---------------------------------------------------
   1       0.000068      -0.000104       0.000158
   2       0.000034      -0.000061       0.000016
   3       0.000048       0.000003      -0.000110
   4       0.000094       0.000036      -0.000054
   5      -0.000069      -0.000039      -0.000014
   6       0.000007      -0.000014       0.000007
   7       0.000039       0.000025       0.000148
   8       0.000103       0.000246      -0.000272
   9      -0.000282      -0.000109       0.000134
  10      -0.000041       0.000018      -0.000013
---------------------------------------------------
 Number of fixed atoms: 0
 Gradient time:  CPU 97.96 s  wall 9.25 s
 ######################################################
 ######################################################
 # Starting finite difference calculation for IDERIV  #
 Finite diff step size:  1.88973e-03 a.u.
 ----------------------------------------------------------------
             Standard Nuclear Orientation (Angstroms)
    I     Atom           X                Y                Z
 ----------------------------------------------------------------
    1      C       0.6342017000     0.2492219000     0.7584201000
    2      O       1.4025855000    -0.2466266000     1.5928966000
    3      H      -1.9375710000    -1.0123332000    -0.8866207000
    4      C      -0.5876356000    -0.6521106000     0.4044917000
    5      O      -0.8569533000    -1.6133087000     1.1906388000
    6      O      -1.1874161000    -0.4200235000    -0.6924267000
    7      O       0.6788791000     1.3139224000     0.1285258000
    8      O      -1.4798179000     1.1120009000     2.5219901000
    9      O      -2.4778756000     0.8597842000     1.6870393000
   10      H      -1.6207131000    -2.1609506000     0.9312916000
 ----------------------------------------------------------------
 Nuclear Repulsion Energy =         379.22952826 hartrees
 There are       32 alpha and       31 beta electrons
 Discretize the solute cavity surface with Lebedev spheres
	Using 110 Lebedev grid points for each H atom
	Using 194 Lebedev grid points for other atoms
	Atomic van der Waals radii will be scaled by 1.20
 Remove points where switching function is < 1.0e-08
 Keep 1045 surface tesserae and discard 727 interior tesserae
 Molecular Surface Area = 126.295 Angst**2

                       Distance Matrix (Angstroms)
             C (  1)   O (  2)   H (  3)   C (  4)   O (  5)   O (  6)
   O (  2)  1.237995
   H (  3)  3.303286  4.229770
   C (  4)  1.559023  2.353233  1.902382
   O (  5)  2.424743  2.671170  2.417419  1.270614
   O (  6)  2.423043  3.458450  0.975333  1.271547  2.253679
   O (  7)  1.237881  2.259081  3.645243  2.354889  3.472110  2.676488
   O (  8)  2.885073  3.319237  4.042395  2.896874  3.096412  3.572824
   O (  9)  3.304564  4.036209  3.228077  2.739299  2.998331  2.994170
   H ( 10)  3.305065  3.639051  2.173597  1.902989  0.974937  2.419718
             O (  7)   O (  8)   O (  9)
   O (  8)  3.229461
   O (  9)  3.549691  1.325472
   H ( 10)  4.243501  3.641756  3.229663
 
 Requested basis set is 6-311++G(2df,2p)
 There are 76 shells and 292 basis functions
 A cutoff of  1.0D-12 yielded   2623 shell pairs
 There are     39534 function pairs (     50980 Cartesian)
 Smallest overlap matrix eigenvalue = 5.92E-05
 Guess MOs from SCF MO coefficient file

 -----------------------------------------------------------------------
  General SCF calculation program by
  Eric Jon Sundstrom, Paul Horn, Yuezhi Mao, Dmitri Zuev, Alec White,
  David Stuck, Shaama M.S., Shane Yost, Joonho Lee, David Small,
  Daniel Levine, Susi Lehtola, Hugh Burton, Evgeny Epifanovsky,
  Bang C. Huynh
 -----------------------------------------------------------------------
 Exchange:     0.1500 Hartree-Fock + 1.0000 wB97M-V + LR-HF
 Correlation:  1.0000 wB97M-V
 Using SG-2 standard quadrature grid
 Nonlocal Correlation:  VV10 with C = 0.0100 and b = 6.00 and scale = 1.00000
 Grid used for NLC:  SG-1 standard quadrature
 
 Citation of the SMD model:
 Marenich, A.V.; Cramer, C.J.; Truhlar, D.G.
 J. Phys. Chem. B 2009, 113, 6378-6396.
 iSolventCode=           1
 Solvent: water                                                           
 
 vradii
            1           2           3           4           5           6
    1   1.8500000   1.5200000   1.2000000   1.8500000   1.5200000   1.5200000
            7           8           9          10
    1   1.5200000   1.5200000   1.5200000   1.2000000
 -------------------------------------------------------
 OpenMP BLAS3 based DFT computing Module                
 Release: version 1.0, May 2013, Q-Chem Inc. Pittsburgh 
 -------------------------------------------------------
 A unrestricted SCF calculation will be
 performed using Roothaan-Hall, DIIS, GDM
 SCF converges when RMS gradient is below 1.0e-07
 ---------------------------------------
  Cycle       Energy         DIIS error
 ---------------------------------------
    1    -528.6331186199      5.89e-04  Roothaan Step
 ---------------------------------------
  Cycle       Energy         DIIS error
 ---------------------------------------
    1    -528.8116117452      6.47e-04  
    2    -528.8356976355      4.49e-04  Done DIIS. Switching to GDM
 ---------------------------------------
  Cycle       Energy        RMS Gradient
 ---------------------------------------
    1    -528.8356976355      2.91e-02   Normal BFGS step
    2    -528.8356949998      5.59e-02   Normal BFGS step
    3    -528.8419295057      4.11e-03   Normal BFGS step
    4    -528.8420077155      6.75e-03   Normal BFGS step
    5    -528.8421623590      1.03e-03   Normal BFGS step
    6    -528.8421680298      1.00e-03   Normal BFGS step
    7    -528.8421718115      5.81e-04   Normal BFGS step
    8    -528.8421726183      3.22e-04   Normal BFGS step
    9    -528.8421729413      8.08e-05   Normal BFGS step
   10    -528.8421730170      3.56e-05   Normal BFGS step
   11    -528.8421730346      1.88e-05   Normal BFGS step
   12    -528.8421730378      5.61e-06   Normal BFGS step
   13    -528.8421730383      5.67e-06   Normal BFGS step
   14    -528.8421730385      5.80e-06   Normal BFGS step
   15    -528.8421730386      5.87e-06   Normal BFGS step
   16    -528.8421730387      5.94e-06   Normal BFGS step
   17    -528.8421730389      5.91e-06   Normal BFGS step
   18    -528.8421730395      9.90e-06   Normal BFGS step
   19    -528.8421730407      1.73e-05   Normal BFGS step
   20    -528.8421730422      2.10e-05   Normal BFGS step
   21    -528.8421730435      1.56e-05   Normal BFGS step
   22    -528.8421730440      6.33e-06   Normal BFGS step
   23    -528.8421730441      1.40e-06   Normal BFGS step
   24    -528.8421730441      3.62e-07   Normal BFGS step
   25    -528.8421730441      1.59e-07   Normal BFGS step
   26    -528.8421730441      7.44e-08  Convergence criterion met
 ---------------------------------------
 SCF time:   CPU 1059.10s  wall 72.00s 
<S^2> =          0.754930359
(3)  G-ENP(liq) elect-nuc-pol free energy of system     -528.842173044 a.u.
(4)  G-CDS(liq) cavity-dispersion-solvent structure 
     free energy                                                5.1169 kcal/mol
(6)  G-S(liq) free energy of system                     -528.834018760 a.u.
 SCF   energy in the final basis set =     -528.8340187599
 Total energy in the final basis set =     -528.8340187599
 
 --------------------------------------------------------------
 
                    Orbital Energies (a.u.)
 --------------------------------------------------------------
 
 Alpha MOs
 -- Occupied --
-19.4382 -19.4378 -19.3378 -19.3376 -19.3070 -19.3067 -10.5498 -10.4753
 -1.3255  -1.2444  -1.2165  -1.1961  -1.1120  -0.8686  -0.8646  -0.7748
 -0.7112  -0.6375  -0.6303  -0.5749  -0.5548  -0.5421  -0.5364  -0.5242
 -0.5202  -0.5046  -0.4912  -0.3935  -0.3899  -0.3847  -0.3246  -0.2934
 -- Virtual --
  0.0095   0.0308   0.0606   0.0669   0.0849   0.0982   0.1071   0.1157
  0.1327   0.1501   0.1576   0.1685   0.1797   0.1835   0.2202   0.2278
  0.2448   0.2614   0.2639   0.2690   0.2874   0.2895   0.3047   0.3069
  0.3088   0.3185   0.3216   0.3338   0.3411   0.3468   0.3549   0.3588
  0.3602   0.3747   0.3890   0.4007   0.4120   0.4295   0.4381   0.4405
  0.4522   0.4736   0.5429   0.5922   0.6074   0.6576   0.6668   0.6870
  0.7000   0.7250   0.7419   0.7636   0.7826   0.8153   0.8196   0.8559
  0.8763   0.8887   0.9290   0.9783   1.0210   1.0729   1.0901   1.1022
  1.1112   1.1163   1.1182   1.1222   1.1393   1.1460   1.1613   1.1807
  1.1884   1.1979   1.2222   1.2311   1.2534   1.2786   1.2920   1.2987
  1.3134   1.3737   1.4010   1.4298   1.4320   1.4442   1.4830   1.5098
  1.5151   1.5497   1.5913   1.6248   1.6265   1.6599   1.6889   1.7179
  1.7308   1.7519   1.7710   1.7974   1.8058   1.8482   1.8849   1.9156
  1.9762   2.0399   2.0553   2.0930   2.1182   2.1751   2.2161   2.2400
  2.3179   2.3521   2.3935   2.4300   2.4456   2.4512   2.4888   2.5173
  2.5974   2.6176   2.6822   2.7285   2.7466   2.8197   2.8865   2.9332
  2.9941   3.0329   3.1133   3.1200   3.1636   3.1903   3.2207   3.2740
  3.3533   3.3715   3.4449   3.4553   3.4820   3.4987   3.5255   3.5860
  3.6127   3.6572   3.6662   3.7221   3.7823   3.7967   3.8251   3.9223
  4.0072   4.0140   4.0235   4.1196   4.2103   4.2270   4.3368   4.3556
  4.5312   4.6007   4.6641   4.7345   4.7906   4.7917   4.8227   5.0694
  5.0952   5.1002   5.1080   5.1341   5.1585   5.1595   5.1652   5.1674
  5.1839   5.1945   5.2009   5.2088   5.2137   5.2169   5.2362   5.2406
  5.2553   5.2697   5.2838   5.3088   5.3132   5.3308   5.3432   5.3693
  5.4210   5.4528   5.5510   5.5593   5.5643   5.5914   5.5987   5.6204
  5.6240   5.6434   5.6812   5.7610   5.8489   5.9354   6.0916   6.1913
  6.2341   6.3417   6.4559   6.4877   6.5595   6.6680   6.8071   6.8484
  6.8803   6.9073   6.9172   6.9341   6.9522   6.9631   6.9649   6.9844
  7.0059   7.0185   7.0436   7.0485   7.0830   7.1594   7.1790   7.1894
  7.2352   7.2636   7.2957   7.3292   7.4065   7.4328   7.4700   7.4784
  7.5066   7.5245   7.6186   7.6577   7.7586   7.7858   7.8284   7.8582
  7.8821   7.9362   7.9668   7.9978  25.0549  25.2457  50.4374  50.5048
 50.5716  50.6282  50.7172  50.7401
 
 Beta MOs
 -- Occupied --
-19.4382 -19.4378 -19.3234 -19.3233 -19.3070 -19.3067 -10.5498 -10.4753
 -1.3255  -1.2444  -1.1964  -1.1871  -1.1120  -0.8685  -0.8223  -0.7748
 -0.7112  -0.6371  -0.6303  -0.5748  -0.5548  -0.5407  -0.5336  -0.5077
 -0.4995  -0.4769  -0.4373  -0.3932  -0.3896  -0.3845  -0.2743
 -- Virtual --
  0.0096   0.0309   0.0338   0.0610   0.0672   0.0853   0.0985   0.1075
  0.1167   0.1332   0.1503   0.1586   0.1687   0.1822   0.1865   0.2203
  0.2317   0.2468   0.2646   0.2663   0.2728   0.2895   0.2908   0.3074
  0.3079   0.3146   0.3219   0.3228   0.3347   0.3421   0.3474   0.3554
  0.3596   0.3638   0.3752   0.3895   0.4060   0.4126   0.4299   0.4384
  0.4435   0.4526   0.4748   0.5431   0.5924   0.6075   0.6578   0.6693
  0.6871   0.7001   0.7252   0.7425   0.7645   0.7827   0.8155   0.8202
  0.8566   0.8768   0.8889   0.9296   0.9794   1.0219   1.0759   1.0964
  1.1077   1.1155   1.1170   1.1209   1.1231   1.1408   1.1483   1.1820
  1.1839   1.1983   1.2007   1.2297   1.2390   1.2623   1.2806   1.2935
  1.3006   1.3182   1.3748   1.4049   1.4321   1.4363   1.4708   1.4868
  1.5129   1.5224   1.5545   1.5977   1.6257   1.6424   1.6688   1.6931
  1.7190   1.7415   1.7578   1.7779   1.8020   1.8230   1.8517   1.8964
  1.9162   1.9805   2.0445   2.0582   2.0953   2.1190   2.1759   2.2254
  2.2493   2.3416   2.3566   2.3944   2.4343   2.4460   2.4518   2.4892
  2.5176   2.5975   2.6179   2.6826   2.7376   2.7473   2.8198   2.8866
  2.9337   2.9943   3.0332   3.1134   3.1201   3.1637   3.1905   3.2208
  3.2741   3.3534   3.3717   3.4450   3.4554   3.4821   3.4987   3.5257
  3.5863   3.6127   3.6573   3.6663   3.7222   3.7824   3.7967   3.8251
  3.9223   4.0072   4.0140   4.0237   4.1197   4.2104   4.2272   4.3368
  4.3556   4.5313   4.6362   4.6747   4.7360   4.8155   4.8189   4.8355
  5.0744   5.1235   5.1390   5.1448   5.1518   5.1596   5.1653   5.1674
  5.1838   5.1872   5.1967   5.2053   5.2176   5.2386   5.2631   5.2706
  5.2751   5.2780   5.2840   5.2909   5.3161   5.3263   5.3445   5.3537
  5.3709   5.4213   5.4529   5.5514   5.5593   5.5644   5.5919   5.5990
  5.6403   5.6500   5.6552   5.6813   5.7613   5.8490   5.9355   6.0916
  6.1913   6.2342   6.3418   6.4984   6.5021   6.5598   6.6707   6.8439
  6.8586   6.9079   6.9158   6.9325   6.9620   6.9796   6.9837   7.0068
  7.0196   7.0261   7.0295   7.0473   7.0779   7.1068   7.1793   7.1843
  7.1955   7.2377   7.2662   7.2971   7.3298   7.4079   7.4628   7.4808
  7.4909   7.5198   7.5252   7.6195   7.6581   7.7586   7.7859   7.8289
  7.8590   7.8823   7.9383   7.9919   8.0074  25.0549  25.2457  50.4480
 50.5142  50.5719  50.6293  50.7172  50.7401
 --------------------------------------------------------------
 
          Ground-State Mulliken Net Atomic Charges

     Atom                 Charge (a.u.)    Spin (a.u.)
  --------------------------------------------------------
      1 C                     0.312402       0.005354
      2 O                    -0.575541      -0.000574
      3 H                     0.389852      -0.000071
      4 C                     0.346997      -0.003957
      5 O                    -0.173266      -0.001009
      6 O                    -0.181492       0.000581
      7 O                    -0.581525      -0.000577
      8 O                    -0.449562       0.503581
      9 O                    -0.476859       0.496702
     10 H                     0.388995      -0.000030
  --------------------------------------------------------
  Sum of atomic charges =    -1.000000
  Sum of spin   charges =     1.000000

 -----------------------------------------------------------------
                    Cartesian Multipole Moments
 -----------------------------------------------------------------
    Charge (ESU x 10^10)
                -4.8032
    Dipole Moment (Debye)
         X      -2.3825      Y     -13.1445      Z     -13.2100
       Tot      18.7872
    Quadrupole Moments (Debye-Ang)
        XX     -61.1857     XY      18.7470     YY     -47.8970
        XZ      11.6999     YZ      -8.8966     ZZ     -74.6277
    Octopole Moments (Debye-Ang^2)
       XXX      83.3255    XXY     -48.5279    XYY       9.5610
       YYY     -52.2008    XXZ     -96.4325    XYZ      23.1025
       YYZ     -57.0717    XZZ      46.4265    YZZ     -29.7521
       ZZZ    -204.9867
    Hexadecapole Moments (Debye-Ang^3)
      XXXX    -648.0902   XXXY     108.2255   XXYY    -134.1210
      XYYY      67.3152   YYYY    -278.1275   XXXZ     182.7494
      XXYZ     -58.2788   XYYZ      48.4345   YYYZ     -78.3396
      XXZZ    -270.5808   XYZZ      61.7197   YYZZ    -175.7189
      XZZZ     175.3961   YZZZ    -103.5376   ZZZZ    -731.4048
 -----------------------------------------------------------------
 Calculating analytic gradient of the SCF energy
 Gradient of CDS energy
            1           2           3           4           5           6
    1   0.0022617  -0.0011897  -0.0002617  -0.0013246   0.0003344   0.0007591
    2   0.0013448   0.0007171  -0.0000671  -0.0014525   0.0012992  -0.0001579
    3   0.0003850  -0.0011623  -0.0002669  -0.0008063  -0.0008433   0.0014812
            7           8           9          10
    1  -0.0001493  -0.0002055  -0.0000293  -0.0001951
    2  -0.0015066   0.0000302   0.0000994  -0.0003064
    3   0.0009273   0.0000339   0.0001407   0.0001106
 Gradient of SCF Energy
            1           2           3           4           5           6
    1   0.0274504  -0.0240039  -0.0045826  -0.0182231   0.0129345   0.0171374
    2   0.0135634   0.0122379  -0.0124953  -0.0234772   0.0184097   0.0105835
    3   0.0039026  -0.0208363  -0.0012358  -0.0142847   0.0031318   0.0106629
            7           8           9          10
    1  -0.0106528   0.0291225  -0.0242982  -0.0048842
    2  -0.0247776   0.0099539   0.0030815  -0.0070798
    3   0.0207342   0.0240639  -0.0154970  -0.0106416
 Max gradient component =       2.912E-02
 RMS gradient           =       1.646E-02
 Computing fast CPCM-SWIG gradient
 Updating gradient with PCM contributions...
 -- total gradient after adding PCM contribution --
---------------------------------------------------
  Atom         X              Y              Z     
---------------------------------------------------
   1       0.000919      -0.000149       0.000531
   2      -0.000467       0.000123      -0.000362
   3       0.000054      -0.000003      -0.000113
   4      -0.000148      -0.000027      -0.000058
   5      -0.000047      -0.000023      -0.000016
   6       0.000027      -0.000013       0.000011
   7      -0.000126      -0.000056       0.000172
   8       0.000104       0.000242      -0.000278
   9      -0.000280      -0.000111       0.000134
  10      -0.000036       0.000017      -0.000020
---------------------------------------------------
 Number of fixed atoms: 0
 Gradient time:  CPU 94.48 s  wall 8.24 s
 ----------------------------------------------------------------
             Standard Nuclear Orientation (Angstroms)
    I     Atom           X                Y                Z
 ----------------------------------------------------------------
    1      C       0.6322017000     0.2492219000     0.7584201000
    2      O       1.4025855000    -0.2466266000     1.5928966000
    3      H      -1.9375710000    -1.0123332000    -0.8866207000
    4      C      -0.5876356000    -0.6521106000     0.4044917000
    5      O      -0.8569533000    -1.6133087000     1.1906388000
    6      O      -1.1874161000    -0.4200235000    -0.6924267000
    7      O       0.6788791000     1.3139224000     0.1285258000
    8      O      -1.4798179000     1.1120009000     2.5219901000
    9      O      -2.4778756000     0.8597842000     1.6870393000
   10      H      -1.6207131000    -2.1609506000     0.9312916000
 ----------------------------------------------------------------
 Nuclear Repulsion Energy =         379.24155866 hartrees
 There are       32 alpha and       31 beta electrons
 Discretize the solute cavity surface with Lebedev spheres
	Using 110 Lebedev grid points for each H atom
	Using 194 Lebedev grid points for other atoms
	Atomic van der Waals radii will be scaled by 1.20
 Remove points where switching function is < 1.0e-08
 Keep 1045 surface tesserae and discard 727 interior tesserae
 Molecular Surface Area = 126.285 Angst**2

                       Distance Matrix (Angstroms)
             C (  1)   O (  2)   H (  3)   C (  4)   O (  5)   O (  6)
   O (  2)  1.239237
   H (  3)  3.301729  4.229770
   C (  4)  1.557456  2.353233  1.902382
   O (  5)  2.423513  2.671170  2.417419  1.270614
   O (  6)  2.421540  3.458450  0.975333  1.271547  2.253679
   O (  7)  1.237955  2.259081  3.645243  2.354889  3.472110  2.676488
   O (  8)  2.883608  3.319237  4.042395  2.896874  3.096412  3.572824
   O (  9)  3.302681  4.036209  3.228077  2.739299  2.998331  2.994170
   H ( 10)  3.303701  3.639051  2.173597  1.902989  0.974937  2.419718
             O (  7)   O (  8)   O (  9)
   O (  8)  3.229461
   O (  9)  3.549691  1.325472
   H ( 10)  4.243501  3.641756  3.229663
 
 Requested basis set is 6-311++G(2df,2p)
 There are 76 shells and 292 basis functions
 A cutoff of  1.0D-12 yielded   2623 shell pairs
 There are     39534 function pairs (     50980 Cartesian)
 Smallest overlap matrix eigenvalue = 5.89E-05
 Guess MOs from SCF MO coefficient file

 -----------------------------------------------------------------------
  General SCF calculation program by
  Eric Jon Sundstrom, Paul Horn, Yuezhi Mao, Dmitri Zuev, Alec White,
  David Stuck, Shaama M.S., Shane Yost, Joonho Lee, David Small,
  Daniel Levine, Susi Lehtola, Hugh Burton, Evgeny Epifanovsky,
  Bang C. Huynh
 -----------------------------------------------------------------------
 Exchange:     0.1500 Hartree-Fock + 1.0000 wB97M-V + LR-HF
 Correlation:  1.0000 wB97M-V
 Using SG-2 standard quadrature grid
 Nonlocal Correlation:  VV10 with C = 0.0100 and b = 6.00 and scale = 1.00000
 Grid used for NLC:  SG-1 standard quadrature
 
 Citation of the SMD model:
 Marenich, A.V.; Cramer, C.J.; Truhlar, D.G.
 J. Phys. Chem. B 2009, 113, 6378-6396.
 iSolventCode=           1
 Solvent: water                                                           
 
 vradii
            1           2           3           4           5           6
    1   1.8500000   1.5200000   1.2000000   1.8500000   1.5200000   1.5200000
            7           8           9          10
    1   1.5200000   1.5200000   1.5200000   1.2000000
 -------------------------------------------------------
 OpenMP BLAS3 based DFT computing Module                
 Release: version 1.0, May 2013, Q-Chem Inc. Pittsburgh 
 -------------------------------------------------------
 A unrestricted SCF calculation will be
 performed using Roothaan-Hall, DIIS, GDM
 SCF converges when RMS gradient is below 1.0e-07
 ---------------------------------------
  Cycle       Energy         DIIS error
 ---------------------------------------
    1    -528.6331250497      5.88e-04  Roothaan Step
 ---------------------------------------
  Cycle       Energy         DIIS error
 ---------------------------------------
    1    -528.8115586636      6.47e-04  
    2    -528.8356626722      4.50e-04  Done DIIS. Switching to GDM
 ---------------------------------------
  Cycle       Energy        RMS Gradient
 ---------------------------------------
    1    -528.8356626722      2.90e-02   Normal BFGS step
    2    -528.8356612422      5.58e-02   Normal BFGS step
    3    -528.8419210726      4.14e-03   Normal BFGS step
    4    -528.8419985749      6.81e-03   Normal BFGS step
    5    -528.8421539961      1.03e-03   Normal BFGS step
    6    -528.8421596952      9.98e-04   Normal BFGS step
    7    -528.8421634878      5.83e-04   Normal BFGS step
    8    -528.8421642993      3.22e-04   Normal BFGS step
    9    -528.8421646207      8.31e-05   Normal BFGS step
   10    -528.8421646950      3.67e-05   Normal BFGS step
   11    -528.8421647123      1.88e-05   Normal BFGS step
   12    -528.8421647156      5.58e-06   Normal BFGS step
   13    -528.8421647161      4.09e-06   Normal BFGS step
   14    -528.8421647163      3.92e-06   Normal BFGS step
   15    -528.8421647163      3.82e-06   Normal BFGS step
   16    -528.8421647163      3.69e-06   Normal BFGS step
   17    -528.8421647164      3.53e-06   Normal BFGS step
   18    -528.8421647166      6.11e-06   Normal BFGS step
   19    -528.8421647169      1.09e-05   Normal BFGS step
   20    -528.8421647175      1.48e-05   Normal BFGS step
   21    -528.8421647181      1.36e-05   Normal BFGS step
   22    -528.8421647185      7.10e-06   Normal BFGS step
   23    -528.8421647186      1.78e-06   Normal BFGS step
   24    -528.8421647186      3.38e-07   Normal BFGS step
   25    -528.8421647186      1.74e-07   Normal BFGS step
   26    -528.8421647186      7.40e-08  Convergence criterion met
 ---------------------------------------
 SCF time:   CPU 1053.62s  wall 72.00s 
<S^2> =          0.754930070
(3)  G-ENP(liq) elect-nuc-pol free energy of system     -528.842164719 a.u.
(4)  G-CDS(liq) cavity-dispersion-solvent structure 
     free energy                                                5.1115 kcal/mol
(6)  G-S(liq) free energy of system                     -528.834019015 a.u.
 SCF   energy in the final basis set =     -528.8340190153
 Total energy in the final basis set =     -528.8340190153
 
 --------------------------------------------------------------
 
                    Orbital Energies (a.u.)
 --------------------------------------------------------------
 
 Alpha MOs
 -- Occupied --
-19.4383 -19.4379 -19.3378 -19.3376 -19.3069 -19.3068 -10.5500 -10.4754
 -1.3256  -1.2445  -1.2165  -1.1958  -1.1115  -0.8689  -0.8646  -0.7749
 -0.7115  -0.6377  -0.6303  -0.5749  -0.5547  -0.5420  -0.5364  -0.5242
 -0.5202  -0.5046  -0.4912  -0.3936  -0.3898  -0.3845  -0.3246  -0.2934
 -- Virtual --
  0.0092   0.0308   0.0606   0.0670   0.0849   0.0983   0.1071   0.1157
  0.1327   0.1501   0.1576   0.1683   0.1797   0.1835   0.2202   0.2278
  0.2448   0.2614   0.2639   0.2690   0.2874   0.2895   0.3047   0.3070
  0.3088   0.3185   0.3217   0.3338   0.3410   0.3468   0.3549   0.3588
  0.3603   0.3749   0.3891   0.4007   0.4120   0.4294   0.4379   0.4404
  0.4521   0.4736   0.5428   0.5922   0.6073   0.6576   0.6667   0.6870
  0.6999   0.7250   0.7421   0.7634   0.7822   0.8152   0.8196   0.8559
  0.8763   0.8887   0.9286   0.9784   1.0210   1.0729   1.0901   1.1022
  1.1112   1.1162   1.1185   1.1225   1.1393   1.1460   1.1613   1.1806
  1.1884   1.1980   1.2222   1.2311   1.2536   1.2787   1.2921   1.2985
  1.3135   1.3739   1.4010   1.4297   1.4317   1.4442   1.4829   1.5096
  1.5155   1.5497   1.5915   1.6248   1.6265   1.6598   1.6886   1.7178
  1.7309   1.7525   1.7709   1.7974   1.8055   1.8479   1.8849   1.9155
  1.9764   2.0400   2.0552   2.0931   2.1180   2.1753   2.2160   2.2401
  2.3179   2.3521   2.3931   2.4298   2.4455   2.4512   2.4893   2.5175
  2.5971   2.6182   2.6823   2.7285   2.7464   2.8194   2.8862   2.9332
  2.9941   3.0327   3.1136   3.1200   3.1632   3.1906   3.2211   3.2742
  3.3534   3.3710   3.4454   3.4554   3.4821   3.4982   3.5252   3.5863
  3.6129   3.6561   3.6663   3.7219   3.7827   3.7969   3.8250   3.9227
  4.0083   4.0151   4.0247   4.1199   4.2094   4.2266   4.3372   4.3556
  4.5311   4.6007   4.6642   4.7360   4.7906   4.7916   4.8228   5.0693
  5.0952   5.1002   5.1080   5.1340   5.1586   5.1596   5.1652   5.1675
  5.1839   5.1944   5.2009   5.2087   5.2137   5.2170   5.2362   5.2406
  5.2553   5.2696   5.2839   5.3088   5.3133   5.3308   5.3431   5.3687
  5.4194   5.4524   5.5514   5.5596   5.5643   5.5910   5.5987   5.6204
  5.6240   5.6436   5.6804   5.7609   5.8486   5.9352   6.0910   6.1906
  6.2327   6.3408   6.4559   6.4876   6.5549   6.6676   6.8071   6.8481
  6.8803   6.9074   6.9172   6.9339   6.9519   6.9626   6.9647   6.9840
  7.0056   7.0183   7.0433   7.0481   7.0832   7.1594   7.1790   7.1894
  7.2355   7.2638   7.2956   7.3298   7.4064   7.4327   7.4692   7.4783
  7.5066   7.5236   7.6186   7.6579   7.7589   7.7841   7.8284   7.8591
  7.8817   7.9347   7.9668   7.9977  25.0549  25.2451  50.4374  50.5048
 50.5715  50.6280  50.7164  50.7389
 
 Beta MOs
 -- Occupied --
-19.4383 -19.4379 -19.3234 -19.3233 -19.3069 -19.3068 -10.5500 -10.4754
 -1.3256  -1.2445  -1.1961  -1.1871  -1.1116  -0.8688  -0.8223  -0.7749
 -0.7115  -0.6372  -0.6303  -0.5748  -0.5547  -0.5406  -0.5335  -0.5078
 -0.4995  -0.4769  -0.4373  -0.3933  -0.3895  -0.3843  -0.2743
 -- Virtual --
  0.0093   0.0309   0.0338   0.0610   0.0672   0.0853   0.0985   0.1075
  0.1167   0.1331   0.1503   0.1586   0.1686   0.1822   0.1866   0.2203
  0.2317   0.2468   0.2646   0.2663   0.2729   0.2895   0.2908   0.3075
  0.3079   0.3145   0.3219   0.3228   0.3347   0.3421   0.3474   0.3554
  0.3596   0.3639   0.3754   0.3896   0.4060   0.4126   0.4298   0.4381
  0.4434   0.4526   0.4749   0.5430   0.5924   0.6074   0.6578   0.6692
  0.6871   0.7001   0.7252   0.7427   0.7643   0.7823   0.8153   0.8203
  0.8566   0.8767   0.8889   0.9292   0.9795   1.0218   1.0759   1.0965
  1.1077   1.1155   1.1170   1.1210   1.1234   1.1408   1.1483   1.1820
  1.1839   1.1984   1.2007   1.2296   1.2390   1.2624   1.2807   1.2936
  1.3004   1.3182   1.3750   1.4049   1.4321   1.4359   1.4709   1.4867
  1.5127   1.5227   1.5546   1.5979   1.6258   1.6423   1.6687   1.6928
  1.7189   1.7420   1.7581   1.7778   1.8020   1.8227   1.8515   1.8964
  1.9161   1.9807   2.0446   2.0580   2.0953   2.1188   2.1761   2.2254
  2.2493   2.3415   2.3566   2.3940   2.4341   2.4460   2.4518   2.4897
  2.5178   2.5972   2.6184   2.6827   2.7376   2.7471   2.8195   2.8863
  2.9338   2.9942   3.0331   3.1138   3.1201   3.1633   3.1908   3.2211
  3.2743   3.3536   3.3712   3.4455   3.4555   3.4822   3.4982   3.5255
  3.5866   3.6129   3.6562   3.6664   3.7220   3.7828   3.7969   3.8251
  3.9227   4.0083   4.0151   4.0249   4.1200   4.2095   4.2268   4.3372
  4.3556   4.5311   4.6363   4.6748   4.7375   4.8155   4.8189   4.8355
  5.0744   5.1235   5.1389   5.1448   5.1518   5.1597   5.1654   5.1674
  5.1839   5.1872   5.1967   5.2052   5.2175   5.2386   5.2631   5.2706
  5.2751   5.2780   5.2839   5.2910   5.3161   5.3264   5.3445   5.3537
  5.3702   5.4196   5.4525   5.5519   5.5596   5.5645   5.5914   5.5990
  5.6404   5.6499   5.6552   5.6804   5.7612   5.8487   5.9353   6.0910
  6.1907   6.2329   6.3408   6.4984   6.5021   6.5552   6.6703   6.8435
  6.8586   6.9079   6.9158   6.9324   6.9619   6.9780   6.9835   7.0066
  7.0195   7.0261   7.0294   7.0470   7.0778   7.1069   7.1793   7.1843
  7.1954   7.2379   7.2664   7.2970   7.3304   7.4078   7.4620   7.4808
  7.4908   7.5196   7.5245   7.6194   7.6584   7.7590   7.7842   7.8288
  7.8598   7.8819   7.9366   7.9919   8.0073  25.0549  25.2451  50.4480
 50.5142  50.5718  50.6292  50.7164  50.7390
 --------------------------------------------------------------
 
          Ground-State Mulliken Net Atomic Charges

     Atom                 Charge (a.u.)    Spin (a.u.)
  --------------------------------------------------------
      1 C                     0.311975       0.005297
      2 O                    -0.576897      -0.000581
      3 H                     0.389940      -0.000070
      4 C                     0.348002      -0.003897
      5 O                    -0.173129      -0.001011
      6 O                    -0.181307       0.000569
      7 O                    -0.581343      -0.000577
      8 O                    -0.449484       0.503578
      9 O                    -0.476805       0.496725
     10 H                     0.389047      -0.000032
  --------------------------------------------------------
  Sum of atomic charges =    -1.000000
  Sum of spin   charges =     1.000000

 -----------------------------------------------------------------
                    Cartesian Multipole Moments
 -----------------------------------------------------------------
    Charge (ESU x 10^10)
                -4.8032
    Dipole Moment (Debye)
         X      -2.3987      Y     -13.1444      Z     -13.2176
       Tot      18.7945
    Quadrupole Moments (Debye-Ang)
        XX     -61.1987     XY      18.7537     YY     -47.8864
        XZ      11.6830     YZ      -8.8959     ZZ     -74.6414
    Octopole Moments (Debye-Ang^2)
       XXX      83.3052    XXY     -48.5303    XYY       9.5520
       YYY     -52.1914    XXZ     -96.4658    XYZ      23.1073
       YYZ     -57.0673    XZZ      46.4095    YZZ     -29.7545
       ZZZ    -205.0366
    Hexadecapole Moments (Debye-Ang^3)
      XXXX    -648.0870   XXXY     108.2604   XXYY    -134.0815
      XYYY      67.3416   YYYY    -278.0515   XXXZ     182.7513
      XXYZ     -58.2928   XYYZ      48.4123   YYYZ     -78.3205
      XXZZ    -270.6337   XYZZ      61.7487   YYZZ    -175.7139
      XZZZ     175.3862   YZZZ    -103.5494   ZZZZ    -731.5486
 -----------------------------------------------------------------
 Calculating analytic gradient of the SCF energy
 Gradient of CDS energy
            1           2           3           4           5           6
    1   0.0022792  -0.0012069  -0.0002617  -0.0013227   0.0003348   0.0007593
    2   0.0013368   0.0007259  -0.0000671  -0.0014512   0.0012991  -0.0001580
    3   0.0003984  -0.0011773  -0.0002669  -0.0008057  -0.0008432   0.0014811
            7           8           9          10
    1  -0.0001522  -0.0002053  -0.0000293  -0.0001951
    2  -0.0015084   0.0000301   0.0000993  -0.0003064
    3   0.0009284   0.0000339   0.0001407   0.0001105
 Gradient of SCF Energy
            1           2           3           4           5           6
    1   0.0260959  -0.0231397  -0.0046188  -0.0177759   0.0129145   0.0171127
    2   0.0137695   0.0118213  -0.0125010  -0.0233616   0.0184078   0.0105913
    3   0.0031108  -0.0200212  -0.0012408  -0.0142919   0.0031362   0.0106592
            7           8           9          10
    1  -0.0104931   0.0291133  -0.0242896  -0.0049193
    2  -0.0246821   0.0099484   0.0030984  -0.0070920
    3   0.0206937   0.0240685  -0.0154796  -0.0106350
 Max gradient component =       2.911E-02
 RMS gradient           =       1.626E-02
 Computing fast CPCM-SWIG gradient
 Updating gradient with PCM contributions...
 -- total gradient after adding PCM contribution --
---------------------------------------------------
  Atom         X              Y              Z     
---------------------------------------------------
   1      -0.000784      -0.000062      -0.000213
   2       0.000534      -0.000244       0.000393
   3       0.000042       0.000008      -0.000107
   4       0.000336       0.000099      -0.000049
   5      -0.000090      -0.000055      -0.000011
   6      -0.000012      -0.000015       0.000005
   7       0.000204       0.000107       0.000123
   8       0.000101       0.000249      -0.000266
   9      -0.000284      -0.000107       0.000133
  10      -0.000046       0.000020      -0.000007
---------------------------------------------------
 Number of fixed atoms: 0
 Gradient time:  CPU 96.86 s  wall 8.47 s
 ----------------------------------------------------------------
             Standard Nuclear Orientation (Angstroms)
    I     Atom           X                Y                Z
 ----------------------------------------------------------------
    1      C       0.6332017000     0.2502219000     0.7584201000
    2      O       1.4025855000    -0.2466266000     1.5928966000
    3      H      -1.9375710000    -1.0123332000    -0.8866207000
    4      C      -0.5876356000    -0.6521106000     0.4044917000
    5      O      -0.8569533000    -1.6133087000     1.1906388000
    6      O      -1.1874161000    -0.4200235000    -0.6924267000
    7      O       0.6788791000     1.3139224000     0.1285258000
    8      O      -1.4798179000     1.1120009000     2.5219901000
    9      O      -2.4778756000     0.8597842000     1.6870393000
   10      H      -1.6207131000    -2.1609506000     0.9312916000
 ----------------------------------------------------------------
 Nuclear Repulsion Energy =         379.23514191 hartrees
 There are       32 alpha and       31 beta electrons
 Discretize the solute cavity surface with Lebedev spheres
	Using 110 Lebedev grid points for each H atom
	Using 194 Lebedev grid points for other atoms
	Atomic van der Waals radii will be scaled by 1.20
 Remove points where switching function is < 1.0e-08
 Keep 1045 surface tesserae and discard 727 interior tesserae
 Molecular Surface Area = 126.289 Angst**2

                       Distance Matrix (Angstroms)
             C (  1)   O (  2)   H (  3)   C (  4)   O (  5)   O (  6)
   O (  2)  1.239016
   H (  3)  3.302889  4.229770
   C (  4)  1.558818  2.353233  1.902382
   O (  5)  2.424896  2.671170  2.417419  1.270614
   O (  6)  2.422568  3.458450  0.975333  1.271547  2.253679
   O (  7)  1.237058  2.259081  3.645243  2.354889  3.472110  2.676488
   O (  8)  2.884041  3.319237  4.042395  2.896874  3.096412  3.572824
   O (  9)  3.303438  4.036209  3.228077  2.739299  2.998331  2.994170
   H ( 10)  3.305113  3.639051  2.173597  1.902989  0.974937  2.419718
             O (  7)   O (  8)   O (  9)
   O (  8)  3.229461
   O (  9)  3.549691  1.325472
   H ( 10)  4.243501  3.641756  3.229663
 
 Requested basis set is 6-311++G(2df,2p)
 There are 76 shells and 292 basis functions
 A cutoff of  1.0D-12 yielded   2623 shell pairs
 There are     39534 function pairs (     50980 Cartesian)
 Smallest overlap matrix eigenvalue = 5.92E-05
 Guess MOs from SCF MO coefficient file

 -----------------------------------------------------------------------
  General SCF calculation program by
  Eric Jon Sundstrom, Paul Horn, Yuezhi Mao, Dmitri Zuev, Alec White,
  David Stuck, Shaama M.S., Shane Yost, Joonho Lee, David Small,
  Daniel Levine, Susi Lehtola, Hugh Burton, Evgeny Epifanovsky,
  Bang C. Huynh
 -----------------------------------------------------------------------
 Exchange:     0.1500 Hartree-Fock + 1.0000 wB97M-V + LR-HF
 Correlation:  1.0000 wB97M-V
 Using SG-2 standard quadrature grid
 Nonlocal Correlation:  VV10 with C = 0.0100 and b = 6.00 and scale = 1.00000
 Grid used for NLC:  SG-1 standard quadrature
 
 Citation of the SMD model:
 Marenich, A.V.; Cramer, C.J.; Truhlar, D.G.
 J. Phys. Chem. B 2009, 113, 6378-6396.
 iSolventCode=           1
 Solvent: water                                                           
 
 vradii
            1           2           3           4           5           6
    1   1.8500000   1.5200000   1.2000000   1.8500000   1.5200000   1.5200000
            7           8           9          10
    1   1.5200000   1.5200000   1.5200000   1.2000000
 -------------------------------------------------------
 OpenMP BLAS3 based DFT computing Module                
 Release: version 1.0, May 2013, Q-Chem Inc. Pittsburgh 
 -------------------------------------------------------
 A unrestricted SCF calculation will be
 performed using Roothaan-Hall, DIIS, GDM
 SCF converges when RMS gradient is below 1.0e-07
 ---------------------------------------
  Cycle       Energy         DIIS error
 ---------------------------------------
    1    -528.6330834974      5.89e-04  Roothaan Step
 ---------------------------------------
  Cycle       Energy         DIIS error
 ---------------------------------------
    1    -528.8116278141      6.46e-04  
    2    -528.8357163332      4.48e-04  Done DIIS. Switching to GDM
 ---------------------------------------
  Cycle       Energy        RMS Gradient
 ---------------------------------------
    1    -528.8357163332      2.91e-02   Normal BFGS step
    2    -528.8357247801      5.59e-02   Normal BFGS step
    3    -528.8419277509      4.12e-03   Normal BFGS step
    4    -528.8420060138      6.74e-03   Normal BFGS step
    5    -528.8421605999      1.03e-03   Normal BFGS step
    6    -528.8421662698      9.95e-04   Normal BFGS step
    7    -528.8421700398      5.83e-04   Normal BFGS step
    8    -528.8421708498      3.20e-04   Normal BFGS step
    9    -528.8421711697      8.31e-05   Normal BFGS step
   10    -528.8421712431      3.63e-05   Normal BFGS step
   11    -528.8421712602      1.86e-05   Normal BFGS step
   12    -528.8421712636      5.55e-06   Normal BFGS step
   13    -528.8421712641      4.59e-06   Normal BFGS step
   14    -528.8421712643      4.74e-06   Normal BFGS step
   15    -528.8421712643      4.81e-06   Normal BFGS step
   16    -528.8421712644      4.88e-06   Normal BFGS step
   17    -528.8421712645      4.87e-06   Normal BFGS step
   18    -528.8421712648      7.77e-06   Normal BFGS step
   19    -528.8421712655      1.40e-05   Normal BFGS step
   20    -528.8421712665      1.80e-05   Normal BFGS step
   21    -528.8421712675      1.50e-05   Normal BFGS step
   22    -528.8421712679      6.81e-06   Normal BFGS step
   23    -528.8421712680      1.56e-06   Normal BFGS step
   24    -528.8421712680      3.56e-07   Normal BFGS step
   25    -528.8421712680      1.70e-07   Normal BFGS step
  GDM::WARNING energy changes are now smaller than effective accuracy.
  GDM::        calculation will continue, but THRESH should be increased
  GDM::        or SCF_CONVERGENCE decreased. 
  GDM::        effective_thresh = 1.89e-09
   26    -528.8421712680      7.45e-08  Convergence criterion met
 ---------------------------------------
 SCF time:   CPU 1071.19s  wall 72.00s 
<S^2> =          0.754930082
(3)  G-ENP(liq) elect-nuc-pol free energy of system     -528.842171268 a.u.
(4)  G-CDS(liq) cavity-dispersion-solvent structure 
     free energy                                                5.1158 kcal/mol
(6)  G-S(liq) free energy of system                     -528.834018748 a.u.
 SCF   energy in the final basis set =     -528.8340187485
 Total energy in the final basis set =     -528.8340187485
 
 --------------------------------------------------------------
 
                    Orbital Energies (a.u.)
 --------------------------------------------------------------
 
 Alpha MOs
 -- Occupied --
-19.4382 -19.4378 -19.3378 -19.3376 -19.3069 -19.3068 -10.5498 -10.4754
 -1.3255  -1.2444  -1.2165  -1.1960  -1.1119  -0.8686  -0.8646  -0.7748
 -0.7113  -0.6376  -0.6303  -0.5749  -0.5548  -0.5421  -0.5364  -0.5242
 -0.5202  -0.5046  -0.4912  -0.3935  -0.3899  -0.3846  -0.3246  -0.2934
 -- Virtual --
  0.0094   0.0308   0.0606   0.0670   0.0849   0.0982   0.1071   0.1157
  0.1327   0.1501   0.1576   0.1685   0.1797   0.1835   0.2202   0.2278
  0.2448   0.2613   0.2639   0.2689   0.2874   0.2895   0.3047   0.3069
  0.3088   0.3185   0.3217   0.3338   0.3411   0.3468   0.3549   0.3588
  0.3602   0.3748   0.3891   0.4007   0.4120   0.4294   0.4381   0.4405
  0.4522   0.4736   0.5429   0.5922   0.6074   0.6576   0.6667   0.6870
  0.7001   0.7250   0.7420   0.7636   0.7826   0.8152   0.8195   0.8560
  0.8763   0.8887   0.9288   0.9785   1.0210   1.0728   1.0901   1.1022
  1.1112   1.1162   1.1183   1.1223   1.1392   1.1460   1.1613   1.1807
  1.1884   1.1981   1.2222   1.2311   1.2535   1.2786   1.2920   1.2987
  1.3134   1.3738   1.4010   1.4297   1.4319   1.4442   1.4830   1.5096
  1.5153   1.5497   1.5914   1.6248   1.6264   1.6599   1.6887   1.7179
  1.7308   1.7522   1.7710   1.7975   1.8057   1.8481   1.8851   1.9155
  1.9763   2.0400   2.0553   2.0931   2.1182   2.1752   2.2160   2.2400
  2.3179   2.3522   2.3934   2.4300   2.4456   2.4512   2.4890   2.5173
  2.5973   2.6178   2.6822   2.7286   2.7466   2.8197   2.8864   2.9333
  2.9944   3.0326   3.1135   3.1200   3.1635   3.1901   3.2208   3.2740
  3.3535   3.3713   3.4451   3.4553   3.4822   3.4986   3.5252   3.5862
  3.6126   3.6572   3.6661   3.7221   3.7824   3.7967   3.8251   3.9223
  4.0069   4.0146   4.0237   4.1196   4.2105   4.2266   4.3368   4.3556
  4.5312   4.6007   4.6641   4.7346   4.7906   4.7917   4.8227   5.0693
  5.0952   5.1002   5.1080   5.1340   5.1585   5.1596   5.1652   5.1674
  5.1839   5.1944   5.2009   5.2087   5.2137   5.2170   5.2362   5.2406
  5.2553   5.2696   5.2839   5.3089   5.3132   5.3308   5.3432   5.3692
  5.4208   5.4528   5.5511   5.5593   5.5643   5.5913   5.5987   5.6204
  5.6240   5.6435   5.6811   5.7611   5.8488   5.9353   6.0914   6.1915
  6.2335   6.3417   6.4559   6.4877   6.5588   6.6680   6.8072   6.8483
  6.8803   6.9074   6.9172   6.9340   6.9521   6.9630   6.9648   6.9845
  7.0058   7.0186   7.0434   7.0484   7.0831   7.1595   7.1790   7.1894
  7.2353   7.2636   7.2956   7.3294   7.4065   7.4328   7.4697   7.4784
  7.5068   7.5244   7.6187   7.6576   7.7587   7.7856   7.8285   7.8583
  7.8820   7.9360   7.9669   7.9978  25.0549  25.2456  50.4374  50.5048
 50.5716  50.6281  50.7167  50.7403
 
 Beta MOs
 -- Occupied --
-19.4382 -19.4378 -19.3234 -19.3233 -19.3069 -19.3068 -10.5498 -10.4754
 -1.3255  -1.2444  -1.1964  -1.1871  -1.1119  -0.8685  -0.8223  -0.7748
 -0.7112  -0.6371  -0.6303  -0.5748  -0.5548  -0.5406  -0.5336  -0.5077
 -0.4995  -0.4769  -0.4373  -0.3932  -0.3896  -0.3845  -0.2743
 -- Virtual --
  0.0096   0.0309   0.0338   0.0610   0.0672   0.0853   0.0985   0.1075
  0.1167   0.1332   0.1503   0.1586   0.1687   0.1822   0.1865   0.2203
  0.2317   0.2468   0.2646   0.2663   0.2728   0.2895   0.2908   0.3074
  0.3079   0.3145   0.3219   0.3228   0.3347   0.3421   0.3474   0.3554
  0.3596   0.3638   0.3753   0.3896   0.4060   0.4126   0.4298   0.4384
  0.4435   0.4526   0.4748   0.5431   0.5924   0.6075   0.6578   0.6692
  0.6871   0.7002   0.7252   0.7426   0.7644   0.7827   0.8154   0.8202
  0.8567   0.8767   0.8889   0.9294   0.9795   1.0219   1.0758   1.0965
  1.1077   1.1155   1.1169   1.1209   1.1232   1.1407   1.1483   1.1820
  1.1839   1.1984   1.2007   1.2297   1.2390   1.2623   1.2806   1.2935
  1.3006   1.3182   1.3749   1.4050   1.4320   1.4362   1.4709   1.4868
  1.5127   1.5226   1.5545   1.5979   1.6256   1.6424   1.6687   1.6929
  1.7190   1.7416   1.7580   1.7779   1.8021   1.8228   1.8516   1.8966
  1.9162   1.9807   2.0446   2.0581   2.0953   2.1189   2.1759   2.2254
  2.2493   2.3416   2.3567   2.3943   2.4343   2.4461   2.4518   2.4894
  2.5176   2.5975   2.6180   2.6826   2.7377   2.7472   2.8198   2.8865
  2.9339   2.9945   3.0330   3.1137   3.1200   3.1636   3.1904   3.2209
  3.2741   3.3537   3.3716   3.4452   3.4554   3.4823   3.4986   3.5255
  3.5864   3.6126   3.6573   3.6663   3.7222   3.7825   3.7967   3.8251
  3.9224   4.0070   4.0146   4.0239   4.1197   4.2107   4.2268   4.3369
  4.3556   4.5313   4.6363   4.6747   4.7362   4.8155   4.8189   4.8355
  5.0744   5.1235   5.1390   5.1448   5.1518   5.1596   5.1653   5.1674
  5.1840   5.1872   5.1967   5.2053   5.2175   5.2386   5.2631   5.2706
  5.2751   5.2780   5.2839   5.2909   5.3161   5.3263   5.3445   5.3537
  5.3708   5.4211   5.4529   5.5515   5.5593   5.5645   5.5918   5.5990
  5.6403   5.6500   5.6552   5.6811   5.7613   5.8489   5.9355   6.0915
  6.1915   6.2337   6.3417   6.4984   6.5021   6.5592   6.6706   6.8438
  6.8586   6.9079   6.9159   6.9325   6.9620   6.9792   6.9837   7.0067
  7.0195   7.0262   7.0296   7.0472   7.0779   7.1069   7.1793   7.1843
  7.1954   7.2377   7.2662   7.2970   7.3300   7.4078   7.4625   7.4809
  7.4909   7.5198   7.5251   7.6196   7.6581   7.7587   7.7856   7.8290
  7.8590   7.8822   7.9381   7.9919   8.0074  25.0549  25.2456  50.4480
 50.5142  50.5719  50.6293  50.7167  50.7404
 --------------------------------------------------------------
 
          Ground-State Mulliken Net Atomic Charges

     Atom                 Charge (a.u.)    Spin (a.u.)
  --------------------------------------------------------
      1 C                     0.312101       0.005309
      2 O                    -0.576871      -0.000577
      3 H                     0.389878      -0.000071
      4 C                     0.347374      -0.003910
      5 O                    -0.173321      -0.001010
      6 O                    -0.181445       0.000573
      7 O                    -0.580366      -0.000576
      8 O                    -0.449520       0.503572
      9 O                    -0.476822       0.496723
     10 H                     0.388992      -0.000032
  --------------------------------------------------------
  Sum of atomic charges =    -1.000000
  Sum of spin   charges =     1.000000

 -----------------------------------------------------------------
                    Cartesian Multipole Moments
 -----------------------------------------------------------------
    Charge (ESU x 10^10)
                -4.8032
    Dipole Moment (Debye)
         X      -2.3907      Y     -13.1336      Z     -13.2192
       Tot      18.7871
    Quadrupole Moments (Debye-Ang)
        XX     -61.1990     XY      18.7559     YY     -47.8831
        XZ      11.6841     YZ      -8.8922     ZZ     -74.6447
    Octopole Moments (Debye-Ang^2)
       XXX      83.3087    XXY     -48.5204    XYY       9.5643
       YYY     -52.1778    XXZ     -96.4662    XYZ      23.1078
       YYZ     -57.0694    XZZ      46.4087    YZZ     -29.7494
       ZZZ    -205.0424
    Hexadecapole Moments (Debye-Ang^3)
      XXXX    -648.1443   XXXY     108.2488   XXYY    -134.0980
      XYYY      67.3281   YYYY    -278.0683   XXXZ     182.7213
      XXYZ     -58.2897   XYYZ      48.4235   YYYZ     -78.3258
      XXZZ    -270.6463   XYZZ      61.7370   YYZZ    -175.7178
      XZZZ     175.3618   YZZZ    -103.5545   ZZZZ    -731.5596
 -----------------------------------------------------------------
 Calculating analytic gradient of the SCF energy
 Gradient of CDS energy
            1           2           3           4           5           6
    1   0.0022744  -0.0012027  -0.0002617  -0.0013238   0.0003346   0.0007590
    2   0.0013236   0.0007256  -0.0000671  -0.0014526   0.0012992  -0.0001581
    3   0.0004036  -0.0011742  -0.0002669  -0.0008063  -0.0008431   0.0014813
            7           8           9          10
    1  -0.0001499  -0.0002055  -0.0000293  -0.0001951
    2  -0.0014934   0.0000300   0.0000993  -0.0003064
    3   0.0009204   0.0000340   0.0001408   0.0001106
 Gradient of SCF Energy
            1           2           3           4           5           6
    1   0.0266834  -0.0233708  -0.0045982  -0.0180711   0.0129123   0.0171317
    2   0.0147654   0.0118327  -0.0124864  -0.0235876   0.0184125   0.0106097
    3   0.0028864  -0.0201780  -0.0012282  -0.0143428   0.0031318   0.0106658
            7           8           9          10
    1  -0.0106069   0.0291158  -0.0242954  -0.0049009
    2  -0.0255030   0.0099430   0.0030854  -0.0070717
    3   0.0211104   0.0240743  -0.0154878  -0.0106320
 Max gradient component =       2.912E-02
 RMS gradient           =       1.643E-02
 Computing fast CPCM-SWIG gradient
 Updating gradient with PCM contributions...
 -- total gradient after adding PCM contribution --
---------------------------------------------------
  Atom         X              Y              Z     
---------------------------------------------------
   1       0.000024       0.001103      -0.000388
   2       0.000193      -0.000324       0.000211
   3       0.000044       0.000006      -0.000101
   4       0.000034      -0.000152      -0.000106
   5      -0.000085      -0.000041      -0.000011
   6       0.000033       0.000011       0.000029
   7      -0.000019      -0.000757       0.000512
   8       0.000104       0.000243      -0.000271
   9      -0.000282      -0.000111       0.000131
  10      -0.000046       0.000022      -0.000006
---------------------------------------------------
 Number of fixed atoms: 0
 Gradient time:  CPU 97.50 s  wall 8.51 s
 ----------------------------------------------------------------
             Standard Nuclear Orientation (Angstroms)
    I     Atom           X                Y                Z
 ----------------------------------------------------------------
    1      C       0.6332017000     0.2482219000     0.7584201000
    2      O       1.4025855000    -0.2466266000     1.5928966000
    3      H      -1.9375710000    -1.0123332000    -0.8866207000
    4      C      -0.5876356000    -0.6521106000     0.4044917000
    5      O      -0.8569533000    -1.6133087000     1.1906388000
    6      O      -1.1874161000    -0.4200235000    -0.6924267000
    7      O       0.6788791000     1.3139224000     0.1285258000
    8      O      -1.4798179000     1.1120009000     2.5219901000
    9      O      -2.4778756000     0.8597842000     1.6870393000
   10      H      -1.6207131000    -2.1609506000     0.9312916000
 ----------------------------------------------------------------
 Nuclear Repulsion Energy =         379.23595659 hartrees
 There are       32 alpha and       31 beta electrons
 Discretize the solute cavity surface with Lebedev spheres
	Using 110 Lebedev grid points for each H atom
	Using 194 Lebedev grid points for other atoms
	Atomic van der Waals radii will be scaled by 1.20
 Remove points where switching function is < 1.0e-08
 Keep 1045 surface tesserae and discard 727 interior tesserae
 Molecular Surface Area = 126.291 Angst**2

                       Distance Matrix (Angstroms)
             C (  1)   O (  2)   H (  3)   C (  4)   O (  5)   O (  6)
   O (  2)  1.238215
   H (  3)  3.302125  4.229770
   C (  4)  1.557661  2.353233  1.902382
   O (  5)  2.423359  2.671170  2.417419  1.270614
   O (  6)  2.422015  3.458450  0.975333  1.271547  2.253679
   O (  7)  1.238778  2.259081  3.645243  2.354889  3.472110  2.676488
   O (  8)  2.884640  3.319237  4.042395  2.896874  3.096412  3.572824
   O (  9)  3.303808  4.036209  3.228077  2.739299  2.998331  2.994170
   H ( 10)  3.303654  3.639051  2.173597  1.902989  0.974937  2.419718
             O (  7)   O (  8)   O (  9)
   O (  8)  3.229461
   O (  9)  3.549691  1.325472
   H ( 10)  4.243501  3.641756  3.229663
 
 Requested basis set is 6-311++G(2df,2p)
 There are 76 shells and 292 basis functions
 A cutoff of  1.0D-12 yielded   2623 shell pairs
 There are     39534 function pairs (     50980 Cartesian)
 Smallest overlap matrix eigenvalue = 5.90E-05
 Guess MOs from SCF MO coefficient file

 -----------------------------------------------------------------------
  General SCF calculation program by
  Eric Jon Sundstrom, Paul Horn, Yuezhi Mao, Dmitri Zuev, Alec White,
  David Stuck, Shaama M.S., Shane Yost, Joonho Lee, David Small,
  Daniel Levine, Susi Lehtola, Hugh Burton, Evgeny Epifanovsky,
  Bang C. Huynh
 -----------------------------------------------------------------------
 Exchange:     0.1500 Hartree-Fock + 1.0000 wB97M-V + LR-HF
 Correlation:  1.0000 wB97M-V
 Using SG-2 standard quadrature grid
 Nonlocal Correlation:  VV10 with C = 0.0100 and b = 6.00 and scale = 1.00000
 Grid used for NLC:  SG-1 standard quadrature
 
 Citation of the SMD model:
 Marenich, A.V.; Cramer, C.J.; Truhlar, D.G.
 J. Phys. Chem. B 2009, 113, 6378-6396.
 iSolventCode=           1
 Solvent: water                                                           
 
 vradii
            1           2           3           4           5           6
    1   1.8500000   1.5200000   1.2000000   1.8500000   1.5200000   1.5200000
            7           8           9          10
    1   1.5200000   1.5200000   1.5200000   1.2000000
 -------------------------------------------------------
 OpenMP BLAS3 based DFT computing Module                
 Release: version 1.0, May 2013, Q-Chem Inc. Pittsburgh 
 -------------------------------------------------------
 A unrestricted SCF calculation will be
 performed using Roothaan-Hall, DIIS, GDM
 SCF converges when RMS gradient is below 1.0e-07
 ---------------------------------------
  Cycle       Energy         DIIS error
 ---------------------------------------
    1    -528.6331022122      5.88e-04  Roothaan Step
 ---------------------------------------
  Cycle       Energy         DIIS error
 ---------------------------------------
    1    -528.8115486956      6.47e-04  
    2    -528.8356417861      4.51e-04  Done DIIS. Switching to GDM
 ---------------------------------------
  Cycle       Energy        RMS Gradient
 ---------------------------------------
    1    -528.8356417861      2.91e-02   Normal BFGS step
    2    -528.8356165350      5.32e-02  Line search: overstep
    3    -528.8411972803      1.25e-02   Normal BFGS step
    4    -528.8419190996      4.25e-03   Normal BFGS step
    5    -528.8421254463      3.55e-03   Normal BFGS step
    6    -528.8421542661      8.29e-04   Normal BFGS step
    7    -528.8421631925      7.61e-04   Normal BFGS step
    8    -528.8421647812      5.30e-04   Normal BFGS step
    9    -528.8421655463      2.88e-04   Normal BFGS step
   10    -528.8421657445      7.05e-05   Normal BFGS step
   11    -528.8421657919      2.86e-05   Normal BFGS step
   12    -528.8421658041      1.39e-05   Normal BFGS step
   13    -528.8421658059      6.05e-06   Normal BFGS step
   14    -528.8421658063      4.45e-06   Normal BFGS step
   15    -528.8421658064      4.52e-06   Normal BFGS step
   16    -528.8421658064      4.56e-06   Normal BFGS step
   17    -528.8421658065      4.61e-06   Normal BFGS step
   18    -528.8421658066      4.59e-06   Normal BFGS step
   19    -528.8421658070      1.05e-05   Normal BFGS step
   20    -528.8421658077      1.63e-05   Normal BFGS step
   21    -528.8421658086      1.88e-05   Normal BFGS step
   22    -528.8421658094      1.32e-05   Normal BFGS step
   23    -528.8421658097      4.76e-06   Normal BFGS step
   24    -528.8421658097      6.78e-07   Normal BFGS step
   25    -528.8421658097      3.07e-07   Normal BFGS step
   26    -528.8421658097      2.95e-07   Normal BFGS step
   27    -528.8421658097      1.83e-07   Normal BFGS step
   28    -528.8421658097      5.12e-08  Convergence criterion met
 ---------------------------------------
 SCF time:   CPU 1150.25s  wall 78.00s 
<S^2> =          0.754930344
(3)  G-ENP(liq) elect-nuc-pol free energy of system     -528.842165810 a.u.
(4)  G-CDS(liq) cavity-dispersion-solvent structure 
     free energy                                                5.1126 kcal/mol
[...]
    3   0.0205928   0.0229905  -0.0138592  -0.0106195
 Max gradient component =       3.068E-02
 RMS gradient           =       1.637E-02
 Computing fast CPCM-SWIG gradient
 Updating gradient with PCM contributions...
 -- total gradient after adding PCM contribution --
---------------------------------------------------
  Atom         X              Y              Z     
---------------------------------------------------
   1      -0.000080       0.000021       0.000066
   2      -0.000108      -0.000074       0.000032
   3       0.000089      -0.000157      -0.000290
   4       0.000069      -0.000165      -0.000221
   5      -0.000216       0.000091      -0.000008
   6       0.000030      -0.000158      -0.000181
   7      -0.000213       0.000065       0.000236
   8       0.000532       0.000728       0.001144
   9      -0.000018      -0.000348      -0.000762
  10      -0.000085      -0.000004      -0.000017
---------------------------------------------------
 Number of fixed atoms: 0
 Gradient time:  CPU 96.84 s  wall 8.43 s
rPathMan2.  file_steps = 952
 IRC --- Status = 3.  Assess initial corrector step
 IRC --- bisector search: b =  0.000000 E =     -528.834090 G.B =  -0.001215
 IRC --- bisector search: b =  0.002534 E =     -528.834090 G.B =   0.001242
 IRC --- performed gradient/energy interpolation
 IRC --- bisector search:  estimate b(min) =   1.251150412955142E-003
 ----------------------------------------------------------------
             Standard Nuclear Orientation (Angstroms)
    I     Atom           X                Y                Z
 ----------------------------------------------------------------
    1      C       0.6419284714     0.2466181859     0.7581378538
    2      O       1.4109835486    -0.2476476817     1.5940352700
    3      H      -1.9391861891    -1.0042256421    -0.8780322410
    4      C      -0.5791292399    -0.6535977523     0.4061190241
    5      O      -0.8517885244    -1.6147491335     1.1909184914
    6      O      -1.1893858983    -0.4114650595    -0.6826143980
    7      O       0.6876367282     1.3103092339     0.1263097521
    8      O      -1.4691637779     1.0930306590     2.4777790560
    9      O      -2.5270557897     0.8704633718     1.7113918130
   10      H      -1.6181510735    -2.1591531156     0.9322090176
 ----------------------------------------------------------------
 Nuclear Repulsion Energy =         379.06595376 hartrees
 There are       32 alpha and       31 beta electrons
 Discretize the solute cavity surface with Lebedev spheres
	Using 110 Lebedev grid points for each H atom
	Using 194 Lebedev grid points for other atoms
	Atomic van der Waals radii will be scaled by 1.20
 Remove points where switching function is < 1.0e-08
 Keep 1042 surface tesserae and discard 730 interior tesserae
 Molecular Surface Area = 126.246 Angst**2

                       Distance Matrix (Angstroms)
             C (  1)   O (  2)   H (  3)   C (  4)   O (  5)   O (  6)
   O (  2)  1.238737
   H (  3)  3.302093  4.231686
   C (  4)  1.557334  2.352975  1.903087
   O (  5)  2.425526  2.674249  2.415726  1.270459
   O (  6)  2.421271  3.460042  0.975579  1.271370  2.252108
   O (  7)  1.238037  2.259354  3.642248  2.353703  3.472634  2.672467
   O (  8)  2.851366  3.297525  3.985081  2.852130  3.060920  3.511391
   O (  9)  3.367542  4.095375  3.250410  2.796590  3.041989  3.027204
   H ( 10)  3.305449  3.642461  2.171150  1.903427  0.974996  2.417831
             O (  7)   O (  8)   O (  9)
   O (  8)  3.198188
   O (  9)  3.611121  1.325149
   H ( 10)  4.243030  3.603843  3.257577
 
 Applying Cartesian multipole field
    Component          Value
    ---------          -----
     (2,0,0)        1.00000E-11
     (0,2,0)        2.00000E-11
     (0,0,2)       -3.00000E-11
 Nucleus-field energy     =    -0.0000000038 hartrees
 Requested basis set is 6-311++G(2df,2p)
 There are 76 shells and 292 basis functions
 A cutoff of  1.0D-12 yielded   2623 shell pairs
 There are     39488 function pairs (     50894 Cartesian)
 Smallest overlap matrix eigenvalue = 5.93E-05
 Guess MOs from SCF MO coefficient file

 -----------------------------------------------------------------------
  General SCF calculation program by
  Eric Jon Sundstrom, Paul Horn, Yuezhi Mao, Dmitri Zuev, Alec White,
  David Stuck, Shaama M.S., Shane Yost, Joonho Lee, David Small,
  Daniel Levine, Susi Lehtola, Hugh Burton, Evgeny Epifanovsky,
  Bang C. Huynh
 -----------------------------------------------------------------------
 Exchange:     0.1500 Hartree-Fock + 1.0000 wB97M-V + LR-HF
 Correlation:  1.0000 wB97M-V
 Using SG-2 standard quadrature grid
 Nonlocal Correlation:  VV10 with C = 0.0100 and b = 6.00 and scale = 1.00000
 Grid used for NLC:  SG-1 standard quadrature
 
 Citation of the SMD model:
 Marenich, A.V.; Cramer, C.J.; Truhlar, D.G.
 J. Phys. Chem. B 2009, 113, 6378-6396.
 iSolventCode=           1
 Solvent: water                                                           
 
 vradii
            1           2           3           4           5           6
    1   1.8500000   1.5200000   1.2000000   1.8500000   1.5200000   1.5200000
            7           8           9          10
    1   1.5200000   1.5200000   1.5200000   1.2000000
 -------------------------------------------------------
 OpenMP BLAS3 based DFT computing Module                
 Release: version 1.0, May 2013, Q-Chem Inc. Pittsburgh 
 -------------------------------------------------------
 A unrestricted SCF calculation will be
 performed using Roothaan-Hall, DIIS, GDM
 SCF converges when RMS gradient is below 1.0e-07
 ---------------------------------------
  Cycle       Energy         DIIS error
 ---------------------------------------
    1    -528.6335633155      5.86e-04  Roothaan Step
 ---------------------------------------
  Cycle       Energy         DIIS error
 ---------------------------------------
    1    -528.8116547734      6.46e-04  
    2    -528.8357133142      4.51e-04  Done DIIS. Switching to GDM
 ---------------------------------------
  Cycle       Energy        RMS Gradient
 ---------------------------------------
    1    -528.8357133142      2.95e-02   Normal BFGS step
    2    -528.8356768725      5.31e-02  Line search: overstep
    3    -528.8412759326      1.22e-02   Normal BFGS step
    4    -528.8420023502      4.36e-03   Normal BFGS step
    5    -528.8422110805      3.36e-03   Normal BFGS step
    6    -528.8422396180      8.30e-04   Normal BFGS step
    7    -528.8422482840      6.55e-04   Normal BFGS step
    8    -528.8422496681      4.66e-04   Normal BFGS step
    9    -528.8422502716      2.74e-04   Normal BFGS step
   10    -528.8422504477      6.15e-05   Normal BFGS step
   11    -528.8422504885      4.13e-05   Normal BFGS step
   12    -528.8422505013      1.70e-05   Normal BFGS step
   13    -528.8422505032      6.42e-06   Normal BFGS step
   14    -528.8422505038      4.05e-06   Normal BFGS step
   15    -528.8422505039      3.82e-06   Normal BFGS step
   16    -528.8422505039      3.57e-06   Normal BFGS step
   17    -528.8422505039      3.32e-06   Normal BFGS step
   18    -528.8422505040      3.65e-06   Normal BFGS step
   19    -528.8422505042      7.95e-06   Normal BFGS step
   20    -528.8422505044      1.12e-05   Normal BFGS step
   21    -528.8422505049      1.30e-05   Normal BFGS step
   22    -528.8422505054      9.90e-06   Normal BFGS step
   23    -528.8422505057      3.77e-06   Normal BFGS step
   24    -528.8422505057      8.07e-07   Normal BFGS step
   25    -528.8422505057      4.73e-07   Normal BFGS step
   26    -528.8422505057      3.76e-07   Normal BFGS step
   27    -528.8422505057      7.24e-08  Convergence criterion met
 ---------------------------------------
 SCF time:   CPU 1101.97s  wall 74.00s 
<S^2> =          0.754971799
(3)  G-ENP(liq) elect-nuc-pol free energy of system     -528.842250506 a.u.
(4)  G-CDS(liq) cavity-dispersion-solvent structure 
     free energy                                                5.1204 kcal/mol
(6)  G-S(liq) free energy of system                     -528.834090597 a.u.
 SCF   energy in the final basis set =     -528.8340905970
 Total energy in the final basis set =     -528.8340905970
 
 --------------------------------------------------------------
 
                    Orbital Energies (a.u.)
 --------------------------------------------------------------
 
 Alpha MOs
 -- Occupied --
-19.4390 -19.4382 -19.3381 -19.3376 -19.3065 -19.3065 -10.5498 -10.4753
 -1.3261  -1.2447  -1.2168  -1.1957  -1.1115  -0.8694  -0.8643  -0.7752
 -0.7117  -0.6379  -0.6305  -0.5749  -0.5545  -0.5420  -0.5365  -0.5249
 -0.5194  -0.5049  -0.4916  -0.3934  -0.3897  -0.3844  -0.3245  -0.2934
 -- Virtual --
  0.0092   0.0307   0.0606   0.0669   0.0848   0.0983   0.1071   0.1157
  0.1328   0.1502   0.1576   0.1686   0.1786   0.1847   0.2200   0.2264
  0.2443   0.2617   0.2637   0.2687   0.2871   0.2903   0.3044   0.3063
  0.3094   0.3183   0.3220   0.3342   0.3397   0.3473   0.3548   0.3592
  0.3613   0.3741   0.3897   0.4009   0.4124   0.4295   0.4367   0.4393
  0.4538   0.4757   0.5432   0.5920   0.6077   0.6575   0.6695   0.6870
  0.7011   0.7256   0.7428   0.7581   0.7819   0.8149   0.8215   0.8538
  0.8773   0.8889   0.9277   0.9765   1.0230   1.0718   1.0916   1.1031
  1.1115   1.1163   1.1179   1.1223   1.1412   1.1456   1.1657   1.1807
  1.1866   1.1977   1.2223   1.2301   1.2525   1.2753   1.2918   1.2987
  1.3135   1.3765   1.4014   1.4257   1.4273   1.4436   1.4835   1.5115
  1.5182   1.5493   1.5938   1.6243   1.6260   1.6627   1.6905   1.7172
  1.7287   1.7536   1.7729   1.8015   1.8077   1.8499   1.8814   1.9153
  1.9698   2.0462   2.0535   2.0874   2.1153   2.1748   2.2173   2.2315
  2.3183   2.3594   2.3895   2.4295   2.4458   2.4492   2.4920   2.5178
  2.5980   2.6183   2.6841   2.7314   2.7456   2.8204   2.8867   2.9258
  2.9942   3.0359   3.1136   3.1199   3.1645   3.1913   3.2215   3.2761
  3.3520   3.3748   3.4470   3.4543   3.4835   3.4992   3.5241   3.5847
  3.6137   3.6570   3.6639   3.7219   3.7832   3.7967   3.8254   3.9214
  4.0091   4.0155   4.0249   4.1193   4.2099   4.2252   4.3379   4.3560
  4.5330   4.6000   4.6667   4.7372   4.7900   4.7922   4.8233   5.0687
  5.0940   5.1001   5.1095   5.1314   5.1584   5.1599   5.1645   5.1677
  5.1848   5.1941   5.1998   5.2078   5.2138   5.2173   5.2368   5.2398
  5.2575   5.2671   5.2851   5.3063   5.3150   5.3297   5.3426   5.3680
  5.4201   5.4519   5.5525   5.5594   5.5642   5.5914   5.5989   5.6209
  5.6245   5.6443   5.6809   5.7626   5.8503   5.9355   6.0918   6.1944
  6.2275   6.3420   6.4569   6.4890   6.5578   6.6665   6.8042   6.8480
  6.8827   6.9062   6.9168   6.9340   6.9522   6.9619   6.9655   6.9843
  7.0059   7.0179   7.0426   7.0452   7.0871   7.1610   7.1784   7.1886
  7.2344   7.2606   7.2951   7.3300   7.4062   7.4325   7.4679   7.4815
  7.5085   7.5240   7.6153   7.6582   7.7585   7.7844   7.8310   7.8594
  7.8836   7.9375   7.9666   7.9975  25.0569  25.2460  50.4385  50.5041
 50.5704  50.6271  50.7169  50.7415
 
 Beta MOs
 -- Occupied --
-19.4390 -19.4382 -19.3237 -19.3233 -19.3066 -19.3064 -10.5498 -10.4753
 -1.3261  -1.2447  -1.1960  -1.1873  -1.1115  -0.8690  -0.8223  -0.7752
 -0.7117  -0.6375  -0.6305  -0.5748  -0.5545  -0.5406  -0.5336  -0.5078
 -0.4996  -0.4772  -0.4375  -0.3931  -0.3894  -0.3842  -0.2742
 -- Virtual --
  0.0091   0.0309   0.0342   0.0610   0.0672   0.0852   0.0986   0.1076
  0.1167   0.1333   0.1503   0.1587   0.1689   0.1810   0.1878   0.2201
  0.2304   0.2462   0.2650   0.2664   0.2720   0.2898   0.2917   0.3059
  0.3080   0.3149   0.3215   0.3242   0.3350   0.3407   0.3480   0.3553
  0.3600   0.3653   0.3745   0.3902   0.4059   0.4132   0.4301   0.4374
  0.4416   0.4543   0.4770   0.5434   0.5922   0.6077   0.6578   0.6719
  0.6872   0.7012   0.7258   0.7436   0.7589   0.7821   0.8151   0.8223
  0.8544   0.8776   0.8891   0.9283   0.9775   1.0238   1.0750   1.0989
  1.1088   1.1165   1.1174   1.1193   1.1230   1.1428   1.1477   1.1835
  1.1848   1.1960   1.2038   1.2293   1.2371   1.2617   1.2773   1.2931
  1.3005   1.3181   1.3775   1.4052   1.4293   1.4303   1.4690   1.4876
  1.5169   1.5239   1.5540   1.6018   1.6248   1.6412   1.6726   1.6947
  1.7184   1.7390   1.7593   1.7806   1.8054   1.8235   1.8537   1.8944
  1.9159   1.9740   2.0492   2.0581   2.0890   2.1160   2.1754   2.2253
  2.2423   2.3428   2.3635   2.3904   2.4332   2.4463   2.4496   2.4925
  2.5181   2.5982   2.6184   2.6845   2.7412   2.7459   2.8206   2.8869
  2.9261   2.9943   3.0363   3.1138   3.1200   3.1645   3.1915   3.2215
  3.2762   3.3522   3.3751   3.4470   3.4544   3.4837   3.4993   3.5245
  3.5849   3.6137   3.6570   3.6640   3.7220   3.7833   3.7967   3.8254
  3.9214   4.0091   4.0155   4.0250   4.1193   4.2100   4.2253   4.3379
  4.3560   4.5331   4.6361   4.6770   4.7385   4.8156   4.8188   4.8362
  5.0735   5.1227   5.1383   5.1440   5.1535   5.1601   5.1654   5.1673
  5.1831   5.1870   5.1964   5.2043   5.2169   5.2403   5.2635   5.2719
  5.2760   5.2774   5.2802   5.2920   5.3121   5.3297   5.3435   5.3528
  5.3694   5.4204   5.4520   5.5529   5.5595   5.5644   5.5918   5.5991
  5.6424   5.6507   5.6545   5.6809   5.7628   5.8504   5.9357   6.0919
  6.1944   6.2277   6.3420   6.4997   6.5032   6.5582   6.6693   6.8410
  6.8589   6.9067   6.9155   6.9349   6.9622   6.9784   6.9850   7.0071
  7.0184   7.0264   7.0283   7.0455   7.0738   7.1126   7.1786   7.1840
  7.1961   7.2370   7.2628   7.2965   7.3308   7.4074   7.4628   7.4824
  7.4894   7.5213   7.5260   7.6159   7.6587   7.7586   7.7844   7.8315
  7.8603   7.8837   7.9391   7.9916   8.0073  25.0569  25.2460  50.4491
 50.5135  50.5707  50.6283  50.7169  50.7416
 --------------------------------------------------------------
 
          Ground-State Mulliken Net Atomic Charges

     Atom                 Charge (a.u.)    Spin (a.u.)
  --------------------------------------------------------
      1 C                     0.315506       0.006302
      2 O                    -0.577964      -0.000843
      3 H                     0.389979      -0.000070
      4 C                     0.344186      -0.005525
      5 O                    -0.174804      -0.000943
      6 O                    -0.177594       0.000419
      7 O                    -0.583439       0.000262
      8 O                    -0.443768       0.501755
      9 O                    -0.482018       0.498641
     10 H                     0.389914       0.000001
  --------------------------------------------------------
  Sum of atomic charges =    -1.000000
  Sum of spin   charges =     1.000000

 -----------------------------------------------------------------
                    Cartesian Multipole Moments
 -----------------------------------------------------------------
    Charge (ESU x 10^10)
                -4.8032
    Dipole Moment (Debye)
         X      -2.3164      Y     -13.1091      Z     -13.1468
       Tot      18.7097
    Quadrupole Moments (Debye-Ang)
        XX     -61.9160     XY      18.7218     YY     -47.8672
        XZ      11.7670     YZ      -8.7547     ZZ     -74.2246
    Octopole Moments (Debye-Ang^2)
       XXX      85.6113    XXY     -48.7719    XYY       9.6421
       YYY     -51.7928    XXZ     -97.5422    XYZ      23.1366
       YYZ     -56.7477    XZZ      46.1979    YZZ     -29.0050
       ZZZ    -202.9194
    Hexadecapole Moments (Debye-Ang^3)
      XXXX    -666.4129   XXXY     110.6923   XXYY    -136.2765
      XYYY      67.7755   YYYY    -276.8180   XXXZ     187.7462
      XXYZ     -58.5649   XYYZ      48.3332   YYYZ     -76.4537
      XXZZ    -273.0576   XYZZ      61.1991   YYZZ    -173.5964
      XZZZ     173.6478   YZZZ     -99.5135   ZZZZ    -718.8372
 -----------------------------------------------------------------
 Calculating analytic gradient of the SCF energy
 Gradient of CDS energy
            1           2           3           4           5           6
    1   0.0022736  -0.0012016  -0.0002676  -0.0013425   0.0003487   0.0007790
    2   0.0013436   0.0007207  -0.0000625  -0.0014396   0.0012954  -0.0001736
    3   0.0003927  -0.0011719  -0.0002590  -0.0007949  -0.0008391   0.0014604
            7           8           9          10
    1  -0.0001500  -0.0002047  -0.0000327  -0.0002023
    2  -0.0015057   0.0000256   0.0000943  -0.0002983
    3   0.0009327   0.0000330   0.0001347   0.0001115
 Gradient of SCF Energy
            1           2           3           4           5           6
    1   0.0267783  -0.0232044  -0.0043308  -0.0177810   0.0124512   0.0168390
    2   0.0131440   0.0119086  -0.0127527  -0.0228576   0.0184696   0.0104978
    3   0.0037924  -0.0203693  -0.0015231  -0.0148319   0.0028442   0.0109973
            7           8           9          10
    1  -0.0106514   0.0301760  -0.0254422  -0.0048346
    2  -0.0244709   0.0101964   0.0030080  -0.0071433
    3   0.0205838   0.0226274  -0.0134942  -0.0106267
 Max gradient component =       3.018E-02
 RMS gradient           =       1.628E-02
 Computing fast CPCM-SWIG gradient
 Updating gradient with PCM contributions...
 -- total gradient after adding PCM contribution --
---------------------------------------------------
  Atom         X              Y              Z     
---------------------------------------------------
   1      -0.000077      -0.000016       0.000051
   2      -0.000103      -0.000070       0.000045
   3       0.000079      -0.000166      -0.000289
   4       0.000044      -0.000152      -0.000203
   5      -0.000185       0.000091       0.000005
   6       0.000046      -0.000146      -0.000200
   7      -0.000214       0.000091       0.000230
   8      -0.000172       0.000582       0.000641
   9       0.000685      -0.000201      -0.000256
  10      -0.000103      -0.000013      -0.000025
---------------------------------------------------
 Number of fixed atoms: 0
 Gradient time:  CPU 97.53 s  wall 8.45 s
rPathMan2.  file_steps = 952
 IRC --- Status = 4.  Checking bisector search.
 IRC --- Bisector search finished successfully.
 ------------------------------------------------------------------------
 Reaction path following.  The coordinates are cartesian              
 Step   3 E=    -528.834091 |G|=  0.001337 S_lin= 0.1492 S_tot= 0.1499
 ------------------------------------------------------------------------
  IRC -- convergence criterion reached.
 ----------------------------------------------------------------
             Standard Nuclear Orientation (Angstroms)
    I     Atom           X                Y                Z
 ----------------------------------------------------------------
    1      C       0.6332017000     0.2492219000     0.7584201000
    2      O       1.4025855000    -0.2466266000     1.5928966000
    3      H      -1.9375710000    -1.0123332000    -0.8866207000
    4      C      -0.5876356000    -0.6521106000     0.4044917000
    5      O      -0.8569533000    -1.6133087000     1.1906388000
    6      O      -1.1874161000    -0.4200235000    -0.6924267000
    7      O       0.6788791000     1.3139224000     0.1285258000
    8      O      -1.4798179000     1.1120009000     2.5219901000
    9      O      -2.4778756000     0.8597842000     1.6870393000
   10      H      -1.6207131000    -2.1609506000     0.9312916000
 ----------------------------------------------------------------
 Nuclear Repulsion Energy =         379.23554525 hartrees
 There are       32 alpha and       31 beta electrons
 Here is where we should summarize the reaction path
 Total job time:  1339.28s(wall), 19423.76s(cpu) 
 Mon Jul 24 14:26:34 2023

        *************************************************************
        *                                                           *
        *  Thank you very much for using Q-Chem.  Have a nice day.  *
        *                                                           *
        *************************************************************


