
Running Job 1 of 2 Q_in.in
qchem Q_in.in_169550.0 /scratch/ari.fischer/qChem1710959.hpc-mn1/qchem169550/ 0
/usr/local/qchem-5.4.1/exe/qcprog.exe_s Q_in.in_169550.0 /scratch/ari.fischer/qChem1710959.hpc-mn1/qchem169550/
                  Welcome to Q-Chem
     A Quantum Leap Into The Future Of Chemistry


 Q-Chem 5.4, Q-Chem, Inc., Pleasanton, CA (2021)

 License issued to: Nanyang Technological University (site)

 E. Epifanovsky,  A. T. B. Gilbert,  Xintian Feng,  Joonho Lee,  Yuezhi Mao,  
 N. Mardirossian,  P. Pokhilko,  A. White,  M. Wormit,  M. P. Coons,  
 A. L. Dempwolff,  Zhengting Gan,  D. Hait,  P. R. Horn,  L. D. Jacobson,  
 I. Kaliman,  J. Kussmann,  A. W. Lange,  Ka Un Lao,  D. S. Levine,  Jie Liu,  
 S. C. McKenzie,  A. F. Morrison,  K. Nanda,  F. Plasser,  D. R. Rehn,  
 M. L. Vidal,  Zhi-Qiang You,  Ying Zhu,  B. Alam,  B. Albrecht,  
 A. Aldossary,  E. Alguire,  J. H. Andersen,  D. Barton,  K. Begam,  A. Behn,  
 Y. A. Bernard,  E. J. Berquist,  H. Burton,  A. Carreras,  K. Carter-Fenk,  
 R. Chakraborty,  A. D. Chien,  K. D. Closser,  V. Cofer-Shabica,  
 S. Dasgupta,  Jia Deng,  M. de Wergifosse,  M. Diedenhofen,  Hainam Do,  
 S. Ehlert,  Po-Tung Fang,  S. Fatehi,  Qingguo Feng,  T. Friedhoff,  
 J. Gayvert,  Qinghui Ge,  G. Gidofalvi,  M. Goldey,  J. Gomes,  
 C. Gonzalez-Espinoza,  S. Gulania,  A. Gunina,  M. W. D. Hanson-Heine,  
 P. H. P. Harbach,  A. W. Hauser,  M. F. Herbst,  M. Hernandez Vera,  
 M. Hodecker,  Z. C. Holden,  S. Houck,  Xunkun Huang,  Kerwin Hui,  
 B. C. Huynh,  M. Ivanov,  Hyunjun Ji,  Hanjie Jiang,  B. Kaduk,  S. Kaehler,  
 K. Khistyaev,  Jaehoon Kim,  P. Klunzinger,  Z. Koczor-Benda,  
 Joong Hoon Koh,  D. Kosenkov,  L. Koulias,  T. Kowalczyk,  C. M. Krauter,  
 K. Kue,  A. Kunitsa,  T. Kus,  A. Landau,  K. V. Lawler,  D. Lefrancois,  
 S. Lehtola,  Rain Li,  Yi-Pei Li,  Jiashu Liang,  M. Liebenthal,  
 Hung-Hsuan Lin,  You-Sheng Lin,  Fenglai Liu,  Kuan-Yu Liu,  
 M. Loipersberger,  A. Luenser,  A. Manjanath,  P. Manohar,  E. Mansoor,  
 S. F. Manzer,  Shan-Ping Mao,  A. V. Marenich,  T. Markovich,  S. Mason,  
 S. A. Maurer,  P. F. McLaughlin,  M. F. S. J. Menger,  J.-M. Mewes,  
 S. A. Mewes,  P. Morgante,  J. W. Mullinax,  K. J. Oosterbaan,  G. Paran,  
 Alexander C. Paul,  Suranjan K. Paul,  F. Pavosevic,  Zheng Pei,  S. Prager,  
 E. I. Proynov,  E. Ramos,  B. Rana,  A. E. Rask,  A. Rettig,  R. M. Richard,  
 F. Rob,  E. Rossomme,  T. Scheele,  M. Scheurer,  M. Schneider,  
 N. Sergueev,  S. M. Sharada,  W. Skomorowski,  D. W. Small,  C. J. Stein,  
 Yu-Chuan Su,  E. J. Sundstrom,  Zhen Tao,  J. Thirman,  T. Tsuchimochi,  
 N. M. Tubman,  S. P. Veccham,  O. Vydrov,  J. Wenzel,  J. Witte,  A. Yamada,  
 Kun Yao,  S. Yeganeh,  S. R. Yost,  A. Zech,  Igor Ying Zhang,  Xing Zhang,  
 Yu Zhang,  D. Zuev,  A. Aspuru-Guzik,  A. T. Bell,  N. A. Besley,  
 K. B. Bravaya,  B. R. Brooks,  D. Casanova,  Jeng-Da Chai,  S. Coriani,  
 C. J. Cramer,  A. E. DePrince, III,  R. A. DiStasio Jr.,  A. Dreuw,  
 B. D. Dunietz,  T. R. Furlani,  W. A. Goddard III,  S. Grimme,  
 S. Hammes-Schiffer,  T. Head-Gordon,  W. J. Hehre,  Chao-Ping Hsu,  
 T.-C. Jagau,  Yousung Jung,  A. Klamt,  Jing Kong,  D. S. Lambrecht,  
 WanZhen Liang,  N. J. Mayhall,  C. W. McCurdy,  J. B. Neaton,  
 C. Ochsenfeld,  J. A. Parkhill,  R. Peverati,  V. A. Rassolov,  Yihan Shao,  
 L. V. Slipchenko,  T. Stauch,  R. P. Steele,  J. E. Subotnik,  
 A. J. W. Thom,  A. Tkatchenko,  D. G. Truhlar,  T. Van Voorhis,  
 T. A. Wesolowski,  K. B. Whaley,  H. L. Woodcock III,  P. M. Zimmerman,  
 S. Faraji,  P. M. W. Gill,  M. Head-Gordon,  J. M. Herbert,  A. I. Krylov

 Additional authors for Version 5.4.1: 
 S. Kotaru,  Shaozhi Li,  Xiangyuan Li,  F. Matz,  A. Molle,  Haisheng Ren,  
 Yingli Su,  Hung-Yi Tsai,  C. Utku,  Fang Wang

 Contributors to earlier versions of Q-Chem not listed above: 
 R. D. Adamson,  B. Austin,  R. Baer,  J. Baker,  G. J. O. Beran,  
 K. Brandhorst,  S. T. Brown,  E. F. C. Byrd,  A. K. Chakraborty,  
 G. K. L. Chan,  Chun-Min Chang,  Yunqing Chen,  C.-L. Cheng,  
 Siu Hung Chien,  D. M. Chipman,  D. L. Crittenden,  H. Dachsel,  
 R. J. Doerksen,  A. D. Dutoi,  R. G. Edgar,  J. Fosso-Tande,  
 L. Fusti-Molnar,  D. Ghosh,  A. Ghysels,  A. Golubeva-Zadorozhnaya,  
 J. Gonthier,  M. S. Gordon,  S. R. Gwaltney,  G. Hawkins,  J. E. Herr,  
 A. Heyden,  S. Hirata,  E. G. Hohenstein,  G. Kedziora,  F. J. Keil,  
 C. Kelley,  Jihan Kim,  R. A. King,  R. Z. Khaliullin,  P. P. Korambath,  
 W. Kurlancheek,  A. Laurent,  A. M. Lee,  M. S. Lee,  S. V. Levchenko,  
 Ching Yeh Lin,  D. Liotard,  E. Livshits,  R. C. Lochan,  I. Lotan,  
 L. A. Martinez-Martinez,  P. E. Maslen,  N. Nair,  D. P. O'Neill,  
 D. Neuhauser,  E. Neuscamman,  C. M. Oana,  R. Olivares-Amaya,  R. Olson,  
 T. M. Perrine,  B. Peters,  P. A. Pieniazek,  A. Prociuk,  Y. M. Rhee,  
 J. Ritchie,  M. A. Rohrdanz,  E. Rosta,  N. J. Russ,  H. F. Schaefer III,  
 M. W. Schmidt,  N. E. Schultz,  S. Sharma,  N. Shenvi,  C. D. Sherrill,  
 A. C. Simmonett,  A. Sodt,  T. Stein,  D. Stuck,  K. S. Thanthiriwatte,  
 V. Vanovschi,  L. Vogt,  Tao Wang,  A. Warshel,  M. A. Watson,  
 C. F. Williams,  Q. Wu,  X. Xu,  Jun Yang,  W. Zhang,  Yan Zhao

 Please cite Q-Chem as follows:
 Y. Shao et al., Mol. Phys. 113, 184-215 (2015)
 DOI: 10.1080/00268976.2014.952696

 Q-Chem 5.4.1 for Intel X86 EM64T Linux

 Parts of Q-Chem use Armadillo 9.800.1 (Horizon Scraper).
 http://arma.sourceforge.net/

 Q-Chem begins on Thu Aug 31 16:24:30 2023  

 Host: 
0

     Scratch files written to /scratch/ari.fischer/qChem1710959.hpc-mn1/qchem169550//
 Aug1521 |scratch|qcdevops|jenkins|workspace|build_RNUM 8249   
 Processing $rem in /usr/local/qchem-5.4.1/config/preferences:
 Processing $rem in /home/ari.fischer/.qchemrc:
 Symmetry turned off for PCM/SM12/SMD calculation


!!********************************************.
!!******************Warning*******************.
!!Desired Analytical derivatives not available.
!!Finite difference job might take a long time.
!!********************************************.
!!********************************************.


 2-order derivative to be evaluated numerically with 1-order analytical derivatives

 Checking the input file for inconsistencies... 	...done.

--------------------------------------------------------------
User input:
--------------------------------------------------------------
$molecule
0 2
O   -0.3000771    1.0478047    0.3958903
C   -0.6602303   -0.0916274    0.3633526
O   -1.3863203   -0.6138628   -0.6108436
H   -0.3910542   -0.8483749    1.2117784
O   -0.1901252   -1.9415639    2.1326759
H   -0.7114638   -2.6100800    1.6552815
H   -1.5635054   -1.5500099   -0.4327243
$end

$rem
BASIS = 6-311++G(2df,2p)
GUI = 2
JOB_TYPE = Frequency
METHOD = wB97M-V
SOLVENT_METHOD = SMD
SCF_ALGORITHM = DIIS_GDM
MAX_SCF_CYCLES = 400
SCF_CONVERGENCE = 7
THRESH = 12
$end

--------------------------------------------------------------
 ----------------------------------------------------------------
             Standard Nuclear Orientation (Angstroms)
    I     Atom           X                Y                Z
 ----------------------------------------------------------------
    1      O      -0.3000771000     1.0478047000     0.3958903000
    2      C      -0.6602303000    -0.0916274000     0.3633526000
    3      O      -1.3863203000    -0.6138628000    -0.6108436000
    4      H      -0.3910542000    -0.8483749000     1.2117784000
    5      O      -0.1901252000    -1.9415639000     2.1326759000
    6      H      -0.7114638000    -2.6100800000     1.6552815000
    7      H      -1.5635054000    -1.5500099000    -0.4327243000
 ----------------------------------------------------------------
 Nuclear Repulsion Energy =         112.86142123 hartrees
 There are       17 alpha and       16 beta electrons
 Requested basis set is 6-311++G(2df,2p)
 There are 50 shells and 166 basis functions

 Total QAlloc Memory Limit 288000 MB
 Mega-Array Size       188 MB
 MEM_STATIC part       192 MB
 
 Citation of the SMD model:
 Marenich, A.V.; Cramer, C.J.; Truhlar, D.G.
 J. Phys. Chem. B 2009, 113, 6378-6396.
 iSolventCode=           1
 Solvent: water                                                           
 
 vradii
            1           2           3           4           5           6
    1   1.5200000   1.8500000   1.5200000   1.2000000   1.5200000   1.2000000
            7
    1   1.2000000
 Changing PCM_VDW_RADII to SMD_RADIUS
 Discretize the solute cavity surface with Lebedev spheres
	Using 110 Lebedev grid points for each H atom
	Using 194 Lebedev grid points for other atoms
	Atomic van der Waals radii will be scaled by 1.20
 Remove points where switching function is < 1.0e-08
 Keep 676 surface tesserae and discard 430 interior tesserae
 Molecular Surface Area = 84.859 Angst**2

                       Distance Matrix (Angstroms)
             O (  1)   C (  2)   O (  3)   H (  4)   O (  5)   H (  6)
   C (  2)  1.195439
   O (  3)  2.225888  1.322496
   H (  4)  2.066264  1.168310  2.089857
   O (  5)  3.459023  2.602646  3.274228  1.443429
   H (  6)  3.890427  2.830955  3.094453  1.844712  0.972940
   H (  7)  3.005244  1.891170  0.969274  2.138065  2.936114  2.491885

 
 A cutoff of  1.0D-12 yielded   1215 shell pairs
 There are     13454 function pairs (     16899 Cartesian)
 Smallest overlap matrix eigenvalue = 5.64E-04
 Guess from superposition of atomic densities
 Warning:  Energy on first SCF cycle will be non-variational
 SAD guess density has 33.000000 electrons

 -----------------------------------------------------------------------
  General SCF calculation program by
  Eric Jon Sundstrom, Paul Horn, Yuezhi Mao, Dmitri Zuev, Alec White,
  David Stuck, Shaama M.S., Shane Yost, Joonho Lee, David Small,
  Daniel Levine, Susi Lehtola, Hugh Burton, Evgeny Epifanovsky,
  Bang C. Huynh
 -----------------------------------------------------------------------
 Exchange:     0.1500 Hartree-Fock + 1.0000 wB97M-V + LR-HF
 Correlation:  1.0000 wB97M-V
 Using SG-2 standard quadrature grid
 Nonlocal Correlation:  VV10 with C = 0.0100 and b = 6.00 and scale = 1.00000
 Grid used for NLC:  SG-1 standard quadrature
 using 8 threads for integral computing
 -------------------------------------------------------
 OpenMP Integral computing Module                
 Release: version 1.0, May 2013, Q-Chem Inc. Pittsburgh 
 -------------------------------------------------------
 
 Citation of the SMD model:
 Marenich, A.V.; Cramer, C.J.; Truhlar, D.G.
 J. Phys. Chem. B 2009, 113, 6378-6396.
 iSolventCode=           1
 Solvent: water                                                           
 
 vradii
            1           2           3           4           5           6
    1   1.5200000   1.8500000   1.5200000   1.2000000   1.5200000   1.2000000
            7
    1   1.2000000
 -------------------------------------------------------
 OpenMP BLAS3 based DFT computing Module                
 Release: version 1.0, May 2013, Q-Chem Inc. Pittsburgh 
 -------------------------------------------------------
 A unrestricted SCF calculation will be
 performed using DIIS, GDM
 SCF converges when RMS gradient is below 1.0e-07
 ---------------------------------------
  Cycle       Energy         DIIS error
 ---------------------------------------
    1    -265.8852146955      1.87e-02  
    2    -265.3776227086      3.44e-03  Done DIIS. Switching to GDM
 ---------------------------------------
  Cycle       Energy        RMS Gradient
 ---------------------------------------
    1    -265.3776227086      1.67e-01   Descent step
    2    -265.5110570552      3.06e-02   Normal BFGS step
    3    -265.5222659804      4.52e-02   Normal BFGS step
    4    -265.5253286998      1.52e-02   Normal BFGS step
    5    -265.5272223361      1.95e-02   Normal BFGS step
    6    -265.5282845974      5.07e-03   Normal BFGS step
    7    -265.5284494855      4.33e-03   Normal BFGS step
    8    -265.5285316181      1.33e-03   Normal BFGS step
    9    -265.5285400921      7.86e-04   Normal BFGS step
   10    -265.5285419978      3.97e-04   Normal BFGS step
   11    -265.5285423861      1.21e-04   Normal BFGS step
   12    -265.5285424560      6.35e-05   Normal BFGS step
   13    -265.5285424662      1.79e-05   Normal BFGS step
   14    -265.5285424672      3.30e-06   Normal BFGS step
   15    -265.5285424673      2.21e-06   Normal BFGS step
   16    -265.5285424673      1.96e-06   Normal BFGS step
   17    -265.5285424673      1.62e-06   Normal BFGS step
   18    -265.5285424673      1.01e-06   Normal BFGS step
   19    -265.5285424673      4.74e-07   Normal BFGS step
   20    -265.5285424673      2.53e-07   Normal BFGS step
   21    -265.5285424673      1.23e-07   Normal BFGS step
   22    -265.5285424673      3.43e-08  Convergence criterion met
 ---------------------------------------
 SCF time:   CPU 210.02s  wall 27.00s 
<S^2> =          0.757098828
(3)  G-ENP(liq) elect-nuc-pol free energy of system     -265.528542467 a.u.
(4)  G-CDS(liq) cavity-dispersion-solvent structure 
     free energy                                                4.7616 kcal/mol
(6)  G-S(liq) free energy of system                     -265.520954379 a.u.
 SCF   energy in the final basis set =     -265.5209543794
 Total energy in the final basis set =     -265.5209543794
 
 --------------------------------------------------------------
 
                    Orbital Energies (a.u.)
 --------------------------------------------------------------
 
 Alpha MOs
 -- Occupied --
-19.4032 -19.3823 -19.3602 -10.5030  -1.2651  -1.1884  -1.1349  -0.7679
 -0.7130  -0.6066  -0.5873  -0.5849  -0.5410  -0.4956  -0.4576  -0.4540
 -0.3901
 -- Virtual --
  0.0289   0.0586   0.0621   0.0696   0.0960   0.0984   0.1150   0.1442
  0.1901   0.2244   0.2272   0.2369   0.2387   0.2591   0.2640   0.2982
  0.3053   0.3091   0.3162   0.3310   0.3684   0.3901   0.4040   0.4608
  0.4737   0.5575   0.5796   0.5942   0.6149   0.6904   0.7068   0.7846
  0.7866   0.8329   0.8336   0.8381   0.9005   0.9497   0.9853   1.0452
  1.0639   1.0769   1.1109   1.1148   1.1264   1.1548   1.1718   1.1881
  1.2081   1.2321   1.4195   1.4410   1.4758   1.5120   1.5702   1.5828
  1.6187   1.6718   1.7414   1.7554   1.8573   1.8685   1.8728   1.9250
  2.0537   2.1252   2.2012   2.2979   2.3203   2.3981   2.4186   2.5379
  2.5873   2.7147   2.7905   2.7957   2.8585   3.0286   3.0845   3.1337
  3.1875   3.2993   3.3952   3.4244   3.4796   3.5834   3.5918   3.6151
  3.6994   3.7169   3.7541   3.8420   3.9307   4.0766   4.1003   4.2084
  4.2115   4.3143   4.4161   4.7663   5.0591   5.0740   5.1037   5.1223
  5.1421   5.1561   5.1701   5.1934   5.2372   5.2386   5.2494   5.2703
  5.3033   5.3442   5.4533   5.4576   5.5744   5.6178   5.6213   5.6287
  5.6485   5.9183   6.0696   6.0814   6.4220   6.7074   6.8619   6.9037
  6.9121   6.9741   7.0132   7.0151   7.0499   7.1251   7.1699   7.2350
  7.2985   7.3140   7.3609   7.4357   7.4910   7.5717   7.6715   7.7541
  7.8121  25.0855  50.4456  50.5359  50.7176
 
 Beta MOs
 -- Occupied --
-19.4019 -19.3626 -19.3574 -10.4988  -1.2607  -1.1832  -1.0846  -0.7595
 -0.6934  -0.5992  -0.5815  -0.5652  -0.5154  -0.4557  -0.4287  -0.4146
 -- Virtual --
 -0.0871   0.0308   0.0590   0.0628   0.0744   0.0983   0.0992   0.1155
  0.1461   0.1931   0.2276   0.2297   0.2371   0.2399   0.2607   0.2662
  0.2981   0.3075   0.3098   0.3177   0.3403   0.3720   0.3943   0.4104
  0.4690   0.4846   0.5621   0.5814   0.5966   0.6211   0.6919   0.7163
  0.7854   0.7890   0.8346   0.8370   0.8417   0.9023   0.9530   0.9904
  1.0485   1.0701   1.0789   1.1147   1.1165   1.1455   1.1638   1.1762
  1.1905   1.2217   1.2365   1.4275   1.4482   1.4800   1.5168   1.5837
  1.5992   1.6302   1.6886   1.7449   1.7700   1.8641   1.8756   1.8831
  1.9509   2.0581   2.1286   2.2059   2.3046   2.3261   2.4039   2.4254
  2.5443   2.5944   2.7224   2.8011   2.8105   2.8586   3.0392   3.0875
  3.1389   3.1979   3.3086   3.4007   3.4296   3.4838   3.5892   3.5965
  3.6228   3.7078   3.7193   3.7546   3.8525   3.9409   4.0798   4.0809
  4.2131   4.2205   4.3182   4.4044   4.7747   5.0943   5.1097   5.1206
  5.1268   5.1660   5.1760   5.1934   5.2400   5.2420   5.2484   5.2626
  5.3215   5.3296   5.3766   5.4565   5.4890   5.5836   5.6335   5.6380
  5.6499   5.6583   5.9351   6.0737   6.0900   6.4265   6.7162   6.8980
  6.9163   6.9666   7.0027   7.0280   7.0342   7.1013   7.1530   7.2029
  7.2400   7.3014   7.3338   7.4077   7.4424   7.5017   7.6513   7.6842
  7.7616   7.8167  25.0892  50.4592  50.5370  50.7199
 --------------------------------------------------------------
 
          Ground-State Mulliken Net Atomic Charges

     Atom                 Charge (a.u.)    Spin (a.u.)
  --------------------------------------------------------
      1 O                    -0.389594       0.090620
      2 C                     0.080757       0.175113
      3 O                    -0.260051       0.037644
      4 H                     0.398272      -0.019610
      5 O                    -0.508886       0.730547
      6 H                     0.336561      -0.010090
      7 H                     0.342940      -0.004224
  --------------------------------------------------------
  Sum of atomic charges =    -0.000000
  Sum of spin   charges =     1.000000

 -----------------------------------------------------------------
                    Cartesian Multipole Moments
 -----------------------------------------------------------------
    Charge (ESU x 10^10)
                -0.0000
    Dipole Moment (Debye)
         X      -2.4784      Y      -5.3692      Z      -1.3456
       Tot       6.0648
    Quadrupole Moments (Debye-Ang)
        XX     -21.1542     XY       7.5916     YY     -17.2022
        XZ      -2.3139     YZ       1.1469     ZZ     -30.5827
    Octopole Moments (Debye-Ang^2)
       XXX      41.3735    XXY       3.5461    XYY      -1.3979
       YYY       4.4670    XXZ     -13.2845    XYZ       3.0727
       YYZ     -14.6787    XZZ      15.0227    YZZ      18.7891
       ZZZ     -60.6409
    Hexadecapole Moments (Debye-Ang^3)
      XXXX    -106.3286   XXXY      -9.7194   XXYY     -39.1211
      XYYY      19.5046   YYYY    -157.6708   XXXZ      -1.7103
      XXYZ      23.3414   XYYZ      -9.6790   YYYZ      47.4531
      XXZZ     -56.6466   XYZZ      -2.3315   YYZZ     -79.3010
      XZZZ       1.9299   YZZZ      92.4424   ZZZZ    -266.4354
 -----------------------------------------------------------------
 Calculating analytic gradient of the SCF energy
 Gradient of CDS energy
            1           2           3           4           5           6
    1  -0.0004350  -0.0011174   0.0019326  -0.0002808   0.0002016  -0.0000719
    2  -0.0010745   0.0003225   0.0014138  -0.0002748   0.0002713  -0.0004517
    3  -0.0001938  -0.0021059   0.0025811  -0.0003057   0.0001785   0.0001338
            7
    1  -0.0002291
    2  -0.0002066
    3  -0.0002880
 Gradient of SCF Energy
            1           2           3           4           5           6
    1   0.0003233   0.0014833   0.0038717  -0.0015275   0.0165942  -0.0149617
    2   0.0015277   0.0110396   0.0276560  -0.0102674   0.0152173  -0.0145265
    3  -0.0001893  -0.0033382  -0.0074794   0.0028524   0.0187495  -0.0166028
            7
    1  -0.0057833
    2  -0.0306466
    3   0.0060079
 Max gradient component =       3.065E-02
 RMS gradient           =       1.321E-02
 Computing fast CPCM-SWIG gradient
 Updating gradient with PCM contributions...
 -- total gradient after adding PCM contribution --
---------------------------------------------------
  Atom         X              Y              Z     
---------------------------------------------------
   1      -0.000008      -0.000011       0.000053
   2       0.000025       0.000003      -0.000005
   3      -0.000035       0.000041       0.000012
   4       0.000029      -0.000014      -0.000019
   5       0.000026      -0.000046      -0.000031
   6       0.000002      -0.000014      -0.000026
   7      -0.000039       0.000041       0.000014
---------------------------------------------------
 Number of fixed atoms: 0
 Gradient time:  CPU 21.70 s  wall 3.18 s
 ######################################################
 ######################################################
 # Starting finite difference calculation for IDERIV  #
 Finite diff step size:  1.88973e-03 a.u.
 ----------------------------------------------------------------
             Standard Nuclear Orientation (Angstroms)
    I     Atom           X                Y                Z
 ----------------------------------------------------------------
    1      O      -0.2990771000     1.0478047000     0.3958903000
    2      C      -0.6602303000    -0.0916274000     0.3633526000
    3      O      -1.3863203000    -0.6138628000    -0.6108436000
    4      H      -0.3910542000    -0.8483749000     1.2117784000
    5      O      -0.1901252000    -1.9415639000     2.1326759000
    6      H      -0.7114638000    -2.6100800000     1.6552815000
    7      H      -1.5635054000    -1.5500099000    -0.4327243000
 ----------------------------------------------------------------
 Nuclear Repulsion Energy =         112.85254371 hartrees
 There are       17 alpha and       16 beta electrons
 Discretize the solute cavity surface with Lebedev spheres
	Using 110 Lebedev grid points for each H atom
	Using 194 Lebedev grid points for other atoms
	Atomic van der Waals radii will be scaled by 1.20
 Remove points where switching function is < 1.0e-08
 Keep 676 surface tesserae and discard 430 interior tesserae
 Molecular Surface Area = 84.861 Angst**2

                       Distance Matrix (Angstroms)
             O (  1)   C (  2)   O (  3)   H (  4)   O (  5)   H (  6)
   C (  2)  1.195741
   O (  3)  2.226376  1.322496
   H (  4)  2.066308  1.168310  2.089857
   O (  5)  3.458991  2.602646  3.274228  1.443429
   H (  6)  3.890533  2.830955  3.094453  1.844712  0.972940
   H (  7)  3.005665  1.891170  0.969274  2.138065  2.936114  2.491885

 
 Requested basis set is 6-311++G(2df,2p)
 There are 50 shells and 166 basis functions
 A cutoff of  1.0D-12 yielded   1215 shell pairs
 There are     13454 function pairs (     16899 Cartesian)
 Smallest overlap matrix eigenvalue = 5.65E-04
 Guess MOs from SCF MO coefficient file

 -----------------------------------------------------------------------
  General SCF calculation program by
  Eric Jon Sundstrom, Paul Horn, Yuezhi Mao, Dmitri Zuev, Alec White,
  David Stuck, Shaama M.S., Shane Yost, Joonho Lee, David Small,
  Daniel Levine, Susi Lehtola, Hugh Burton, Evgeny Epifanovsky,
  Bang C. Huynh
 -----------------------------------------------------------------------
 Exchange:     0.1500 Hartree-Fock + 1.0000 wB97M-V + LR-HF
 Correlation:  1.0000 wB97M-V
 Using SG-2 standard quadrature grid
 Nonlocal Correlation:  VV10 with C = 0.0100 and b = 6.00 and scale = 1.00000
 Grid used for NLC:  SG-1 standard quadrature
 
 Citation of the SMD model:
 Marenich, A.V.; Cramer, C.J.; Truhlar, D.G.
 J. Phys. Chem. B 2009, 113, 6378-6396.
 iSolventCode=           1
 Solvent: water                                                           
 
 vradii
            1           2           3           4           5           6
    1   1.5200000   1.8500000   1.5200000   1.2000000   1.5200000   1.2000000
            7
    1   1.2000000
 -------------------------------------------------------
 OpenMP BLAS3 based DFT computing Module                
 Release: version 1.0, May 2013, Q-Chem Inc. Pittsburgh 
 -------------------------------------------------------
 A unrestricted SCF calculation will be
 performed using Roothaan-Hall, DIIS, GDM
 SCF converges when RMS gradient is below 1.0e-07
 ---------------------------------------
  Cycle       Energy         DIIS error
 ---------------------------------------
    1    -265.4885172067      6.16e-04  Roothaan Step
 ---------------------------------------
  Cycle       Energy         DIIS error
 ---------------------------------------
    1    -265.5168793428      7.77e-04  
    2    -265.5220788661      8.44e-04  Done DIIS. Switching to GDM
 ---------------------------------------
  Cycle       Energy        RMS Gradient
 ---------------------------------------
    1    -265.5220788661      3.47e-02   Normal BFGS step
    2    -265.5183482633      5.56e-02  Line search: overstep
    3    -265.5282461074      5.06e-03   Normal BFGS step
    4    -265.5284805976      2.01e-03   Normal BFGS step
    5    -265.5285231072      2.39e-03   Normal BFGS step
    6    -265.5285377008      9.13e-04   Normal BFGS step
    7    -265.5285397716      7.51e-04   Normal BFGS step
    8    -265.5285411901      1.82e-04   Normal BFGS step
    9    -265.5285414004      8.30e-05   Normal BFGS step
   10    -265.5285414329      6.67e-05   Normal BFGS step
   11    -265.5285414447      2.86e-05   Normal BFGS step
   12    -265.5285414470      1.51e-05   Normal BFGS step
   13    -265.5285414476      4.20e-06   Normal BFGS step
   14    -265.5285414477      1.19e-06   Normal BFGS step
   15    -265.5285414477      5.34e-07   Normal BFGS step
   16    -265.5285414477      4.75e-07   Normal BFGS step
   17    -265.5285414477      3.96e-07   Normal BFGS step
   18    -265.5285414477      2.36e-07   Normal BFGS step
   19    -265.5285414477      1.90e-07   Normal BFGS step
   20    -265.5285414477      9.29e-08  Convergence criterion met
 ---------------------------------------
 SCF time:   CPU 203.08s  wall 26.00s 
<S^2> =          0.757098549
(3)  G-ENP(liq) elect-nuc-pol free energy of system     -265.528541448 a.u.
(4)  G-CDS(liq) cavity-dispersion-solvent structure 
     free energy                                                4.7611 kcal/mol
(6)  G-S(liq) free energy of system                     -265.520954184 a.u.
 SCF   energy in the final basis set =     -265.5209541835
 Total energy in the final basis set =     -265.5209541835
 
 --------------------------------------------------------------
 
                    Orbital Energies (a.u.)
 --------------------------------------------------------------
 
 Alpha MOs
 -- Occupied --
-19.4032 -19.3823 -19.3602 -10.5031  -1.2650  -1.1883  -1.1349  -0.7680
 -0.7130  -0.6066  -0.5873  -0.5848  -0.5410  -0.4956  -0.4576  -0.4540
 -0.3901
 -- Virtual --
  0.0289   0.0586   0.0621   0.0695   0.0960   0.0984   0.1150   0.1442
  0.1901   0.2244   0.2272   0.2369   0.2387   0.2591   0.2640   0.2982
  0.3053   0.3091   0.3162   0.3310   0.3684   0.3901   0.4039   0.4608
  0.4736   0.5574   0.5796   0.5942   0.6149   0.6903   0.7067   0.7846
  0.7865   0.8330   0.8336   0.8380   0.9005   0.9496   0.9853   1.0452
  1.0639   1.0769   1.1109   1.1147   1.1264   1.1548   1.1718   1.1882
  1.2081   1.2321   1.4194   1.4410   1.4758   1.5121   1.5702   1.5827
  1.6187   1.6716   1.7413   1.7554   1.8572   1.8683   1.8728   1.9249
  2.0538   2.1250   2.2011   2.2980   2.3203   2.3980   2.4186   2.5378
  2.5871   2.7146   2.7905   2.7957   2.8585   3.0285   3.0844   3.1338
  3.1876   3.2994   3.3951   3.4245   3.4796   3.5833   3.5915   3.6150
  3.6994   3.7169   3.7540   3.8420   3.9307   4.0762   4.1003   4.2082
  4.2115   4.3141   4.4159   4.7663   5.0591   5.0740   5.1037   5.1223
  5.1421   5.1561   5.1700   5.1934   5.2371   5.2386   5.2494   5.2702
  5.3033   5.3442   5.4529   5.4575   5.5742   5.6178   5.6210   5.6285
  5.6482   5.9180   6.0694   6.0807   6.4211   6.7070   6.8619   6.9034
  6.9121   6.9741   7.0130   7.0149   7.0497   7.1247   7.1698   7.2349
  7.2984   7.3140   7.3609   7.4355   7.4912   7.5717   7.6716   7.7538
  7.8119  25.0849  50.4456  50.5358  50.7170
 
 Beta MOs
 -- Occupied --
-19.4019 -19.3626 -19.3574 -10.4989  -1.2606  -1.1832  -1.0846  -0.7596
 -0.6934  -0.5992  -0.5814  -0.5652  -0.5154  -0.4557  -0.4287  -0.4146
 -- Virtual --
 -0.0871   0.0308   0.0590   0.0628   0.0744   0.0983   0.0992   0.1155
  0.1461   0.1931   0.2276   0.2297   0.2371   0.2398   0.2607   0.2662
  0.2981   0.3075   0.3098   0.3177   0.3403   0.3720   0.3943   0.4104
  0.4689   0.4845   0.5621   0.5814   0.5966   0.6211   0.6919   0.7162
  0.7854   0.7889   0.8346   0.8370   0.8416   0.9023   0.9530   0.9904
  1.0484   1.0701   1.0788   1.1147   1.1165   1.1455   1.1638   1.1762
  1.1905   1.2217   1.2364   1.4274   1.4482   1.4800   1.5169   1.5836
  1.5992   1.6301   1.6885   1.7447   1.7699   1.8639   1.8753   1.8831
  1.9509   2.0581   2.1284   2.2059   2.3046   2.3261   2.4038   2.4254
  2.5442   2.5943   2.7223   2.8011   2.8105   2.8585   3.0392   3.0874
  3.1390   3.1979   3.3087   3.4005   3.4297   3.4838   3.5892   3.5961
  3.6228   3.7078   3.7193   3.7545   3.8525   3.9409   4.0796   4.0807
  4.2129   4.2205   4.3180   4.4042   4.7748   5.0943   5.1096   5.1206
  5.1268   5.1660   5.1759   5.1934   5.2400   5.2420   5.2483   5.2625
  5.3215   5.3296   5.3765   5.4561   5.4889   5.5834   5.6335   5.6377
  5.6497   5.6582   5.9348   6.0735   6.0893   6.4256   6.7159   6.8979
  6.9159   6.9666   7.0027   7.0280   7.0337   7.1012   7.1526   7.2028
  7.2400   7.3013   7.3338   7.4077   7.4422   7.5019   7.6514   7.6842
  7.7613   7.8165  25.0887  50.4592  50.5369  50.7194
 --------------------------------------------------------------
 
          Ground-State Mulliken Net Atomic Charges

     Atom                 Charge (a.u.)    Spin (a.u.)
  --------------------------------------------------------
      1 O                    -0.389770       0.090595
      2 C                     0.080743       0.175132
      3 O                    -0.259916       0.037630
      4 H                     0.398261      -0.019619
      5 O                    -0.508871       0.730574
      6 H                     0.336565      -0.010091
      7 H                     0.342988      -0.004220
  --------------------------------------------------------
  Sum of atomic charges =    -0.000000
  Sum of spin   charges =     1.000000

 -----------------------------------------------------------------
                    Cartesian Multipole Moments
 -----------------------------------------------------------------
    Charge (ESU x 10^10)
                -0.0000
    Dipole Moment (Debye)
         X      -2.4816      Y      -5.3710      Z      -1.3463
       Tot       6.0678
    Quadrupole Moments (Debye-Ang)
        XX     -21.1519     XY       7.5904     YY     -17.2017
        XZ      -2.3137     YZ       1.1468     ZZ     -30.5829
    Octopole Moments (Debye-Ang^2)
       XXX      41.3527    XXY       3.5448    XYY      -1.4069
       YYY       4.4606    XXZ     -13.2861    XYZ       3.0711
       YYZ     -14.6784    XZZ      15.0163    YZZ      18.7863
       ZZZ     -60.6422
    Hexadecapole Moments (Debye-Ang^3)
      XXXX    -106.3018   XXXY      -9.7342   XXYY     -39.1142
      XYYY      19.4879   YYYY    -157.6673   XXXZ      -1.7138
      XXYZ      23.3421   XYYZ      -9.6801   YYYZ      47.4509
      XXZZ     -56.6425   XYZZ      -2.3377   YYZZ     -79.2987
      XZZZ       1.9254   YZZZ      92.4397   ZZZZ    -266.4344
 -----------------------------------------------------------------
 Calculating analytic gradient of the SCF energy
 Gradient of CDS energy
            1           2           3           4           5           6
    1  -0.0004368  -0.0011158   0.0019327  -0.0002808   0.0002016  -0.0000719
    2  -0.0010781   0.0003264   0.0014135  -0.0002748   0.0002713  -0.0004517
    3  -0.0001935  -0.0021063   0.0025812  -0.0003057   0.0001785   0.0001338
            7
    1  -0.0002291
    2  -0.0002066
    3  -0.0002880
 Gradient of SCF Energy
            1           2           3           4           5           6
    1   0.0005474   0.0012560   0.0038410  -0.0014974   0.0165963  -0.0149639
    2   0.0019746   0.0107126   0.0275548  -0.0102781   0.0152214  -0.0145277
    3  -0.0001251  -0.0033433  -0.0075173   0.0028459   0.0187514  -0.0166059
            7
    1  -0.0057793
    2  -0.0306576
    3   0.0059944
 Max gradient component =       3.066E-02
 RMS gradient           =       1.320E-02
 Computing fast CPCM-SWIG gradient
 Updating gradient with PCM contributions...
 -- total gradient after adding PCM contribution --
---------------------------------------------------
  Atom         X              Y              Z     
---------------------------------------------------
   1       0.000216       0.000442       0.000116
   2      -0.000202      -0.000337      -0.000014
   3      -0.000069      -0.000064      -0.000024
   4       0.000060      -0.000023      -0.000023
   5       0.000025      -0.000045      -0.000030
   6       0.000002      -0.000013      -0.000027
   7      -0.000032       0.000040       0.000002
---------------------------------------------------
 Number of fixed atoms: 0
 Gradient time:  CPU 21.68 s  wall 3.26 s
 ----------------------------------------------------------------
             Standard Nuclear Orientation (Angstroms)
    I     Atom           X                Y                Z
 ----------------------------------------------------------------
    1      O      -0.3010771000     1.0478047000     0.3958903000
    2      C      -0.6602303000    -0.0916274000     0.3633526000
    3      O      -1.3863203000    -0.6138628000    -0.6108436000
    4      H      -0.3910542000    -0.8483749000     1.2117784000
    5      O      -0.1901252000    -1.9415639000     2.1326759000
    6      H      -0.7114638000    -2.6100800000     1.6552815000
    7      H      -1.5635054000    -1.5500099000    -0.4327243000
 ----------------------------------------------------------------
 Nuclear Repulsion Energy =         112.87028562 hartrees
 There are       17 alpha and       16 beta electrons
 Discretize the solute cavity surface with Lebedev spheres
	Using 110 Lebedev grid points for each H atom
	Using 194 Lebedev grid points for other atoms
	Atomic van der Waals radii will be scaled by 1.20
 Remove points where switching function is < 1.0e-08
 Keep 676 surface tesserae and discard 430 interior tesserae
 Molecular Surface Area = 84.856 Angst**2

                       Distance Matrix (Angstroms)
             O (  1)   C (  2)   O (  3)   H (  4)   O (  5)   H (  6)
   C (  2)  1.195138
   O (  3)  2.225400  1.322496
   H (  4)  2.066220  1.168310  2.089857
   O (  5)  3.459055  2.602646  3.274228  1.443429
   H (  6)  3.890322  2.830955  3.094453  1.844712  0.972940
   H (  7)  3.004824  1.891170  0.969274  2.138065  2.936114  2.491885

 
 Requested basis set is 6-311++G(2df,2p)
 There are 50 shells and 166 basis functions
 A cutoff of  1.0D-12 yielded   1215 shell pairs
 There are     13454 function pairs (     16899 Cartesian)
 Smallest overlap matrix eigenvalue = 5.64E-04
 Guess MOs from SCF MO coefficient file

 -----------------------------------------------------------------------
  General SCF calculation program by
  Eric Jon Sundstrom, Paul Horn, Yuezhi Mao, Dmitri Zuev, Alec White,
  David Stuck, Shaama M.S., Shane Yost, Joonho Lee, David Small,
  Daniel Levine, Susi Lehtola, Hugh Burton, Evgeny Epifanovsky,
  Bang C. Huynh
 -----------------------------------------------------------------------
 Exchange:     0.1500 Hartree-Fock + 1.0000 wB97M-V + LR-HF
 Correlation:  1.0000 wB97M-V
 Using SG-2 standard quadrature grid
 Nonlocal Correlation:  VV10 with C = 0.0100 and b = 6.00 and scale = 1.00000
 Grid used for NLC:  SG-1 standard quadrature
 
 Citation of the SMD model:
 Marenich, A.V.; Cramer, C.J.; Truhlar, D.G.
 J. Phys. Chem. B 2009, 113, 6378-6396.
 iSolventCode=           1
 Solvent: water                                                           
 
 vradii
            1           2           3           4           5           6
    1   1.5200000   1.8500000   1.5200000   1.2000000   1.5200000   1.2000000
            7
    1   1.2000000
 -------------------------------------------------------
 OpenMP BLAS3 based DFT computing Module                
 Release: version 1.0, May 2013, Q-Chem Inc. Pittsburgh 
 -------------------------------------------------------
 A unrestricted SCF calculation will be
 performed using Roothaan-Hall, DIIS, GDM
 SCF converges when RMS gradient is below 1.0e-07
 ---------------------------------------
  Cycle       Energy         DIIS error
 ---------------------------------------
    1    -265.4885171304      6.16e-04  Roothaan Step
 ---------------------------------------
  Cycle       Energy         DIIS error
 ---------------------------------------
    1    -265.5169064731      7.76e-04  
    2    -265.5221184575      8.42e-04  Done DIIS. Switching to GDM
 ---------------------------------------
  Cycle       Energy        RMS Gradient
 ---------------------------------------
    1    -265.5221184575      3.45e-02   Normal BFGS step
    2    -265.5184310413      5.51e-02  Line search: overstep
    3    -265.5282489444      5.03e-03   Normal BFGS step
    4    -265.5284825439      2.01e-03   Normal BFGS step
    5    -265.5285248092      2.38e-03   Normal BFGS step
    6    -265.5285393615      9.09e-04   Normal BFGS step
    7    -265.5285414049      7.47e-04   Normal BFGS step
    8    -265.5285428072      1.80e-04   Normal BFGS step
    9    -265.5285430144      8.24e-05   Normal BFGS step
   10    -265.5285430467      6.66e-05   Normal BFGS step
   11    -265.5285430585      2.86e-05   Normal BFGS step
   12    -265.5285430608      1.50e-05   Normal BFGS step
   13    -265.5285430614      4.05e-06   Normal BFGS step
   14    -265.5285430615      2.25e-06   Normal BFGS step
   15    -265.5285430615      1.97e-06   Normal BFGS step
   16    -265.5285430615      1.62e-06   Normal BFGS step
   17    -265.5285430615      9.80e-07   Normal BFGS step
   18    -265.5285430615      6.88e-07   Normal BFGS step
   19    -265.5285430615      3.02e-07   Normal BFGS step
   20    -265.5285430615      7.90e-08  Convergence criterion met
 ---------------------------------------
 SCF time:   CPU 204.35s  wall 26.00s 
<S^2> =          0.757099109
(3)  G-ENP(liq) elect-nuc-pol free energy of system     -265.528543062 a.u.
(4)  G-CDS(liq) cavity-dispersion-solvent structure 
     free energy                                                4.7621 kcal/mol
(6)  G-S(liq) free energy of system                     -265.520954153 a.u.
 SCF   energy in the final basis set =     -265.5209541531
 Total energy in the final basis set =     -265.5209541531
 
 --------------------------------------------------------------
 
                    Orbital Energies (a.u.)
 --------------------------------------------------------------
 
 Alpha MOs
 -- Occupied --
-19.4031 -19.3823 -19.3602 -10.5029  -1.2651  -1.1884  -1.1349  -0.7679
 -0.7130  -0.6066  -0.5873  -0.5849  -0.5410  -0.4956  -0.4576  -0.4540
 -0.3901
 -- Virtual --
  0.0289   0.0586   0.0621   0.0696   0.0960   0.0984   0.1150   0.1442
  0.1901   0.2244   0.2272   0.2369   0.2387   0.2591   0.2640   0.2982
  0.3053   0.3091   0.3162   0.3310   0.3684   0.3901   0.4040   0.4608
  0.4738   0.5575   0.5796   0.5942   0.6149   0.6904   0.7070   0.7847
  0.7866   0.8329   0.8336   0.8382   0.9005   0.9497   0.9853   1.0452
  1.0639   1.0769   1.1109   1.1148   1.1264   1.1548   1.1717   1.1881
  1.2081   1.2322   1.4195   1.4411   1.4758   1.5119   1.5702   1.5828
  1.6187   1.6719   1.7416   1.7555   1.8574   1.8688   1.8729   1.9250
  2.0537   2.1254   2.2012   2.2979   2.3204   2.3982   2.4186   2.5380
  2.5874   2.7147   2.7905   2.7958   2.8586   3.0286   3.0846   3.1336
  3.1875   3.2992   3.3953   3.4243   3.4796   3.5834   3.5922   3.6152
  3.6994   3.7170   3.7541   3.8420   3.9307   4.0770   4.1004   4.2085
  4.2115   4.3145   4.4163   4.7663   5.0591   5.0740   5.1037   5.1224
  5.1421   5.1561   5.1701   5.1934   5.2373   5.2386   5.2495   5.2703
  5.3033   5.3442   5.4536   5.4576   5.5747   5.6178   5.6216   5.6288
  5.6487   5.9185   6.0698   6.0821   6.4228   6.7077   6.8619   6.9040
  6.9122   6.9741   7.0133   7.0153   7.0501   7.1256   7.1700   7.2350
  7.2985   7.3140   7.3610   7.4359   7.4909   7.5717   7.6715   7.7543
  7.8123  25.0861  50.4456  50.5360  50.7181
 
 Beta MOs
 -- Occupied --
-19.4018 -19.3626 -19.3574 -10.4988  -1.2607  -1.1833  -1.0846  -0.7595
 -0.6934  -0.5992  -0.5815  -0.5652  -0.5154  -0.4557  -0.4287  -0.4146
 -- Virtual --
 -0.0871   0.0308   0.0590   0.0628   0.0745   0.0984   0.0992   0.1155
  0.1461   0.1931   0.2276   0.2298   0.2371   0.2399   0.2607   0.2662
  0.2982   0.3075   0.3098   0.3177   0.3403   0.3720   0.3944   0.4104
  0.4691   0.4847   0.5622   0.5814   0.5966   0.6211   0.6920   0.7165
  0.7854   0.7890   0.8346   0.8370   0.8418   0.9023   0.9531   0.9904
  1.0485   1.0701   1.0789   1.1147   1.1166   1.1454   1.1638   1.1761
  1.1905   1.2217   1.2365   1.4275   1.4483   1.4800   1.5168   1.5838
  1.5992   1.6302   1.6888   1.7450   1.7700   1.8642   1.8758   1.8831
  1.9509   2.0580   2.1288   2.2060   2.3046   2.3261   2.4040   2.4254
  2.5444   2.5945   2.7224   2.8012   2.8105   2.8587   3.0393   3.0876
  3.1388   3.1978   3.3085   3.4008   3.4295   3.4838   3.5893   3.5968
  3.6229   3.7078   3.7194   3.7546   3.8525   3.9410   4.0800   4.0812
  4.2133   4.2205   4.3184   4.4046   4.7747   5.0943   5.1097   5.1206
  5.1269   5.1660   5.1760   5.1934   5.2400   5.2420   5.2484   5.2626
  5.3215   5.3297   5.3766   5.4568   5.4890   5.5839   5.6336   5.6382
  5.6501   5.6585   5.9353   6.0739   6.0907   6.4274   6.7166   6.8980
  6.9166   6.9666   7.0027   7.0281   7.0347   7.1014   7.1534   7.2029
  7.2401   7.3014   7.3338   7.4077   7.4426   7.5015   7.6513   7.6842
  7.7618   7.8170  25.0898  50.4592  50.5371  50.7205
 --------------------------------------------------------------
 
          Ground-State Mulliken Net Atomic Charges

     Atom                 Charge (a.u.)    Spin (a.u.)
  --------------------------------------------------------
      1 O                    -0.389419       0.090645
      2 C                     0.080771       0.175093
      3 O                    -0.260185       0.037659
      4 H                     0.398283      -0.019600
      5 O                    -0.508900       0.730520
      6 H                     0.336557      -0.010089
      7 H                     0.342892      -0.004228
  --------------------------------------------------------
  Sum of atomic charges =    -0.000000
  Sum of spin   charges =     1.000000

 -----------------------------------------------------------------
                    Cartesian Multipole Moments
 -----------------------------------------------------------------
    Charge (ESU x 10^10)
                -0.0000
    Dipole Moment (Debye)
         X      -2.4753      Y      -5.3675      Z      -1.3450
       Tot       6.0618
    Quadrupole Moments (Debye-Ang)
        XX     -21.1564     XY       7.5928     YY     -17.2026
        XZ      -2.3142     YZ       1.1470     ZZ     -30.5825
    Octopole Moments (Debye-Ang^2)
       XXX      41.3943    XXY       3.5474    XYY      -1.3888
       YYY       4.4733    XXZ     -13.2830    XYZ       3.0744
       YYZ     -14.6789    XZZ      15.0291    YZZ      18.7919
       ZZZ     -60.6396
    Hexadecapole Moments (Debye-Ang^3)
      XXXX    -106.3555   XXXY      -9.7045   XXYY     -39.1280
      XYYY      19.5213   YYYY    -157.6742   XXXZ      -1.7068
      XXYZ      23.3406   XYYZ      -9.6779   YYYZ      47.4552
      XXZZ     -56.6508   XYZZ      -2.3254   YYZZ     -79.3033
      XZZZ       1.9343   YZZZ      92.4451   ZZZZ    -266.4364
 -----------------------------------------------------------------
 Calculating analytic gradient of the SCF energy
 Gradient of CDS energy
            1           2           3           4           5           6
    1  -0.0004333  -0.0011190   0.0019324  -0.0002808   0.0002016  -0.0000719
    2  -0.0010710   0.0003186   0.0014142  -0.0002748   0.0002713  -0.0004517
    3  -0.0001941  -0.0021054   0.0025809  -0.0003057   0.0001785   0.0001338
            7
    1  -0.0002291
    2  -0.0002066
    3  -0.0002880
 Gradient of SCF Energy
            1           2           3           4           5           6
    1   0.0000998   0.0017101   0.0039024  -0.0015576   0.0165921  -0.0149595
    2   0.0010806   0.0113668   0.0277572  -0.0102568   0.0152132  -0.0145254
    3  -0.0002535  -0.0033331  -0.0074415   0.0028590   0.0187475  -0.0165997
            7
    1  -0.0057873
    2  -0.0306357
    3   0.0060213
 Max gradient component =       3.064E-02
 RMS gradient           =       1.323E-02
 Computing fast CPCM-SWIG gradient
 Updating gradient with PCM contributions...
 -- total gradient after adding PCM contribution --
---------------------------------------------------
  Atom         X              Y              Z     
---------------------------------------------------
   1      -0.000231      -0.000465      -0.000010
   2       0.000252       0.000343       0.000004
   3      -0.000001       0.000147       0.000049
   4      -0.000002      -0.000005      -0.000014
   5       0.000027      -0.000047      -0.000031
   6       0.000002      -0.000014      -0.000025
   7      -0.000046       0.000042       0.000027
---------------------------------------------------
 Number of fixed atoms: 0
 Gradient time:  CPU 21.47 s  wall 3.18 s
 ----------------------------------------------------------------
             Standard Nuclear Orientation (Angstroms)
    I     Atom           X                Y                Z
 ----------------------------------------------------------------
    1      O      -0.3000771000     1.0488047000     0.3958903000
    2      C      -0.6602303000    -0.0916274000     0.3633526000
    3      O      -1.3863203000    -0.6138628000    -0.6108436000
    4      H      -0.3910542000    -0.8483749000     1.2117784000
    5      O      -0.1901252000    -1.9415639000     2.1326759000
    6      H      -0.7114638000    -2.6100800000     1.6552815000
    7      H      -1.5635054000    -1.5500099000    -0.4327243000
 ----------------------------------------------------------------
 Nuclear Repulsion Energy =         112.83536750 hartrees
 There are       17 alpha and       16 beta electrons
 Discretize the solute cavity surface with Lebedev spheres
	Using 110 Lebedev grid points for each H atom
	Using 194 Lebedev grid points for other atoms
	Atomic van der Waals radii will be scaled by 1.20
 Remove points where switching function is < 1.0e-08
 Keep 676 surface tesserae and discard 430 interior tesserae
 Molecular Surface Area = 84.868 Angst**2

                       Distance Matrix (Angstroms)
             O (  1)   C (  2)   O (  3)   H (  4)   O (  5)   H (  6)
   C (  2)  1.196392
   O (  3)  2.226634  1.322496
   H (  4)  2.067182  1.168310  2.089857
   O (  5)  3.459887  2.602646  3.274228  1.443429
   H (  6)  3.891368  2.830955  3.094453  1.844712  0.972940
   H (  7)  3.006109  1.891170  0.969274  2.138065  2.936114  2.491885

 
 Requested basis set is 6-311++G(2df,2p)
 There are 50 shells and 166 basis functions
 A cutoff of  1.0D-12 yielded   1214 shell pairs
 There are     13405 function pairs (     16799 Cartesian)
 Smallest overlap matrix eigenvalue = 5.65E-04
 Guess MOs from SCF MO coefficient file

 -----------------------------------------------------------------------
  General SCF calculation program by
  Eric Jon Sundstrom, Paul Horn, Yuezhi Mao, Dmitri Zuev, Alec White,
  David Stuck, Shaama M.S., Shane Yost, Joonho Lee, David Small,
  Daniel Levine, Susi Lehtola, Hugh Burton, Evgeny Epifanovsky,
  Bang C. Huynh
 -----------------------------------------------------------------------
 Exchange:     0.1500 Hartree-Fock + 1.0000 wB97M-V + LR-HF
 Correlation:  1.0000 wB97M-V
 Using SG-2 standard quadrature grid
 Nonlocal Correlation:  VV10 with C = 0.0100 and b = 6.00 and scale = 1.00000
 Grid used for NLC:  SG-1 standard quadrature
 
 Citation of the SMD model:
 Marenich, A.V.; Cramer, C.J.; Truhlar, D.G.
 J. Phys. Chem. B 2009, 113, 6378-6396.
 iSolventCode=           1
 Solvent: water                                                           
 
 vradii
            1           2           3           4           5           6
    1   1.5200000   1.8500000   1.5200000   1.2000000   1.5200000   1.2000000
            7
    1   1.2000000
 -------------------------------------------------------
 OpenMP BLAS3 based DFT computing Module                
 Release: version 1.0, May 2013, Q-Chem Inc. Pittsburgh 
 -------------------------------------------------------
 A unrestricted SCF calculation will be
 performed using Roothaan-Hall, DIIS, GDM
 SCF converges when RMS gradient is below 1.0e-07
 ---------------------------------------
  Cycle       Energy         DIIS error
 ---------------------------------------
    1    -265.4885097530      6.15e-04  Roothaan Step
 ---------------------------------------
  Cycle       Energy         DIIS error
 ---------------------------------------
    1    -265.5168440229      7.78e-04  
    2    -265.5220300491      8.47e-04  Done DIIS. Switching to GDM
 ---------------------------------------
  Cycle       Energy        RMS Gradient
 ---------------------------------------
    1    -265.5220300491      3.50e-02   Normal BFGS step
    2    -265.5182511400      5.64e-02  Line search: overstep
    3    -265.5282417085      5.12e-03   Normal BFGS step
    4    -265.5284774600      2.02e-03   Normal BFGS step
    5    -265.5285204645      2.42e-03   Normal BFGS step
    6    -265.5285351820      9.33e-04   Normal BFGS step
    7    -265.5285373364      7.62e-04   Normal BFGS step
    8    -265.5285388126      1.80e-04   Normal BFGS step
    9    -265.5285390262      8.30e-05   Normal BFGS step
   10    -265.5285390591      6.67e-05   Normal BFGS step
   11    -265.5285390708      2.82e-05   Normal BFGS step
   12    -265.5285390731      1.51e-05   Normal BFGS step
   13    -265.5285390737      4.33e-06   Normal BFGS step
   14    -265.5285390738      1.18e-06   Normal BFGS step
   15    -265.5285390738      3.14e-07   Normal BFGS step
   16    -265.5285390738      2.66e-07   Normal BFGS step
   17    -265.5285390738      2.33e-07   Normal BFGS step
   18    -265.5285390738      1.64e-07   Normal BFGS step
   19    -265.5285390738      1.15e-07   Normal BFGS step
   20    -265.5285390738      8.77e-08  Convergence criterion met
 ---------------------------------------
 SCF time:   CPU 202.77s  wall 26.00s 
<S^2> =          0.757094769
(3)  G-ENP(liq) elect-nuc-pol free energy of system     -265.528539074 a.u.
(4)  G-CDS(liq) cavity-dispersion-solvent structure 
     free energy                                                4.7603 kcal/mol
(6)  G-S(liq) free energy of system                     -265.520953028 a.u.
 SCF   energy in the final basis set =     -265.5209530279
 Total energy in the final basis set =     -265.5209530279
 
 --------------------------------------------------------------
 
                    Orbital Energies (a.u.)
 --------------------------------------------------------------
 
 Alpha MOs
 -- Occupied --
-19.4033 -19.3824 -19.3601 -10.5031  -1.2649  -1.1880  -1.1350  -0.7680
 -0.7130  -0.6064  -0.5874  -0.5847  -0.5411  -0.4955  -0.4575  -0.4540
 -0.3902
 -- Virtual --
  0.0289   0.0586   0.0621   0.0694   0.0959   0.0984   0.1150   0.1442
  0.1901   0.2243   0.2272   0.2369   0.2387   0.2591   0.2639   0.2981
  0.3053   0.3091   0.3162   0.3310   0.3683   0.3900   0.4040   0.4606
  0.4735   0.5574   0.5796   0.5942   0.6149   0.6903   0.7063   0.7846
  0.7865   0.8329   0.8336   0.8380   0.9004   0.9495   0.9852   1.0452
  1.0639   1.0769   1.1110   1.1147   1.1264   1.1548   1.1718   1.1882
  1.2081   1.2319   1.4193   1.4408   1.4757   1.5119   1.5701   1.5827
  1.6186   1.6716   1.7411   1.7553   1.8570   1.8682   1.8727   1.9247
  2.0534   2.1249   2.2009   2.2979   2.3203   2.3979   2.4184   2.5376
  2.5869   2.7145   2.7904   2.7956   2.8585   3.0285   3.0844   3.1339
  3.1879   3.2995   3.3951   3.4245   3.4796   3.5829   3.5906   3.6148
  3.6993   3.7171   3.7540   3.8420   3.9305   4.0755   4.1002   4.2079
  4.2114   4.3135   4.4159   4.7663   5.0590   5.0739   5.1037   5.1222
  5.1420   5.1561   5.1700   5.1933   5.2371   5.2383   5.2494   5.2700
  5.3032   5.3440   5.4526   5.4573   5.5736   5.6178   5.6205   5.6280
  5.6482   5.9173   6.0687   6.0804   6.4187   6.7059   6.8618   6.9026
  6.9120   6.9740   7.0129   7.0146   7.0489   7.1240   7.1696   7.2348
  7.2985   7.3139   7.3608   7.4353   7.4907   7.5716   7.6717   7.7531
  7.8116  25.0838  50.4455  50.5357  50.7159
 
 Beta MOs
 -- Occupied --
-19.4020 -19.3627 -19.3574 -10.4990  -1.2605  -1.1829  -1.0847  -0.7596
 -0.6933  -0.5990  -0.5813  -0.5652  -0.5153  -0.4556  -0.4288  -0.4146
 -- Virtual --
 -0.0871   0.0308   0.0590   0.0628   0.0743   0.0983   0.0992   0.1155
  0.1461   0.1931   0.2276   0.2297   0.2371   0.2398   0.2607   0.2662
  0.2981   0.3075   0.3097   0.3177   0.3403   0.3719   0.3943   0.4104
  0.4687   0.4844   0.5621   0.5814   0.5966   0.6211   0.6919   0.7158
  0.7854   0.7889   0.8346   0.8370   0.8415   0.9021   0.9529   0.9904
  1.0485   1.0701   1.0788   1.1147   1.1164   1.1455   1.1638   1.1762
  1.1906   1.2217   1.2363   1.4274   1.4480   1.4799   1.5168   1.5836
  1.5991   1.6301   1.6885   1.7445   1.7699   1.8638   1.8752   1.8830
  1.9507   2.0577   2.1283   2.2057   2.3045   2.3260   2.4037   2.4252
  2.5440   2.5940   2.7222   2.8010   2.8104   2.8585   3.0392   3.0874
  3.1391   3.1982   3.3088   3.4006   3.4298   3.4839   3.5889   3.5952
  3.6225   3.7077   3.7195   3.7545   3.8525   3.9408   4.0791   4.0805
  4.2126   4.2204   4.3174   4.4042   4.7748   5.0943   5.1096   5.1205
  5.1268   5.1659   5.1759   5.1933   5.2399   5.2417   5.2483   5.2625
  5.3214   5.3295   5.3763   5.4557   5.4888   5.5828   5.6335   5.6371
  5.6496   5.6577   5.9343   6.0728   6.0890   6.4232   6.7148   6.8979
  6.9151   6.9665   7.0027   7.0279   7.0328   7.1007   7.1522   7.2027
  7.2398   7.3014   7.3336   7.4076   7.4419   7.5014   7.6514   7.6842
  7.7606   7.8162  25.0876  50.4591  50.5368  50.7183
 --------------------------------------------------------------
 
          Ground-State Mulliken Net Atomic Charges

     Atom                 Charge (a.u.)    Spin (a.u.)
  --------------------------------------------------------
      1 O                    -0.390383       0.090410
      2 C                     0.080618       0.175029
      3 O                    -0.259734       0.037527
      4 H                     0.398401      -0.019670
      5 O                    -0.508492       0.731006
      6 H                     0.336602      -0.010095
      7 H                     0.342988      -0.004209
  --------------------------------------------------------
  Sum of atomic charges =    -0.000000
  Sum of spin   charges =     1.000000

 -----------------------------------------------------------------
                    Cartesian Multipole Moments
 -----------------------------------------------------------------
    Charge (ESU x 10^10)
                -0.0000
    Dipole Moment (Debye)
         X      -2.4800      Y      -5.3815      Z      -1.3431
       Tot       6.0758
    Quadrupole Moments (Debye-Ang)
        XX     -21.1533     XY       7.5970     YY     -17.2003
        XZ      -2.3132     YZ       1.1345     ZZ     -30.5740
    Octopole Moments (Debye-Ang^2)
       XXX      41.3685    XXY       3.5294    XYY      -1.3984
       YYY       4.3999    XXZ     -13.2859    XYZ       3.0747
       YYZ     -14.6593    XZZ      15.0201    YZZ      18.7510
       ZZZ     -60.6156
    Hexadecapole Moments (Debye-Ang^3)
      XXXX    -106.3167   XXXY      -9.7012   XXYY     -39.1294
      XYYY      19.5279   YYYY    -157.6941   XXXZ      -1.7055
      XXYZ      23.3329   XYYZ      -9.6808   YYYZ      47.3788
      XXZZ     -56.6405   XYZZ      -2.3221   YYZZ     -79.2586
      XZZZ       1.9280   YZZZ      92.3618   ZZZZ    -266.3510
 -----------------------------------------------------------------
 Calculating analytic gradient of the SCF energy
 Gradient of CDS energy
            1           2           3           4           5           6
    1  -0.0004386  -0.0011138   0.0019326  -0.0002808   0.0002016  -0.0000719
    2  -0.0010867   0.0003345   0.0014139  -0.0002748   0.0002713  -0.0004517
    3  -0.0001941  -0.0021056   0.0025810  -0.0003057   0.0001785   0.0001338
            7
    1  -0.0002291
    2  -0.0002066
    3  -0.0002880
 Gradient of SCF Energy
            1           2           3           4           5           6
    1   0.0007696   0.0011556   0.0037777  -0.0015389   0.0165970  -0.0149690
    2   0.0029593   0.0098301   0.0275495  -0.0104073   0.0152594  -0.0145307
    3  -0.0001315  -0.0033451  -0.0075745   0.0029247   0.0187311  -0.0166127
            7
    1  -0.0057919
    2  -0.0306603
    3   0.0060080
 Max gradient component =       3.066E-02
 RMS gradient           =       1.318E-02
 Computing fast CPCM-SWIG gradient
 Updating gradient with PCM contributions...
 -- total gradient after adding PCM contribution --
---------------------------------------------------
  Atom         X              Y              Z     
---------------------------------------------------
   1       0.000444       0.001440       0.000109
   2      -0.000312      -0.001254       0.000000
   3      -0.000133      -0.000081      -0.000083
   4       0.000019      -0.000134       0.000046
   5       0.000018      -0.000021      -0.000058
   6       0.000007      -0.000001      -0.000025
   7      -0.000043       0.000051       0.000011
---------------------------------------------------
 Number of fixed atoms: 0
 Gradient time:  CPU 21.90 s  wall 3.32 s
 ----------------------------------------------------------------
             Standard Nuclear Orientation (Angstroms)
    I     Atom           X                Y                Z
 ----------------------------------------------------------------
    1      O      -0.3000771000     1.0468047000     0.3958903000
    2      C      -0.6602303000    -0.0916274000     0.3633526000
    3      O      -1.3863203000    -0.6138628000    -0.6108436000
    4      H      -0.3910542000    -0.8483749000     1.2117784000
    5      O      -0.1901252000    -1.9415639000     2.1326759000
    6      H      -0.7114638000    -2.6100800000     1.6552815000
    7      H      -1.5635054000    -1.5500099000    -0.4327243000
 ----------------------------------------------------------------
 Nuclear Repulsion Energy =         112.88750474 hartrees
 There are       17 alpha and       16 beta electrons
 Discretize the solute cavity surface with Lebedev spheres
	Using 110 Lebedev grid points for each H atom
	Using 194 Lebedev grid points for other atoms
	Atomic van der Waals radii will be scaled by 1.20
 Remove points where switching function is < 1.0e-08
 Keep 676 surface tesserae and discard 430 interior tesserae
 Molecular Surface Area = 84.849 Angst**2

                       Distance Matrix (Angstroms)
             O (  1)   C (  2)   O (  3)   H (  4)   O (  5)   H (  6)
   C (  2)  1.194486
   O (  3)  2.225141  1.322496
   H (  4)  2.065346  1.168310  2.089857
   O (  5)  3.458159  2.602646  3.274228  1.443429
   H (  6)  3.889487  2.830955  3.094453  1.844712  0.972940
   H (  7)  3.004380  1.891170  0.969274  2.138065  2.936114  2.491885

 
 Requested basis set is 6-311++G(2df,2p)
 There are 50 shells and 166 basis functions
 A cutoff of  1.0D-12 yielded   1216 shell pairs
 There are     13458 function pairs (     16903 Cartesian)
 Smallest overlap matrix eigenvalue = 5.64E-04
 Guess MOs from SCF MO coefficient file

 -----------------------------------------------------------------------
  General SCF calculation program by
  Eric Jon Sundstrom, Paul Horn, Yuezhi Mao, Dmitri Zuev, Alec White,
  David Stuck, Shaama M.S., Shane Yost, Joonho Lee, David Small,
  Daniel Levine, Susi Lehtola, Hugh Burton, Evgeny Epifanovsky,
  Bang C. Huynh
 -----------------------------------------------------------------------
 Exchange:     0.1500 Hartree-Fock + 1.0000 wB97M-V + LR-HF
 Correlation:  1.0000 wB97M-V
 Using SG-2 standard quadrature grid
 Nonlocal Correlation:  VV10 with C = 0.0100 and b = 6.00 and scale = 1.00000
 Grid used for NLC:  SG-1 standard quadrature
 
 Citation of the SMD model:
 Marenich, A.V.; Cramer, C.J.; Truhlar, D.G.
 J. Phys. Chem. B 2009, 113, 6378-6396.
 iSolventCode=           1
 Solvent: water                                                           
 
 vradii
            1           2           3           4           5           6
    1   1.5200000   1.8500000   1.5200000   1.2000000   1.5200000   1.2000000
            7
    1   1.2000000
 -------------------------------------------------------
 OpenMP BLAS3 based DFT computing Module                
 Release: version 1.0, May 2013, Q-Chem Inc. Pittsburgh 
 -------------------------------------------------------
 A unrestricted SCF calculation will be
 performed using Roothaan-Hall, DIIS, GDM
 SCF converges when RMS gradient is below 1.0e-07
 ---------------------------------------
  Cycle       Energy         DIIS error
 ---------------------------------------
    1    -265.4885022172      6.17e-04  Roothaan Step
 ---------------------------------------
  Cycle       Energy         DIIS error
 ---------------------------------------
    1    -265.5169397592      7.74e-04  
    2    -265.5221693132      8.38e-04  Done DIIS. Switching to GDM
 ---------------------------------------
  Cycle       Energy        RMS Gradient
 ---------------------------------------
    1    -265.5221693132      3.42e-02   Normal BFGS step
    2    -265.5185323937      5.43e-02  Line search: overstep
    3    -265.5282515275      4.93e-03   Normal BFGS step
    4    -265.5284836418      2.01e-03   Normal BFGS step
    5    -265.5285252373      2.33e-03   Normal BFGS step
    6    -265.5285396077      8.76e-04   Normal BFGS step
    7    -265.5285415263      7.28e-04   Normal BFGS step
    8    -265.5285428373      1.86e-04   Normal BFGS step
    9    -265.5285430402      8.22e-05   Normal BFGS step
   10    -265.5285430719      6.63e-05   Normal BFGS step
   11    -265.5285430836      2.89e-05   Normal BFGS step
   12    -265.5285430858      1.49e-05   Normal BFGS step
   13    -265.5285430864      4.07e-06   Normal BFGS step
   14    -265.5285430865      1.19e-06   Normal BFGS step
   15    -265.5285430865      3.19e-07   Normal BFGS step
   16    -265.5285430865      1.23e-07   Normal BFGS step
   17    -265.5285430865      1.10e-07   Normal BFGS step
   18    -265.5285430865      8.97e-08  Convergence criterion met
 ---------------------------------------
 SCF time:   CPU 188.36s  wall 24.00s 
<S^2> =          0.757102882
(3)  G-ENP(liq) elect-nuc-pol free energy of system     -265.528543086 a.u.
(4)  G-CDS(liq) cavity-dispersion-solvent structure 
     free energy                                                4.7629 kcal/mol
(6)  G-S(liq) free energy of system                     -265.520952979 a.u.
 SCF   energy in the final basis set =     -265.5209529793
 Total energy in the final basis set =     -265.5209529793
 
 --------------------------------------------------------------
 
                    Orbital Energies (a.u.)
 --------------------------------------------------------------
 
 Alpha MOs
 -- Occupied --
-19.4031 -19.3822 -19.3602 -10.5028  -1.2653  -1.1887  -1.1348  -0.7679
 -0.7131  -0.6067  -0.5873  -0.5851  -0.5410  -0.4957  -0.4577  -0.4539
 -0.3900
 -- Virtual --
  0.0289   0.0586   0.0622   0.0697   0.0960   0.0984   0.1150   0.1442
  0.1901   0.2244   0.2272   0.2369   0.2387   0.2591   0.2640   0.2982
  0.3053   0.3092   0.3162   0.3311   0.3684   0.3901   0.4040   0.4610
  0.4739   0.5575   0.5796   0.5943   0.6150   0.6904   0.7073   0.7847
  0.7866   0.8329   0.8336   0.8382   0.9007   0.9498   0.9853   1.0452
  1.0639   1.0769   1.1108   1.1149   1.1264   1.1548   1.1717   1.1881
  1.2081   1.2323   1.4196   1.4413   1.4759   1.5121   1.5702   1.5829
  1.6188   1.6719   1.7418   1.7555   1.8576   1.8689   1.8729   1.9252
  2.0541   2.1255   2.2014   2.2980   2.3204   2.3983   2.4188   2.5382
  2.5877   2.7148   2.7906   2.7959   2.8586   3.0287   3.0847   3.1335
  3.1872   3.2991   3.3953   3.4242   3.4795   3.5838   3.5931   3.6154
  3.6994   3.7168   3.7542   3.8420   3.9309   4.0777   4.1004   4.2088
  4.2115   4.3151   4.4164   4.7663   5.0592   5.0741   5.1036   5.1224
  5.1422   5.1562   5.1701   5.1935   5.2373   5.2389   5.2494   5.2706
  5.3034   5.3444   5.4540   5.4578   5.5752   5.6179   5.6221   5.6293
  5.6487   5.9192   6.0705   6.0823   6.4253   6.7088   6.8619   6.9048
  6.9122   6.9741   7.0134   7.0157   7.0509   7.1262   7.1703   7.2351
  7.2985   7.3142   7.3611   7.4361   7.4914   7.5718   7.6713   7.7550
  7.8126  25.0872  50.4457  50.5361  50.7192
 
 Beta MOs
 -- Occupied --
-19.4018 -19.3625 -19.3574 -10.4987  -1.2609  -1.1836  -1.0845  -0.7594
 -0.6934  -0.5993  -0.5816  -0.5651  -0.5155  -0.4558  -0.4286  -0.4146
 -- Virtual --
 -0.0870   0.0308   0.0590   0.0628   0.0746   0.0984   0.0992   0.1155
  0.1461   0.1931   0.2276   0.2298   0.2371   0.2399   0.2607   0.2662
  0.2982   0.3075   0.3098   0.3177   0.3403   0.3720   0.3944   0.4104
  0.4693   0.4848   0.5622   0.5815   0.5967   0.6212   0.6920   0.7168
  0.7854   0.7890   0.8346   0.8370   0.8419   0.9024   0.9531   0.9904
  1.0484   1.0702   1.0789   1.1146   1.1166   1.1454   1.1638   1.1761
  1.1905   1.2217   1.2367   1.4276   1.4485   1.4801   1.5169   1.5838
  1.5993   1.6303   1.6888   1.7452   1.7700   1.8643   1.8759   1.8832
  1.9511   2.0584   2.1289   2.2062   2.3047   2.3261   2.4042   2.4256
  2.5446   2.5948   2.7225   2.8012   2.8105   2.8586   3.0393   3.0877
  3.1387   3.1975   3.3084   3.4008   3.4294   3.4838   3.5896   3.5977
  3.6231   3.7078   3.7192   3.7547   3.8525   3.9411   4.0802   4.0817
  4.2135   4.2206   4.3190   4.4046   4.7747   5.0943   5.1097   5.1206
  5.1269   5.1661   5.1761   5.1935   5.2401   5.2423   5.2485   5.2627
  5.3216   5.3298   5.3768   5.4572   5.4892   5.5845   5.6336   5.6388
  5.6502   5.6590   5.9359   6.0746   6.0909   6.4298   6.7177   6.8980
  6.9174   6.9667   7.0028   7.0281   7.0356   7.1020   7.1539   7.2030
  7.2402   7.3013   7.3340   7.4078   7.4428   7.5020   7.6513   7.6842
  7.7625   7.8173  25.0909  50.4593  50.5372  50.7216
 --------------------------------------------------------------
 
          Ground-State Mulliken Net Atomic Charges

     Atom                 Charge (a.u.)    Spin (a.u.)
  --------------------------------------------------------
      1 O                    -0.388806       0.090830
      2 C                     0.080898       0.175195
      3 O                    -0.260367       0.037762
      4 H                     0.398143      -0.019549
      5 O                    -0.509281       0.730086
      6 H                     0.336520      -0.010085
      7 H                     0.342893      -0.004238
  --------------------------------------------------------
  Sum of atomic charges =    -0.000000
  Sum of spin   charges =     1.000000

 -----------------------------------------------------------------
                    Cartesian Multipole Moments
 -----------------------------------------------------------------
    Charge (ESU x 10^10)
                -0.0000
    Dipole Moment (Debye)
         X      -2.4769      Y      -5.3569      Z      -1.3481
       Tot       6.0539
    Quadrupole Moments (Debye-Ang)
        XX     -21.1550     XY       7.5862     YY     -17.2041
        XZ      -2.3147     YZ       1.1593     ZZ     -30.5914
    Octopole Moments (Debye-Ang^2)
       XXX      41.3785    XXY       3.5628    XYY      -1.3974
       YYY       4.5341    XXZ     -13.2831    XYZ       3.0708
       YYZ     -14.6981    XZZ      15.0253    YZZ      18.8273
       ZZZ     -60.6662
    Hexadecapole Moments (Debye-Ang^3)
      XXXX    -106.3405   XXXY      -9.7375   XXYY     -39.1129
      XYYY      19.4813   YYYY    -157.6479   XXXZ      -1.7152
      XXYZ      23.3499   XYYZ      -9.6773   YYYZ      47.5276
      XXZZ     -56.6529   XYZZ      -2.3409   YYZZ     -79.3436
      XZZZ       1.9317   YZZZ      92.5233   ZZZZ    -266.5201
 -----------------------------------------------------------------
 Calculating analytic gradient of the SCF energy
 Gradient of CDS energy
            1           2           3           4           5           6
    1  -0.0004315  -0.0011209   0.0019326  -0.0002808   0.0002016  -0.0000719
    2  -0.0010625   0.0003106   0.0014137  -0.0002748   0.0002713  -0.0004517
    3  -0.0001935  -0.0021062   0.0025811  -0.0003057   0.0001785   0.0001338
            7
    1  -0.0002291
    2  -0.0002066
    3  -0.0002880
 Gradient of SCF Energy
            1           2           3           4           5           6
    1  -0.0001267   0.0018145   0.0039660  -0.0015160   0.0165914  -0.0149545
    2   0.0000868   0.0122579   0.0277626  -0.0101272   0.0151751  -0.0145224
    3  -0.0002475  -0.0033309  -0.0073843   0.0027798   0.0187679  -0.0165929
            7
    1  -0.0057747
    2  -0.0306329
    3   0.0060078
 Max gradient component =       3.063E-02
 RMS gradient           =       1.326E-02
 Computing fast CPCM-SWIG gradient
 Updating gradient with PCM contributions...
 -- total gradient after adding PCM contribution --
---------------------------------------------------
  Atom         X              Y              Z     
---------------------------------------------------
   1      -0.000464      -0.001472      -0.000003
   2       0.000366       0.001269      -0.000009
   3       0.000063       0.000164       0.000107
   4       0.000038       0.000106      -0.000083
   5       0.000034      -0.000072      -0.000003
   6      -0.000003      -0.000026      -0.000027
   7      -0.000035       0.000031       0.000018
---------------------------------------------------
 Number of fixed atoms: 0
 Gradient time:  CPU 22.28 s  wall 3.37 s
 ----------------------------------------------------------------
             Standard Nuclear Orientation (Angstroms)
    I     Atom           X                Y                Z
 ----------------------------------------------------------------
    1      O      -0.3000771000     1.0478047000     0.3968903000
    2      C      -0.6602303000    -0.0916274000     0.3633526000
    3      O      -1.3863203000    -0.6138628000    -0.6108436000
    4      H      -0.3910542000    -0.8483749000     1.2117784000
    5      O      -0.1901252000    -1.9415639000     2.1326759000
    6      H      -0.7114638000    -2.6100800000     1.6552815000
    7      H      -1.5635054000    -1.5500099000    -0.4327243000
 ----------------------------------------------------------------
 Nuclear Repulsion Energy =         112.85961158 hartrees
 There are       17 alpha and       16 beta electrons
 Discretize the solute cavity surface with Lebedev spheres
	Using 110 Lebedev grid points for each H atom
	Using 194 Lebedev grid points for other atoms
	Atomic van der Waals radii will be scaled by 1.20
 Remove points where switching function is < 1.0e-08
 Keep 676 surface tesserae and discard 430 interior tesserae
 Molecular Surface Area = 84.858 Angst**2

                       Distance Matrix (Angstroms)
             O (  1)   C (  2)   O (  3)   H (  4)   O (  5)   H (  6)
   C (  2)  1.195467
   O (  3)  2.226340  1.322496
   H (  4)  2.065869  1.168310  2.089857
   O (  5)  3.458521  2.602646  3.274228  1.443429
   H (  6)  3.890104  2.830955  3.094453  1.844712  0.972940
   H (  7)  3.005520  1.891170  0.969274  2.138065  2.936114  2.491885

 
 Requested basis set is 6-311++G(2df,2p)
 There are 50 shells and 166 basis functions
 A cutoff of  1.0D-12 yielded   1216 shell pairs
 There are     13458 function pairs (     16903 Cartesian)
 Smallest overlap matrix eigenvalue = 5.65E-04
 Guess MOs from SCF MO coefficient file

 -----------------------------------------------------------------------
  General SCF calculation program by
  Eric Jon Sundstrom, Paul Horn, Yuezhi Mao, Dmitri Zuev, Alec White,
  David Stuck, Shaama M.S., Shane Yost, Joonho Lee, David Small,
  Daniel Levine, Susi Lehtola, Hugh Burton, Evgeny Epifanovsky,
  Bang C. Huynh
 -----------------------------------------------------------------------
 Exchange:     0.1500 Hartree-Fock + 1.0000 wB97M-V + LR-HF
 Correlation:  1.0000 wB97M-V
 Using SG-2 standard quadrature grid
 Nonlocal Correlation:  VV10 with C = 0.0100 and b = 6.00 and scale = 1.00000
 Grid used for NLC:  SG-1 standard quadrature
 
 Citation of the SMD model:
 Marenich, A.V.; Cramer, C.J.; Truhlar, D.G.
 J. Phys. Chem. B 2009, 113, 6378-6396.
 iSolventCode=           1
 Solvent: water                                                           
 
 vradii
            1           2           3           4           5           6
    1   1.5200000   1.8500000   1.5200000   1.2000000   1.5200000   1.2000000
            7
    1   1.2000000
 -------------------------------------------------------
 OpenMP BLAS3 based DFT computing Module                
 Release: version 1.0, May 2013, Q-Chem Inc. Pittsburgh 
 -------------------------------------------------------
 A unrestricted SCF calculation will be
 performed using Roothaan-Hall, DIIS, GDM
 SCF converges when RMS gradient is below 1.0e-07
 ---------------------------------------
  Cycle       Energy         DIIS error
 ---------------------------------------
    1    -265.4885640132      6.15e-04  Roothaan Step
 ---------------------------------------
  Cycle       Energy         DIIS error
 ---------------------------------------
    1    -265.5168882266      7.76e-04  
    2    -265.5220842732      8.44e-04  Done DIIS. Switching to GDM
 ---------------------------------------
  Cycle       Energy        RMS Gradient
 ---------------------------------------
    1    -265.5220842732      3.47e-02   Normal BFGS step
    2    -265.5183615725      5.54e-02  Line search: overstep
    3    -265.5282463646      5.07e-03   Normal BFGS step
    4    -265.5284808990      2.01e-03   Normal BFGS step
    5    -265.5285234809      2.40e-03   Normal BFGS step
    6    -265.5285380888      9.17e-04   Normal BFGS step
    7    -265.5285401827      7.55e-04   Normal BFGS step
    8    -265.5285416176      1.82e-04   Normal BFGS step
    9    -265.5285418294      8.35e-05   Normal BFGS step
   10    -265.5285418621      6.70e-05   Normal BFGS step
   11    -265.5285418742      2.89e-05   Normal BFGS step
   12    -265.5285418765      1.51e-05   Normal BFGS step
   13    -265.5285418771      4.11e-06   Normal BFGS step
   14    -265.5285418772      1.20e-06   Normal BFGS step
   15    -265.5285418772      1.06e-06   Normal BFGS step
   16    -265.5285418772      9.27e-07   Normal BFGS step
   17    -265.5285418772      6.75e-07   Normal BFGS step
   18    -265.5285418772      4.07e-07   Normal BFGS step
   19    -265.5285418772      2.74e-07   Normal BFGS step
   20    -265.5285418772      7.85e-08  Convergence criterion met
 ---------------------------------------
 SCF time:   CPU 206.83s  wall 27.00s 
<S^2> =          0.757100533
(3)  G-ENP(liq) elect-nuc-pol free energy of system     -265.528541877 a.u.
(4)  G-CDS(liq) cavity-dispersion-solvent structure 
     free energy                                                4.7614 kcal/mol
(6)  G-S(liq) free energy of system                     -265.520954156 a.u.
 SCF   energy in the final basis set =     -265.5209541557
 Total energy in the final basis set =     -265.5209541557
 
 --------------------------------------------------------------
 
                    Orbital Energies (a.u.)
 --------------------------------------------------------------
 
 Alpha MOs
 -- Occupied --
-19.4032 -19.3822 -19.3602 -10.5030  -1.2651  -1.1884  -1.1349  -0.7680
 -0.7130  -0.6066  -0.5873  -0.5849  -0.5410  -0.4956  -0.4576  -0.4539
 -0.3901
 -- Virtual --
  0.0289   0.0586   0.0622   0.0696   0.0960   0.0984   0.1150   0.1442
  0.1901   0.2244   0.2272   0.2369   0.2387   0.2591   0.2640   0.2982
  0.3053   0.3092   0.3162   0.3310   0.3684   0.3901   0.4039   0.4609
  0.4736   0.5575   0.5796   0.5942   0.6149   0.6903   0.7068   0.7846
  0.7865   0.8329   0.8336   0.8380   0.9006   0.9496   0.9853   1.0452
  1.0639   1.0769   1.1108   1.1147   1.1265   1.1548   1.1718   1.1882
  1.2081   1.2322   1.4194   1.4411   1.4759   1.5121   1.5702   1.5827
  1.6187   1.6716   1.7414   1.7553   1.8573   1.8683   1.8728   1.9250
  2.0540   2.1250   2.2012   2.2980   2.3203   2.3981   2.4187   2.5379
  2.5873   2.7147   2.7905   2.7957   2.8584   3.0285   3.0844   3.1338
  3.1875   3.2994   3.3950   3.4245   3.4796   3.5834   3.5918   3.6151
  3.6994   3.7168   3.7541   3.8420   3.9308   4.0764   4.1003   4.2083
  4.2115   4.3143   4.4159   4.7664   5.0592   5.0741   5.1037   5.1222
  5.1421   5.1561   5.1700   5.1934   5.2371   5.2387   5.2494   5.2703
  5.3034   5.3443   5.4530   5.4576   5.5744   5.6179   5.6212   5.6288
  5.6482   5.9183   6.0697   6.0807   6.4222   6.7076   6.8619   6.9037
  6.9121   6.9741   7.0132   7.0150   7.0501   7.1249   7.1699   7.2350
  7.2984   7.3141   7.3610   7.4355   7.4915   7.5718   7.6715   7.7541
  7.8120  25.0854  50.4456  50.5358  50.7175
 
 Beta MOs
 -- Occupied --
-19.4019 -19.3625 -19.3575 -10.4989  -1.2607  -1.1833  -1.0846  -0.7595
 -0.6934  -0.5992  -0.5815  -0.5652  -0.5154  -0.4557  -0.4287  -0.4146
 -- Virtual --
 -0.0870   0.0308   0.0590   0.0628   0.0744   0.0983   0.0992   0.1155
  0.1461   0.1931   0.2276   0.2298   0.2371   0.2399   0.2607   0.2662
  0.2981   0.3075   0.3098   0.3177   0.3403   0.3720   0.3943   0.4104
  0.4690   0.4846   0.5622   0.5814   0.5966   0.6211   0.6919   0.7163
  0.7854   0.7889   0.8346   0.8370   0.8416   0.9024   0.9530   0.9904
  1.0484   1.0701   1.0788   1.1146   1.1164   1.1455   1.1638   1.1762
  1.1905   1.2217   1.2365   1.4274   1.4483   1.4801   1.5170   1.5836
  1.5992   1.6302   1.6885   1.7448   1.7699   1.8640   1.8753   1.8831
  1.9510   2.0583   2.1284   2.2060   2.3047   2.3261   2.4039   2.4255
  2.5443   2.5944   2.7224   2.8011   2.8105   2.8584   3.0392   3.0874
  3.1390   3.1978   3.3087   3.4005   3.4297   3.4838   3.5893   3.5965
  3.6229   3.7078   3.7192   3.7546   3.8525   3.9410   4.0797   4.0808
  4.2130   4.2205   4.3183   4.4041   4.7748   5.0943   5.1096   5.1206
  5.1268   5.1660   5.1760   5.1934   5.2400   5.2421   5.2483   5.2626
  5.3215   5.3297   5.3767   5.4562   5.4890   5.5836   5.6336   5.6379
  5.6497   5.6584   5.9351   6.0738   6.0893   6.4267   6.7164   6.8979
  6.9163   6.9666   7.0028   7.0281   7.0340   7.1015   7.1528   7.2029
  7.2400   7.3013   7.3339   7.4078   7.4423   7.5022   7.6514   7.6842
  7.7616   7.8166  25.0891  50.4593  50.5369  50.7198
 --------------------------------------------------------------
 
          Ground-State Mulliken Net Atomic Charges

     Atom                 Charge (a.u.)    Spin (a.u.)
  --------------------------------------------------------
      1 O                    -0.389490       0.090685
      2 C                     0.080804       0.175188
      3 O                    -0.259982       0.037680
      4 H                     0.398186      -0.019595
      5 O                    -0.509064       0.730356
      6 H                     0.336547      -0.010089
      7 H                     0.342998      -0.004225
  --------------------------------------------------------
  Sum of atomic charges =    -0.000000
  Sum of spin   charges =     1.000000

 -----------------------------------------------------------------
                    Cartesian Multipole Moments
 -----------------------------------------------------------------
    Charge (ESU x 10^10)
                -0.0000
    Dipole Moment (Debye)
         X      -2.4792      Y      -5.3671      Z      -1.3502
       Tot       6.0643
[...]
  0.1489   0.1897   0.2224   0.2260   0.2388   0.2448   0.2557   0.2655
  0.2934   0.3011   0.3073   0.3180   0.3291   0.3720   0.3896   0.4054
  0.4559   0.4723   0.5667   0.5859   0.5964   0.6158   0.6989   0.7045
  0.7861   0.7886   0.8287   0.8319   0.8367   0.9025   0.9437   0.9889
  1.0397   1.0428   1.0804   1.1148   1.1193   1.1412   1.1647   1.1831
  1.1891   1.2137   1.2507   1.3312   1.4283   1.4657   1.4924   1.5528
  1.6078   1.6096   1.6243   1.7070   1.7487   1.8394   1.8562   1.8826
  1.9150   2.0344   2.1112   2.1174   2.2228   2.3147   2.3604   2.3867
  2.4849   2.5341   2.6463   2.7477   2.7970   2.8623   2.9861   3.1125
  3.1373   3.2071   3.2906   3.3556   3.4049   3.4452   3.5637   3.5916
  3.6110   3.6990   3.7551   3.7959   3.8710   3.9101   4.0741   4.1702
  4.1814   4.2131   4.3132   4.4965   5.0208   5.0955   5.1112   5.1153
  5.1326   5.1454   5.1722   5.1804   5.1857   5.2364   5.2473   5.2535
  5.2826   5.3008   5.3452   5.4572   5.4697   5.5684   5.5852   5.6289
  5.6589   5.6662   5.8860   6.0463   6.0990   6.3969   6.6761   6.8718
  6.9199   6.9337   6.9916   7.0187   7.0312   7.0462   7.1228   7.1549
  7.2366   7.2394   7.3127   7.3315   7.4384   7.4838   7.5588   7.6848
  7.7609   7.8190  25.1066  50.4049  50.5371  50.7223
 --------------------------------------------------------------
 
          Ground-State Mulliken Net Atomic Charges

     Atom                 Charge (a.u.)    Spin (a.u.)
  --------------------------------------------------------
      1 O                    -0.443900       0.017193
      2 C                     0.117300       0.052307
      3 O                    -0.289772       0.007679
      4 H                     0.296950      -0.021651
      5 O                    -0.364047       0.956530
      6 H                     0.346084      -0.011367
      7 H                     0.337385      -0.000691
  --------------------------------------------------------
  Sum of atomic charges =    -0.000000
  Sum of spin   charges =     1.000000

 -----------------------------------------------------------------
                    Cartesian Multipole Moments
 -----------------------------------------------------------------
    Charge (ESU x 10^10)
                -0.0000
    Dipole Moment (Debye)
         X      -2.1510      Y      -6.3923      Z      -0.2602
       Tot       6.7495
    Quadrupole Moments (Debye-Ang)
        XX     -21.7225     XY       7.8808     YY     -16.7443
        XZ      -2.9043     YZ      -0.1066     ZZ     -29.4226
    Octopole Moments (Debye-Ang^2)
       XXX      42.8182    XXY       3.7009    XYY      -1.6086
       YYY      -0.3397    XXZ     -12.4166    XYZ       3.8687
       YYZ     -11.7450    XZZ      15.0403    YZZ      17.0278
       ZZZ     -57.6137
    Hexadecapole Moments (Debye-Ang^3)
      XXXX    -109.5685   XXXY      -8.1696   XXYY     -45.2078
      XYYY      25.1134   YYYY    -179.4215   XXXZ      -4.3603
      XXYZ      26.8687   XYYZ     -12.5900   YYYZ      52.0787
      XXZZ     -60.0583   XYZZ      -0.8720   YYZZ     -83.6936
      XZZZ      -0.4944   YZZZ     102.1501   ZZZZ    -281.1928
 -----------------------------------------------------------------
 Calculating analytic gradient of the SCF energy
 Gradient of CDS energy
            1           2           3           4           5           6
    1  -0.0004452  -0.0013115   0.0021580  -0.0002454   0.0001803  -0.0000967
    2  -0.0011700   0.0000240   0.0016787  -0.0001451   0.0002710  -0.0004561
    3  -0.0001636  -0.0022808   0.0028290  -0.0003165   0.0001440   0.0000965
            7
    1  -0.0002396
    2  -0.0002025
    3  -0.0003086
 Gradient of SCF Energy
            1           2           3           4           5           6
    1  -0.0008595   0.0015897   0.0046697  -0.0004524   0.0151706  -0.0145905
    2  -0.0029100   0.0146365   0.0319509  -0.0149166   0.0143033  -0.0082662
    3   0.0000232  -0.0048447  -0.0085079   0.0071927   0.0169255  -0.0194711
            7
    1  -0.0055276
    2  -0.0347979
    3   0.0086823
 Max gradient component =       3.480E-02
 RMS gradient           =       1.437E-02
 Computing fast CPCM-SWIG gradient
 Updating gradient with PCM contributions...
 -- total gradient after adding PCM contribution --
---------------------------------------------------
  Atom         X              Y              Z     
---------------------------------------------------
   1      -0.000553      -0.003943       0.001086
   2       0.001261       0.001024       0.001692
   3       0.000544       0.003735      -0.000991
   4      -0.000466      -0.001190      -0.000039
   5      -0.002138       0.000739      -0.004051
   6       0.002179       0.003571       0.001712
   7      -0.000829      -0.003935       0.000591
---------------------------------------------------
 Number of fixed atoms: 0
 Gradient time:  CPU 20.99 s  wall 3.11 s
rPathMan2.  file_steps = 952
 IRC --- Status = 3.  Assess initial corrector step
 IRC --- bisector search: b =  0.000000 E =     -265.524689 G.B =  -0.007325
 IRC --- bisector search: b =  0.018447 E =     -265.524669 G.B =   0.009499
 IRC --- performed gradient/energy interpolation
 IRC --- bisector search:  estimate b(min) =   8.040585932913902E-003
 ----------------------------------------------------------------
             Standard Nuclear Orientation (Angstroms)
    I     Atom           X                Y                Z
 ----------------------------------------------------------------
    1      O      -0.3297718856     1.1192393113     0.3074818530
    2      C      -0.6581781756    -0.0380300391     0.3367437073
    3      O      -1.3885503573    -0.5925494454    -0.6274106993
    4      H      -0.3813573032    -0.7181972636     1.1549699363
    5      O      -0.1706997575    -2.1576213910     2.2849650982
    6      H      -0.7218015168    -2.6950608566     1.6854954229
    7      H      -1.5524185538    -1.5254933128    -0.4268356129
 ----------------------------------------------------------------
 Nuclear Repulsion Energy =         109.24892267 hartrees
 There are       17 alpha and       16 beta electrons
 Discretize the solute cavity surface with Lebedev spheres
	Using 110 Lebedev grid points for each H atom
	Using 194 Lebedev grid points for other atoms
	Atomic van der Waals radii will be scaled by 1.20
 Remove points where switching function is < 1.0e-08
 Keep 698 surface tesserae and discard 408 interior tesserae
 Molecular Surface Area = 88.071 Angst**2

                       Distance Matrix (Angstroms)
             O (  1)   C (  2)   O (  3)   H (  4)   O (  5)   H (  6)
   C (  2)  1.203320
   O (  3)  2.219292  1.330612
   H (  4)  2.024122  1.099432  2.051123
   O (  5)  3.830608  2.919909  3.523428  1.842066
   H (  6)  4.074493  2.980435  3.196036  2.074934  0.975663
   H (  7)  3.004779  1.896119  0.968229  2.127256  3.108472  2.553381

 
 Applying Cartesian multipole field
    Component          Value
    ---------          -----
     (2,0,0)        1.00000E-11
     (0,2,0)        2.00000E-11
     (0,0,2)       -3.00000E-11
 Nucleus-field energy     =    -0.0000000003 hartrees
 Requested basis set is 6-311++G(2df,2p)
 There are 50 shells and 166 basis functions
 A cutoff of  1.0D-12 yielded   1203 shell pairs
 There are     13245 function pairs (     16573 Cartesian)
 Smallest overlap matrix eigenvalue = 5.63E-04
 Guess MOs from SCF MO coefficient file

 -----------------------------------------------------------------------
  General SCF calculation program by
  Eric Jon Sundstrom, Paul Horn, Yuezhi Mao, Dmitri Zuev, Alec White,
  David Stuck, Shaama M.S., Shane Yost, Joonho Lee, David Small,
  Daniel Levine, Susi Lehtola, Hugh Burton, Evgeny Epifanovsky,
  Bang C. Huynh
 -----------------------------------------------------------------------
 Exchange:     0.1500 Hartree-Fock + 1.0000 wB97M-V + LR-HF
 Correlation:  1.0000 wB97M-V
 Using SG-2 standard quadrature grid
 Nonlocal Correlation:  VV10 with C = 0.0100 and b = 6.00 and scale = 1.00000
 Grid used for NLC:  SG-1 standard quadrature
 
 Citation of the SMD model:
 Marenich, A.V.; Cramer, C.J.; Truhlar, D.G.
 J. Phys. Chem. B 2009, 113, 6378-6396.
 iSolventCode=           1
 Solvent: water                                                           
 
 vradii
            1           2           3           4           5           6
    1   1.5200000   1.8500000   1.5200000   1.2000000   1.5200000   1.2000000
            7
    1   1.2000000
 -------------------------------------------------------
 OpenMP BLAS3 based DFT computing Module                
 Release: version 1.0, May 2013, Q-Chem Inc. Pittsburgh 
 -------------------------------------------------------
 A unrestricted SCF calculation will be
 performed using Roothaan-Hall, DIIS, GDM
 SCF converges when RMS gradient is below 1.0e-07
 ---------------------------------------
  Cycle       Energy         DIIS error
 ---------------------------------------
    1    -265.4870777357      6.56e-04  Roothaan Step
 ---------------------------------------
  Cycle       Energy         DIIS error
 ---------------------------------------
    1    -265.5189442726      8.23e-04  
    2    -265.5252801656      8.79e-04  Done DIIS. Switching to GDM
 ---------------------------------------
  Cycle       Energy        RMS Gradient
 ---------------------------------------
    1    -265.5252801656      3.39e-02   Normal BFGS step
    2    -265.5219042970      5.41e-02  Line search: overstep
    3    -265.5319345034      5.72e-03   Normal BFGS step
    4    -265.5322149432      2.34e-03   Normal BFGS step
    5    -265.5322648725      1.03e-03   Normal BFGS step
    6    -265.5322788553      6.07e-04   Normal BFGS step
    7    -265.5322798488      2.82e-04   Normal BFGS step
    8    -265.5322801749      1.62e-04   Normal BFGS step
    9    -265.5322802212      1.85e-05   Normal BFGS step
   10    -265.5322802266      1.23e-05   Normal BFGS step
   11    -265.5322802274      4.67e-06   Normal BFGS step
   12    -265.5322802275      2.56e-06   Normal BFGS step
   13    -265.5322802275      1.43e-06   Normal BFGS step
   14    -265.5322802275      5.58e-07   Normal BFGS step
   15    -265.5322802275      1.58e-07   Normal BFGS step
   16    -265.5322802275      1.41e-07   Normal BFGS step
   17    -265.5322802275      1.39e-07   Normal BFGS step
   18    -265.5322802275      1.33e-07   Normal BFGS step
   19    -265.5322802275      1.20e-07   Normal BFGS step
   20    -265.5322802275      1.48e-07   Normal BFGS step
   21    -265.5322802275      1.49e-07   Normal BFGS step
   22    -265.5322802275      1.28e-07   Normal BFGS step
   23    -265.5322802275      7.81e-08  Convergence criterion met
 ---------------------------------------
 SCF time:   CPU 231.39s  wall 30.00s 
<S^2> =          0.753500470
(3)  G-ENP(liq) elect-nuc-pol free energy of system     -265.532280227 a.u.
(4)  G-CDS(liq) cavity-dispersion-solvent structure 
     free energy                                                4.7449 kcal/mol
(6)  G-S(liq) free energy of system                     -265.524718741 a.u.
 SCF   energy in the final basis set =     -265.5247187408
 Total energy in the final basis set =     -265.5247187408
 
 --------------------------------------------------------------
 
                    Orbital Energies (a.u.)
 --------------------------------------------------------------
 
 Alpha MOs
 -- Occupied --
-19.4050 -19.3917 -19.3428 -10.4899  -1.2512  -1.1711  -1.1467  -0.7589
 -0.7022  -0.5946  -0.5915  -0.5724  -0.5381  -0.5047  -0.4678  -0.4461
 -0.4044
 -- Virtual --
  0.0286   0.0579   0.0619   0.0709   0.0978   0.0991   0.1154   0.1461
  0.1861   0.2174   0.2247   0.2386   0.2421   0.2549   0.2622   0.2862
  0.2991   0.3067   0.3152   0.3227   0.3689   0.3872   0.4032   0.4499
  0.4704   0.5643   0.5850   0.5974   0.6059   0.6974   0.6996   0.7845
  0.7869   0.8264   0.8285   0.8349   0.9018   0.9396   0.9841   1.0348
  1.0376   1.0795   1.1142   1.1174   1.1303   1.1558   1.1726   1.1886
  1.2050   1.2207   1.3129   1.4174   1.4638   1.4907   1.5460   1.5726
  1.5762   1.6208   1.6953   1.7473   1.8360   1.8419   1.8687   1.8822
  2.0336   2.0959   2.1102   2.2184   2.3088   2.3561   2.3807   2.4753
  2.5327   2.6446   2.7230   2.7953   2.8665   2.9833   3.1112   3.1369
  3.2048   3.2891   3.3529   3.4033   3.4454   3.5593   3.5882   3.6081
  3.6873   3.7563   3.7942   3.8587   3.9012   4.0730   4.1712   4.1805
  4.1930   4.3174   4.4951   4.9876   5.0418   5.0564   5.0785   5.1121
  5.1218   5.1325   5.1339   5.1833   5.1838   5.2341   5.2363   5.2656
  5.2693   5.3008   5.4540   5.4695   5.5571   5.5833   5.5980   5.5987
  5.6643   5.8800   6.0483   6.0974   6.3910   6.6714   6.7636   6.9143
  6.9185   6.9323   6.9554   7.0170   7.0322   7.0503   7.1421   7.1697
  7.2386   7.3118   7.3223   7.4341   7.4822   7.4908   7.6843   7.7577
  7.8174  25.1035  50.3849  50.5398  50.7185
 
 Beta MOs
 -- Occupied --
-19.3914 -19.3811 -19.3423 -10.4887  -1.2503  -1.1701  -1.0789  -0.7561
 -0.6962  -0.5899  -0.5716  -0.5659  -0.5162  -0.4458  -0.4365  -0.4093
 -- Virtual --
 -0.0796   0.0301   0.0585   0.0629   0.0725   0.0996   0.1002   0.1158
  0.1489   0.1897   0.2224   0.2262   0.2388   0.2446   0.2559   0.2655
  0.2932   0.3011   0.3073   0.3179   0.3289   0.3721   0.3898   0.4052
  0.4562   0.4715   0.5663   0.5858   0.5984   0.6131   0.6986   0.7040
  0.7858   0.7879   0.8293   0.8315   0.8360   0.9027   0.9435   0.9902
  1.0399   1.0429   1.0803   1.1152   1.1188   1.1409   1.1644   1.1827
  1.1893   1.2130   1.2510   1.3309   1.4262   1.4665   1.4929   1.5514
  1.6080   1.6096   1.6238   1.7068   1.7480   1.8394   1.8549   1.8804
  1.9127   2.0349   2.1106   2.1168   2.2219   2.3164   2.3602   2.3870
  2.4841   2.5338   2.6458   2.7424   2.7968   2.8665   2.9854   3.1119
  3.1384   3.2073   3.2915   3.3568   3.4048   3.4468   3.5630   3.5894
  3.6104   3.6983   3.7565   3.7954   3.8702   3.9085   4.0745   4.1679
  4.1835   4.2033   4.3182   4.4945   5.0197   5.0955   5.1116   5.1155
  5.1321   5.1456   5.1723   5.1803   5.1855   5.2369   5.2478   5.2535
  5.2824   5.3003   5.3406   5.4560   5.4700   5.5693   5.5848   5.6182
  5.6567   5.6645   5.8833   6.0492   6.0980   6.3920   6.6760   6.8718
  6.9197   6.9341   6.9902   7.0191   7.0301   7.0459   7.1175   7.1509
  7.2259   7.2397   7.3124   7.3422   7.4365   7.4874   7.5596   7.6857
  7.7591   7.8184  25.1045  50.4014  50.5401  50.7190
 --------------------------------------------------------------
 
          Ground-State Mulliken Net Atomic Charges

     Atom                 Charge (a.u.)    Spin (a.u.)
  --------------------------------------------------------
      1 O                    -0.445546       0.017168
      2 C                     0.117607       0.052329
      3 O                    -0.286008       0.007652
      4 H                     0.295728      -0.021676
      5 O                    -0.365185       0.957009
      6 H                     0.347385      -0.011792
      7 H                     0.336019      -0.000691
  --------------------------------------------------------
  Sum of atomic charges =    -0.000000
  Sum of spin   charges =     1.000000

 -----------------------------------------------------------------
                    Cartesian Multipole Moments
 -----------------------------------------------------------------
    Charge (ESU x 10^10)
                 0.0000
    Dipole Moment (Debye)
         X      -2.1672      Y      -6.4064      Z      -0.2806
       Tot       6.7689
    Quadrupole Moments (Debye-Ang)
        XX     -21.7034     XY       7.8968     YY     -16.7603
        XZ      -2.8945     YZ      -0.0952     ZZ     -29.4465
    Octopole Moments (Debye-Ang^2)
       XXX      42.7427    XXY       3.6898    XYY      -1.6352
       YYY      -0.4006    XXZ     -12.4556    XYZ       3.8826
       YYZ     -11.7801    XZZ      15.0238    YZZ      17.0654
       ZZZ     -57.7664
    Hexadecapole Moments (Debye-Ang^3)
      XXXX    -109.4370   XXXY      -8.1307   XXYY     -45.2510
      XYYY      25.2392   YYYY    -179.6155   XXXZ      -4.3486
      XXYZ      26.8997   XYYZ     -12.6405   YYYZ      52.1868
      XXZZ     -60.1060   XYZZ      -0.8486   YYZZ     -83.8941
      XZZZ      -0.4744   YZZZ     102.4179   ZZZZ    -281.7484
 -----------------------------------------------------------------
 Calculating analytic gradient of the SCF energy
 Gradient of CDS energy
            1           2           3           4           5           6
    1  -0.0004516  -0.0012692   0.0021198  -0.0002441   0.0001792  -0.0000959
    2  -0.0011962   0.0000743   0.0016568  -0.0001468   0.0002693  -0.0004553
    3  -0.0001611  -0.0022341   0.0027749  -0.0003135   0.0001432   0.0000973
            7
    1  -0.0002383
    2  -0.0002021
    3  -0.0003067
 Gradient of SCF Energy
            1           2           3           4           5           6
    1   0.0002588   0.0000340   0.0043314  -0.0002257   0.0178078  -0.0172174
    2  -0.0001153   0.0129442   0.0274123  -0.0154501   0.0168135  -0.0108012
    3   0.0005086  -0.0066374  -0.0067490   0.0078487   0.0198310  -0.0223459
            7
    1  -0.0049890
    2  -0.0308033
    3   0.0075439
 Max gradient component =       3.080E-02
 RMS gradient           =       1.425E-02
 Computing fast CPCM-SWIG gradient
 Updating gradient with PCM contributions...
 -- total gradient after adding PCM contribution --
---------------------------------------------------
  Atom         X              Y              Z     
---------------------------------------------------
   1       0.000562      -0.001131       0.001556
   2      -0.000321      -0.000730      -0.000113
   3       0.000147      -0.000788       0.000658
   4      -0.000222      -0.001756       0.000659
   5       0.000455       0.003223      -0.001209
   6      -0.000413       0.001042      -0.001104
   7      -0.000207       0.000140      -0.000448
---------------------------------------------------
 Number of fixed atoms: 0
 Gradient time:  CPU 21.06 s  wall 3.45 s
rPathMan2.  file_steps = 952
 IRC --- Status = 4.  Checking bisector search.
 IRC --- Bisector search finished successfully.
 ------------------------------------------------------------------------
 Reaction path following.  The coordinates are cartesian              
 Step  18 E=    -265.524719 |G|=  0.004909 S_lin= 0.6481 S_tot= 0.6688
 ------------------------------------------------------------------------
  IRC -- convergence criterion reached.
 ----------------------------------------------------------------
             Standard Nuclear Orientation (Angstroms)
    I     Atom           X                Y                Z
 ----------------------------------------------------------------
    1      O      -0.3000771000     1.0478047000     0.3958903000
    2      C      -0.6602303000    -0.0916274000     0.3633526000
    3      O      -1.3863203000    -0.6138628000    -0.6108436000
    4      H      -0.3910542000    -0.8483749000     1.2117784000
    5      O      -0.1901252000    -1.9415639000     2.1326759000
    6      H      -0.7114638000    -2.6100800000     1.6552815000
    7      H      -1.5635054000    -1.5500099000    -0.4327243000
 ----------------------------------------------------------------
 Nuclear Repulsion Energy =         112.86142123 hartrees
 There are       17 alpha and       16 beta electrons
 Here is where we should summarize the reaction path
 Total job time:  3691.97s(wall), 28321.70s(cpu) 
 Thu Aug 31 17:47:19 2023

        *************************************************************
        *                                                           *
        *  Thank you very much for using Q-Chem.  Have a nice day.  *
        *                                                           *
        *************************************************************


