
Running Job 1 of 2 Q_in.in
qchem Q_in.in_259587.0 /scratch/ari.fischer/qChem1687313.hpc-mn1/qchem259587/ 0
/usr/local/qchem-5.4.1/exe/qcprog.exe_s Q_in.in_259587.0 /scratch/ari.fischer/qChem1687313.hpc-mn1/qchem259587/
                  Welcome to Q-Chem
     A Quantum Leap Into The Future Of Chemistry


 Q-Chem 5.4, Q-Chem, Inc., Pleasanton, CA (2021)

 License issued to: Nanyang Technological University (site)

 E. Epifanovsky,  A. T. B. Gilbert,  Xintian Feng,  Joonho Lee,  Yuezhi Mao,  
 N. Mardirossian,  P. Pokhilko,  A. White,  M. Wormit,  M. P. Coons,  
 A. L. Dempwolff,  Zhengting Gan,  D. Hait,  P. R. Horn,  L. D. Jacobson,  
 I. Kaliman,  J. Kussmann,  A. W. Lange,  Ka Un Lao,  D. S. Levine,  Jie Liu,  
 S. C. McKenzie,  A. F. Morrison,  K. Nanda,  F. Plasser,  D. R. Rehn,  
 M. L. Vidal,  Zhi-Qiang You,  Ying Zhu,  B. Alam,  B. Albrecht,  
 A. Aldossary,  E. Alguire,  J. H. Andersen,  D. Barton,  K. Begam,  A. Behn,  
 Y. A. Bernard,  E. J. Berquist,  H. Burton,  A. Carreras,  K. Carter-Fenk,  
 R. Chakraborty,  A. D. Chien,  K. D. Closser,  V. Cofer-Shabica,  
 S. Dasgupta,  Jia Deng,  M. de Wergifosse,  M. Diedenhofen,  Hainam Do,  
 S. Ehlert,  Po-Tung Fang,  S. Fatehi,  Qingguo Feng,  T. Friedhoff,  
 J. Gayvert,  Qinghui Ge,  G. Gidofalvi,  M. Goldey,  J. Gomes,  
 C. Gonzalez-Espinoza,  S. Gulania,  A. Gunina,  M. W. D. Hanson-Heine,  
 P. H. P. Harbach,  A. W. Hauser,  M. F. Herbst,  M. Hernandez Vera,  
 M. Hodecker,  Z. C. Holden,  S. Houck,  Xunkun Huang,  Kerwin Hui,  
 B. C. Huynh,  M. Ivanov,  Hyunjun Ji,  Hanjie Jiang,  B. Kaduk,  S. Kaehler,  
 K. Khistyaev,  Jaehoon Kim,  P. Klunzinger,  Z. Koczor-Benda,  
 Joong Hoon Koh,  D. Kosenkov,  L. Koulias,  T. Kowalczyk,  C. M. Krauter,  
 K. Kue,  A. Kunitsa,  T. Kus,  A. Landau,  K. V. Lawler,  D. Lefrancois,  
 S. Lehtola,  Rain Li,  Yi-Pei Li,  Jiashu Liang,  M. Liebenthal,  
 Hung-Hsuan Lin,  You-Sheng Lin,  Fenglai Liu,  Kuan-Yu Liu,  
 M. Loipersberger,  A. Luenser,  A. Manjanath,  P. Manohar,  E. Mansoor,  
 S. F. Manzer,  Shan-Ping Mao,  A. V. Marenich,  T. Markovich,  S. Mason,  
 S. A. Maurer,  P. F. McLaughlin,  M. F. S. J. Menger,  J.-M. Mewes,  
 S. A. Mewes,  P. Morgante,  J. W. Mullinax,  K. J. Oosterbaan,  G. Paran,  
 Alexander C. Paul,  Suranjan K. Paul,  F. Pavosevic,  Zheng Pei,  S. Prager,  
 E. I. Proynov,  E. Ramos,  B. Rana,  A. E. Rask,  A. Rettig,  R. M. Richard,  
 F. Rob,  E. Rossomme,  T. Scheele,  M. Scheurer,  M. Schneider,  
 N. Sergueev,  S. M. Sharada,  W. Skomorowski,  D. W. Small,  C. J. Stein,  
 Yu-Chuan Su,  E. J. Sundstrom,  Zhen Tao,  J. Thirman,  T. Tsuchimochi,  
 N. M. Tubman,  S. P. Veccham,  O. Vydrov,  J. Wenzel,  J. Witte,  A. Yamada,  
 Kun Yao,  S. Yeganeh,  S. R. Yost,  A. Zech,  Igor Ying Zhang,  Xing Zhang,  
 Yu Zhang,  D. Zuev,  A. Aspuru-Guzik,  A. T. Bell,  N. A. Besley,  
 K. B. Bravaya,  B. R. Brooks,  D. Casanova,  Jeng-Da Chai,  S. Coriani,  
 C. J. Cramer,  A. E. DePrince, III,  R. A. DiStasio Jr.,  A. Dreuw,  
 B. D. Dunietz,  T. R. Furlani,  W. A. Goddard III,  S. Grimme,  
 S. Hammes-Schiffer,  T. Head-Gordon,  W. J. Hehre,  Chao-Ping Hsu,  
 T.-C. Jagau,  Yousung Jung,  A. Klamt,  Jing Kong,  D. S. Lambrecht,  
 WanZhen Liang,  N. J. Mayhall,  C. W. McCurdy,  J. B. Neaton,  
 C. Ochsenfeld,  J. A. Parkhill,  R. Peverati,  V. A. Rassolov,  Yihan Shao,  
 L. V. Slipchenko,  T. Stauch,  R. P. Steele,  J. E. Subotnik,  
 A. J. W. Thom,  A. Tkatchenko,  D. G. Truhlar,  T. Van Voorhis,  
 T. A. Wesolowski,  K. B. Whaley,  H. L. Woodcock III,  P. M. Zimmerman,  
 S. Faraji,  P. M. W. Gill,  M. Head-Gordon,  J. M. Herbert,  A. I. Krylov

 Additional authors for Version 5.4.1: 
 S. Kotaru,  Shaozhi Li,  Xiangyuan Li,  F. Matz,  A. Molle,  Haisheng Ren,  
 Yingli Su,  Hung-Yi Tsai,  C. Utku,  Fang Wang

 Contributors to earlier versions of Q-Chem not listed above: 
 R. D. Adamson,  B. Austin,  R. Baer,  J. Baker,  G. J. O. Beran,  
 K. Brandhorst,  S. T. Brown,  E. F. C. Byrd,  A. K. Chakraborty,  
 G. K. L. Chan,  Chun-Min Chang,  Yunqing Chen,  C.-L. Cheng,  
 Siu Hung Chien,  D. M. Chipman,  D. L. Crittenden,  H. Dachsel,  
 R. J. Doerksen,  A. D. Dutoi,  R. G. Edgar,  J. Fosso-Tande,  
 L. Fusti-Molnar,  D. Ghosh,  A. Ghysels,  A. Golubeva-Zadorozhnaya,  
 J. Gonthier,  M. S. Gordon,  S. R. Gwaltney,  G. Hawkins,  J. E. Herr,  
 A. Heyden,  S. Hirata,  E. G. Hohenstein,  G. Kedziora,  F. J. Keil,  
 C. Kelley,  Jihan Kim,  R. A. King,  R. Z. Khaliullin,  P. P. Korambath,  
 W. Kurlancheek,  A. Laurent,  A. M. Lee,  M. S. Lee,  S. V. Levchenko,  
 Ching Yeh Lin,  D. Liotard,  E. Livshits,  R. C. Lochan,  I. Lotan,  
 L. A. Martinez-Martinez,  P. E. Maslen,  N. Nair,  D. P. O'Neill,  
 D. Neuhauser,  E. Neuscamman,  C. M. Oana,  R. Olivares-Amaya,  R. Olson,  
 T. M. Perrine,  B. Peters,  P. A. Pieniazek,  A. Prociuk,  Y. M. Rhee,  
 J. Ritchie,  M. A. Rohrdanz,  E. Rosta,  N. J. Russ,  H. F. Schaefer III,  
 M. W. Schmidt,  N. E. Schultz,  S. Sharma,  N. Shenvi,  C. D. Sherrill,  
 A. C. Simmonett,  A. Sodt,  T. Stein,  D. Stuck,  K. S. Thanthiriwatte,  
 V. Vanovschi,  L. Vogt,  Tao Wang,  A. Warshel,  M. A. Watson,  
 C. F. Williams,  Q. Wu,  X. Xu,  Jun Yang,  W. Zhang,  Yan Zhao

 Please cite Q-Chem as follows:
 Y. Shao et al., Mol. Phys. 113, 184-215 (2015)
 DOI: 10.1080/00268976.2014.952696

 Q-Chem 5.4.1 for Intel X86 EM64T Linux

 Parts of Q-Chem use Armadillo 9.800.1 (Horizon Scraper).
 http://arma.sourceforge.net/

 Q-Chem begins on Tue Aug 15 13:41:53 2023  

 Host: 
0

     Scratch files written to /scratch/ari.fischer/qChem1687313.hpc-mn1/qchem259587//
 Aug1521 |scratch|qcdevops|jenkins|workspace|build_RNUM 8249   
 Processing $rem in /usr/local/qchem-5.4.1/config/preferences:
 Processing $rem in /home/ari.fischer/.qchemrc:
 Symmetry turned off for PCM/SM12/SMD calculation


!!********************************************.
!!******************Warning*******************.
!!Desired Analytical derivatives not available.
!!Finite difference job might take a long time.
!!********************************************.
!!********************************************.


 2-order derivative to be evaluated numerically with 1-order analytical derivatives

 Checking the input file for inconsistencies... 	...done.

--------------------------------------------------------------
User input:
--------------------------------------------------------------
$molecule
0 2
O   -0.2779840    0.9808736    0.4617916
C   -0.6900011   -0.1620969    0.3527143
O   -1.4087758   -0.5160551   -0.7294780
H   -0.4122997   -0.9727942    1.2992235
O   -0.1226248   -1.8320755    2.1286212
H   -0.5651373   -2.7119559    2.0172490
H   -1.7259535   -1.3936100   -0.8147109
$end

$rem
BASIS = 6-311++G(2df,2p)
GUI = 2
JOB_TYPE = Frequency
METHOD = wB97M-V
SCF_ALGORITHM = DIIS_GDM
MAX_SCF_CYCLES = 400
SCF_CONVERGENCE = 6
THRESH = 11
SYMMETRY_IGNORE = 1
solvent_method = SMD
$end

--------------------------------------------------------------
 ----------------------------------------------------------------
             Standard Nuclear Orientation (Angstroms)
    I     Atom           X                Y                Z
 ----------------------------------------------------------------
    1      O      -0.2779840000     0.9808736000     0.4617916000
    2      C      -0.6900011000    -0.1620969000     0.3527143000
    3      O      -1.4087758000    -0.5160551000    -0.7294780000
    4      H      -0.4122997000    -0.9727942000     1.2992235000
    5      O      -0.1226248000    -1.8320755000     2.1286212000
    6      H      -0.5651373000    -2.7119559000     2.0172490000
    7      H      -1.7259535000    -1.3936100000    -0.8147109000
 ----------------------------------------------------------------
 Nuclear Repulsion Energy =         112.07653003 hartrees
 There are       17 alpha and       16 beta electrons
 Requested basis set is 6-311++G(2df,2p)
 There are 50 shells and 166 basis functions

 Total QAlloc Memory Limit 288000 MB
 Mega-Array Size       188 MB
 MEM_STATIC part       192 MB
 
 Citation of the SMD model:
 Marenich, A.V.; Cramer, C.J.; Truhlar, D.G.
 J. Phys. Chem. B 2009, 113, 6378-6396.
 iSolventCode=           1
 Solvent: water                                                           
 
 vradii
            1           2           3           4           5           6
    1   1.5200000   1.8500000   1.5200000   1.2000000   1.5200000   1.2000000
            7
    1   1.2000000
 Changing PCM_VDW_RADII to SMD_RADIUS
 Discretize the solute cavity surface with Lebedev spheres
	Using 110 Lebedev grid points for each H atom
	Using 194 Lebedev grid points for other atoms
	Atomic van der Waals radii will be scaled by 1.20
 Remove points where switching function is < 1.0e-08
 Keep 677 surface tesserae and discard 429 interior tesserae
 Molecular Surface Area = 84.730 Angst**2

                       Distance Matrix (Angstroms)
             O (  1)   C (  2)   O (  3)   H (  4)   O (  5)   H (  6)
   C (  2)  1.219851
   O (  3)  2.222298  1.346501
   H (  4)  2.129824  1.276804  2.305907
   O (  5)  3.273399  2.502916  3.399239  1.228892
   H (  6)  4.017324  3.047630  3.616382  1.887751  0.991166
   H (  7)  3.060106  1.988141  0.937000  2.524181  3.380254  3.332496

 
 A cutoff of  1.0D-11 yielded   1197 shell pairs
 There are     13261 function pairs (     16621 Cartesian)
 Smallest overlap matrix eigenvalue = 5.89E-04
 Guess from superposition of atomic densities
 Warning:  Energy on first SCF cycle will be non-variational
 SAD guess density has 33.000000 electrons

 -----------------------------------------------------------------------
  General SCF calculation program by
  Eric Jon Sundstrom, Paul Horn, Yuezhi Mao, Dmitri Zuev, Alec White,
  David Stuck, Shaama M.S., Shane Yost, Joonho Lee, David Small,
  Daniel Levine, Susi Lehtola, Hugh Burton, Evgeny Epifanovsky,
  Bang C. Huynh
 -----------------------------------------------------------------------
 Exchange:     0.1500 Hartree-Fock + 1.0000 wB97M-V + LR-HF
 Correlation:  1.0000 wB97M-V
 Using SG-2 standard quadrature grid
 Nonlocal Correlation:  VV10 with C = 0.0100 and b = 6.00 and scale = 1.00000
 Grid used for NLC:  SG-1 standard quadrature
 using 4 threads for integral computing
 -------------------------------------------------------
 OpenMP Integral computing Module                
 Release: version 1.0, May 2013, Q-Chem Inc. Pittsburgh 
 -------------------------------------------------------
 
 Citation of the SMD model:
 Marenich, A.V.; Cramer, C.J.; Truhlar, D.G.
 J. Phys. Chem. B 2009, 113, 6378-6396.
 iSolventCode=           1
 Solvent: water                                                           
 
 vradii
            1           2           3           4           5           6
    1   1.5200000   1.8500000   1.5200000   1.2000000   1.5200000   1.2000000
            7
    1   1.2000000
 -------------------------------------------------------
 OpenMP BLAS3 based DFT computing Module                
 Release: version 1.0, May 2013, Q-Chem Inc. Pittsburgh 
 -------------------------------------------------------
 A unrestricted SCF calculation will be
 performed using DIIS, GDM
 SCF converges when RMS gradient is below 1.0e-06
 ---------------------------------------
  Cycle       Energy         DIIS error
 ---------------------------------------
    1    -265.8174705856      1.81e-02  
    2    -265.3764853095      3.52e-03  Done DIIS. Switching to GDM
 ---------------------------------------
  Cycle       Energy        RMS Gradient
 ---------------------------------------
    1    -265.3764853095      1.80e-01   Descent step
    2    -265.5115113608      2.58e-02   Normal BFGS step
    3    -265.5200636192      1.46e-02   Normal BFGS step
    4    -265.5210246306      1.23e-02   Normal BFGS step
    5    -265.5216610074      5.29e-03   Normal BFGS step
    6    -265.5217674719      7.09e-03   Normal BFGS step
    7    -265.5218457207      1.49e-03   Normal BFGS step
    8    -265.5218744917      1.35e-03   Normal BFGS step
    9    -265.5218826512      9.32e-04   Normal BFGS step
   10    -265.5218846949      3.05e-04   Normal BFGS step
   11    -265.5218849647      9.83e-05   Normal BFGS step
   12    -265.5218850219      4.71e-05   Normal BFGS step
   13    -265.5218850304      2.09e-05   Normal BFGS step
   14    -265.5218850326      1.00e-05   Normal BFGS step
   15    -265.5218850331      6.85e-06   Normal BFGS step
   16    -265.5218850332      4.27e-06   Normal BFGS step
   17    -265.5218850332      2.20e-06   Normal BFGS step
   18    -265.5218850332      1.05e-06   Normal BFGS step
   19    -265.5218850332      5.84e-07  Convergence criterion met
 ---------------------------------------
 SCF time:   CPU 134.72s  wall 34.00s 
<S^2> =          0.757297072
(3)  G-ENP(liq) elect-nuc-pol free energy of system     -265.521885033 a.u.
(4)  G-CDS(liq) cavity-dispersion-solvent structure 
     free energy                                                4.8518 kcal/mol
(6)  G-S(liq) free energy of system                     -265.514153156 a.u.
 SCF   energy in the final basis set =     -265.5141531557
 Total energy in the final basis set =     -265.5141531557
 
 --------------------------------------------------------------
 
                    Orbital Energies (a.u.)
 --------------------------------------------------------------
 
 Alpha MOs
 -- Occupied --
-19.4108 -19.3839 -19.3522 -10.5217  -1.2668  -1.1918  -1.1138  -0.7908
 -0.7169  -0.6177  -0.5867  -0.5848  -0.5184  -0.4888  -0.4657  -0.4346
 -0.3801
 -- Virtual --
  0.0297   0.0528   0.0561   0.0601   0.0938   0.0994   0.1201   0.1457
  0.2122   0.2164   0.2233   0.2275   0.2377   0.2541   0.2628   0.2964
  0.3074   0.3077   0.3233   0.3349   0.3480   0.3799   0.4125   0.4524
  0.4669   0.5559   0.5820   0.6023   0.6275   0.6920   0.7022   0.7766
  0.8002   0.8105   0.8441   0.8564   0.8852   0.9184   0.9791   1.0470
  1.0620   1.0753   1.1094   1.1287   1.1491   1.1594   1.1664   1.1886
  1.1927   1.2583   1.3943   1.4039   1.4499   1.4786   1.5570   1.6038
  1.6128   1.6767   1.7634   1.7821   1.8116   1.8927   1.9161   1.9502
  2.0334   2.1401   2.2374   2.2810   2.3014   2.3435   2.4508   2.4985
  2.5269   2.7310   2.7702   2.8004   2.9331   3.0368   3.0650   3.1114
  3.1837   3.3201   3.3641   3.4182   3.5008   3.5465   3.5519   3.5996
  3.6538   3.7183   3.7750   3.8093   3.9233   3.9802   4.0480   4.0850
  4.2130   4.3148   4.3883   4.5250   5.0822   5.0980   5.1112   5.1149
  5.1343   5.1487   5.1528   5.1914   5.2066   5.2272   5.2721   5.2858
  5.3119   5.3637   5.3998   5.4507   5.5377   5.5555   5.5886   5.6716
  5.7442   5.9447   6.0579   6.2941   6.3125   6.5970   6.7742   6.8674
  6.9335   6.9528   6.9720   7.0396   7.0524   7.0748   7.1248   7.2210
  7.2763   7.2811   7.4152   7.4655   7.5448   7.6583   7.6774   7.7094
  7.8252  24.9589  50.4532  50.5264  50.6445
 
 Beta MOs
 -- Occupied --
-19.4080 -19.3780 -19.3397 -10.5148  -1.2579  -1.1809  -1.0841  -0.7789
 -0.6876  -0.6028  -0.5799  -0.5655  -0.4973  -0.4614  -0.4228  -0.4187
 -- Virtual --
 -0.0925   0.0318   0.0560   0.0612   0.0637   0.0957   0.0995   0.1210
  0.1467   0.2140   0.2199   0.2251   0.2296   0.2385   0.2543   0.2642
  0.2978   0.3078   0.3084   0.3242   0.3438   0.3526   0.3860   0.4177
  0.4578   0.4876   0.5640   0.5855   0.6087   0.6311   0.6961   0.7112
  0.7828   0.8008   0.8140   0.8462   0.8611   0.8888   0.9211   0.9836
  1.0532   1.0664   1.0798   1.1122   1.1338   1.1576   1.1682   1.1713
  1.1966   1.1990   1.2627   1.4027   1.4138   1.4564   1.4813   1.5711
  1.6086   1.6239   1.6818   1.7763   1.7914   1.8181   1.9006   1.9337
  1.9648   2.0399   2.1462   2.2396   2.2855   2.3094   2.3506   2.4610
  2.5059   2.5426   2.7434   2.7718   2.8036   2.9409   3.0530   3.0942
  3.1197   3.1996   3.3396   3.3775   3.4381   3.5184   3.5558   3.5602
  3.6217   3.6726   3.7245   3.7755   3.8209   3.9329   3.9748   4.0626
  4.0875   4.2196   4.3177   4.3959   4.5405   5.0923   5.1042   5.1304
  5.1394   5.1499   5.1616   5.1780   5.1979   5.2125   5.2462   5.2997
  5.3093   5.3284   5.3854   5.4086   5.4670   5.5498   5.5720   5.5981
  5.7014   5.7471   5.9536   6.0715   6.3030   6.3419   6.6101   6.7952
  6.8918   6.9670   6.9757   6.9813   7.0538   7.0862   7.1227   7.1463
  7.2316   7.2867   7.2907   7.4359   7.4732   7.5718   7.6912   7.7029
  7.7359   7.8393  24.9656  50.4622  50.5287  50.6493
 --------------------------------------------------------------
 
          Ground-State Mulliken Net Atomic Charges

     Atom                 Charge (a.u.)    Spin (a.u.)
  --------------------------------------------------------
      1 O                    -0.321042       0.199133
      2 C                     0.103318       0.317147
      3 O                    -0.258155       0.077691
      4 H                     0.483118      -0.001379
      5 O                    -0.689981       0.416750
      6 H                     0.337679      -0.005078
      7 H                     0.345064      -0.004264
  --------------------------------------------------------
  Sum of atomic charges =    -0.000000
  Sum of spin   charges =     1.000000

 -----------------------------------------------------------------
                    Cartesian Multipole Moments
 -----------------------------------------------------------------
    Charge (ESU x 10^10)
                -0.0000
    Dipole Moment (Debye)
         X      -3.1713      Y      -4.5346      Z      -2.5140
       Tot       6.0778
    Quadrupole Moments (Debye-Ang)
        XX     -20.0082     XY       7.8370     YY     -17.2122
        XZ      -1.3841     YZ       1.8396     ZZ     -30.3547
    Octopole Moments (Debye-Ang^2)
       XXX      37.0197    XXY       2.7485    XYY      -1.0015
       YYY       5.1226    XXZ     -16.6850    XYZ       1.9077
       YYZ     -11.8027    XZZ      10.8999    YZZ      14.1565
       ZZZ     -63.3494
    Hexadecapole Moments (Debye-Ang^3)
      XXXX    -101.1875   XXXY      -2.4094   XXYY     -38.0057
      XYYY      18.8203   YYYY    -129.4637   XXXZ      -1.6278
      XXYZ      28.4155   XYYZ     -11.5054   YYYZ      30.3339
      XXZZ     -56.4394   XYZZ       7.0175   YYZZ     -61.2594
      XZZZ      -7.9801   YZZZ      85.8047   ZZZZ    -288.7933
 -----------------------------------------------------------------
 Calculating analytic gradient of the SCF energy
 Gradient of CDS energy
            1           2           3           4           5           6
    1  -0.0006223  -0.0015851   0.0023747   0.0000821   0.0002208  -0.0001978
    2  -0.0013698   0.0006796   0.0012861  -0.0002897   0.0003501  -0.0003933
    3  -0.0003585  -0.0028686   0.0035118  -0.0003010   0.0004060  -0.0000498
            7
    1  -0.0002723
    2  -0.0002630
    3  -0.0003399
 Gradient of SCF Energy
            1           2           3           4           5           6
    1   0.0119272   0.0087707  -0.0155143  -0.0026433   0.0160121  -0.0131020
    2   0.0481533  -0.0508919  -0.0143997   0.0300871   0.0159113  -0.0382229
    3  -0.0045298   0.0404109  -0.0189553  -0.0172517   0.0122065   0.0027916
            7
    1  -0.0054504
    2   0.0093628
    3  -0.0146723
 Max gradient component =       5.089E-02
 RMS gradient           =       2.333E-02
 Computing fast CPCM-SWIG gradient
 Updating gradient with PCM contributions...
 -- total gradient after adding PCM contribution --
---------------------------------------------------
  Atom         X              Y              Z     
---------------------------------------------------
   1       0.011058       0.046672      -0.005000
   2       0.006817      -0.054905       0.039261
   3      -0.022889      -0.039081      -0.018627
   4       0.000475       0.034516      -0.015884
   5       0.002935       0.001722       0.002015
   6      -0.003739      -0.024103       0.007984
   7       0.005344       0.035179      -0.009750
---------------------------------------------------
 Number of fixed atoms: 0
 Gradient time:  CPU 16.22 s  wall 4.48 s
 ######################################################
 ######################################################
 # Starting finite difference calculation for IDERIV  #
 Finite diff step size:  1.88973e-03 a.u.
 ----------------------------------------------------------------
             Standard Nuclear Orientation (Angstroms)
    I     Atom           X                Y                Z
 ----------------------------------------------------------------
    1      O      -0.2769840000     0.9808736000     0.4617916000
    2      C      -0.6900011000    -0.1620969000     0.3527143000
    3      O      -1.4087758000    -0.5160551000    -0.7294780000
    4      H      -0.4122997000    -0.9727942000     1.2992235000
    5      O      -0.1226248000    -1.8320755000     2.1286212000
    6      H      -0.5651373000    -2.7119559000     2.0172490000
    7      H      -1.7259535000    -1.3936100000    -0.8147109000
 ----------------------------------------------------------------
 Nuclear Repulsion Energy =         112.06712788 hartrees
 There are       17 alpha and       16 beta electrons
 Discretize the solute cavity surface with Lebedev spheres
	Using 110 Lebedev grid points for each H atom
	Using 194 Lebedev grid points for other atoms
	Atomic van der Waals radii will be scaled by 1.20
 Remove points where switching function is < 1.0e-08
 Keep 677 surface tesserae and discard 429 interior tesserae
 Molecular Surface Area = 84.734 Angst**2

                       Distance Matrix (Angstroms)
             O (  1)   C (  2)   O (  3)   H (  4)   O (  5)   H (  6)
   C (  2)  1.220190
   O (  3)  2.222807  1.346501
   H (  4)  2.129887  1.276804  2.305907
   O (  5)  3.273352  2.502916  3.399239  1.228892
   H (  6)  4.017396  3.047630  3.616382  1.887751  0.991166
   H (  7)  3.060579  1.988141  0.937000  2.524181  3.380254  3.332496

 
 Requested basis set is 6-311++G(2df,2p)
 There are 50 shells and 166 basis functions
 A cutoff of  1.0D-11 yielded   1197 shell pairs
 There are     13261 function pairs (     16621 Cartesian)
 Smallest overlap matrix eigenvalue = 5.89E-04
 Guess MOs from SCF MO coefficient file

 -----------------------------------------------------------------------
  General SCF calculation program by
  Eric Jon Sundstrom, Paul Horn, Yuezhi Mao, Dmitri Zuev, Alec White,
  David Stuck, Shaama M.S., Shane Yost, Joonho Lee, David Small,
  Daniel Levine, Susi Lehtola, Hugh Burton, Evgeny Epifanovsky,
  Bang C. Huynh
 -----------------------------------------------------------------------
 Exchange:     0.1500 Hartree-Fock + 1.0000 wB97M-V + LR-HF
 Correlation:  1.0000 wB97M-V
 Using SG-2 standard quadrature grid
 Nonlocal Correlation:  VV10 with C = 0.0100 and b = 6.00 and scale = 1.00000
 Grid used for NLC:  SG-1 standard quadrature
 
 Citation of the SMD model:
 Marenich, A.V.; Cramer, C.J.; Truhlar, D.G.
 J. Phys. Chem. B 2009, 113, 6378-6396.
 iSolventCode=           1
 Solvent: water                                                           
 
 vradii
            1           2           3           4           5           6
    1   1.5200000   1.8500000   1.5200000   1.2000000   1.5200000   1.2000000
            7
    1   1.2000000
 -------------------------------------------------------
 OpenMP BLAS3 based DFT computing Module                
 Release: version 1.0, May 2013, Q-Chem Inc. Pittsburgh 
 -------------------------------------------------------
 A unrestricted SCF calculation will be
 performed using Roothaan-Hall, DIIS, GDM
 SCF converges when RMS gradient is below 1.0e-06
 ---------------------------------------
  Cycle       Energy         DIIS error
 ---------------------------------------
    1    -265.4870397825      5.42e-04  Roothaan Step
 ---------------------------------------
  Cycle       Energy         DIIS error
 ---------------------------------------
    1    -265.5126951114      7.00e-04  
    2    -265.5155462065      8.30e-04  Done DIIS. Switching to GDM
 ---------------------------------------
  Cycle       Energy        RMS Gradient
 ---------------------------------------
    1    -265.5155462065      4.05e-02   Normal BFGS step
    2    -265.5107140013      6.71e-02  Line search: overstep
    3    -265.5216437630      4.66e-03   Normal BFGS step
    4    -265.5218180320      1.97e-03   Normal BFGS step
    5    -265.5218469986      1.94e-03   Normal BFGS step
    6    -265.5218619591      4.67e-04   Normal BFGS step
    7    -265.5218624584      2.51e-04   Normal BFGS step
    8    -265.5218626582      1.40e-04   Normal BFGS step
    9    -265.5218627095      3.85e-05   Normal BFGS step
   10    -265.5218627180      2.22e-05   Normal BFGS step
   11    -265.5218627195      8.26e-06   Normal BFGS step
   12    -265.5218627197      4.52e-06   Normal BFGS step
   13    -265.5218627198      2.84e-06   Normal BFGS step
   14    -265.5218627198      1.58e-06   Normal BFGS step
   15    -265.5218627199      7.49e-07  Convergence criterion met
 ---------------------------------------
 SCF time:   CPU 117.12s  wall 30.00s 
<S^2> =          0.757298071
(3)  G-ENP(liq) elect-nuc-pol free energy of system     -265.521862720 a.u.
(4)  G-CDS(liq) cavity-dispersion-solvent structure 
     free energy                                                4.8511 kcal/mol
(6)  G-S(liq) free energy of system                     -265.514132021 a.u.
 SCF   energy in the final basis set =     -265.5141320210
 Total energy in the final basis set =     -265.5141320210
 
 --------------------------------------------------------------
 
                    Orbital Energies (a.u.)
 --------------------------------------------------------------
 
 Alpha MOs
 -- Occupied --
-19.4109 -19.3839 -19.3522 -10.5218  -1.2667  -1.1917  -1.1138  -0.7909
 -0.7169  -0.6177  -0.5867  -0.5848  -0.5184  -0.4887  -0.4657  -0.4346
 -0.3801
 -- Virtual --
  0.0297   0.0527   0.0560   0.0601   0.0938   0.0994   0.1201   0.1457
  0.2122   0.2164   0.2233   0.2275   0.2377   0.2541   0.2628   0.2964
  0.3074   0.3076   0.3233   0.3348   0.3480   0.3798   0.4125   0.4523
  0.4668   0.5559   0.5820   0.6023   0.6275   0.6920   0.7020   0.7766
  0.8002   0.8105   0.8441   0.8564   0.8851   0.9184   0.9791   1.0470
  1.0620   1.0753   1.1094   1.1287   1.1491   1.1594   1.1665   1.1886
  1.1927   1.2583   1.3943   1.4038   1.4499   1.4786   1.5570   1.6037
  1.6128   1.6766   1.7633   1.7821   1.8116   1.8927   1.9161   1.9500
  2.0334   2.1400   2.2373   2.2809   2.3014   2.3435   2.4507   2.4983
  2.5269   2.7310   2.7702   2.8003   2.9330   3.0367   3.0649   3.1115
  3.1838   3.3201   3.3641   3.4181   3.5008   3.5461   3.5518   3.5996
  3.6537   3.7183   3.7750   3.8093   3.9233   3.9802   4.0473   4.0850
  4.2130   4.3147   4.3882   4.5249   5.0822   5.0980   5.1112   5.1149
  5.1343   5.1487   5.1528   5.1914   5.2065   5.2270   5.2721   5.2858
  5.3118   5.3637   5.3994   5.4505   5.5375   5.5551   5.5886   5.6716
  5.7440   5.9446   6.0575   6.2931   6.3121   6.5966   6.7739   6.8674
  6.9335   6.9526   6.9720   7.0390   7.0523   7.0748   7.1248   7.2210
  7.2763   7.2809   7.4151   7.4655   7.5449   7.6582   7.6773   7.7094
  7.8250  24.9582  50.4532  50.5263  50.6440
 
 Beta MOs
 -- Occupied --
-19.4080 -19.3780 -19.3397 -10.5148  -1.2578  -1.1808  -1.0841  -0.7789
 -0.6876  -0.6028  -0.5799  -0.5655  -0.4973  -0.4614  -0.4228  -0.4187
 -- Virtual --
 -0.0925   0.0318   0.0560   0.0612   0.0636   0.0957   0.0995   0.1210
  0.1467   0.2139   0.2199   0.2251   0.2296   0.2385   0.2543   0.2642
  0.2978   0.3078   0.3084   0.3242   0.3438   0.3526   0.3859   0.4177
  0.4577   0.4875   0.5640   0.5855   0.6087   0.6311   0.6961   0.7111
  0.7828   0.8008   0.8140   0.8462   0.8611   0.8887   0.9211   0.9836
  1.0531   1.0664   1.0797   1.1122   1.1339   1.1576   1.1682   1.1713
  1.1967   1.1990   1.2626   1.4027   1.4137   1.4563   1.4813   1.5711
  1.6085   1.6238   1.6817   1.7762   1.7913   1.8181   1.9006   1.9336
  1.9646   2.0399   2.1460   2.2394   2.2855   2.3094   2.3505   2.4609
  2.5057   2.5425   2.7434   2.7718   2.8036   2.9408   3.0529   3.0941
  3.1199   3.1997   3.3397   3.3774   3.4380   3.5185   3.5555   3.5601
  3.6217   3.6726   3.7245   3.7755   3.8209   3.9329   3.9747   4.0619
  4.0875   4.2195   4.3176   4.3959   4.5404   5.0924   5.1042   5.1304
  5.1394   5.1499   5.1616   5.1780   5.1979   5.2124   5.2460   5.2997
  5.3093   5.3284   5.3853   5.4083   5.4668   5.5496   5.5716   5.5981
  5.7014   5.7469   5.9535   6.0710   6.3020   6.3415   6.6097   6.7948
  6.8918   6.9670   6.9755   6.9813   7.0532   7.0862   7.1227   7.1463
  7.2316   7.2866   7.2906   7.4358   7.4732   7.5718   7.6910   7.7029
  7.7358   7.8391  24.9649  50.4622  50.5286  50.6488
 --------------------------------------------------------------
 
          Ground-State Mulliken Net Atomic Charges

     Atom                 Charge (a.u.)    Spin (a.u.)
  --------------------------------------------------------
      1 O                    -0.321260       0.199121
      2 C                     0.103318       0.317159
      3 O                    -0.258008       0.077666
      4 H                     0.483127      -0.001387
      5 O                    -0.689959       0.416785
      6 H                     0.337682      -0.005082
      7 H                     0.345101      -0.004262
  --------------------------------------------------------
  Sum of atomic charges =    -0.000000
  Sum of spin   charges =     1.000000

 -----------------------------------------------------------------
                    Cartesian Multipole Moments
 -----------------------------------------------------------------
    Charge (ESU x 10^10)
                -0.0000
    Dipole Moment (Debye)
         X      -3.1742      Y      -4.5363      Z      -2.5148
       Tot       6.0809
    Quadrupole Moments (Debye-Ang)
        XX     -20.0062     XY       7.8362     YY     -17.2117
        XZ      -1.3837     YZ       1.8393     ZZ     -30.3545
    Octopole Moments (Debye-Ang^2)
       XXX      36.9991    XXY       2.7469    XYY      -1.0096
       YYY       5.1170    XXZ     -16.6870    XYZ       1.9060
       YYZ     -11.8024    XZZ      10.8932    YZZ      14.1529
       ZZZ     -63.3504
    Hexadecapole Moments (Debye-Ang^3)
      XXXX    -101.1618   XXXY      -2.4226   XXYY     -37.9998
      XYYY      18.8056   YYYY    -129.4605   XXXZ      -1.6313
      XXYZ      28.4165   XYYZ     -11.5068   YYYZ      30.3309
      XXZZ     -56.4348   XYZZ       7.0124   YYZZ     -61.2558
      XZZZ      -7.9853   YZZZ      85.8000   ZZZZ    -288.7885
 -----------------------------------------------------------------
 Calculating analytic gradient of the SCF energy
 Gradient of CDS energy
            1           2           3           4           5           6
    1  -0.0006251  -0.0015826   0.0023749   0.0000821   0.0002208  -0.0001978
    2  -0.0013749   0.0006848   0.0012859  -0.0002897   0.0003501  -0.0003933
    3  -0.0003588  -0.0028685   0.0035120  -0.0003010   0.0004060  -0.0000498
            7
    1  -0.0002723
    2  -0.0002630
    3  -0.0003399
 Gradient of SCF Energy
            1           2           3           4           5           6
    1   0.0121800   0.0085442  -0.0155651  -0.0026256   0.0160137  -0.0131037
    2   0.0485487  -0.0511762  -0.0144952   0.0300747   0.0159168  -0.0382245
    3  -0.0044361   0.0403982  -0.0190176  -0.0172571   0.0122092   0.0027897
            7
    1  -0.0054435
    2   0.0093558
    3  -0.0146864
 Max gradient component =       5.118E-02
 RMS gradient           =       2.341E-02
 Computing fast CPCM-SWIG gradient
 Updating gradient with PCM contributions...
 -- total gradient after adding PCM contribution --
---------------------------------------------------
  Atom         X              Y              Z     
---------------------------------------------------
   1       0.011310       0.047075      -0.004907
   2       0.006588      -0.055203       0.039244
   3      -0.022943      -0.039180      -0.018689
   4       0.000495       0.034506      -0.015888
   5       0.002934       0.001724       0.002017
   6      -0.003739      -0.024102       0.007983
   7       0.005355       0.035181      -0.009760
---------------------------------------------------
 Number of fixed atoms: 0
 Gradient time:  CPU 16.12 s  wall 4.40 s
 ----------------------------------------------------------------
             Standard Nuclear Orientation (Angstroms)
    I     Atom           X                Y                Z
 ----------------------------------------------------------------
    1      O      -0.2789840000     0.9808736000     0.4617916000
    2      C      -0.6900011000    -0.1620969000     0.3527143000
    3      O      -1.4087758000    -0.5160551000    -0.7294780000
    4      H      -0.4122997000    -0.9727942000     1.2992235000
    5      O      -0.1226248000    -1.8320755000     2.1286212000
    6      H      -0.5651373000    -2.7119559000     2.0172490000
    7      H      -1.7259535000    -1.3936100000    -0.8147109000
 ----------------------------------------------------------------
 Nuclear Repulsion Energy =         112.08592079 hartrees
 There are       17 alpha and       16 beta electrons
 Discretize the solute cavity surface with Lebedev spheres
	Using 110 Lebedev grid points for each H atom
	Using 194 Lebedev grid points for other atoms
	Atomic van der Waals radii will be scaled by 1.20
 Remove points where switching function is < 1.0e-08
 Keep 677 surface tesserae and discard 429 interior tesserae
 Molecular Surface Area = 84.726 Angst**2

                       Distance Matrix (Angstroms)
             O (  1)   C (  2)   O (  3)   H (  4)   O (  5)   H (  6)
   C (  2)  1.219514
   O (  3)  2.221789  1.346501
   H (  4)  2.129761  1.276804  2.305907
   O (  5)  3.273446  2.502916  3.399239  1.228892
   H (  6)  4.017253  3.047630  3.616382  1.887751  0.991166
   H (  7)  3.059633  1.988141  0.937000  2.524181  3.380254  3.332496

 
 Requested basis set is 6-311++G(2df,2p)
 There are 50 shells and 166 basis functions
 A cutoff of  1.0D-11 yielded   1197 shell pairs
 There are     13261 function pairs (     16621 Cartesian)
 Smallest overlap matrix eigenvalue = 5.89E-04
 Guess MOs from SCF MO coefficient file

 -----------------------------------------------------------------------
  General SCF calculation program by
  Eric Jon Sundstrom, Paul Horn, Yuezhi Mao, Dmitri Zuev, Alec White,
  David Stuck, Shaama M.S., Shane Yost, Joonho Lee, David Small,
  Daniel Levine, Susi Lehtola, Hugh Burton, Evgeny Epifanovsky,
  Bang C. Huynh
 -----------------------------------------------------------------------
 Exchange:     0.1500 Hartree-Fock + 1.0000 wB97M-V + LR-HF
 Correlation:  1.0000 wB97M-V
 Using SG-2 standard quadrature grid
 Nonlocal Correlation:  VV10 with C = 0.0100 and b = 6.00 and scale = 1.00000
 Grid used for NLC:  SG-1 standard quadrature
 
 Citation of the SMD model:
 Marenich, A.V.; Cramer, C.J.; Truhlar, D.G.
 J. Phys. Chem. B 2009, 113, 6378-6396.
 iSolventCode=           1
 Solvent: water                                                           
 
 vradii
            1           2           3           4           5           6
    1   1.5200000   1.8500000   1.5200000   1.2000000   1.5200000   1.2000000
            7
    1   1.2000000
 -------------------------------------------------------
 OpenMP BLAS3 based DFT computing Module                
 Release: version 1.0, May 2013, Q-Chem Inc. Pittsburgh 
 -------------------------------------------------------
 A unrestricted SCF calculation will be
 performed using Roothaan-Hall, DIIS, GDM
 SCF converges when RMS gradient is below 1.0e-06
 ---------------------------------------
  Cycle       Energy         DIIS error
 ---------------------------------------
    1    -265.4870851738      5.43e-04  Roothaan Step
 ---------------------------------------
  Cycle       Energy         DIIS error
 ---------------------------------------
    1    -265.5127638466      6.99e-04  
    2    -265.5156319295      8.27e-04  Done DIIS. Switching to GDM
 ---------------------------------------
  Cycle       Energy        RMS Gradient
 ---------------------------------------
    1    -265.5156319295      4.02e-02   Normal BFGS step
    2    -265.5108563734      6.66e-02  Line search: overstep
    3    -265.5216888444      4.63e-03   Normal BFGS step
    4    -265.5218624525      1.99e-03   Normal BFGS step
    5    -265.5218911832      1.92e-03   Normal BFGS step
    6    -265.5219061086      4.65e-04   Normal BFGS step
    7    -265.5219066029      2.49e-04   Normal BFGS step
    8    -265.5219068026      1.39e-04   Normal BFGS step
    9    -265.5219068538      3.74e-05   Normal BFGS step
   10    -265.5219068622      2.15e-05   Normal BFGS step
   11    -265.5219068637      7.81e-06   Normal BFGS step
   12    -265.5219068639      4.01e-06   Normal BFGS step
   13    -265.5219068639      2.50e-06   Normal BFGS step
   14    -265.5219068640      1.39e-06   Normal BFGS step
   15    -265.5219068641      7.58e-07  Convergence criterion met
 ---------------------------------------
 SCF time:   CPU 116.26s  wall 29.00s 
<S^2> =          0.757296064
(3)  G-ENP(liq) elect-nuc-pol free energy of system     -265.521906864 a.u.
(4)  G-CDS(liq) cavity-dispersion-solvent structure 
     free energy                                                4.8526 kcal/mol
(6)  G-S(liq) free energy of system                     -265.514173813 a.u.
 SCF   energy in the final basis set =     -265.5141738134
 Total energy in the final basis set =     -265.5141738134
 
 --------------------------------------------------------------
 
                    Orbital Energies (a.u.)
 --------------------------------------------------------------
 
 Alpha MOs
 -- Occupied --
-19.4108 -19.3839 -19.3522 -10.5216  -1.2669  -1.1918  -1.1138  -0.7908
 -0.7170  -0.6178  -0.5868  -0.5847  -0.5184  -0.4888  -0.4657  -0.4346
 -0.3801
 -- Virtual --
  0.0297   0.0529   0.0561   0.0601   0.0938   0.0994   0.1201   0.1457
  0.2122   0.2164   0.2234   0.2275   0.2377   0.2541   0.2629   0.2964
  0.3074   0.3077   0.3233   0.3349   0.3480   0.3799   0.4125   0.4525
  0.4669   0.5560   0.5820   0.6023   0.6275   0.6920   0.7023   0.7767
  0.8002   0.8105   0.8441   0.8565   0.8852   0.9184   0.9791   1.0470
  1.0620   1.0754   1.1095   1.1286   1.1491   1.1594   1.1664   1.1886
  1.1927   1.2584   1.3943   1.4039   1.4499   1.4786   1.5570   1.6039
  1.6129   1.6768   1.7635   1.7822   1.8117   1.8927   1.9162   1.9503
  2.0334   2.1403   2.2376   2.2810   2.3014   2.3435   2.4508   2.4987
  2.5270   2.7310   2.7703   2.8004   2.9332   3.0369   3.0650   3.1112
  3.1836   3.3200   3.3642   3.4183   3.5007   3.5469   3.5519   3.5997
  3.6538   3.7183   3.7750   3.8092   3.9233   3.9803   4.0487   4.0850
  4.2131   4.3150   4.3884   4.5251   5.0822   5.0981   5.1112   5.1149
  5.1343   5.1487   5.1529   5.1914   5.2066   5.2273   5.2721   5.2858
  5.3119   5.3637   5.4001   5.4510   5.5379   5.5558   5.5887   5.6716
  5.7444   5.9448   6.0584   6.2951   6.3129   6.5974   6.7746   6.8675
  6.9335   6.9530   6.9721   7.0401   7.0525   7.0748   7.1248   7.2210
  7.2763   7.2812   7.4153   7.4656   7.5448   7.6584   7.6776   7.7095
  7.8254  24.9596  50.4532  50.5265  50.6450
 
 Beta MOs
 -- Occupied --
-19.4079 -19.3779 -19.3397 -10.5147  -1.2579  -1.1810  -1.0841  -0.7788
 -0.6876  -0.6028  -0.5800  -0.5655  -0.4973  -0.4614  -0.4229  -0.4187
 -- Virtual --
 -0.0925   0.0318   0.0560   0.0612   0.0637   0.0957   0.0995   0.1210
  0.1467   0.2140   0.2199   0.2251   0.2296   0.2385   0.2543   0.2642
  0.2979   0.3078   0.3084   0.3243   0.3439   0.3526   0.3860   0.4177
  0.4579   0.4876   0.5640   0.5854   0.6088   0.6311   0.6961   0.7113
  0.7829   0.8008   0.8140   0.8462   0.8612   0.8888   0.9211   0.9835
  1.0532   1.0664   1.0798   1.1123   1.1338   1.1576   1.1682   1.1712
  1.1966   1.1990   1.2628   1.4027   1.4138   1.4564   1.4813   1.5711
  1.6087   1.6239   1.6818   1.7765   1.7915   1.8182   1.9006   1.9337
  1.9650   2.0399   2.1463   2.2397   2.2856   2.3094   2.3506   2.4610
  2.5061   2.5427   2.7434   2.7718   2.8036   2.9410   3.0531   3.0943
  3.1195   3.1995   3.3395   3.3775   3.4382   3.5184   3.5562   3.5603
  3.6218   3.6726   3.7245   3.7756   3.8209   3.9329   3.9748   4.0632
  4.0875   4.2196   4.3179   4.3960   4.5405   5.0923   5.1043   5.1304
  5.1394   5.1499   5.1617   5.1780   5.1980   5.2125   5.2463   5.2997
  5.3093   5.3285   5.3854   5.4090   5.4673   5.5500   5.5724   5.5981
  5.7014   5.7473   5.9538   6.0720   6.3040   6.3423   6.6104   6.7956
  6.8919   6.9670   6.9759   6.9814   7.0544   7.0863   7.1227   7.1463
  7.2316   7.2867   7.2908   7.4359   7.4733   7.5718   7.6915   7.7029
  7.7359   7.8395  24.9663  50.4622  50.5288  50.6498
 --------------------------------------------------------------
 
          Ground-State Mulliken Net Atomic Charges

     Atom                 Charge (a.u.)    Spin (a.u.)
  --------------------------------------------------------
      1 O                    -0.320824       0.199142
      2 C                     0.103315       0.317136
      3 O                    -0.258300       0.077716
      4 H                     0.483108      -0.001371
      5 O                    -0.690002       0.416716
      6 H                     0.337676      -0.005073
      7 H                     0.345027      -0.004265
  --------------------------------------------------------
  Sum of atomic charges =    -0.000000
  Sum of spin   charges =     1.000000

 -----------------------------------------------------------------
                    Cartesian Multipole Moments
 -----------------------------------------------------------------
    Charge (ESU x 10^10)
                -0.0000
    Dipole Moment (Debye)
         X      -3.1684      Y      -4.5328      Z      -2.5132
       Tot       6.0747
    Quadrupole Moments (Debye-Ang)
        XX     -20.0102     XY       7.8377     YY     -17.2126
        XZ      -1.3846     YZ       1.8399     ZZ     -30.3549
    Octopole Moments (Debye-Ang^2)
       XXX      37.0403    XXY       2.7501    XYY      -0.9934
       YYY       5.1282    XXZ     -16.6830    XYZ       1.9094
       YYZ     -11.8029    XZZ      10.9066    YZZ      14.1599
       ZZZ     -63.3483
    Hexadecapole Moments (Debye-Ang^3)
      XXXX    -101.2132   XXXY      -2.3962   XXYY     -38.0116
      XYYY      18.8349   YYYY    -129.4670   XXXZ      -1.6243
      XXYZ      28.4146   XYYZ     -11.5040   YYYZ      30.3369
      XXZZ     -56.4441   XYZZ       7.0226   YYZZ     -61.2629
      XZZZ      -7.9750   YZZZ      85.8092   ZZZZ    -288.7978
 -----------------------------------------------------------------
 Calculating analytic gradient of the SCF energy
 Gradient of CDS energy
            1           2           3           4           5           6
    1  -0.0006194  -0.0015877   0.0023744   0.0000821   0.0002208  -0.0001978
    2  -0.0013649   0.0006744   0.0012863  -0.0002897   0.0003501  -0.0003933
    3  -0.0003583  -0.0028687   0.0035117  -0.0003010   0.0004060  -0.0000498
            7
    1  -0.0002723
    2  -0.0002630
    3  -0.0003399
 Gradient of SCF Energy
            1           2           3           4           5           6
    1   0.0116747   0.0089968  -0.0154634  -0.0026611   0.0160105  -0.0131003
    2   0.0477573  -0.0506070  -0.0143041   0.0300995   0.0159059  -0.0382214
    3  -0.0046237   0.0404236  -0.0188928  -0.0172461   0.0122037   0.0027934
            7
    1  -0.0054573
    2   0.0093698
    3  -0.0146581
 Max gradient component =       5.061E-02
 RMS gradient           =       2.325E-02
 Computing fast CPCM-SWIG gradient
 Updating gradient with PCM contributions...
 -- total gradient after adding PCM contribution --
---------------------------------------------------
  Atom         X              Y              Z     
---------------------------------------------------
   1       0.010805       0.046269      -0.005093
   2       0.007046      -0.054607       0.039279
   3      -0.022836      -0.038983      -0.018565
   4       0.000456       0.034527      -0.015879
   5       0.002936       0.001721       0.002012
   6      -0.003739      -0.024104       0.007986
   7       0.005333       0.035177      -0.009740
---------------------------------------------------
 Number of fixed atoms: 0
 Gradient time:  CPU 16.08 s  wall 4.39 s
 ----------------------------------------------------------------
             Standard Nuclear Orientation (Angstroms)
    I     Atom           X                Y                Z
 ----------------------------------------------------------------
    1      O      -0.2779840000     0.9818736000     0.4617916000
    2      C      -0.6900011000    -0.1620969000     0.3527143000
    3      O      -1.4087758000    -0.5160551000    -0.7294780000
    4      H      -0.4122997000    -0.9727942000     1.2992235000
    5      O      -0.1226248000    -1.8320755000     2.1286212000
    6      H      -0.5651373000    -2.7119559000     2.0172490000
    7      H      -1.7259535000    -1.3936100000    -0.8147109000
 ----------------------------------------------------------------
 Nuclear Repulsion Energy =         112.05176568 hartrees
 There are       17 alpha and       16 beta electrons
 Discretize the solute cavity surface with Lebedev spheres
	Using 110 Lebedev grid points for each H atom
	Using 194 Lebedev grid points for other atoms
	Atomic van der Waals radii will be scaled by 1.20
 Remove points where switching function is < 1.0e-08
 Keep 677 surface tesserae and discard 429 interior tesserae
 Molecular Surface Area = 84.739 Angst**2

                       Distance Matrix (Angstroms)
             O (  1)   C (  2)   O (  3)   H (  4)   O (  5)   H (  6)
   C (  2)  1.220788
   O (  3)  2.222972  1.346501
   H (  4)  2.130741  1.276804  2.305907
   O (  5)  3.274258  2.502916  3.399239  1.228892
   H (  6)  4.018244  3.047630  3.616382  1.887751  0.991166
   H (  7)  3.060882  1.988141  0.937000  2.524181  3.380254  3.332496

 
 Requested basis set is 6-311++G(2df,2p)
 There are 50 shells and 166 basis functions
 A cutoff of  1.0D-11 yielded   1197 shell pairs
 There are     13261 function pairs (     16621 Cartesian)
 Smallest overlap matrix eigenvalue = 5.89E-04
 Guess MOs from SCF MO coefficient file

 -----------------------------------------------------------------------
  General SCF calculation program by
  Eric Jon Sundstrom, Paul Horn, Yuezhi Mao, Dmitri Zuev, Alec White,
  David Stuck, Shaama M.S., Shane Yost, Joonho Lee, David Small,
  Daniel Levine, Susi Lehtola, Hugh Burton, Evgeny Epifanovsky,
  Bang C. Huynh
 -----------------------------------------------------------------------
 Exchange:     0.1500 Hartree-Fock + 1.0000 wB97M-V + LR-HF
 Correlation:  1.0000 wB97M-V
 Using SG-2 standard quadrature grid
 Nonlocal Correlation:  VV10 with C = 0.0100 and b = 6.00 and scale = 1.00000
 Grid used for NLC:  SG-1 standard quadrature
 
 Citation of the SMD model:
 Marenich, A.V.; Cramer, C.J.; Truhlar, D.G.
 J. Phys. Chem. B 2009, 113, 6378-6396.
 iSolventCode=           1
 Solvent: water                                                           
 
 vradii
            1           2           3           4           5           6
    1   1.5200000   1.8500000   1.5200000   1.2000000   1.5200000   1.2000000
            7
    1   1.2000000
 -------------------------------------------------------
 OpenMP BLAS3 based DFT computing Module                
 Release: version 1.0, May 2013, Q-Chem Inc. Pittsburgh 
 -------------------------------------------------------
 A unrestricted SCF calculation will be
 performed using Roothaan-Hall, DIIS, GDM
 SCF converges when RMS gradient is below 1.0e-06
 ---------------------------------------
  Cycle       Energy         DIIS error
 ---------------------------------------
    1    -265.4869699700      5.42e-04  Roothaan Step
 ---------------------------------------
  Cycle       Energy         DIIS error
 ---------------------------------------
    1    -265.5126028347      7.02e-04  
    2    -265.5154365458      8.33e-04  Done DIIS. Switching to GDM
 ---------------------------------------
  Cycle       Energy        RMS Gradient
 ---------------------------------------
    1    -265.5154365458      4.07e-02   Normal BFGS step
    2    -265.5105504643      6.75e-02  Line search: overstep
    3    -265.5215734516      4.68e-03   Normal BFGS step
    4    -265.5217482312      1.93e-03   Normal BFGS step
    5    -265.5217774212      1.96e-03   Normal BFGS step
    6    -265.5217923870      4.64e-04   Normal BFGS step
    7    -265.5217928855      2.48e-04   Normal BFGS step
    8    -265.5217930833      1.39e-04   Normal BFGS step
    9    -265.5217931342      3.96e-05   Normal BFGS step
   10    -265.5217931428      2.32e-05   Normal BFGS step
   11    -265.5217931443      9.01e-06   Normal BFGS step
   12    -265.5217931445      3.19e-06   Normal BFGS step
   13    -265.5217931445      2.03e-06   Normal BFGS step
   14    -265.5217931445      1.15e-06   Normal BFGS step
   15    -265.5217931445      6.08e-07  Convergence criterion met
 ---------------------------------------
 SCF time:   CPU 116.76s  wall 30.00s 
<S^2> =          0.757304937
(3)  G-ENP(liq) elect-nuc-pol free energy of system     -265.521793145 a.u.
(4)  G-CDS(liq) cavity-dispersion-solvent structure 
     free energy                                                4.8502 kcal/mol
(6)  G-S(liq) free energy of system                     -265.514063870 a.u.
 SCF   energy in the final basis set =     -265.5140638701
 Total energy in the final basis set =     -265.5140638701
 
 --------------------------------------------------------------
 
                    Orbital Energies (a.u.)
 --------------------------------------------------------------
 
 Alpha MOs
 -- Occupied --
-19.4109 -19.3839 -19.3523 -10.5219  -1.2666  -1.1915  -1.1139  -0.7909
 -0.7169  -0.6176  -0.5866  -0.5848  -0.5184  -0.4887  -0.4656  -0.4347
 -0.3802
 -- Virtual --
  0.0296   0.0526   0.0560   0.0601   0.0938   0.0994   0.1201   0.1457
  0.2122   0.2164   0.2233   0.2275   0.2377   0.2541   0.2628   0.2964
  0.3074   0.3076   0.3233   0.3348   0.3479   0.3798   0.4125   0.4522
  0.4667   0.5559   0.5820   0.6021   0.6275   0.6920   0.7018   0.7766
  0.8002   0.8104   0.8441   0.8563   0.8850   0.9184   0.9790   1.0470
  1.0620   1.0753   1.1094   1.1288   1.1491   1.1594   1.1664   1.1886
  1.1927   1.2582   1.3941   1.4037   1.4497   1.4786   1.5569   1.6037
  1.6127   1.6766   1.7631   1.7820   1.8115   1.8926   1.9159   1.9500
  2.0330   2.1399   2.2373   2.2809   2.3013   2.3434   2.4503   2.4980
  2.5268   2.7309   2.7701   2.8003   2.9329   3.0367   3.0649   3.1116
  3.1840   3.3202   3.3642   3.4181   3.5008   3.5454   3.5515   3.5996
  3.6537   3.7182   3.7750   3.8092   3.9230   3.9802   4.0465   4.0850
  4.2129   4.3145   4.3882   4.5248   5.0823   5.0979   5.1111   5.1148
  5.1343   5.1486   5.1528   5.1912   5.2065   5.2270   5.2720   5.2858
  5.3117   5.3636   5.3991   5.4501   5.5370   5.5546   5.5886   5.6714
  5.7440   5.9440   6.0571   6.2910   6.3120   6.5957   6.7720   6.8674
  6.9334   6.9523   6.9720   7.0382   7.0521   7.0747   7.1247   7.2209
  7.2760   7.2810   7.4150   7.4653   7.5447   7.6580   7.6773   7.7094
  7.8248  24.9571  50.4531  50.5262  50.6432
 
 Beta MOs
 -- Occupied --
-19.4081 -19.3779 -19.3398 -10.5149  -1.2577  -1.1806  -1.0842  -0.7790
 -0.6875  -0.6027  -0.5798  -0.5655  -0.4972  -0.4613  -0.4228  -0.4188
 -- Virtual --
 -0.0926   0.0318   0.0560   0.0612   0.0635   0.0957   0.0995   0.1210
  0.1467   0.2139   0.2199   0.2251   0.2296   0.2385   0.2543   0.2642
  0.2978   0.3078   0.3084   0.3242   0.3438   0.3526   0.3859   0.4177
  0.4575   0.4875   0.5639   0.5854   0.6086   0.6311   0.6961   0.7108
  0.7828   0.8007   0.8139   0.8462   0.8610   0.8886   0.9212   0.9835
  1.0532   1.0664   1.0797   1.1122   1.1339   1.1576   1.1683   1.1713
  1.1967   1.1990   1.2626   1.4026   1.4135   1.4561   1.4812   1.5711
  1.6085   1.6238   1.6816   1.7761   1.7912   1.8180   1.9005   1.9334
  1.9647   2.0395   2.1459   2.2394   2.2855   2.3094   2.3504   2.4605
  2.5054   2.5425   2.7433   2.7717   2.8035   2.9406   3.0529   3.0941
  3.1199   3.1998   3.3397   3.3775   3.4379   3.5184   3.5548   3.5597
  3.6218   3.6725   3.7244   3.7755   3.8209   3.9327   3.9747   4.0611
  4.0875   4.2195   4.3174   4.3958   4.5403   5.0924   5.1041   5.1304
  5.1393   5.1498   5.1615   5.1780   5.1977   5.2124   5.2460   5.2996
  5.3093   5.3282   5.3852   5.4080   5.4664   5.5491   5.5711   5.5980
  5.7012   5.7468   5.9530   6.0706   6.2999   6.3413   6.6088   6.7929
  6.8918   6.9669   6.9752   6.9812   7.0523   7.0861   7.1226   7.1463
  7.2315   7.2866   7.2904   7.4357   7.4730   7.5717   7.6907   7.7030
  7.7358   7.8389  24.9638  50.4621  50.5285  50.6480
 --------------------------------------------------------------
 
          Ground-State Mulliken Net Atomic Charges

     Atom                 Charge (a.u.)    Spin (a.u.)
  --------------------------------------------------------
      1 O                    -0.321766       0.199090
      2 C                     0.103268       0.317021
      3 O                    -0.257840       0.077555
      4 H                     0.483187      -0.001474
      5 O                    -0.689656       0.417157
      6 H                     0.337710      -0.005092
      7 H                     0.345096      -0.004256
  --------------------------------------------------------
  Sum of atomic charges =    -0.000000
  Sum of spin   charges =     1.000000

 -----------------------------------------------------------------
                    Cartesian Multipole Moments
 -----------------------------------------------------------------
    Charge (ESU x 10^10)
                -0.0000
    Dipole Moment (Debye)
         X      -3.1729      Y      -4.5444      Z      -2.5127
       Tot       6.0854
    Quadrupole Moments (Debye-Ang)
        XX     -20.0069     XY       7.8409     YY     -17.2112
        XZ      -1.3823     YZ       1.8295     ZZ     -30.3471
    Octopole Moments (Debye-Ang^2)
       XXX      37.0141    XXY       2.7339    XYY      -1.0013
       YYY       5.0698    XXZ     -16.6875    XYZ       1.9082
       YYZ     -11.7895    XZZ      10.8985    YZZ      14.1241
       ZZZ     -63.3284
    Hexadecapole Moments (Debye-Ang^3)
      XXXX    -101.1736   XXXY      -2.3947   XXYY     -38.0134
      XYYY      18.8365   YYYY    -129.4959   XXXZ      -1.6205
      XXYZ      28.4080   XYYZ     -11.5038   YYYZ      30.2764
      XXZZ     -56.4328   XYZZ       7.0231   YYZZ     -61.2290
      XZZZ      -7.9761   YZZZ      85.7350   ZZZZ    -288.7143
 -----------------------------------------------------------------
 Calculating analytic gradient of the SCF energy
 Gradient of CDS energy
            1           2           3           4           5           6
    1  -0.0006273  -0.0015801   0.0023746   0.0000821   0.0002208  -0.0001978
    2  -0.0013850   0.0006945   0.0012863  -0.0002897   0.0003501  -0.0003933
    3  -0.0003598  -0.0028672   0.0035118  -0.0003010   0.0004060  -0.0000498
            7
    1  -0.0002723
    2  -0.0002630
    3  -0.0003399
 Gradient of SCF Energy
            1           2           3           4           5           6
    1   0.0123227   0.0084921  -0.0156137  -0.0026510   0.0160147  -0.0131062
    2   0.0492852  -0.0518681  -0.0144819   0.0299933   0.0159443  -0.0382322
    3  -0.0044027   0.0403773  -0.0190788  -0.0172043   0.0121934   0.0027911
            7
    1  -0.0054586
    2   0.0093595
    3  -0.0146760
 Max gradient component =       5.187E-02
 RMS gradient           =       2.355E-02
 Computing fast CPCM-SWIG gradient
 Updating gradient with PCM contributions...
 -- total gradient after adding PCM contribution --
---------------------------------------------------
  Atom         X              Y              Z     
---------------------------------------------------
   1       0.011459       0.047823      -0.004873
   2       0.006527      -0.055917       0.039230
   3      -0.022992      -0.039174      -0.018753
   4       0.000469       0.034432      -0.015839
   5       0.002931       0.001737       0.002001
   6      -0.003737      -0.024094       0.007984
   7       0.005343       0.035192      -0.009750
---------------------------------------------------
 Number of fixed atoms: 0
 Gradient time:  CPU 16.10 s  wall 4.41 s
 ----------------------------------------------------------------
             Standard Nuclear Orientation (Angstroms)
    I     Atom           X                Y                Z
 ----------------------------------------------------------------
    1      O      -0.2779840000     0.9798736000     0.4617916000
    2      C      -0.6900011000    -0.1620969000     0.3527143000
    3      O      -1.4087758000    -0.5160551000    -0.7294780000
    4      H      -0.4122997000    -0.9727942000     1.2992235000
    5      O      -0.1226248000    -1.8320755000     2.1286212000
    6      H      -0.5651373000    -2.7119559000     2.0172490000
    7      H      -1.7259535000    -1.3936100000    -0.8147109000
 ----------------------------------------------------------------
 Nuclear Repulsion Energy =         112.10132042 hartrees
 There are       17 alpha and       16 beta electrons
 Discretize the solute cavity surface with Lebedev spheres
	Using 110 Lebedev grid points for each H atom
	Using 194 Lebedev grid points for other atoms
	Atomic van der Waals radii will be scaled by 1.20
 Remove points where switching function is < 1.0e-08
 Keep 677 surface tesserae and discard 429 interior tesserae
 Molecular Surface Area = 84.721 Angst**2

                       Distance Matrix (Angstroms)
             O (  1)   C (  2)   O (  3)   H (  4)   O (  5)   H (  6)
   C (  2)  1.218915
   O (  3)  2.221625  1.346501
   H (  4)  2.128907  1.276804  2.305907
   O (  5)  3.272540  2.502916  3.399239  1.228892
   H (  6)  4.016405  3.047630  3.616382  1.887751  0.991166
   H (  7)  3.059330  1.988141  0.937000  2.524181  3.380254  3.332496

 
 Requested basis set is 6-311++G(2df,2p)
 There are 50 shells and 166 basis functions
 A cutoff of  1.0D-11 yielded   1197 shell pairs
 There are     13261 function pairs (     16621 Cartesian)
 Smallest overlap matrix eigenvalue = 5.89E-04
 Guess MOs from SCF MO coefficient file

 -----------------------------------------------------------------------
  General SCF calculation program by
  Eric Jon Sundstrom, Paul Horn, Yuezhi Mao, Dmitri Zuev, Alec White,
  David Stuck, Shaama M.S., Shane Yost, Joonho Lee, David Small,
  Daniel Levine, Susi Lehtola, Hugh Burton, Evgeny Epifanovsky,
  Bang C. Huynh
 -----------------------------------------------------------------------
 Exchange:     0.1500 Hartree-Fock + 1.0000 wB97M-V + LR-HF
 Correlation:  1.0000 wB97M-V
 Using SG-2 standard quadrature grid
 Nonlocal Correlation:  VV10 with C = 0.0100 and b = 6.00 and scale = 1.00000
 Grid used for NLC:  SG-1 standard quadrature
 
 Citation of the SMD model:
 Marenich, A.V.; Cramer, C.J.; Truhlar, D.G.
 J. Phys. Chem. B 2009, 113, 6378-6396.
 iSolventCode=           1
 Solvent: water                                                           
 
 vradii
            1           2           3           4           5           6
    1   1.5200000   1.8500000   1.5200000   1.2000000   1.5200000   1.2000000
            7
    1   1.2000000
 -------------------------------------------------------
 OpenMP BLAS3 based DFT computing Module                
 Release: version 1.0, May 2013, Q-Chem Inc. Pittsburgh 
 -------------------------------------------------------
 A unrestricted SCF calculation will be
 performed using Roothaan-Hall, DIIS, GDM
 SCF converges when RMS gradient is below 1.0e-06
 ---------------------------------------
  Cycle       Energy         DIIS error
 ---------------------------------------
    1    -265.4871488184      5.43e-04  Roothaan Step
 ---------------------------------------
  Cycle       Energy         DIIS error
 ---------------------------------------
    1    -265.5128556133      6.98e-04  
    2    -265.5157443360      8.24e-04  Done DIIS. Switching to GDM
 ---------------------------------------
  Cycle       Energy        RMS Gradient
 ---------------------------------------
    1    -265.5157443360      4.00e-02   Normal BFGS step
    2    -265.5110256229      6.62e-02  Line search: overstep
    3    -265.5217573292      4.61e-03   Normal BFGS step
    4    -265.5219304802      2.03e-03   Normal BFGS step
    5    -265.5219590047      1.90e-03   Normal BFGS step
    6    -265.5219739382      4.73e-04   Normal BFGS step
    7    -265.5219744406      2.55e-04   Normal BFGS step
    8    -265.5219746466      1.40e-04   Normal BFGS step
    9    -265.5219747001      3.65e-05   Normal BFGS step
   10    -265.5219747089      2.03e-05   Normal BFGS step
   11    -265.5219747108      9.00e-06   Normal BFGS step
   12    -265.5219747112      6.20e-06   Normal BFGS step
   13    -265.5219747114      3.19e-06   Normal BFGS step
   14    -265.5219747115      2.61e-06   Normal BFGS step
   15    -265.5219747115      1.13e-06   Normal BFGS step
   16    -265.5219747115      6.13e-07  Convergence criterion met
 ---------------------------------------
 SCF time:   CPU 121.95s  wall 31.00s 
<S^2> =          0.757289175
(3)  G-ENP(liq) elect-nuc-pol free energy of system     -265.521974711 a.u.
(4)  G-CDS(liq) cavity-dispersion-solvent structure 
     free energy                                                4.8534 kcal/mol
(6)  G-S(liq) free energy of system                     -265.514240260 a.u.
 SCF   energy in the final basis set =     -265.5142402596
 Total energy in the final basis set =     -265.5142402596
 
 --------------------------------------------------------------
 
                    Orbital Energies (a.u.)
 --------------------------------------------------------------
 
 Alpha MOs
 -- Occupied --
-19.4107 -19.3840 -19.3521 -10.5215  -1.2670  -1.1920  -1.1138  -0.7907
 -0.7170  -0.6179  -0.5869  -0.5847  -0.5184  -0.4888  -0.4658  -0.4346
 -0.3800
 -- Virtual --
  0.0297   0.0530   0.0561   0.0601   0.0938   0.0994   0.1201   0.1457
  0.2122   0.2165   0.2234   0.2275   0.2377   0.2541   0.2629   0.2964
  0.3075   0.3077   0.3233   0.3349   0.3480   0.3800   0.4125   0.4527
  0.4670   0.5560   0.5821   0.6025   0.6275   0.6920   0.7026   0.7766
  0.8002   0.8106   0.8441   0.8566   0.8854   0.9183   0.9791   1.0470
  1.0620   1.0754   1.1094   1.1286   1.1491   1.1594   1.1664   1.1887
  1.1927   1.2584   1.3945   1.4041   1.4502   1.4786   1.5571   1.6040
  1.6130   1.6768   1.7636   1.7823   1.8118   1.8928   1.9164   1.9503
  2.0338   2.1404   2.2376   2.2810   2.3014   2.3436   2.4512   2.4990
  2.5271   2.7310   2.7703   2.8004   2.9334   3.0369   3.0650   3.1111
  3.1834   3.3199   3.3641   3.4183   3.5007   3.5476   3.5523   3.5996
  3.6538   3.7183   3.7751   3.8093   3.9235   3.9803   4.0495   4.0850
  4.2132   4.3151   4.3883   4.5252   5.0821   5.0981   5.1113   5.1149
  5.1343   5.1488   5.1529   5.1916   5.2067   5.2274   5.2722   5.2859
  5.3121   5.3638   5.4004   5.4513   5.5384   5.5563   5.5887   5.6718
  5.7445   5.9453   6.0588   6.2973   6.3131   6.5983   6.7764   6.8675
  6.9336   6.9533   6.9721   7.0409   7.0528   7.0750   7.1249   7.2212
  7.2766   7.2811   7.4154   7.4658   7.5449   7.6586   7.6776   7.7095
  7.8256  24.9607  50.4533  50.5266  50.6458
 
 Beta MOs
 -- Occupied --
-19.4079 -19.3780 -19.3396 -10.5146  -1.2580  -1.1812  -1.0841  -0.7788
 -0.6876  -0.6029  -0.5801  -0.5654  -0.4974  -0.4615  -0.4229  -0.4187
 -- Virtual --
 -0.0924   0.0318   0.0560   0.0612   0.0639   0.0958   0.0995   0.1210
  0.1466   0.2140   0.2199   0.2251   0.2296   0.2385   0.2543   0.2642
  0.2979   0.3078   0.3084   0.3243   0.3439   0.3527   0.3861   0.4177
  0.4580   0.4877   0.5640   0.5855   0.6089   0.6311   0.6961   0.7116
  0.7828   0.8008   0.8141   0.8462   0.8612   0.8890   0.9211   0.9836
  1.0531   1.0664   1.0798   1.1122   1.1338   1.1576   1.1682   1.1713
  1.1966   1.1990   1.2628   1.4028   1.4140   1.4566   1.4813   1.5712
  1.6088   1.6240   1.6819   1.7766   1.7917   1.8183   1.9007   1.9339
  1.9649   2.0403   2.1464   2.2397   2.2856   2.3095   2.3507   2.4614
  2.5064   2.5427   2.7434   2.7719   2.8037   2.9412   3.0531   3.0943
  3.1195   3.1994   3.3394   3.3774   3.4382   3.5184   3.5568   3.5607
  3.6217   3.6726   3.7245   3.7756   3.8210   3.9332   3.9749   4.0640
  4.0875   4.2197   4.3181   4.3960   4.5406   5.0922   5.1043   5.1305
  5.1394   5.1499   5.1617   5.1780   5.1982   5.2125   5.2463   5.2998
  5.3094   5.3286   5.3855   5.4093   5.4676   5.5506   5.5728   5.5981
  5.7015   5.7474   5.9543   6.0724   6.3061   6.3424   6.6113   6.7975
  6.8919   6.9671   6.9762   6.9814   7.0554   7.0864   7.1228   7.1464
  7.2317   7.2868   7.2910   7.4361   7.4735   7.5719   7.6917   7.7029
  7.7359   7.8397  24.9674  50.4623  50.5289  50.6506
 --------------------------------------------------------------
 
          Ground-State Mulliken Net Atomic Charges

     Atom                 Charge (a.u.)    Spin (a.u.)
  --------------------------------------------------------
      1 O                    -0.320318       0.199175
      2 C                     0.103366       0.317273
      3 O                    -0.258468       0.077828
      4 H                     0.483048      -0.001284
      5 O                    -0.690307       0.416343
      6 H                     0.337648      -0.005063
      7 H                     0.345031      -0.004271
  --------------------------------------------------------
  Sum of atomic charges =    -0.000000
  Sum of spin   charges =     1.000000

 -----------------------------------------------------------------
                    Cartesian Multipole Moments
 -----------------------------------------------------------------
    Charge (ESU x 10^10)
                -0.0000
    Dipole Moment (Debye)
         X      -3.1697      Y      -4.5248      Z      -2.5153
       Tot       6.0702
    Quadrupole Moments (Debye-Ang)
        XX     -20.0096     XY       7.8331     YY     -17.2131
        XZ      -1.3860     YZ       1.8497     ZZ     -30.3623
    Octopole Moments (Debye-Ang^2)
       XXX      37.0254    XXY       2.7631    XYY      -1.0018
       YYY       5.1755    XXZ     -16.6824    XYZ       1.9072
       YYZ     -11.8159    XZZ      10.9012    YZZ      14.1889
       ZZZ     -63.3704
    Hexadecapole Moments (Debye-Ang^3)
      XXXX    -101.2013   XXXY      -2.4241   XXYY     -37.9980
      XYYY      18.8040   YYYY    -129.4319   XXXZ      -1.6351
      XXYZ      28.4231   XYYZ     -11.5070   YYYZ      30.3916
      XXZZ     -56.4461   XYZZ       7.0118   YYZZ     -61.2898
      XZZZ      -7.9841   YZZZ      85.8744   ZZZZ    -288.8723
 -----------------------------------------------------------------
 Calculating analytic gradient of the SCF energy
 Gradient of CDS energy
            1           2           3           4           5           6
    1  -0.0006173  -0.0015902   0.0023747   0.0000821   0.0002208  -0.0001978
    2  -0.0013549   0.0006648   0.0012859  -0.0002897   0.0003501  -0.0003933
    3  -0.0003572  -0.0028700   0.0035119  -0.0003010   0.0004060  -0.0000498
            7
    1  -0.0002723
    2  -0.0002630
    3  -0.0003399
 Gradient of SCF Energy
            1           2           3           4           5           6
    1   0.0115282   0.0090526  -0.0154146  -0.0026357   0.0160095  -0.0130978
    2   0.0470137  -0.0499082  -0.0143174   0.0301812   0.0158782  -0.0382137
    3  -0.0046578   0.0404454  -0.0188315  -0.0172991   0.0122196   0.0027920
            7
    1  -0.0054422
    2   0.0093661
    3  -0.0146685
 Max gradient component =       4.991E-02
 RMS gradient           =       2.311E-02
 Computing fast CPCM-SWIG gradient
 Updating gradient with PCM contributions...
 -- total gradient after adding PCM contribution --
---------------------------------------------------
  Atom         X              Y              Z     
---------------------------------------------------
   1       0.010653       0.045513      -0.005128
   2       0.007110      -0.053887       0.039294
   3      -0.022786      -0.038989      -0.018501
   4       0.000482       0.034601      -0.015928
   5       0.002939       0.001707       0.002028
   6      -0.003742      -0.024112       0.007985
   7       0.005345       0.035166      -0.009750
---------------------------------------------------
 Number of fixed atoms: 0
 Gradient time:  CPU 16.05 s  wall 4.39 s
 ----------------------------------------------------------------
             Standard Nuclear Orientation (Angstroms)
    I     Atom           X                Y                Z
 ----------------------------------------------------------------
    1      O      -0.2779840000     0.9808736000     0.4627916000
    2      C      -0.6900011000    -0.1620969000     0.3527143000
    3      O      -1.4087758000    -0.5160551000    -0.7294780000
    4      H      -0.4122997000    -0.9727942000     1.2992235000
    5      O      -0.1226248000    -1.8320755000     2.1286212000
    6      H      -0.5651373000    -2.7119559000     2.0172490000
    7      H      -1.7259535000    -1.3936100000    -0.8147109000
 ----------------------------------------------------------------
 Nuclear Repulsion Energy =         112.07320966 hartrees
 There are       17 alpha and       16 beta electrons
 Discretize the solute cavity surface with Lebedev spheres
	Using 110 Lebedev grid points for each H atom
	Using 194 Lebedev grid points for other atoms
	Atomic van der Waals radii will be scaled by 1.20
 Remove points where switching function is < 1.0e-08
 Keep 677 surface tesserae and discard 429 interior tesserae
 Molecular Surface Area = 84.730 Angst**2

                       Distance Matrix (Angstroms)
             O (  1)   C (  2)   O (  3)   H (  4)   O (  5)   H (  6)
   C (  2)  1.219941
   O (  3)  2.222834  1.346501
   H (  4)  2.129431  1.276804  2.305907
   O (  5)  3.272890  2.502916  3.399239  1.228892
   H (  6)  4.016937  3.047630  3.616382  1.887751  0.991166
   H (  7)  3.060523  1.988141  0.937000  2.524181  3.380254  3.332496

 
 Requested basis set is 6-311++G(2df,2p)
 There are 50 shells and 166 basis functions
 A cutoff of  1.0D-11 yielded   1197 shell pairs
 There are     13261 function pairs (     16621 Cartesian)
 Smallest overlap matrix eigenvalue = 5.89E-04
 Guess MOs from SCF MO coefficient file

 -----------------------------------------------------------------------
  General SCF calculation program by
  Eric Jon Sundstrom, Paul Horn, Yuezhi Mao, Dmitri Zuev, Alec White,
  David Stuck, Shaama M.S., Shane Yost, Joonho Lee, David Small,
  Daniel Levine, Susi Lehtola, Hugh Burton, Evgeny Epifanovsky,
  Bang C. Huynh
 -----------------------------------------------------------------------
 Exchange:     0.1500 Hartree-Fock + 1.0000 wB97M-V + LR-HF
 Correlation:  1.0000 wB97M-V
 Using SG-2 standard quadrature grid
 Nonlocal Correlation:  VV10 with C = 0.0100 and b = 6.00 and scale = 1.00000
 Grid used for NLC:  SG-1 standard quadrature
 
 Citation of the SMD model:
 Marenich, A.V.; Cramer, C.J.; Truhlar, D.G.
 J. Phys. Chem. B 2009, 113, 6378-6396.
 iSolventCode=           1
 Solvent: water                                                           
 
 vradii
            1           2           3           4           5           6
    1   1.5200000   1.8500000   1.5200000   1.2000000   1.5200000   1.2000000
            7
    1   1.2000000
 -------------------------------------------------------
 OpenMP BLAS3 based DFT computing Module                
 Release: version 1.0, May 2013, Q-Chem Inc. Pittsburgh 
 -------------------------------------------------------
 A unrestricted SCF calculation will be
 performed using Roothaan-Hall, DIIS, GDM
 SCF converges when RMS gradient is below 1.0e-06
 ---------------------------------------
  Cycle       Energy         DIIS error
 ---------------------------------------
    1    -265.4870960743      5.41e-04  Roothaan Step
 ---------------------------------------
  Cycle       Energy         DIIS error
 ---------------------------------------
    1    -265.5127304950      7.00e-04  
    2    -265.5155794550      8.30e-04  Done DIIS. Switching to GDM
 ---------------------------------------
  Cycle       Energy        RMS Gradient
 ---------------------------------------
    1    -265.5155794550      4.04e-02   Normal BFGS step
    2    -265.5107537154      6.71e-02  Line search: overstep
    3    -265.5216747238      4.66e-03   Normal BFGS step
    4    -265.5218490040      1.98e-03   Normal BFGS step
    5    -265.5218779224      1.95e-03   Normal BFGS step
    6    -265.5218928812      4.65e-04   Normal BFGS step
    7    -265.5218933801      2.50e-04   Normal BFGS step
    8    -265.5218935788      1.40e-04   Normal BFGS step
    9    -265.5218936298      3.86e-05   Normal BFGS step
   10    -265.5218936383      2.24e-05   Normal BFGS step
   11    -265.5218936398      8.50e-06   Normal BFGS step
   12    -265.5218936399      3.46e-06   Normal BFGS step
   13    -265.5218936399      2.24e-06   Normal BFGS step
   14    -265.5218936400      1.33e-06   Normal BFGS step
   15    -265.5218936401      7.14e-07  Convergence criterion met
 ---------------------------------------
 SCF time:   CPU 115.57s  wall 30.00s 
<S^2> =          0.757294292
(3)  G-ENP(liq) elect-nuc-pol free energy of system     -265.521893640 a.u.
(4)  G-CDS(liq) cavity-dispersion-solvent structure 
     free energy                                                4.8514 kcal/mol
(6)  G-S(liq) free energy of system                     -265.514162441 a.u.
 SCF   energy in the final basis set =     -265.5141624410
 Total energy in the final basis set =     -265.5141624410
 
 --------------------------------------------------------------
 
                    Orbital Energies (a.u.)
 --------------------------------------------------------------
 
 Alpha MOs
 -- Occupied --
-19.4109 -19.3840 -19.3521 -10.5218  -1.2668  -1.1918  -1.1138  -0.7908
 -0.7169  -0.6177  -0.5867  -0.5848  -0.5184  -0.4888  -0.4657  -0.4346
 -0.3800
 -- Virtual --
  0.0297   0.0528   0.0561   0.0601   0.0938   0.0994   0.1201   0.1457
  0.2122   0.2164   0.2233   0.2275   0.2377   0.2541   0.2628   0.2964
  0.3074   0.3077   0.3233   0.3348   0.3480   0.3799   0.4125   0.4524
  0.4668   0.5560   0.5820   0.6023   0.6275   0.6919   0.7021   0.7766
  0.8002   0.8106   0.8441   0.8564   0.8852   0.9183   0.9791   1.0470
  1.0620   1.0754   1.1094   1.1287   1.1492   1.1594   1.1664   1.1886
  1.1928   1.2583   1.3943   1.4039   1.4500   1.4786   1.5570   1.6037
  1.6128   1.6766   1.7634   1.7821   1.8116   1.8927   1.9162   1.9500
  2.0336   2.1400   2.2373   2.2809   2.3014   2.3435   2.4509   2.4984
  2.5269   2.7310   2.7702   2.8003   2.9331   3.0366   3.0649   3.1116
  3.1837   3.3201   3.3640   3.4181   3.5008   3.5464   3.5520   3.5995
  3.6537   3.7183   3.7750   3.8093   3.9234   3.9802   4.0476   4.0850
  4.2131   4.3148   4.3882   4.5250   5.0822   5.0980   5.1112   5.1149
  5.1343   5.1487   5.1528   5.1915   5.2066   5.2270   5.2722   5.2859
  5.3119   5.3637   5.3995   5.4506   5.5377   5.5552   5.5887   5.6716
  5.7440   5.9448   6.0576   6.2940   6.3121   6.5970   6.7748   6.8674
  6.9335   6.9528   6.9720   7.0393   7.0523   7.0749   7.1248   7.2211
  7.2764   7.2810   7.4151   7.4655   7.5449   7.6584   7.6773   7.7094
  7.8251  24.9587  50.4532  50.5263  50.6443
 
 Beta MOs
 -- Occupied --
-19.4080 -19.3780 -19.3397 -10.5148  -1.2578  -1.1809  -1.0841  -0.7789
 -0.6876  -0.6028  -0.5799  -0.5655  -0.4973  -0.4614  -0.4228  -0.4187
 -- Virtual --
 -0.0925   0.0318   0.0560   0.0612   0.0637   0.0957   0.0995   0.1210
  0.1466   0.2140   0.2199   0.2251   0.2296   0.2385   0.2543   0.2642
  0.2978   0.3078   0.3084   0.3242   0.3438   0.3527   0.3859   0.4177
  0.4577   0.4875   0.5640   0.5855   0.6088   0.6311   0.6960   0.7112
  0.7828   0.8008   0.8140   0.8462   0.8610   0.8888   0.9211   0.9836
  1.0531   1.0663   1.0798   1.1122   1.1339   1.1576   1.1682   1.1713
  1.1967   1.1990   1.2626   1.4027   1.4138   1.4564   1.4813   1.5711
  1.6085   1.6239   1.6817   1.7764   1.7913   1.8181   1.9006   1.9337
  1.9646   2.0401   2.1460   2.2394   2.2855   2.3094   2.3506   2.4611
  2.5058   2.5425   2.7434   2.7718   2.8036   2.9408   3.0529   3.0941
  3.1199   3.1996   3.3396   3.3773   3.4380   3.5185   3.5558   3.5603
  3.6217   3.6725   3.7245   3.7755   3.8210   3.9331   3.9748   4.0622
  4.0875   4.2196   4.3177   4.3958   4.5405   5.0923   5.1042   5.1305
  5.1394   5.1499   5.1616   5.1780   5.1980   5.2124   5.2460   5.2998
  5.3094   5.3285   5.3854   5.4083   5.4669   5.5499   5.5718   5.5981
  5.7014   5.7469   5.9538   6.0711   6.3029   6.3414   6.6101   6.7958
  6.8918   6.9670   6.9757   6.9813   7.0535   7.0862   7.1228   7.1463
  7.2317   7.2865   7.2908   7.4358   7.4732   7.5718   7.6911   7.7029
  7.7358   7.8392  24.9654  50.4622  50.5286  50.6491
 --------------------------------------------------------------
 
          Ground-State Mulliken Net Atomic Charges

     Atom                 Charge (a.u.)    Spin (a.u.)
  --------------------------------------------------------
      1 O                    -0.321034       0.199136
      2 C                     0.103360       0.317242
      3 O                    -0.258061       0.077720
      4 H                     0.483079      -0.001343
      5 O                    -0.690126       0.416586
      6 H                     0.337670      -0.005076
      7 H                     0.345113      -0.004265
  --------------------------------------------------------
  Sum of atomic charges =    -0.000000
  Sum of spin   charges =     1.000000

 -----------------------------------------------------------------
                    Cartesian Multipole Moments
 -----------------------------------------------------------------
    Charge (ESU x 10^10)
                -0.0000
    Dipole Moment (Debye)
         X      -3.1722      Y      -4.5333      Z      -2.5181
       Tot       6.0790
    Quadrupole Moments (Debye-Ang)
        XX     -20.0068     XY       7.8380     YY     -17.2146
        XZ      -1.3826     YZ       1.8419     ZZ     -30.3601
    Octopole Moments (Debye-Ang^2)
       XXX      37.0160    XXY       2.7472    XYY      -1.0024
       YYY       5.1300    XXZ     -16.6934    XYZ       1.9073
       YYZ     -11.8179    XZZ      10.8995    YZZ      14.1627
       ZZZ     -63.3804
    Hexadecapole Moments (Debye-Ang^3)
      XXXX    -101.1793   XXXY      -2.4050   XXYY     -38.0050
      XYYY      18.8226   YYYY    -129.4830   XXXZ      -1.6195
      XXYZ      28.4133   XYYZ     -11.5013   YYYZ      30.3366
      XXZZ     -56.4457   XYZZ       7.0187   YYZZ     -61.2835
      XZZZ      -7.9735   YZZZ      85.8098   ZZZZ    -288.8581
 -----------------------------------------------------------------
 Calculating analytic gradient of the SCF energy
 Gradient of CDS energy
            1           2           3           4           5           6
    1  -0.0006225  -0.0015849   0.0023747   0.0000821   0.0002208  -0.0001978
    2  -0.0013712   0.0006812   0.0012858  -0.0002897   0.0003501  -0.0003933
    3  -0.0003594  -0.0028682   0.0035123  -0.0003010   0.0004060  -0.0000498
            7
    1  -0.0002723
    2  -0.0002630
    3  -0.0003399
 Gradient of SCF Energy
            1           2           3           4           5           6
[...]
     (0,0,2)       -3.00000E-11
 Nucleus-field energy     =    -0.0000000004 hartrees
 Requested basis set is 6-311++G(2df,2p)
 There are 50 shells and 166 basis functions
 A cutoff of  1.0D-12 yielded   1215 shell pairs
 There are     13454 function pairs (     16899 Cartesian)
 Smallest overlap matrix eigenvalue = 5.64E-04
 Guess MOs from SCF MO coefficient file

 -----------------------------------------------------------------------
  General SCF calculation program by
  Eric Jon Sundstrom, Paul Horn, Yuezhi Mao, Dmitri Zuev, Alec White,
  David Stuck, Shaama M.S., Shane Yost, Joonho Lee, David Small,
  Daniel Levine, Susi Lehtola, Hugh Burton, Evgeny Epifanovsky,
  Bang C. Huynh
 -----------------------------------------------------------------------
 Exchange:     0.1500 Hartree-Fock + 1.0000 wB97M-V + LR-HF
 Correlation:  1.0000 wB97M-V
 Using SG-2 standard quadrature grid
 Nonlocal Correlation:  VV10 with C = 0.0100 and b = 6.00 and scale = 1.00000
 Grid used for NLC:  SG-1 standard quadrature
 
 Citation of the SMD model:
 Marenich, A.V.; Cramer, C.J.; Truhlar, D.G.
 J. Phys. Chem. B 2009, 113, 6378-6396.
 iSolventCode=           1
 Solvent: water                                                           
 
 vradii
            1           2           3           4           5           6
    1   1.5200000   1.8500000   1.5200000   1.2000000   1.5200000   1.2000000
            7
    1   1.2000000
 -------------------------------------------------------
 OpenMP BLAS3 based DFT computing Module                
 Release: version 1.0, May 2013, Q-Chem Inc. Pittsburgh 
 -------------------------------------------------------
 A unrestricted SCF calculation will be
 performed using Roothaan-Hall, DIIS, GDM
 SCF converges when RMS gradient is below 1.0e-07
 ---------------------------------------
  Cycle       Energy         DIIS error
 ---------------------------------------
    1    -265.4885203703      6.16e-04  Roothaan Step
 ---------------------------------------
  Cycle       Energy         DIIS error
 ---------------------------------------
    1    -265.5168912446      7.76e-04  
    2    -265.5220955803      8.43e-04  Done DIIS. Switching to GDM
 ---------------------------------------
  Cycle       Energy        RMS Gradient
 ---------------------------------------
    1    -265.5220955803      3.46e-02   Normal BFGS step
    2    -265.5183830734      5.54e-02  Line search: overstep
    3    -265.5282477685      5.04e-03   Normal BFGS step
    4    -265.5284818228      2.01e-03   Normal BFGS step
    5    -265.5285241841      2.38e-03   Normal BFGS step
    6    -265.5285387435      9.10e-04   Normal BFGS step
    7    -265.5285407970      7.49e-04   Normal BFGS step
    8    -265.5285422078      1.82e-04   Normal BFGS step
    9    -265.5285424181      8.25e-05   Normal BFGS step
   10    -265.5285424508      6.61e-05   Normal BFGS step
   11    -265.5285424627      2.83e-05   Normal BFGS step
   12    -265.5285424652      1.44e-05   Normal BFGS step
   13    -265.5285424661      1.00e-05   Normal BFGS step
   14    -265.5285424663      8.37e-06   Normal BFGS step
   15    -265.5285424665      6.32e-06   Normal BFGS step
   16    -265.5285424666      4.52e-06   Normal BFGS step
   17    -265.5285424668      2.46e-06   Normal BFGS step
   18    -265.5285424668      9.41e-07   Normal BFGS step
   19    -265.5285424668      2.37e-07   Normal BFGS step
   20    -265.5285424668      6.47e-08  Convergence criterion met
 ---------------------------------------
 SCF time:   CPU 155.59s  wall 39.00s 
<S^2> =          0.757098824
(3)  G-ENP(liq) elect-nuc-pol free energy of system     -265.528542467 a.u.
(4)  G-CDS(liq) cavity-dispersion-solvent structure 
     free energy                                                4.7616 kcal/mol
(6)  G-S(liq) free energy of system                     -265.520954379 a.u.
 SCF   energy in the final basis set =     -265.5209543791
 Total energy in the final basis set =     -265.5209543791
 
 --------------------------------------------------------------
 
                    Orbital Energies (a.u.)
 --------------------------------------------------------------
 
 Alpha MOs
 -- Occupied --
-19.4032 -19.3823 -19.3602 -10.5030  -1.2651  -1.1884  -1.1349  -0.7679
 -0.7130  -0.6066  -0.5873  -0.5849  -0.5410  -0.4956  -0.4576  -0.4540
 -0.3901
 -- Virtual --
  0.0289   0.0586   0.0621   0.0696   0.0960   0.0984   0.1150   0.1442
  0.1901   0.2244   0.2272   0.2369   0.2387   0.2591   0.2640   0.2982
  0.3053   0.3091   0.3162   0.3310   0.3684   0.3901   0.4040   0.4608
  0.4737   0.5575   0.5796   0.5942   0.6149   0.6904   0.7068   0.7846
  0.7866   0.8329   0.8336   0.8381   0.9005   0.9497   0.9853   1.0452
  1.0639   1.0769   1.1109   1.1148   1.1264   1.1548   1.1718   1.1881
  1.2081   1.2321   1.4195   1.4410   1.4758   1.5120   1.5702   1.5828
  1.6187   1.6718   1.7414   1.7554   1.8573   1.8685   1.8728   1.9250
  2.0537   2.1252   2.2012   2.2979   2.3203   2.3981   2.4186   2.5379
  2.5873   2.7147   2.7905   2.7957   2.8585   3.0286   3.0845   3.1337
  3.1875   3.2993   3.3952   3.4244   3.4796   3.5834   3.5918   3.6151
  3.6994   3.7169   3.7541   3.8420   3.9307   4.0766   4.1003   4.2084
  4.2115   4.3143   4.4161   4.7663   5.0591   5.0740   5.1037   5.1223
  5.1421   5.1561   5.1701   5.1934   5.2372   5.2386   5.2494   5.2703
  5.3033   5.3442   5.4533   5.4576   5.5744   5.6178   5.6213   5.6287
  5.6485   5.9183   6.0696   6.0814   6.4220   6.7074   6.8619   6.9037
  6.9121   6.9741   7.0132   7.0151   7.0499   7.1251   7.1699   7.2350
  7.2985   7.3140   7.3609   7.4357   7.4910   7.5717   7.6715   7.7541
  7.8121  25.0855  50.4456  50.5359  50.7176
 
 Beta MOs
 -- Occupied --
-19.4019 -19.3626 -19.3574 -10.4988  -1.2607  -1.1832  -1.0846  -0.7595
 -0.6934  -0.5992  -0.5815  -0.5652  -0.5154  -0.4557  -0.4287  -0.4146
 -- Virtual --
 -0.0871   0.0308   0.0590   0.0628   0.0744   0.0983   0.0992   0.1155
  0.1461   0.1931   0.2276   0.2297   0.2371   0.2399   0.2607   0.2662
  0.2981   0.3075   0.3098   0.3177   0.3403   0.3720   0.3943   0.4104
  0.4690   0.4846   0.5621   0.5814   0.5966   0.6211   0.6919   0.7163
  0.7854   0.7890   0.8346   0.8370   0.8417   0.9023   0.9530   0.9904
  1.0485   1.0701   1.0789   1.1147   1.1165   1.1455   1.1638   1.1762
  1.1905   1.2217   1.2365   1.4275   1.4482   1.4800   1.5168   1.5837
  1.5992   1.6302   1.6886   1.7449   1.7700   1.8641   1.8756   1.8831
  1.9509   2.0581   2.1286   2.2059   2.3046   2.3261   2.4039   2.4254
  2.5443   2.5944   2.7224   2.8011   2.8105   2.8586   3.0392   3.0875
  3.1389   3.1979   3.3086   3.4007   3.4296   3.4838   3.5892   3.5965
  3.6228   3.7078   3.7193   3.7546   3.8525   3.9409   4.0798   4.0809
  4.2131   4.2205   4.3182   4.4044   4.7747   5.0943   5.1097   5.1206
  5.1268   5.1660   5.1760   5.1934   5.2400   5.2420   5.2484   5.2626
  5.3215   5.3296   5.3766   5.4565   5.4890   5.5836   5.6335   5.6380
  5.6499   5.6583   5.9351   6.0737   6.0900   6.4265   6.7162   6.8980
  6.9163   6.9666   7.0027   7.0280   7.0342   7.1013   7.1530   7.2029
  7.2400   7.3014   7.3338   7.4077   7.4424   7.5017   7.6513   7.6842
  7.7616   7.8167  25.0892  50.4592  50.5370  50.7199
 --------------------------------------------------------------
 
          Ground-State Mulliken Net Atomic Charges

     Atom                 Charge (a.u.)    Spin (a.u.)
  --------------------------------------------------------
      1 O                    -0.389595       0.090620
      2 C                     0.080757       0.175112
      3 O                    -0.260051       0.037644
      4 H                     0.398272      -0.019610
      5 O                    -0.508886       0.730547
      6 H                     0.336561      -0.010090
      7 H                     0.342940      -0.004224
  --------------------------------------------------------
  Sum of atomic charges =    -0.000000
  Sum of spin   charges =     1.000000

 -----------------------------------------------------------------
                    Cartesian Multipole Moments
 -----------------------------------------------------------------
    Charge (ESU x 10^10)
                -0.0000
    Dipole Moment (Debye)
         X      -2.4784      Y      -5.3692      Z      -1.3456
       Tot       6.0648
    Quadrupole Moments (Debye-Ang)
        XX     -21.1542     XY       7.5916     YY     -17.2022
        XZ      -2.3139     YZ       1.1469     ZZ     -30.5827
    Octopole Moments (Debye-Ang^2)
       XXX      41.3735    XXY       3.5461    XYY      -1.3979
       YYY       4.4670    XXZ     -13.2845    XYZ       3.0727
       YYZ     -14.6787    XZZ      15.0227    YZZ      18.7891
       ZZZ     -60.6409
    Hexadecapole Moments (Debye-Ang^3)
      XXXX    -106.3286   XXXY      -9.7194   XXYY     -39.1211
      XYYY      19.5046   YYYY    -157.6708   XXXZ      -1.7103
      XXYZ      23.3414   XYYZ      -9.6790   YYYZ      47.4531
      XXZZ     -56.6466   XYZZ      -2.3315   YYZZ     -79.3010
      XZZZ       1.9299   YZZZ      92.4424   ZZZZ    -266.4354
 -----------------------------------------------------------------
 Calculating analytic gradient of the SCF energy
 Gradient of CDS energy
            1           2           3           4           5           6
    1  -0.0004350  -0.0011174   0.0019326  -0.0002808   0.0002016  -0.0000719
    2  -0.0010745   0.0003225   0.0014138  -0.0002748   0.0002713  -0.0004517
    3  -0.0001938  -0.0021059   0.0025811  -0.0003057   0.0001785   0.0001338
            7
    1  -0.0002291
    2  -0.0002066
    3  -0.0002880
 Gradient of SCF Energy
            1           2           3           4           5           6
    1   0.0003233   0.0014832   0.0038717  -0.0015275   0.0165942  -0.0149617
    2   0.0015278   0.0110395   0.0276559  -0.0102674   0.0152173  -0.0145265
    3  -0.0001893  -0.0033382  -0.0074794   0.0028524   0.0187495  -0.0166028
            7
    1  -0.0057833
    2  -0.0306466
    3   0.0060079
 Max gradient component =       3.065E-02
 RMS gradient           =       1.321E-02
 Computing fast CPCM-SWIG gradient
 Updating gradient with PCM contributions...
 -- total gradient after adding PCM contribution --
---------------------------------------------------
  Atom         X              Y              Z     
---------------------------------------------------
   1      -0.000008      -0.000011       0.000053
   2       0.000025       0.000003      -0.000005
   3      -0.000035       0.000041       0.000012
   4       0.000029      -0.000014      -0.000019
   5       0.000026      -0.000046      -0.000031
   6       0.000002      -0.000014      -0.000026
   7      -0.000039       0.000041       0.000014
---------------------------------------------------
 Number of fixed atoms: 0
 Gradient time:  CPU 16.73 s  wall 4.54 s
 Geometry Optimization Parameters
   NAtoms,    NIC,     NZ,  NCons,   NDum,   NFix, NCnnct, MaxDiis
        7      31       0       0       0       0       0       0

 Cartesian Hessian Update
 Hessian updated using Powell/Murtagh-Sargent update
  Mixing factors:     0.990621 Powell                      0.009379 Murtagh-Sargent


** GEOMETRY OPTIMIZATION IN DELOCALIZED INTERNAL COORDINATES **
   Searching for a Transition State

   Optimization Cycle:  19

                       Coordinates (Angstroms)
     ATOM                X               Y               Z
      1  O        -0.3000770874    1.0478047473    0.3958902538
      2  C        -0.6602303494   -0.0916273952    0.3633526434
      3  O        -1.3863203171   -0.6138627833   -0.6108435991
      4  H        -0.3910541717   -0.8483748658    1.2117783710
      5  O        -0.1901251656   -1.9415638866    2.1326759097
      6  H        -0.7114637516   -2.6100799517    1.6552814593
      7  H        -1.5635053571   -1.5500098646   -0.4327243381
   Point Group: c1    Number of degrees of freedom:    15


   Energy is   -265.520954379

 Hessian updated using Powell/Murtagh-Sargent update
  Mixing factors:     0.965641 Powell                      0.034359 Murtagh-Sargent

 15 Hessian modes will be used to form the next step
  Hessian Eigenvalues:
    -0.059747    0.000058    0.008129    0.012962    0.017611    0.076249
     0.086935    0.100364    0.140759    0.180704    0.261916    0.345884
     0.440376    0.632762    0.753420
**WARNING** Magnitude of eigenvalue   2 too small.  Replaced by     0.000100

 Transition state search - taking P-RFO step
 Searching for Lamda that Maximizes Along the Lowest mode
 Value Taken    Lamda =   0.00000000
 Searching for Lamda that Minimizes Along All other modes
 Value Taken    Lamda =  -0.00000207
 Calculated Step too Large.  Step scaled by  0.428441
 Step Taken.  Stepsize is  0.060000

                             Maximum     Tolerance    Cnvgd?
         Gradient           0.000035      0.000300     YES
         Displacement       0.038521      0.001200      NO
         Energy change     -0.000000      0.000001     YES


                       Distance Matrix (Angstroms)
             O (  1)   C (  2)   O (  3)   H (  4)   O (  5)   H (  6)
   C (  2)  1.195439
   O (  3)  2.225888  1.322496
   H (  4)  2.066264  1.168310  2.089857
   O (  5)  3.459023  2.602646  3.274229  1.443429
   H (  6)  3.890427  2.830955  3.094453  1.844712  0.972940
   H (  7)  3.005244  1.891170  0.969274  2.138065  2.936114  2.491885

 
 Final energy is   -265.520954379073     


 ******************************
 **  OPTIMIZATION CONVERGED  **
 ******************************

                       Coordinates (Angstroms)
     ATOM                X               Y               Z
      1  O        -0.3000770874    1.0478047473    0.3958902538
      2  C        -0.6602303494   -0.0916273952    0.3633526434
      3  O        -1.3863203171   -0.6138627833   -0.6108435991
      4  H        -0.3910541717   -0.8483748658    1.2117783710
      5  O        -0.1901251656   -1.9415638866    2.1326759097
      6  H        -0.7114637516   -2.6100799517    1.6552814593
      7  H        -1.5635053571   -1.5500098646   -0.4327243381

Z-matrix Print:
$molecule
0 2
C 
H  1 1.168310
O  1 1.195439 2 121.884146
O  1 1.322496 2 113.932481 3 -179.980080 0
H  4 0.969274 1 110.266409 2 0.036990 0
O  2 1.443429 1 170.381614 3 178.040721 0
H  6 0.972940 2 97.628568 1 -0.122895 0
$end

 
 --------------------------------------------------------------
 
                    Orbital Energies (a.u.)
 --------------------------------------------------------------
 
 Alpha MOs
 -- Occupied --
-19.4032 -19.3823 -19.3602 -10.5030  -1.2651  -1.1884  -1.1349  -0.7679
 -0.7130  -0.6066  -0.5873  -0.5849  -0.5410  -0.4956  -0.4576  -0.4540
 -0.3901
 -- Virtual --
  0.0289   0.0586   0.0621   0.0696   0.0960   0.0984   0.1150   0.1442
  0.1901   0.2244   0.2272   0.2369   0.2387   0.2591   0.2640   0.2982
  0.3053   0.3091   0.3162   0.3310   0.3684   0.3901   0.4040   0.4608
  0.4737   0.5575   0.5796   0.5942   0.6149   0.6904   0.7068   0.7846
  0.7866   0.8329   0.8336   0.8381   0.9005   0.9497   0.9853   1.0452
  1.0639   1.0769   1.1109   1.1148   1.1264   1.1548   1.1718   1.1881
  1.2081   1.2321   1.4195   1.4410   1.4758   1.5120   1.5702   1.5828
  1.6187   1.6718   1.7414   1.7554   1.8573   1.8685   1.8728   1.9250
  2.0537   2.1252   2.2012   2.2979   2.3203   2.3981   2.4186   2.5379
  2.5873   2.7147   2.7905   2.7957   2.8585   3.0286   3.0845   3.1337
  3.1875   3.2993   3.3952   3.4244   3.4796   3.5834   3.5918   3.6151
  3.6994   3.7169   3.7541   3.8420   3.9307   4.0766   4.1003   4.2084
  4.2115   4.3143   4.4161   4.7663   5.0591   5.0740   5.1037   5.1223
  5.1421   5.1561   5.1701   5.1934   5.2372   5.2386   5.2494   5.2703
  5.3033   5.3442   5.4533   5.4576   5.5744   5.6178   5.6213   5.6287
  5.6485   5.9183   6.0696   6.0814   6.4220   6.7074   6.8619   6.9037
  6.9121   6.9741   7.0132   7.0151   7.0499   7.1251   7.1699   7.2350
  7.2985   7.3140   7.3609   7.4357   7.4910   7.5717   7.6715   7.7541
  7.8121  25.0855  50.4456  50.5359  50.7176
 
 Beta MOs
 -- Occupied --
-19.4019 -19.3626 -19.3574 -10.4988  -1.2607  -1.1832  -1.0846  -0.7595
 -0.6934  -0.5992  -0.5815  -0.5652  -0.5154  -0.4557  -0.4287  -0.4146
 -- Virtual --
 -0.0871   0.0308   0.0590   0.0628   0.0744   0.0983   0.0992   0.1155
  0.1461   0.1931   0.2276   0.2297   0.2371   0.2399   0.2607   0.2662
  0.2981   0.3075   0.3098   0.3177   0.3403   0.3720   0.3943   0.4104
  0.4690   0.4846   0.5621   0.5814   0.5966   0.6211   0.6919   0.7163
  0.7854   0.7890   0.8346   0.8370   0.8417   0.9023   0.9530   0.9904
  1.0485   1.0701   1.0789   1.1147   1.1165   1.1455   1.1638   1.1762
  1.1905   1.2217   1.2365   1.4275   1.4482   1.4800   1.5168   1.5837
  1.5992   1.6302   1.6886   1.7449   1.7700   1.8641   1.8756   1.8831
  1.9509   2.0581   2.1286   2.2059   2.3046   2.3261   2.4039   2.4254
  2.5443   2.5944   2.7224   2.8011   2.8105   2.8586   3.0392   3.0875
  3.1389   3.1979   3.3086   3.4007   3.4296   3.4838   3.5892   3.5965
  3.6228   3.7078   3.7193   3.7546   3.8525   3.9409   4.0798   4.0809
  4.2131   4.2205   4.3182   4.4044   4.7747   5.0943   5.1097   5.1206
  5.1268   5.1660   5.1760   5.1934   5.2400   5.2420   5.2484   5.2626
  5.3215   5.3296   5.3766   5.4565   5.4890   5.5836   5.6335   5.6380
  5.6499   5.6583   5.9351   6.0737   6.0900   6.4265   6.7162   6.8980
  6.9163   6.9666   7.0027   7.0280   7.0342   7.1013   7.1530   7.2029
  7.2400   7.3014   7.3338   7.4077   7.4424   7.5017   7.6513   7.6842
  7.7616   7.8167  25.0892  50.4592  50.5370  50.7199
 --------------------------------------------------------------
 
          Ground-State Mulliken Net Atomic Charges

     Atom                 Charge (a.u.)    Spin (a.u.)
  --------------------------------------------------------
      1 O                    -0.389595       0.090620
      2 C                     0.080757       0.175112
      3 O                    -0.260051       0.037644
      4 H                     0.398272      -0.019610
      5 O                    -0.508886       0.730547
      6 H                     0.336561      -0.010090
      7 H                     0.342940      -0.004224
  --------------------------------------------------------
  Sum of atomic charges =    -0.000000
  Sum of spin   charges =     1.000000

 -----------------------------------------------------------------
                    Cartesian Multipole Moments
 -----------------------------------------------------------------
    Charge (ESU x 10^10)
                -0.0000
    Dipole Moment (Debye)
         X      -2.4784      Y      -5.3692      Z      -1.3456
       Tot       6.0648
    Quadrupole Moments (Debye-Ang)
        XX     -21.1542     XY       7.5916     YY     -17.2022
        XZ      -2.3139     YZ       1.1469     ZZ     -30.5827
    Octopole Moments (Debye-Ang^2)
       XXX      41.3735    XXY       3.5461    XYY      -1.3979
       YYY       4.4670    XXZ     -13.2845    XYZ       3.0727
       YYZ     -14.6787    XZZ      15.0227    YZZ      18.7891
       ZZZ     -60.6409
    Hexadecapole Moments (Debye-Ang^3)
      XXXX    -106.3286   XXXY      -9.7194   XXYY     -39.1211
      XYYY      19.5046   YYYY    -157.6708   XXXZ      -1.7103
      XXYZ      23.3414   XYYZ      -9.6790   YYYZ      47.4531
      XXZZ     -56.6466   XYZZ      -2.3315   YYZZ     -79.3010
      XZZZ       1.9299   YZZZ      92.4424   ZZZZ    -266.4354
 -----------------------------------------------------------------
 Total job time:  840.46s(wall), 3266.15s(cpu) 
 Tue Aug 15 14:20:55 2023

        *************************************************************
        *                                                           *
        *  Thank you very much for using Q-Chem.  Have a nice day.  *
        *                                                           *
        *************************************************************


