
Running Job 1 of 1 Q_in.in
qchem Q_in.in_21480.0 /scratch/ari.fischer/qChem1630570.hpc-mn1/qchem21480/ 0
/usr/local/qchem-5.4.1/exe/qcprog.exe_s Q_in.in_21480.0 /scratch/ari.fischer/qChem1630570.hpc-mn1/qchem21480/
                  Welcome to Q-Chem
     A Quantum Leap Into The Future Of Chemistry


 Q-Chem 5.4, Q-Chem, Inc., Pleasanton, CA (2021)

 License issued to: Nanyang Technological University (site)

 E. Epifanovsky,  A. T. B. Gilbert,  Xintian Feng,  Joonho Lee,  Yuezhi Mao,  
 N. Mardirossian,  P. Pokhilko,  A. White,  M. Wormit,  M. P. Coons,  
 A. L. Dempwolff,  Zhengting Gan,  D. Hait,  P. R. Horn,  L. D. Jacobson,  
 I. Kaliman,  J. Kussmann,  A. W. Lange,  Ka Un Lao,  D. S. Levine,  Jie Liu,  
 S. C. McKenzie,  A. F. Morrison,  K. Nanda,  F. Plasser,  D. R. Rehn,  
 M. L. Vidal,  Zhi-Qiang You,  Ying Zhu,  B. Alam,  B. Albrecht,  
 A. Aldossary,  E. Alguire,  J. H. Andersen,  D. Barton,  K. Begam,  A. Behn,  
 Y. A. Bernard,  E. J. Berquist,  H. Burton,  A. Carreras,  K. Carter-Fenk,  
 R. Chakraborty,  A. D. Chien,  K. D. Closser,  V. Cofer-Shabica,  
 S. Dasgupta,  Jia Deng,  M. de Wergifosse,  M. Diedenhofen,  Hainam Do,  
 S. Ehlert,  Po-Tung Fang,  S. Fatehi,  Qingguo Feng,  T. Friedhoff,  
 J. Gayvert,  Qinghui Ge,  G. Gidofalvi,  M. Goldey,  J. Gomes,  
 C. Gonzalez-Espinoza,  S. Gulania,  A. Gunina,  M. W. D. Hanson-Heine,  
 P. H. P. Harbach,  A. W. Hauser,  M. F. Herbst,  M. Hernandez Vera,  
 M. Hodecker,  Z. C. Holden,  S. Houck,  Xunkun Huang,  Kerwin Hui,  
 B. C. Huynh,  M. Ivanov,  Hyunjun Ji,  Hanjie Jiang,  B. Kaduk,  S. Kaehler,  
 K. Khistyaev,  Jaehoon Kim,  P. Klunzinger,  Z. Koczor-Benda,  
 Joong Hoon Koh,  D. Kosenkov,  L. Koulias,  T. Kowalczyk,  C. M. Krauter,  
 K. Kue,  A. Kunitsa,  T. Kus,  A. Landau,  K. V. Lawler,  D. Lefrancois,  
 S. Lehtola,  Rain Li,  Yi-Pei Li,  Jiashu Liang,  M. Liebenthal,  
 Hung-Hsuan Lin,  You-Sheng Lin,  Fenglai Liu,  Kuan-Yu Liu,  
 M. Loipersberger,  A. Luenser,  A. Manjanath,  P. Manohar,  E. Mansoor,  
 S. F. Manzer,  Shan-Ping Mao,  A. V. Marenich,  T. Markovich,  S. Mason,  
 S. A. Maurer,  P. F. McLaughlin,  M. F. S. J. Menger,  J.-M. Mewes,  
 S. A. Mewes,  P. Morgante,  J. W. Mullinax,  K. J. Oosterbaan,  G. Paran,  
 Alexander C. Paul,  Suranjan K. Paul,  F. Pavosevic,  Zheng Pei,  S. Prager,  
 E. I. Proynov,  E. Ramos,  B. Rana,  A. E. Rask,  A. Rettig,  R. M. Richard,  
 F. Rob,  E. Rossomme,  T. Scheele,  M. Scheurer,  M. Schneider,  
 N. Sergueev,  S. M. Sharada,  W. Skomorowski,  D. W. Small,  C. J. Stein,  
 Yu-Chuan Su,  E. J. Sundstrom,  Zhen Tao,  J. Thirman,  T. Tsuchimochi,  
 N. M. Tubman,  S. P. Veccham,  O. Vydrov,  J. Wenzel,  J. Witte,  A. Yamada,  
 Kun Yao,  S. Yeganeh,  S. R. Yost,  A. Zech,  Igor Ying Zhang,  Xing Zhang,  
 Yu Zhang,  D. Zuev,  A. Aspuru-Guzik,  A. T. Bell,  N. A. Besley,  
 K. B. Bravaya,  B. R. Brooks,  D. Casanova,  Jeng-Da Chai,  S. Coriani,  
 C. J. Cramer,  A. E. DePrince, III,  R. A. DiStasio Jr.,  A. Dreuw,  
 B. D. Dunietz,  T. R. Furlani,  W. A. Goddard III,  S. Grimme,  
 S. Hammes-Schiffer,  T. Head-Gordon,  W. J. Hehre,  Chao-Ping Hsu,  
 T.-C. Jagau,  Yousung Jung,  A. Klamt,  Jing Kong,  D. S. Lambrecht,  
 WanZhen Liang,  N. J. Mayhall,  C. W. McCurdy,  J. B. Neaton,  
 C. Ochsenfeld,  J. A. Parkhill,  R. Peverati,  V. A. Rassolov,  Yihan Shao,  
 L. V. Slipchenko,  T. Stauch,  R. P. Steele,  J. E. Subotnik,  
 A. J. W. Thom,  A. Tkatchenko,  D. G. Truhlar,  T. Van Voorhis,  
 T. A. Wesolowski,  K. B. Whaley,  H. L. Woodcock III,  P. M. Zimmerman,  
 S. Faraji,  P. M. W. Gill,  M. Head-Gordon,  J. M. Herbert,  A. I. Krylov

 Additional authors for Version 5.4.1: 
 S. Kotaru,  Shaozhi Li,  Xiangyuan Li,  F. Matz,  A. Molle,  Haisheng Ren,  
 Yingli Su,  Hung-Yi Tsai,  C. Utku,  Fang Wang

 Contributors to earlier versions of Q-Chem not listed above: 
 R. D. Adamson,  B. Austin,  R. Baer,  J. Baker,  G. J. O. Beran,  
 K. Brandhorst,  S. T. Brown,  E. F. C. Byrd,  A. K. Chakraborty,  
 G. K. L. Chan,  Chun-Min Chang,  Yunqing Chen,  C.-L. Cheng,  
 Siu Hung Chien,  D. M. Chipman,  D. L. Crittenden,  H. Dachsel,  
 R. J. Doerksen,  A. D. Dutoi,  R. G. Edgar,  J. Fosso-Tande,  
 L. Fusti-Molnar,  D. Ghosh,  A. Ghysels,  A. Golubeva-Zadorozhnaya,  
 J. Gonthier,  M. S. Gordon,  S. R. Gwaltney,  G. Hawkins,  J. E. Herr,  
 A. Heyden,  S. Hirata,  E. G. Hohenstein,  G. Kedziora,  F. J. Keil,  
 C. Kelley,  Jihan Kim,  R. A. King,  R. Z. Khaliullin,  P. P. Korambath,  
 W. Kurlancheek,  A. Laurent,  A. M. Lee,  M. S. Lee,  S. V. Levchenko,  
 Ching Yeh Lin,  D. Liotard,  E. Livshits,  R. C. Lochan,  I. Lotan,  
 L. A. Martinez-Martinez,  P. E. Maslen,  N. Nair,  D. P. O'Neill,  
 D. Neuhauser,  E. Neuscamman,  C. M. Oana,  R. Olivares-Amaya,  R. Olson,  
 T. M. Perrine,  B. Peters,  P. A. Pieniazek,  A. Prociuk,  Y. M. Rhee,  
 J. Ritchie,  M. A. Rohrdanz,  E. Rosta,  N. J. Russ,  H. F. Schaefer III,  
 M. W. Schmidt,  N. E. Schultz,  S. Sharma,  N. Shenvi,  C. D. Sherrill,  
 A. C. Simmonett,  A. Sodt,  T. Stein,  D. Stuck,  K. S. Thanthiriwatte,  
 V. Vanovschi,  L. Vogt,  Tao Wang,  A. Warshel,  M. A. Watson,  
 C. F. Williams,  Q. Wu,  X. Xu,  Jun Yang,  W. Zhang,  Yan Zhao

 Please cite Q-Chem as follows:
 Y. Shao et al., Mol. Phys. 113, 184-215 (2015)
 DOI: 10.1080/00268976.2014.952696

 Q-Chem 5.4.1 for Intel X86 EM64T Linux

 Parts of Q-Chem use Armadillo 9.800.1 (Horizon Scraper).
 http://arma.sourceforge.net/

 Q-Chem begins on Tue Jul 18 16:34:16 2023  

 Host: 
0

     Scratch files written to /scratch/ari.fischer/qChem1630570.hpc-mn1/qchem21480//
 Aug1521 |scratch|qcdevops|jenkins|workspace|build_RNUM 8249   
 Processing $rem in /usr/local/qchem-5.4.1/config/preferences:
 Processing $rem in /home/ari.fischer/.qchemrc:
 Symmetry turned off for PCM/SM12/SMD calculation


!!********************************************.
!!******************Warning*******************.
!!Desired Analytical derivatives not available.
!!Finite difference job might take a long time.
!!********************************************.
!!********************************************.


 2-order derivative to be evaluated numerically with 1-order analytical derivatives

 Checking the input file for inconsistencies... 	...done.

--------------------------------------------------------------
User input:
--------------------------------------------------------------
$molecule
0 1
C         1.2586432774   -0.2081886214   -0.3219697218
O         2.1314019660   -0.8536914097   -1.2300309302
C        -0.1584464849   -0.1527564395   -0.8867854678
O        -0.5784177572   -1.4548387329   -1.2495897420
O        -0.1193646521    0.6398375941   -2.0413330625
O         1.7542994185    1.0757314223   -0.0718764286
H         1.2441616434   -0.7356607663    0.6329671260
H         1.6923874475   -1.6597838994   -1.5324612381
H        -0.8342978727    0.2686384109   -0.1416587864
H        -0.9952153000   -1.8680994955   -0.4847333621
H        -1.0078735372    0.9646823916   -2.2234345061
H         1.5674784511    1.6169345455   -0.8512281803
$end

$rem
BASIS = 6-311++G(2df,2p)
GUI = 2
JOB_TYPE = Frequency
METHOD = wB97M-V
SOLVENT_METHOD = SMD
SCF_ALGORITHM = DIIS_GDM
MAX_SCF_CYCLES = 400
SCF_CONVERGENCE = 7
THRESH = 12
SYMMETRY_IGNORE = 1
$end
--------------------------------------------------------------
 ----------------------------------------------------------------
             Standard Nuclear Orientation (Angstroms)
    I     Atom           X                Y                Z
 ----------------------------------------------------------------
    1      C       1.2586432774    -0.2081886214    -0.3219697218
    2      O       2.1314019660    -0.8536914097    -1.2300309302
    3      C      -0.1584464849    -0.1527564395    -0.8867854678
    4      O      -0.5784177572    -1.4548387329    -1.2495897420
    5      O      -0.1193646521     0.6398375941    -2.0413330625
    6      O       1.7542994185     1.0757314223    -0.0718764286
    7      H       1.2441616434    -0.7356607663     0.6329671260
    8      H       1.6923874475    -1.6597838994    -1.5324612381
    9      H      -0.8342978727     0.2686384109    -0.1416587864
   10      H      -0.9952153000    -1.8680994955    -0.4847333621
   11      H      -1.0078735372     0.9646823916    -2.2234345061
   12      H       1.5674784511     1.6169345455    -0.8512281803
 ----------------------------------------------------------------
 Nuclear Repulsion Energy =         273.54726677 hartrees
 There are       25 alpha and       25 beta electrons
 Requested basis set is 6-311++G(2df,2p)
 There are 84 shells and 264 basis functions

 Total QAlloc Memory Limit 288000 MB
 Mega-Array Size       188 MB
 MEM_STATIC part       192 MB
 
 Citation of the SMD model:
 Marenich, A.V.; Cramer, C.J.; Truhlar, D.G.
 J. Phys. Chem. B 2009, 113, 6378-6396.
 iSolventCode=           1
 Solvent: water                                                           
 
 vradii
            1           2           3           4           5           6
    1   1.8500000   1.5200000   1.8500000   1.5200000   1.5200000   1.5200000
            7           8           9          10          11          12
    1   1.2000000   1.2000000   1.2000000   1.2000000   1.2000000   1.2000000
 Changing PCM_VDW_RADII to SMD_RADIUS
 Discretize the solute cavity surface with Lebedev spheres
	Using 110 Lebedev grid points for each H atom
	Using 194 Lebedev grid points for other atoms
	Atomic van der Waals radii will be scaled by 1.20
 Remove points where switching function is < 1.0e-08
 Keep 948 surface tesserae and discard 876 interior tesserae
 Molecular Surface Area = 107.879 Angst**2

                       Distance Matrix (Angstroms)
             C (  1)   O (  2)   C (  3)   O (  4)   O (  5)   O (  6)
   O (  2)  1.415259
   C (  3)  1.526510  2.419201
   O (  4)  2.406119  2.775767  1.415423
   O (  5)  2.360988  2.820424  1.400969  2.285882
   O (  6)  1.398811  2.281710  2.414924  3.637632  2.753067
   H (  7)  1.091027  2.066855  2.148659  2.717174  3.301981  2.009524
   H (  8)  1.939214  0.966428  2.472573  2.297515  2.971474  3.101642
   H (  9)  2.154131  3.352544  1.090671  2.064790  2.063415  2.712398
   H ( 10)  2.803868  3.370494  1.950443  0.964111  3.078939  4.049250
   H ( 11)  3.182498  3.761434  1.938253  2.643272  0.963397  3.503018
   H ( 12)  1.925245  2.562322  2.472223  3.768203  2.283968  0.967053
             H (  7)   H (  8)   H (  9)   H ( 10)   H ( 11)
   H (  8)  2.396662
   H (  9)  2.434883  3.469479
   H ( 10)  2.747086  2.892116  2.170079
   H ( 11)  4.015204  3.828404  2.201907  3.323837
   H ( 12)  2.800370  3.349114  2.844279  4.341334  2.990121
 
 A cutoff of  1.0D-12 yielded   3432 shell pairs
 There are     34141 function pairs (     42422 Cartesian)
 Smallest overlap matrix eigenvalue = 6.55E-05
 Guess from superposition of atomic densities
 Warning:  Energy on first SCF cycle will be non-variational
 SAD guess density has 50.000000 electrons

 -----------------------------------------------------------------------
  General SCF calculation program by
  Eric Jon Sundstrom, Paul Horn, Yuezhi Mao, Dmitri Zuev, Alec White,
  David Stuck, Shaama M.S., Shane Yost, Joonho Lee, David Small,
  Daniel Levine, Susi Lehtola, Hugh Burton, Evgeny Epifanovsky,
  Bang C. Huynh
 -----------------------------------------------------------------------
 Exchange:     0.1500 Hartree-Fock + 1.0000 wB97M-V + LR-HF
 Correlation:  1.0000 wB97M-V
 Using SG-2 standard quadrature grid
 Nonlocal Correlation:  VV10 with C = 0.0100 and b = 6.00 and scale = 1.00000
 Grid used for NLC:  SG-1 standard quadrature
 using 8 threads for integral computing
 -------------------------------------------------------
 OpenMP Integral computing Module                
 Release: version 1.0, May 2013, Q-Chem Inc. Pittsburgh 
 -------------------------------------------------------
 
 Citation of the SMD model:
 Marenich, A.V.; Cramer, C.J.; Truhlar, D.G.
 J. Phys. Chem. B 2009, 113, 6378-6396.
 iSolventCode=           1
 Solvent: water                                                           
 
 vradii
            1           2           3           4           5           6
    1   1.8500000   1.5200000   1.8500000   1.5200000   1.5200000   1.5200000
            7           8           9          10          11          12
    1   1.2000000   1.2000000   1.2000000   1.2000000   1.2000000   1.2000000
 -------------------------------------------------------
 OpenMP BLAS3 based DFT computing Module                
 Release: version 1.0, May 2013, Q-Chem Inc. Pittsburgh 
 -------------------------------------------------------
 A restricted SCF calculation will be
 performed using DIIS, GDM
 SCF converges when RMS gradient is below 1.0e-07
 ---------------------------------------
  Cycle       Energy         DIIS error
 ---------------------------------------
    1    -381.8145769960      3.09e-02  
    2    -380.6215856631      4.58e-03  Done DIIS. Switching to GDM
 ---------------------------------------
  Cycle       Energy        RMS Gradient
 ---------------------------------------
    1    -380.6215856631      5.91e-02   Descent step
    2    -380.7395875994      2.85e-02   Normal BFGS step
    3    -380.7603221192      2.56e-03   Normal BFGS step
    4    -380.7608557485      8.90e-04   Normal BFGS step
    5    -380.7608870291      3.59e-04   Normal BFGS step
    6    -380.7608946158      1.49e-04   Normal BFGS step
    7    -380.7608957241      3.24e-05   Normal BFGS step
    8    -380.7608957784      1.91e-05   Normal BFGS step
    9    -380.7608957916      5.93e-06   Normal BFGS step
   10    -380.7608957920      2.30e-06   Normal BFGS step
   11    -380.7608957922      3.86e-07   Normal BFGS step
   12    -380.7608957922      1.54e-07   Normal BFGS step
   13    -380.7608957922      4.07e-08  Convergence criterion met
 ---------------------------------------
 SCF time:   CPU 462.34s  wall 69.00s 
(3)  G-ENP(liq) elect-nuc-pol free energy of system     -380.760895792 a.u.
(4)  G-CDS(liq) cavity-dispersion-solvent structure 
     free energy                                                2.9000 kcal/mol
(6)  G-S(liq) free energy of system                     -380.756274338 a.u.
 SCF   energy in the final basis set =     -380.7562743382
 Total energy in the final basis set =     -380.7562743382
 
 --------------------------------------------------------------
 
                    Orbital Energies (a.u.)
 --------------------------------------------------------------
 
 Alpha MOs
 -- Occupied --
-19.3515 -19.3486 -19.3476 -19.3417 -10.4462 -10.4430  -1.2202  -1.1867
 -1.1441  -1.1317  -0.8470  -0.7520  -0.6720  -0.6536  -0.6353  -0.6252
 -0.5644  -0.5240  -0.5007  -0.4794  -0.4594  -0.4522  -0.4315  -0.4088
 -0.3801
 -- Virtual --
  0.0247   0.0421   0.0477   0.0520   0.0711   0.0784   0.1054   0.1077
  0.1242   0.1367   0.1431   0.1512   0.1568   0.1744   0.2209   0.2250
  0.2301   0.2360   0.2499   0.2612   0.2706   0.2732   0.2846   0.2861
  0.3031   0.3154   0.3285   0.3338   0.3433   0.3438   0.3467   0.3565
  0.3687   0.3723   0.3806   0.3929   0.4252   0.4351   0.4453   0.4667
  0.4811   0.5668   0.5912   0.5957   0.6092   0.6165   0.6384   0.6463
  0.6731   0.6818   0.6951   0.7335   0.7375   0.7653   0.7876   0.8064
  0.8408   0.8697   0.8901   0.9312   0.9503   0.9790   0.9969   1.0322
  1.0631   1.0769   1.0801   1.1005   1.1377   1.1473   1.1665   1.1767
  1.1911   1.2108   1.2267   1.2356   1.2630   1.2754   1.2920   1.3096
  1.3365   1.3452   1.3674   1.4134   1.4240   1.4526   1.4618   1.4934
  1.5195   1.5365   1.5464   1.5678   1.5892   1.6107   1.6334   1.7195
  1.7378   1.7634   1.8069   1.8805   1.8976   1.9290   1.9770   1.9894
  2.0429   2.1207   2.1488   2.1665   2.2486   2.2985   2.3290   2.3563
  2.3790   2.3864   2.4349   2.4509   2.4636   2.4895   2.5125   2.6363
  2.7042   2.7433   2.7999   2.8344   2.9126   2.9701   3.0708   3.0903
  3.1698   3.2538   3.2748   3.3236   3.3416   3.3739   3.3982   3.4538
  3.4968   3.5196   3.5794   3.6205   3.6390   3.6453   3.6767   3.7086
  3.7560   3.7995   3.8145   3.8287   3.8454   3.8633   3.8864   3.9201
  3.9376   4.0212   4.0397   4.0993   4.1186   4.1859   4.1979   4.2416
  4.2713   4.3033   4.3106   4.3334   4.3719   4.3825   4.4380   4.4489
  4.5342   4.6181   4.6990   5.1964   5.2013   5.2141   5.2218   5.2595
  5.2736   5.2785   5.2916   5.2970   5.3058   5.3251   5.3545   5.4032
  5.4179   5.4411   5.4582   5.4788   5.5144   5.5549   5.5937   5.6005
  5.6425   5.6612   5.6837   5.6988   5.7424   5.8559   5.8969   5.9557
  5.9935   6.0137   6.0568   6.1157   6.1523   6.5235   6.5620   6.7276
  6.7567   7.0551   7.0702   7.1249   7.1329   7.2139   7.2459   7.2697
  7.2870   7.3117   7.3347   7.3380   7.3586   7.3897   7.4144   7.4623
  7.4969   7.6145   7.7009   7.7227   7.7420   7.7680   7.8087   7.8689
  7.9030  24.7322  24.8543  50.5739  50.5933  50.6036  50.6697
 --------------------------------------------------------------
 
          Ground-State Mulliken Net Atomic Charges

     Atom                 Charge (a.u.)
  ----------------------------------------
      1 C                    -0.082904
      2 O                    -0.455794
      3 C                     0.023953
      4 O                    -0.462571
      5 O                    -0.440834
      6 O                    -0.415251
      7 H                     0.245714
      8 H                     0.323434
      9 H                     0.253550
     10 H                     0.333987
     11 H                     0.353067
     12 H                     0.323648
  ----------------------------------------
  Sum of atomic charges =     0.000000

 -----------------------------------------------------------------
                    Cartesian Multipole Moments
 -----------------------------------------------------------------
    Charge (ESU x 10^10)
                 0.0000
    Dipole Moment (Debye)
         X      -5.6071      Y      -0.7925      Z       1.8268
       Tot       5.9501
    Quadrupole Moments (Debye-Ang)
        XX     -44.0546     XY      -2.1847     YY     -31.0171
        XZ       3.4401     YZ      -5.5714     ZZ     -41.4924
    Octopole Moments (Debye-Ang^2)
       XXX    -111.7647    XXY       6.3630    XYY     -25.1463
       YYY      12.6097    XXZ      37.2436    XYZ       3.6459
       YYZ      28.8297    XZZ     -33.1591    YZZ      12.8784
       ZZZ     115.7319
    Hexadecapole Moments (Debye-Ang^3)
      XXXX    -479.6075   XXXY      -5.3570   XXYY     -90.7815
      XYYY      -7.1697   YYYY    -186.1789   XXXZ      63.0082
      XXYZ     -24.0471   XYYZ      -2.0258   YYYZ     -35.2128
      XXZZ    -122.6867   XYZZ     -20.7380   YYZZ     -86.6274
      XZZZ      56.0018   YZZZ     -41.4340   ZZZZ    -364.9091
 -----------------------------------------------------------------
 Calculating analytic gradient of the SCF energy
 Gradient of CDS energy
            1           2           3           4           5           6
    1   0.0023703  -0.0004798  -0.0004538   0.0003404   0.0000595  -0.0015914
    2   0.0037074   0.0005489   0.0014976   0.0006573  -0.0021298  -0.0042736
    3   0.0009837   0.0002939  -0.0026417   0.0000205   0.0026274  -0.0008796
            7           8           9          10          11          12
    1  -0.0000298   0.0001828  -0.0000302  -0.0002817  -0.0002377   0.0001515
    2  -0.0000116  -0.0003880   0.0000505  -0.0004281   0.0003207   0.0004488
    3   0.0001146  -0.0002713   0.0000962   0.0001062  -0.0003231  -0.0001270
 Gradient of SCF Energy
            1           2           3           4           5           6
    1  -0.0029898   0.0067266   0.0095723   0.0083254   0.0170570   0.0055832
    2   0.0041318   0.0070030  -0.0047774   0.0085476  -0.0089638  -0.0019957
    3  -0.0061891  -0.0012829  -0.0087184  -0.0199988  -0.0008596   0.0050063
            7           8           9          10          11          12
    1  -0.0032586  -0.0034731  -0.0103194  -0.0082129  -0.0159255  -0.0030852
    2  -0.0043504  -0.0055982   0.0041917  -0.0074917   0.0064471   0.0028561
    3   0.0049819   0.0013253   0.0092203   0.0178837   0.0004434  -0.0018120
 Max gradient component =       2.000E-02
 RMS gradient           =       8.154E-03
 Computing fast CPCM-SWIG gradient
 Updating gradient with PCM contributions...
 -- total gradient after adding PCM contribution --
---------------------------------------------------
  Atom         X              Y              Z     
---------------------------------------------------
   1      -0.000048       0.000045      -0.000037
   2       0.000010       0.000010       0.000018
   3       0.000074      -0.000053      -0.000055
   4       0.000017       0.000034      -0.000017
   5       0.000003      -0.000033       0.000019
   6       0.000045      -0.000024      -0.000012
   7      -0.000025      -0.000025       0.000028
   8       0.000016       0.000016       0.000004
   9      -0.000013       0.000021       0.000038
  10       0.000003      -0.000015       0.000015
  11      -0.000034       0.000008      -0.000009
  12      -0.000049       0.000016       0.000007
---------------------------------------------------
 Number of fixed atoms: 0
 Gradient time:  CPU 88.89 s  wall 14.52 s
 ######################################################
 ######################################################
 # Starting finite difference calculation for IDERIV  #
 Finite diff step size:  1.88973e-03 a.u.
 ----------------------------------------------------------------
             Standard Nuclear Orientation (Angstroms)
    I     Atom           X                Y                Z
 ----------------------------------------------------------------
    1      C       1.2596432774    -0.2081886214    -0.3219697218
    2      O       2.1314019660    -0.8536914097    -1.2300309302
    3      C      -0.1584464849    -0.1527564395    -0.8867854678
    4      O      -0.5784177572    -1.4548387329    -1.2495897420
    5      O      -0.1193646521     0.6398375941    -2.0413330625
    6      O       1.7542994185     1.0757314223    -0.0718764286
    7      H       1.2441616434    -0.7356607663     0.6329671260
    8      H       1.6923874475    -1.6597838994    -1.5324612381
    9      H      -0.8342978727     0.2686384109    -0.1416587864
   10      H      -0.9952153000    -1.8680994955    -0.4847333621
   11      H      -1.0078735372     0.9646823916    -2.2234345061
   12      H       1.5674784511     1.6169345455    -0.8512281803
 ----------------------------------------------------------------
 Nuclear Repulsion Energy =         273.54516800 hartrees
 There are       25 alpha and       25 beta electrons
 Discretize the solute cavity surface with Lebedev spheres
	Using 110 Lebedev grid points for each H atom
	Using 194 Lebedev grid points for other atoms
	Atomic van der Waals radii will be scaled by 1.20
 Remove points where switching function is < 1.0e-08
 Keep 948 surface tesserae and discard 876 interior tesserae
 Molecular Surface Area = 107.879 Angst**2

                       Distance Matrix (Angstroms)
             C (  1)   O (  2)   C (  3)   O (  4)   O (  5)   O (  6)
   O (  2)  1.414642
   C (  3)  1.527438  2.419201
   O (  4)  2.406883  2.775767  1.415423
   O (  5)  2.361572  2.820424  1.400969  2.285882
   O (  6)  1.398457  2.281710  2.414924  3.637632  2.753067
   H (  7)  1.091041  2.066855  2.148659  2.717174  3.301981  2.009524
   H (  8)  1.938991  0.966428  2.472573  2.297515  2.971474  3.101642
   H (  9)  2.155102  3.352544  1.090671  2.064790  2.063415  2.712398
   H ( 10)  2.804672  3.370494  1.950443  0.964111  3.078939  4.049250
   H ( 11)  3.183210  3.761434  1.938253  2.643272  0.963397  3.503018
   H ( 12)  1.925085  2.562322  2.472223  3.768203  2.283968  0.967053
             H (  7)   H (  8)   H (  9)   H ( 10)   H ( 11)
   H (  8)  2.396662
   H (  9)  2.434883  3.469479
   H ( 10)  2.747086  2.892116  2.170079
   H ( 11)  4.015204  3.828404  2.201907  3.323837
   H ( 12)  2.800370  3.349114  2.844279  4.341334  2.990121
 
 Requested basis set is 6-311++G(2df,2p)
 There are 84 shells and 264 basis functions
 A cutoff of  1.0D-12 yielded   3432 shell pairs
 There are     34141 function pairs (     42422 Cartesian)
 Smallest overlap matrix eigenvalue = 6.56E-05
 Guess MOs from SCF MO coefficient file

 -----------------------------------------------------------------------
  General SCF calculation program by
  Eric Jon Sundstrom, Paul Horn, Yuezhi Mao, Dmitri Zuev, Alec White,
  David Stuck, Shaama M.S., Shane Yost, Joonho Lee, David Small,
  Daniel Levine, Susi Lehtola, Hugh Burton, Evgeny Epifanovsky,
  Bang C. Huynh
 -----------------------------------------------------------------------
 Exchange:     0.1500 Hartree-Fock + 1.0000 wB97M-V + LR-HF
 Correlation:  1.0000 wB97M-V
 Using SG-2 standard quadrature grid
 Nonlocal Correlation:  VV10 with C = 0.0100 and b = 6.00 and scale = 1.00000
 Grid used for NLC:  SG-1 standard quadrature
 
 Citation of the SMD model:
 Marenich, A.V.; Cramer, C.J.; Truhlar, D.G.
 J. Phys. Chem. B 2009, 113, 6378-6396.
 iSolventCode=           1
 Solvent: water                                                           
 
 vradii
            1           2           3           4           5           6
    1   1.8500000   1.5200000   1.8500000   1.5200000   1.5200000   1.5200000
            7           8           9          10          11          12
    1   1.2000000   1.2000000   1.2000000   1.2000000   1.2000000   1.2000000
 -------------------------------------------------------
 OpenMP BLAS3 based DFT computing Module                
 Release: version 1.0, May 2013, Q-Chem Inc. Pittsburgh 
 -------------------------------------------------------
 A restricted SCF calculation will be
 performed using Roothaan-Hall, DIIS, GDM
 SCF converges when RMS gradient is below 1.0e-07
 ---------------------------------------
  Cycle       Energy         DIIS error
 ---------------------------------------
    1    -380.7172489264      7.47e-04  Roothaan Step
 ---------------------------------------
  Cycle       Energy         DIIS error
 ---------------------------------------
    1    -380.7522345589      8.26e-04  
    2    -380.7584426484      6.36e-04  Done DIIS. Switching to GDM
 ---------------------------------------
  Cycle       Energy        RMS Gradient
 ---------------------------------------
    1    -380.7584426484      6.09e-03   Normal BFGS step
    2    -380.7586328287      8.63e-03   Normal BFGS step
    3    -380.7608766771      5.36e-04   Normal BFGS step
    4    -380.7608956718      2.13e-04   Normal BFGS step
    5    -380.7608991456      8.94e-05   Normal BFGS step
    6    -380.7608994146      3.33e-05   Normal BFGS step
    7    -380.7608994632      1.35e-05   Normal BFGS step
    8    -380.7608994722      3.09e-06   Normal BFGS step
    9    -380.7608994726      1.26e-06   Normal BFGS step
   10    -380.7608994726      3.64e-07   Normal BFGS step
   11    -380.7608994726      9.86e-08  Convergence criterion met
 ---------------------------------------
 SCF time:   CPU 450.45s  wall 67.00s 
(3)  G-ENP(liq) elect-nuc-pol free energy of system     -380.760899473 a.u.
(4)  G-CDS(liq) cavity-dispersion-solvent structure 
     free energy                                                2.9029 kcal/mol
(6)  G-S(liq) free energy of system                     -380.756273455 a.u.
 SCF   energy in the final basis set =     -380.7562734545
 Total energy in the final basis set =     -380.7562734545
 
 --------------------------------------------------------------
 
                    Orbital Energies (a.u.)
 --------------------------------------------------------------
 
 Alpha MOs
 -- Occupied --
-19.3515 -19.3486 -19.3476 -19.3418 -10.4461 -10.4430  -1.2203  -1.1868
 -1.1441  -1.1318  -0.8468  -0.7520  -0.6720  -0.6535  -0.6353  -0.6253
 -0.5644  -0.5240  -0.5007  -0.4793  -0.4594  -0.4523  -0.4315  -0.4088
 -0.3799
 -- Virtual --
  0.0247   0.0421   0.0477   0.0520   0.0711   0.0784   0.1054   0.1077
  0.1241   0.1367   0.1431   0.1512   0.1568   0.1744   0.2210   0.2250
  0.2302   0.2360   0.2499   0.2612   0.2706   0.2732   0.2847   0.2862
  0.3031   0.3155   0.3285   0.3337   0.3433   0.3438   0.3467   0.3564
  0.3687   0.3723   0.3805   0.3929   0.4253   0.4351   0.4453   0.4667
  0.4810   0.5668   0.5911   0.5957   0.6091   0.6166   0.6385   0.6462
  0.6731   0.6818   0.6951   0.7335   0.7376   0.7654   0.7876   0.8064
  0.8407   0.8697   0.8899   0.9312   0.9503   0.9791   0.9969   1.0322
  1.0632   1.0770   1.0802   1.1005   1.1377   1.1473   1.1665   1.1766
  1.1911   1.2109   1.2267   1.2355   1.2631   1.2754   1.2919   1.3096
  1.3365   1.3452   1.3672   1.4134   1.4239   1.4524   1.4617   1.4935
  1.5195   1.5365   1.5464   1.5678   1.5892   1.6107   1.6333   1.7194
  1.7377   1.7633   1.8070   1.8805   1.8976   1.9290   1.9770   1.9896
  2.0430   2.1207   2.1488   2.1667   2.2487   2.2985   2.3294   2.3562
  2.3790   2.3865   2.4349   2.4510   2.4636   2.4895   2.5126   2.6364
  2.7042   2.7431   2.7999   2.8343   2.9128   2.9699   3.0706   3.0902
  3.1700   3.2540   3.2748   3.3237   3.3416   3.3742   3.3981   3.4539
  3.4967   3.5197   3.5793   3.6205   3.6390   3.6453   3.6766   3.7085
  3.7560   3.7996   3.8146   3.8289   3.8454   3.8634   3.8864   3.9202
  3.9377   4.0211   4.0392   4.0992   4.1177   4.1859   4.1977   4.2412
  4.2714   4.3032   4.3101   4.3333   4.3717   4.3828   4.4377   4.4488
  4.5338   4.6177   4.6986   5.1964   5.2013   5.2142   5.2218   5.2595
  5.2735   5.2785   5.2916   5.2970   5.3057   5.3251   5.3545   5.4032
  5.4180   5.4412   5.4582   5.4788   5.5144   5.5546   5.5936   5.6005
  5.6424   5.6612   5.6837   5.6989   5.7424   5.8560   5.8977   5.9560
  5.9936   6.0147   6.0572   6.1164   6.1528   6.5234   6.5628   6.7280
  6.7575   7.0551   7.0702   7.1250   7.1330   7.2140   7.2459   7.2697
  7.2870   7.3117   7.3347   7.3380   7.3587   7.3897   7.4145   7.4624
  7.4968   7.6148   7.7008   7.7228   7.7419   7.7679   7.8091   7.8691
  7.9030  24.7330  24.8536  50.5740  50.5934  50.6037  50.6698
 --------------------------------------------------------------
 
          Ground-State Mulliken Net Atomic Charges

     Atom                 Charge (a.u.)
  ----------------------------------------
      1 C                    -0.082962
      2 O                    -0.455563
      3 C                     0.023769
      4 O                    -0.462620
      5 O                    -0.440849
      6 O                    -0.415140
      7 H                     0.245618
      8 H                     0.323526
      9 H                     0.253530
     10 H                     0.333976
     11 H                     0.353053
     12 H                     0.323661
  ----------------------------------------
  Sum of atomic charges =     0.000000

 -----------------------------------------------------------------
                    Cartesian Multipole Moments
 -----------------------------------------------------------------
    Charge (ESU x 10^10)
                 0.0000
    Dipole Moment (Debye)
         X      -5.6025      Y      -0.7928      Z       1.8256
       Tot       5.9455
    Quadrupole Moments (Debye-Ang)
        XX     -44.0459     XY      -2.1867     YY     -31.0160
        XZ       3.4345     YZ      -5.5692     ZZ     -41.4926
    Octopole Moments (Debye-Ang^2)
       XXX    -111.7552    XXY       6.3582    XYY     -25.1454
       YYY      12.6096    XXZ      37.2349    XYZ       3.6502
       YYZ      28.8281    XZZ     -33.1570    YZZ      12.8758
       ZZZ     115.7314
    Hexadecapole Moments (Debye-Ang^3)
      XXXX    -479.6337   XXXY      -5.3685   XXYY     -90.7891
      XYYY      -7.1769   YYYY    -186.1711   XXXZ      62.9915
      XXYZ     -24.0406   XYYZ      -2.0336   YYYZ     -35.2066
      XXZZ    -122.6914   XYZZ     -20.7416   YYZZ     -86.6263
      XZZZ      55.9874   YZZZ     -41.4238   ZZZZ    -364.9155
 -----------------------------------------------------------------
 Calculating analytic gradient of the SCF energy
 Gradient of CDS energy
            1           2           3           4           5           6
    1   0.0024610  -0.0005490  -0.0004544   0.0003405   0.0000594  -0.0016098
    2   0.0037099   0.0006007   0.0014977   0.0006572  -0.0021299  -0.0043286
    3   0.0009238   0.0003643  -0.0026417   0.0000206   0.0026274  -0.0008902
            7           8           9          10          11          12
    1  -0.0000321   0.0001827  -0.0000301  -0.0002817  -0.0002377   0.0001513
    2  -0.0000104  -0.0003879   0.0000504  -0.0004281   0.0003207   0.0004483
    3   0.0001147  -0.0002713   0.0000965   0.0001062  -0.0003231  -0.0001272
 Gradient of SCF Energy
            1           2           3           4           5           6
    1  -0.0019486   0.0063733   0.0092212   0.0083092   0.0170489   0.0053691
    2   0.0041876   0.0071365  -0.0047378   0.0085347  -0.0089572  -0.0022041
    3  -0.0062196  -0.0010570  -0.0088054  -0.0199927  -0.0008682   0.0049735
            7           8           9          10          11          12
    1  -0.0033733  -0.0034495  -0.0103395  -0.0082130  -0.0159182  -0.0030796
    2  -0.0043460  -0.0056199   0.0041903  -0.0074913   0.0064422   0.0028650
    3   0.0049561   0.0013010   0.0091993   0.0178775   0.0004475  -0.0018121
 Max gradient component =       1.999E-02
 RMS gradient           =       8.127E-03
 Computing fast CPCM-SWIG gradient
 Updating gradient with PCM contributions...
 -- total gradient after adding PCM contribution --
---------------------------------------------------
  Atom         X              Y              Z     
---------------------------------------------------
   1       0.000984       0.000106      -0.000062
   2      -0.000344       0.000132       0.000234
   3      -0.000271      -0.000021      -0.000157
   4       0.000008       0.000023      -0.000017
   5       0.000004      -0.000029       0.000012
   6      -0.000166      -0.000223      -0.000050
   7      -0.000135      -0.000023       0.000010
   8       0.000038       0.000000      -0.000018
   9      -0.000037       0.000024       0.000027
  10      -0.000001      -0.000018       0.000015
  11      -0.000034       0.000006      -0.000006
  12      -0.000046       0.000023       0.000011
---------------------------------------------------
 Number of fixed atoms: 0
 Gradient time:  CPU 86.70 s  wall 14.22 s
 ----------------------------------------------------------------
             Standard Nuclear Orientation (Angstroms)
    I     Atom           X                Y                Z
 ----------------------------------------------------------------
    1      C       1.2576432774    -0.2081886214    -0.3219697218
    2      O       2.1314019660    -0.8536914097    -1.2300309302
    3      C      -0.1584464849    -0.1527564395    -0.8867854678
    4      O      -0.5784177572    -1.4548387329    -1.2495897420
    5      O      -0.1193646521     0.6398375941    -2.0413330625
    6      O       1.7542994185     1.0757314223    -0.0718764286
    7      H       1.2441616434    -0.7356607663     0.6329671260
    8      H       1.6923874475    -1.6597838994    -1.5324612381
    9      H      -0.8342978727     0.2686384109    -0.1416587864
   10      H      -0.9952153000    -1.8680994955    -0.4847333621
   11      H      -1.0078735372     0.9646823916    -2.2234345061
   12      H       1.5674784511     1.6169345455    -0.8512281803
 ----------------------------------------------------------------
 Nuclear Repulsion Energy =         273.54936847 hartrees
 There are       25 alpha and       25 beta electrons
 Discretize the solute cavity surface with Lebedev spheres
	Using 110 Lebedev grid points for each H atom
	Using 194 Lebedev grid points for other atoms
	Atomic van der Waals radii will be scaled by 1.20
 Remove points where switching function is < 1.0e-08
 Keep 948 surface tesserae and discard 876 interior tesserae
 Molecular Surface Area = 107.880 Angst**2

                       Distance Matrix (Angstroms)
             C (  1)   O (  2)   C (  3)   O (  4)   O (  5)   O (  6)
   O (  2)  1.415875
   C (  3)  1.525582  2.419201
   O (  4)  2.405356  2.775767  1.415423
   O (  5)  2.360405  2.820424  1.400969  2.285882
   O (  6)  1.399166  2.281710  2.414924  3.637632  2.753067
   H (  7)  1.091015  2.066855  2.148659  2.717174  3.301981  2.009524
   H (  8)  1.939438  0.966428  2.472573  2.297515  2.971474  3.101642
   H (  9)  2.153159  3.352544  1.090671  2.064790  2.063415  2.712398
   H ( 10)  2.803064  3.370494  1.950443  0.964111  3.078939  4.049250
   H ( 11)  3.181786  3.761434  1.938253  2.643272  0.963397  3.503018
   H ( 12)  1.925406  2.562322  2.472223  3.768203  2.283968  0.967053
             H (  7)   H (  8)   H (  9)   H ( 10)   H ( 11)
   H (  8)  2.396662
   H (  9)  2.434883  3.469479
   H ( 10)  2.747086  2.892116  2.170079
   H ( 11)  4.015204  3.828404  2.201907  3.323837
   H ( 12)  2.800370  3.349114  2.844279  4.341334  2.990121
 
 Requested basis set is 6-311++G(2df,2p)
 There are 84 shells and 264 basis functions
 A cutoff of  1.0D-12 yielded   3432 shell pairs
 There are     34141 function pairs (     42422 Cartesian)
 Smallest overlap matrix eigenvalue = 6.53E-05
 Guess MOs from SCF MO coefficient file

 -----------------------------------------------------------------------
  General SCF calculation program by
  Eric Jon Sundstrom, Paul Horn, Yuezhi Mao, Dmitri Zuev, Alec White,
  David Stuck, Shaama M.S., Shane Yost, Joonho Lee, David Small,
  Daniel Levine, Susi Lehtola, Hugh Burton, Evgeny Epifanovsky,
  Bang C. Huynh
 -----------------------------------------------------------------------
 Exchange:     0.1500 Hartree-Fock + 1.0000 wB97M-V + LR-HF
 Correlation:  1.0000 wB97M-V
 Using SG-2 standard quadrature grid
 Nonlocal Correlation:  VV10 with C = 0.0100 and b = 6.00 and scale = 1.00000
 Grid used for NLC:  SG-1 standard quadrature
 
 Citation of the SMD model:
 Marenich, A.V.; Cramer, C.J.; Truhlar, D.G.
 J. Phys. Chem. B 2009, 113, 6378-6396.
 iSolventCode=           1
 Solvent: water                                                           
 
 vradii
            1           2           3           4           5           6
    1   1.8500000   1.5200000   1.8500000   1.5200000   1.5200000   1.5200000
            7           8           9          10          11          12
    1   1.2000000   1.2000000   1.2000000   1.2000000   1.2000000   1.2000000
 -------------------------------------------------------
 OpenMP BLAS3 based DFT computing Module                
 Release: version 1.0, May 2013, Q-Chem Inc. Pittsburgh 
 -------------------------------------------------------
 A restricted SCF calculation will be
 performed using Roothaan-Hall, DIIS, GDM
 SCF converges when RMS gradient is below 1.0e-07
 ---------------------------------------
  Cycle       Energy         DIIS error
 ---------------------------------------
    1    -380.7172179205      7.46e-04  Roothaan Step
 ---------------------------------------
  Cycle       Energy         DIIS error
 ---------------------------------------
    1    -380.7521946027      8.28e-04  
    2    -380.7584048627      6.40e-04  Done DIIS. Switching to GDM
 ---------------------------------------
  Cycle       Energy        RMS Gradient
 ---------------------------------------
    1    -380.7584048627      6.17e-03   Normal BFGS step
    2    -380.7585889048      8.62e-03   Normal BFGS step
    3    -380.7608674633      5.35e-04   Normal BFGS step
    4    -380.7608865190      2.14e-04   Normal BFGS step
    5    -380.7608900000      9.04e-05   Normal BFGS step
    6    -380.7608902731      3.34e-05   Normal BFGS step
    7    -380.7608903222      1.35e-05   Normal BFGS step
    8    -380.7608903313      3.09e-06   Normal BFGS step
    9    -380.7608903317      1.26e-06   Normal BFGS step
   10    -380.7608903317      3.63e-07   Normal BFGS step
   11    -380.7608903317      9.90e-08  Convergence criterion met
 ---------------------------------------
 SCF time:   CPU 457.65s  wall 68.00s 
(3)  G-ENP(liq) elect-nuc-pol free energy of system     -380.760890332 a.u.
(4)  G-CDS(liq) cavity-dispersion-solvent structure 
     free energy                                                2.8972 kcal/mol
(6)  G-S(liq) free energy of system                     -380.756273276 a.u.
 SCF   energy in the final basis set =     -380.7562732758
 Total energy in the final basis set =     -380.7562732758
 
 --------------------------------------------------------------
 
                    Orbital Energies (a.u.)
 --------------------------------------------------------------
 
 Alpha MOs
 -- Occupied --
-19.3515 -19.3486 -19.3477 -19.3417 -10.4462 -10.4431  -1.2202  -1.1866
 -1.1441  -1.1316  -0.8472  -0.7520  -0.6720  -0.6536  -0.6353  -0.6252
 -0.5643  -0.5240  -0.5007  -0.4794  -0.4594  -0.4522  -0.4315  -0.4088
 -0.3803
 -- Virtual --
  0.0246   0.0421   0.0477   0.0520   0.0711   0.0784   0.1054   0.1077
  0.1242   0.1367   0.1431   0.1512   0.1568   0.1744   0.2208   0.2250
  0.2300   0.2360   0.2499   0.2612   0.2706   0.2732   0.2845   0.2860
  0.3031   0.3154   0.3285   0.3338   0.3433   0.3439   0.3467   0.3565
  0.3686   0.3723   0.3807   0.3929   0.4251   0.4351   0.4453   0.4667
  0.4811   0.5667   0.5913   0.5957   0.6093   0.6165   0.6384   0.6464
  0.6730   0.6818   0.6951   0.7335   0.7375   0.7652   0.7876   0.8064
  0.8408   0.8698   0.8902   0.9312   0.9503   0.9790   0.9970   1.0322
  1.0630   1.0769   1.0801   1.1006   1.1377   1.1473   1.1666   1.1768
  1.1911   1.2108   1.2267   1.2356   1.2630   1.2754   1.2920   1.3097
  1.3365   1.3453   1.3675   1.4134   1.4241   1.4527   1.4619   1.4934
  1.5195   1.5365   1.5464   1.5679   1.5893   1.6106   1.6334   1.7195
  1.7379   1.7635   1.8069   1.8805   1.8976   1.9291   1.9770   1.9893
  2.0428   2.1206   2.1489   2.1664   2.2485   2.2985   2.3286   2.3564
  2.3789   2.3862   2.4349   2.4509   2.4637   2.4895   2.5125   2.6362
  2.7042   2.7435   2.7999   2.8344   2.9125   2.9703   3.0709   3.0905
  3.1696   3.2535   3.2748   3.3234   3.3415   3.3736   3.3984   3.4537
  3.4970   3.5195   3.5795   3.6205   3.6390   3.6453   3.6767   3.7087
  3.7560   3.7995   3.8144   3.8285   3.8454   3.8632   3.8863   3.9200
  3.9376   4.0213   4.0402   4.0994   4.1196   4.1859   4.1980   4.2419
  4.2711   4.3034   4.3110   4.3336   4.3722   4.3823   4.4382   4.4491
  4.5346   4.6184   4.6994   5.1963   5.2013   5.2141   5.2218   5.2595
  5.2737   5.2786   5.2915   5.2970   5.3060   5.3251   5.3546   5.4033
  5.4178   5.4410   5.4583   5.4787   5.5144   5.5552   5.5937   5.6005
  5.6426   5.6611   5.6836   5.6987   5.7425   5.8559   5.8961   5.9554
  5.9935   6.0127   6.0564   6.1150   6.1519   6.5236   6.5612   6.7271
  6.7559   7.0552   7.0702   7.1248   7.1329   7.2139   7.2459   7.2697
  7.2870   7.3117   7.3346   7.3379   7.3585   7.3898   7.4142   7.4622
  7.4970   7.6142   7.7010   7.7226   7.7420   7.7680   7.8083   7.8688
  7.9031  24.7313  24.8550  50.5739  50.5932  50.6035  50.6695
 --------------------------------------------------------------
 
          Ground-State Mulliken Net Atomic Charges

     Atom                 Charge (a.u.)
  ----------------------------------------
      1 C                    -0.082846
      2 O                    -0.456024
      3 C                     0.024137
      4 O                    -0.462523
      5 O                    -0.440819
      6 O                    -0.415363
      7 H                     0.245811
      8 H                     0.323342
      9 H                     0.253570
     10 H                     0.333998
     11 H                     0.353082
     12 H                     0.323635
  ----------------------------------------
  Sum of atomic charges =     0.000000

 -----------------------------------------------------------------
                    Cartesian Multipole Moments
 -----------------------------------------------------------------
    Charge (ESU x 10^10)
                -0.0000
    Dipole Moment (Debye)
         X      -5.6116      Y      -0.7922      Z       1.8280
       Tot       5.9547
    Quadrupole Moments (Debye-Ang)
        XX     -44.0633     XY      -2.1826     YY     -31.0182
        XZ       3.4456     YZ      -5.5736     ZZ     -41.4922
    Octopole Moments (Debye-Ang^2)
       XXX    -111.7741    XXY       6.3677    XYY     -25.1473
       YYY      12.6099    XXZ      37.2524    XYZ       3.6416
       YYZ      28.8312    XZZ     -33.1613    YZZ      12.8810
       ZZZ     115.7325
    Hexadecapole Moments (Debye-Ang^3)
      XXXX    -479.5812   XXXY      -5.3456   XXYY     -90.7739
      XYYY      -7.1626   YYYY    -186.1868   XXXZ      63.0250
      XXYZ     -24.0536   XYYZ      -2.0180   YYYZ     -35.2189
      XXZZ    -122.6821   XYZZ     -20.7343   YYZZ     -86.6284
      XZZZ      56.0161   YZZZ     -41.4443   ZZZZ    -364.9026
 -----------------------------------------------------------------
 Calculating analytic gradient of the SCF energy
 Gradient of CDS energy
            1           2           3           4           5           6
    1   0.0022853  -0.0004169  -0.0004532   0.0003403   0.0000595  -0.0015722
    2   0.0036984   0.0005020   0.0014976   0.0006573  -0.0021298  -0.0042170
    3   0.0010366   0.0002302  -0.0026416   0.0000205   0.0026275  -0.0008686
            7           8           9          10          11          12
    1  -0.0000275   0.0001829  -0.0000304  -0.0002817  -0.0002378   0.0001518
    2  -0.0000128  -0.0003880   0.0000507  -0.0004281   0.0003207   0.0004492
    3   0.0001146  -0.0002713   0.0000959   0.0001063  -0.0003230  -0.0001269
 Gradient of SCF Energy
            1           2           3           4           5           6
    1  -0.0040271   0.0070730   0.0099254   0.0083417   0.0170650   0.0057979
    2   0.0040697   0.0068747  -0.0048170   0.0085605  -0.0089705  -0.0017859
    3  -0.0061678  -0.0015013  -0.0086305  -0.0200049  -0.0008511   0.0050393
            7           8           9          10          11          12
    1  -0.0031437  -0.0034968  -0.0102991  -0.0082128  -0.0159327  -0.0030908
    2  -0.0043550  -0.0055765   0.0041930  -0.0074921   0.0064519   0.0028472
    3   0.0050080   0.0013496   0.0092413   0.0178899   0.0004393  -0.0018118
 Max gradient component =       2.000E-02
 RMS gradient           =       8.186E-03
 Computing fast CPCM-SWIG gradient
 Updating gradient with PCM contributions...
 -- total gradient after adding PCM contribution --
---------------------------------------------------
  Atom         X              Y              Z     
---------------------------------------------------
   1      -0.001076      -0.000022      -0.000021
   2       0.000357      -0.000107      -0.000192
   3       0.000421      -0.000085       0.000048
   4       0.000027       0.000045      -0.000016
   5       0.000002      -0.000037       0.000026
   6       0.000256       0.000177       0.000027
   7       0.000085      -0.000027       0.000047
   8      -0.000006       0.000032       0.000026
   9       0.000012       0.000018       0.000050
  10       0.000007      -0.000013       0.000014
  11      -0.000033       0.000010      -0.000012
  12      -0.000052       0.000008       0.000002
---------------------------------------------------
 Number of fixed atoms: 0
 Gradient time:  CPU 88.61 s  wall 14.58 s
 ----------------------------------------------------------------
             Standard Nuclear Orientation (Angstroms)
    I     Atom           X                Y                Z
 ----------------------------------------------------------------
    1      C       1.2586432774    -0.2071886214    -0.3219697218
    2      O       2.1314019660    -0.8536914097    -1.2300309302
    3      C      -0.1584464849    -0.1527564395    -0.8867854678
    4      O      -0.5784177572    -1.4548387329    -1.2495897420
    5      O      -0.1193646521     0.6398375941    -2.0413330625
    6      O       1.7542994185     1.0757314223    -0.0718764286
    7      H       1.2441616434    -0.7356607663     0.6329671260
    8      H       1.6923874475    -1.6597838994    -1.5324612381
    9      H      -0.8342978727     0.2686384109    -0.1416587864
   10      H      -0.9952153000    -1.8680994955    -0.4847333621
   11      H      -1.0078735372     0.9646823916    -2.2234345061
   12      H       1.5674784511     1.6169345455    -0.8512281803
 ----------------------------------------------------------------
 Nuclear Repulsion Energy =         273.55197870 hartrees
 There are       25 alpha and       25 beta electrons
 Discretize the solute cavity surface with Lebedev spheres
	Using 110 Lebedev grid points for each H atom
	Using 194 Lebedev grid points for other atoms
	Atomic van der Waals radii will be scaled by 1.20
 Remove points where switching function is < 1.0e-08
 Keep 948 surface tesserae and discard 876 interior tesserae
 Molecular Surface Area = 107.879 Angst**2

                       Distance Matrix (Angstroms)
             C (  1)   O (  2)   C (  3)   O (  4)   O (  5)   O (  6)
   O (  2)  1.415715
   C (  3)  1.526474  2.419201
   O (  4)  2.406637  2.775767  1.415423
   O (  5)  2.360629  2.820424  1.400969  2.285882
   O (  6)  1.397893  2.281710  2.414924  3.637632  2.753067
   H (  7)  1.091511  2.066855  2.148659  2.717174  3.301981  2.009524
   H (  8)  1.939963  0.966428  2.472573  2.297515  2.971474  3.101642
   H (  9)  2.153909  3.352544  1.090671  2.064790  2.063415  2.712398
   H ( 10)  2.804460  3.370494  1.950443  0.964111  3.078939  4.049250
   H ( 11)  3.182130  3.761434  1.938253  2.643272  0.963397  3.503018
   H ( 12)  1.924297  2.562322  2.472223  3.768203  2.283968  0.967053
             H (  7)   H (  8)   H (  9)   H ( 10)   H ( 11)
   H (  8)  2.396662
   H (  9)  2.434883  3.469479
   H ( 10)  2.747086  2.892116  2.170079
   H ( 11)  4.015204  3.828404  2.201907  3.323837
   H ( 12)  2.800370  3.349114  2.844279  4.341334  2.990121
 
 Requested basis set is 6-311++G(2df,2p)
 There are 84 shells and 264 basis functions
 A cutoff of  1.0D-12 yielded   3432 shell pairs
 There are     34141 function pairs (     42422 Cartesian)
 Smallest overlap matrix eigenvalue = 6.55E-05
 Guess MOs from SCF MO coefficient file

 -----------------------------------------------------------------------
  General SCF calculation program by
  Eric Jon Sundstrom, Paul Horn, Yuezhi Mao, Dmitri Zuev, Alec White,
  David Stuck, Shaama M.S., Shane Yost, Joonho Lee, David Small,
  Daniel Levine, Susi Lehtola, Hugh Burton, Evgeny Epifanovsky,
  Bang C. Huynh
 -----------------------------------------------------------------------
 Exchange:     0.1500 Hartree-Fock + 1.0000 wB97M-V + LR-HF
 Correlation:  1.0000 wB97M-V
 Using SG-2 standard quadrature grid
 Nonlocal Correlation:  VV10 with C = 0.0100 and b = 6.00 and scale = 1.00000
 Grid used for NLC:  SG-1 standard quadrature
 
 Citation of the SMD model:
 Marenich, A.V.; Cramer, C.J.; Truhlar, D.G.
 J. Phys. Chem. B 2009, 113, 6378-6396.
 iSolventCode=           1
 Solvent: water                                                           
 
 vradii
            1           2           3           4           5           6
    1   1.8500000   1.5200000   1.8500000   1.5200000   1.5200000   1.5200000
            7           8           9          10          11          12
    1   1.2000000   1.2000000   1.2000000   1.2000000   1.2000000   1.2000000
 -------------------------------------------------------
 OpenMP BLAS3 based DFT computing Module                
 Release: version 1.0, May 2013, Q-Chem Inc. Pittsburgh 
 -------------------------------------------------------
 A restricted SCF calculation will be
 performed using Roothaan-Hall, DIIS, GDM
 SCF converges when RMS gradient is below 1.0e-07
 ---------------------------------------
  Cycle       Energy         DIIS error
 ---------------------------------------
    1    -380.7172272749      7.47e-04  Roothaan Step
 ---------------------------------------
  Cycle       Energy         DIIS error
 ---------------------------------------
    1    -380.7522301306      8.26e-04  
    2    -380.7584412509      6.36e-04  Done DIIS. Switching to GDM
 ---------------------------------------
  Cycle       Energy        RMS Gradient
 ---------------------------------------
    1    -380.7584412509      6.13e-03   Normal BFGS step
    2    -380.7586299242      8.64e-03   Normal BFGS step
    3    -380.7608789273      5.37e-04   Normal BFGS step
    4    -380.7608979451      2.15e-04   Normal BFGS step
    5    -380.7609014396      9.04e-05   Normal BFGS step
    6    -380.7609017112      3.38e-05   Normal BFGS step
    7    -380.7609017612      1.34e-05   Normal BFGS step
    8    -380.7609017702      3.08e-06   Normal BFGS step
    9    -380.7609017705      1.26e-06   Normal BFGS step
   10    -380.7609017706      3.63e-07   Normal BFGS step
   11    -380.7609017706      9.90e-08  Convergence criterion met
 ---------------------------------------
 SCF time:   CPU 453.04s  wall 67.00s 
(3)  G-ENP(liq) elect-nuc-pol free energy of system     -380.760901771 a.u.
(4)  G-CDS(liq) cavity-dispersion-solvent structure 
     free energy                                                2.9045 kcal/mol
(6)  G-S(liq) free energy of system                     -380.756273139 a.u.
 SCF   energy in the final basis set =     -380.7562731393
 Total energy in the final basis set =     -380.7562731393
 
 --------------------------------------------------------------
 
                    Orbital Energies (a.u.)
 --------------------------------------------------------------
 
 Alpha MOs
 -- Occupied --
-19.3515 -19.3487 -19.3477 -19.3416 -10.4462 -10.4430  -1.2203  -1.1868
 -1.1441  -1.1317  -0.8470  -0.7520  -0.6720  -0.6536  -0.6352  -0.6253
 -0.5644  -0.5240  -0.5006  -0.4794  -0.4593  -0.4523  -0.4315  -0.4087
 -0.3801
 -- Virtual --
  0.0247   0.0421   0.0477   0.0520   0.0711   0.0784   0.1054   0.1077
  0.1242   0.1367   0.1431   0.1512   0.1568   0.1744   0.2209   0.2251
  0.2300   0.2360   0.2498   0.2612   0.2706   0.2732   0.2847   0.2861
  0.3031   0.3155   0.3285   0.3337   0.3433   0.3439   0.3467   0.3565
  0.3687   0.3723   0.3806   0.3930   0.4251   0.4351   0.4454   0.4667
  0.4811   0.5668   0.5912   0.5958   0.6092   0.6165   0.6384   0.6463
  0.6731   0.6818   0.6951   0.7335   0.7376   0.7653   0.7875   0.8064
  0.8407   0.8697   0.8900   0.9313   0.9503   0.9790   0.9970   1.0322
  1.0631   1.0769   1.0801   1.1005   1.1377   1.1472   1.1665   1.1767
  1.1910   1.2108   1.2268   1.2356   1.2630   1.2754   1.2920   1.3096
  1.3366   1.3452   1.3673   1.4133   1.4241   1.4527   1.4618   1.4935
  1.5195   1.5365   1.5463   1.5679   1.5893   1.6107   1.6332   1.7193
  1.7379   1.7634   1.8069   1.8805   1.8976   1.9290   1.9771   1.9895
  2.0430   2.1207   2.1490   2.1664   2.2488   2.2984   2.3292   2.3563
  2.3790   2.3863   2.4350   2.4512   2.4638   2.4895   2.5126   2.6366
  2.7042   2.7434   2.7999   2.8343   2.9127   2.9701   3.0711   3.0902
  3.1697   3.2537   3.2748   3.3236   3.3416   3.3741   3.3982   3.4538
  3.4971   3.5197   3.5798   3.6204   3.6391   3.6454   3.6767   3.7084
  3.7559   3.7995   3.8146   3.8286   3.8453   3.8633   3.8862   3.9202
  3.9376   4.0212   4.0396   4.0994   4.1187   4.1858   4.1979   4.2416
  4.2714   4.3032   4.3104   4.3334   4.3718   4.3823   4.4379   4.4484
  4.5340   4.6181   4.6990   5.1964   5.2013   5.2141   5.2218   5.2596
  5.2736   5.2785   5.2915   5.2969   5.3058   5.3252   5.3545   5.4032
  5.4181   5.4411   5.4582   5.4785   5.5144   5.5545   5.5936   5.6006
  5.6426   5.6611   5.6838   5.6988   5.7425   5.8560   5.8965   5.9559
  5.9940   6.0142   6.0573   6.1163   6.1525   6.5235   6.5618   6.7277
  6.7575   7.0551   7.0702   7.1250   7.1330   7.2140   7.2459   7.2698
  7.2870   7.3118   7.3348   7.3379   7.3585   7.3897   7.4144   7.4624
  7.4970   7.6147   7.7008   7.7227   7.7420   7.7680   7.8089   7.8689
  7.9031  24.7323  24.8544  50.5739  50.5933  50.6038  50.6697
 --------------------------------------------------------------
 
          Ground-State Mulliken Net Atomic Charges

     Atom                 Charge (a.u.)
  ----------------------------------------
      1 C                    -0.082967
      2 O                    -0.456222
      3 C                     0.024069
      4 O                    -0.462534
      5 O                    -0.440837
      6 O                    -0.414645
      7 H                     0.245514
      8 H                     0.323415
      9 H                     0.253508
     10 H                     0.333975
     11 H                     0.353060
     12 H                     0.323664
  ----------------------------------------
  Sum of atomic charges =     0.000000

 -----------------------------------------------------------------
                    Cartesian Multipole Moments
 -----------------------------------------------------------------
    Charge (ESU x 10^10)
                 0.0000
    Dipole Moment (Debye)
         X      -5.6073      Y      -0.7855      Z       1.8288
       Tot       5.9501
    Quadrupole Moments (Debye-Ang)
        XX     -44.0565     XY      -2.1707     YY     -31.0149
        XZ       3.4451     YZ      -5.5728     ZZ     -41.4973
    Octopole Moments (Debye-Ang^2)
       XXX    -111.7718    XXY       6.3856    XYY     -25.1447
       YYY      12.6103    XXZ      37.2572    XYZ       3.6391
       YYZ      28.8318    XZZ     -33.1689    YZZ      12.8795
       ZZZ     115.7429
    Hexadecapole Moments (Debye-Ang^3)
      XXXX    -479.6339   XXXY      -5.3044   XXYY     -90.7739
      XYYY      -7.1559   YYYY    -186.1542   XXXZ      63.0486
      XXYZ     -24.0580   XYYZ      -2.0188   YYYZ     -35.2092
      XXZZ    -122.7128   XYZZ     -20.7265   YYZZ     -86.6274
      XZZZ      56.0252   YZZZ     -41.4326   ZZZZ    -364.9418
 -----------------------------------------------------------------
 Calculating analytic gradient of the SCF energy
 Gradient of CDS energy
            1           2           3           4           5           6
    1   0.0023759  -0.0004329  -0.0004537   0.0003405   0.0000595  -0.0016450
    2   0.0038865   0.0005128   0.0014974   0.0006572  -0.0021299  -0.0044110
    3   0.0010584   0.0002467  -0.0026417   0.0000208   0.0026274  -0.0009063
            7           8           9          10          11          12
    1  -0.0000282   0.0001829  -0.0000304  -0.0002817  -0.0002377   0.0001509
    2  -0.0000153  -0.0003882   0.0000503  -0.0004281   0.0003207   0.0004476
    3   0.0001141  -0.0002711   0.0000960   0.0001062  -0.0003231  -0.0001275
 Gradient of SCF Energy
            1           2           3           4           5           6
    1  -0.0029338   0.0067705   0.0095976   0.0082617   0.0170966   0.0054348
    2   0.0053152   0.0067928  -0.0048905   0.0085043  -0.0089916  -0.0025242
    3  -0.0062897  -0.0013687  -0.0087020  -0.0200287  -0.0008334   0.0050148
            7           8           9          10          11          12
    1  -0.0032495  -0.0034311  -0.0102961  -0.0082157  -0.0159265  -0.0031085
    2  -0.0045473  -0.0056194   0.0041966  -0.0074898   0.0064478   0.0028061
    3   0.0051885   0.0012855   0.0092278   0.0178773   0.0004543  -0.0018257
 Max gradient component =       2.003E-02
 RMS gradient           =       8.182E-03
 Computing fast CPCM-SWIG gradient
 Updating gradient with PCM contributions...
 -- total gradient after adding PCM contribution --
---------------------------------------------------
  Atom         X              Y              Z     
---------------------------------------------------
   1       0.000017       0.001222      -0.000149
   2       0.000053      -0.000183      -0.000057
   3       0.000095      -0.000166      -0.000041
   4      -0.000047      -0.000003      -0.000050
   5       0.000043      -0.000053       0.000050
   6      -0.000102      -0.000528      -0.000013
   7      -0.000017      -0.000229       0.000245
   8       0.000055      -0.000021      -0.000042
   9       0.000007       0.000023       0.000044
  10       0.000001      -0.000017       0.000013
  11      -0.000035       0.000006      -0.000000
  12      -0.000071      -0.000051       0.000000
---------------------------------------------------
 Number of fixed atoms: 0
 Gradient time:  CPU 89.47 s  wall 14.98 s
 ----------------------------------------------------------------
             Standard Nuclear Orientation (Angstroms)
    I     Atom           X                Y                Z
 ----------------------------------------------------------------
    1      C       1.2586432774    -0.2091886214    -0.3219697218
    2      O       2.1314019660    -0.8536914097    -1.2300309302
    3      C      -0.1584464849    -0.1527564395    -0.8867854678
    4      O      -0.5784177572    -1.4548387329    -1.2495897420
    5      O      -0.1193646521     0.6398375941    -2.0413330625
    6      O       1.7542994185     1.0757314223    -0.0718764286
    7      H       1.2441616434    -0.7356607663     0.6329671260
    8      H       1.6923874475    -1.6597838994    -1.5324612381
    9      H      -0.8342978727     0.2686384109    -0.1416587864
   10      H      -0.9952153000    -1.8680994955    -0.4847333621
   11      H      -1.0078735372     0.9646823916    -2.2234345061
   12      H       1.5674784511     1.6169345455    -0.8512281803
 ----------------------------------------------------------------
 Nuclear Repulsion Energy =         273.54255878 hartrees
 There are       25 alpha and       25 beta electrons
 Discretize the solute cavity surface with Lebedev spheres
	Using 110 Lebedev grid points for each H atom
	Using 194 Lebedev grid points for other atoms
	Atomic van der Waals radii will be scaled by 1.20
 Remove points where switching function is < 1.0e-08
 Keep 948 surface tesserae and discard 876 interior tesserae
 Molecular Surface Area = 107.880 Angst**2

                       Distance Matrix (Angstroms)
             C (  1)   O (  2)   C (  3)   O (  4)   O (  5)   O (  6)
   O (  2)  1.414803
   C (  3)  1.526547  2.419201
   O (  4)  2.405601  2.775767  1.415423
   O (  5)  2.361347  2.820424  1.400969  2.285882
   O (  6)  1.399729  2.281710  2.414924  3.637632  2.753067
   H (  7)  1.090544  2.066855  2.148659  2.717174  3.301981  2.009524
   H (  8)  1.938466  0.966428  2.472573  2.297515  2.971474  3.101642
   H (  9)  2.154352  3.352544  1.090671  2.064790  2.063415  2.712398
   H ( 10)  2.803276  3.370494  1.950443  0.964111  3.078939  4.049250
   H ( 11)  3.182867  3.761434  1.938253  2.643272  0.963397  3.503018
   H ( 12)  1.926193  2.562322  2.472223  3.768203  2.283968  0.967053
             H (  7)   H (  8)   H (  9)   H ( 10)   H ( 11)
   H (  8)  2.396662
   H (  9)  2.434883  3.469479
   H ( 10)  2.747086  2.892116  2.170079
   H ( 11)  4.015204  3.828404  2.201907  3.323837
   H ( 12)  2.800370  3.349114  2.844279  4.341334  2.990121
 
 Requested basis set is 6-311++G(2df,2p)
 There are 84 shells and 264 basis functions
 A cutoff of  1.0D-12 yielded   3432 shell pairs
 There are     34141 function pairs (     42422 Cartesian)
 Smallest overlap matrix eigenvalue = 6.55E-05
 Guess MOs from SCF MO coefficient file

 -----------------------------------------------------------------------
  General SCF calculation program by
  Eric Jon Sundstrom, Paul Horn, Yuezhi Mao, Dmitri Zuev, Alec White,
  David Stuck, Shaama M.S., Shane Yost, Joonho Lee, David Small,
  Daniel Levine, Susi Lehtola, Hugh Burton, Evgeny Epifanovsky,
  Bang C. Huynh
 -----------------------------------------------------------------------
 Exchange:     0.1500 Hartree-Fock + 1.0000 wB97M-V + LR-HF
 Correlation:  1.0000 wB97M-V
 Using SG-2 standard quadrature grid
 Nonlocal Correlation:  VV10 with C = 0.0100 and b = 6.00 and scale = 1.00000
 Grid used for NLC:  SG-1 standard quadrature
 
 Citation of the SMD model:
 Marenich, A.V.; Cramer, C.J.; Truhlar, D.G.
 J. Phys. Chem. B 2009, 113, 6378-6396.
 iSolventCode=           1
 Solvent: water                                                           
 
 vradii
            1           2           3           4           5           6
    1   1.8500000   1.5200000   1.8500000   1.5200000   1.5200000   1.5200000
            7           8           9          10          11          12
    1   1.2000000   1.2000000   1.2000000   1.2000000   1.2000000   1.2000000
 -------------------------------------------------------
 OpenMP BLAS3 based DFT computing Module                
 Release: version 1.0, May 2013, Q-Chem Inc. Pittsburgh 
 -------------------------------------------------------
 A restricted SCF calculation will be
 performed using Roothaan-Hall, DIIS, GDM
 SCF converges when RMS gradient is below 1.0e-07
 ---------------------------------------
  Cycle       Energy         DIIS error
 ---------------------------------------
    1    -380.7172240421      7.47e-04  Roothaan Step
 ---------------------------------------
  Cycle       Energy         DIIS error
 ---------------------------------------
    1    -380.7522056647      8.27e-04  
    2    -380.7584186879      6.37e-04  Done DIIS. Switching to GDM
 ---------------------------------------
  Cycle       Energy        RMS Gradient
 ---------------------------------------
    1    -380.7584186879      6.10e-03   Normal BFGS step
    2    -380.7586069952      8.60e-03   Normal BFGS step
    3    -380.7608651169      5.34e-04   Normal BFGS step
    4    -380.7608841469      2.12e-04   Normal BFGS step
    5    -380.7608876041      8.90e-05   Normal BFGS step
    6    -380.7608878730      3.28e-05   Normal BFGS step
    7    -380.7608879202      1.36e-05   Normal BFGS step
    8    -380.7608879294      3.10e-06   Normal BFGS step
    9    -380.7608879297      1.26e-06   Normal BFGS step
   10    -380.7608879298      3.63e-07   Normal BFGS step
   11    -380.7608879298      9.94e-08  Convergence criterion met
 ---------------------------------------
 SCF time:   CPU 459.17s  wall 68.00s 
(3)  G-ENP(liq) elect-nuc-pol free energy of system     -380.760887930 a.u.
(4)  G-CDS(liq) cavity-dispersion-solvent structure 
     free energy                                                2.8957 kcal/mol
(6)  G-S(liq) free energy of system                     -380.756273302 a.u.
 SCF   energy in the final basis set =     -380.7562733021
 Total energy in the final basis set =     -380.7562733021
 
 --------------------------------------------------------------
 
                    Orbital Energies (a.u.)
 --------------------------------------------------------------
 
 Alpha MOs
 -- Occupied --
-19.3515 -19.3485 -19.3476 -19.3418 -10.4462 -10.4430  -1.2202  -1.1866
 -1.1441  -1.1317  -0.8470  -0.7520  -0.6720  -0.6535  -0.6354  -0.6251
 -0.5643  -0.5240  -0.5008  -0.4793  -0.4594  -0.4522  -0.4315  -0.4088
 -0.3802
 -- Virtual --
  0.0247   0.0421   0.0476   0.0520   0.0711   0.0784   0.1054   0.1077
  0.1241   0.1367   0.1431   0.1512   0.1568   0.1744   0.2209   0.2250
  0.2301   0.2360   0.2499   0.2612   0.2706   0.2732   0.2845   0.2861
  0.3031   0.3154   0.3285   0.3338   0.3433   0.3438   0.3467   0.3565
  0.3686   0.3723   0.3806   0.3928   0.4253   0.4351   0.4452   0.4667
  0.4811   0.5668   0.5912   0.5957   0.6092   0.6166   0.6385   0.6463
  0.6730   0.6818   0.6951   0.7335   0.7375   0.7653   0.7876   0.8064
  0.8408   0.8697   0.8901   0.9312   0.9504   0.9790   0.9969   1.0322
  1.0631   1.0770   1.0801   1.1005   1.1377   1.1473   1.1665   1.1767
  1.1912   1.2108   1.2267   1.2356   1.2631   1.2755   1.2919   1.3097
  1.3364   1.3452   1.3675   1.4134   1.4238   1.4525   1.4618   1.4934
  1.5195   1.5365   1.5465   1.5678   1.5892   1.6106   1.6335   1.7196
  1.7377   1.7634   1.8070   1.8804   1.8976   1.9291   1.9770   1.9894
  2.0429   2.1207   2.1487   2.1666   2.2484   2.2986   2.3287   2.3563
  2.3790   2.3864   2.4347   2.4507   2.4635   2.4895   2.5124   2.6360
  2.7042   2.7432   2.7999   2.8345   2.9126   2.9701   3.0704   3.0905
  3.1698   3.2538   3.2748   3.3235   3.3416   3.3737   3.3983   3.4537
  3.4966   3.5195   3.5791   3.6207   3.6389   3.6452   3.6766   3.7088
  3.7560   3.7996   3.8144   3.8287   3.8456   3.8633   3.8865   3.9200
  3.9376   4.0211   4.0398   4.0991   4.1186   4.1860   4.1978   4.2415
  4.2711   4.3033   4.3107   4.3334   4.3720   4.3828   4.4381   4.4495
  4.5344   4.6180   4.6991   5.1963   5.2013   5.2142   5.2218   5.2595
  5.2736   5.2785   5.2916   5.2970   5.3059   5.3251   5.3546   5.4032
  5.4177   5.4411   5.4583   5.4791   5.5145   5.5553   5.5937   5.6005
  5.6424   5.6612   5.6835   5.6987   5.7424   5.8558   5.8973   5.9555
  5.9930   6.0132   6.0563   6.1151   6.1521   6.5236   6.5622   6.7274
  6.7559   7.0551   7.0701   7.1249   7.1329   7.2139   7.2459   7.2697
  7.2869   7.3116   7.3346   7.3380   7.3587   7.3897   7.4143   7.4622
  7.4969   7.6143   7.7010   7.7227   7.7419   7.7679   7.8085   7.8689
  7.9030  24.7321  24.8542  50.5739  50.5933  50.6034  50.6697
 --------------------------------------------------------------
 
          Ground-State Mulliken Net Atomic Charges

     Atom                 Charge (a.u.)
  ----------------------------------------
      1 C                    -0.082840
      2 O                    -0.455366
      3 C                     0.023838
      4 O                    -0.462608
      5 O                    -0.440831
      6 O                    -0.415857
      7 H                     0.245914
      8 H                     0.323453
      9 H                     0.253591
     10 H                     0.333999
     11 H                     0.353074
     12 H                     0.323632
  ----------------------------------------
  Sum of atomic charges =     0.000000

 -----------------------------------------------------------------
                    Cartesian Multipole Moments
 -----------------------------------------------------------------
    Charge (ESU x 10^10)
                 0.0000
    Dipole Moment (Debye)
         X      -5.6068      Y      -0.7994      Z       1.8248
       Tot       5.9502
    Quadrupole Moments (Debye-Ang)
        XX     -44.0526     XY      -2.1985     YY     -31.0193
        XZ       3.4350     YZ      -5.5699     ZZ     -41.4875
    Octopole Moments (Debye-Ang^2)
       XXX    -111.7576    XXY       6.3404    XYY     -25.1480
       YYY      12.6092    XXZ      37.2300    XYZ       3.6526
       YYZ      28.8275    XZZ     -33.1493    YZZ      12.8774
       ZZZ     115.7210
    Hexadecapole Moments (Debye-Ang^3)
      XXXX    -479.5810   XXXY      -5.4096   XXYY     -90.7891
      XYYY      -7.1835   YYYY    -186.2038   XXXZ      62.9679
      XXYZ     -24.0362   XYYZ      -2.0328   YYYZ     -35.2163
      XXZZ    -122.6607   XYZZ     -20.7494   YYZZ     -86.6274
      XZZZ      55.9784   YZZZ     -41.4355   ZZZZ    -364.8764
 -----------------------------------------------------------------
 Calculating analytic gradient of the SCF energy
 Gradient of CDS energy
            1           2           3           4           5           6
    1   0.0023644  -0.0005303  -0.0004540   0.0003402   0.0000594  -0.0015337
    2   0.0035150   0.0005876   0.0014979   0.0006574  -0.0021298  -0.0041255
    3   0.0009035   0.0003446  -0.0026416   0.0000203   0.0026275  -0.0008508
            7           8           9          10          11          12
    1  -0.0000316   0.0001828  -0.0000301  -0.0002817  -0.0002377   0.0001522
    2  -0.0000079  -0.0003878   0.0000507  -0.0004281   0.0003207   0.0004499
    3   0.0001152  -0.0002715   0.0000963   0.0001062  -0.0003231  -0.0001266
 Gradient of SCF Energy
            1           2           3           4           5           6
    1  -0.0030447   0.0066788   0.0095469   0.0083891   0.0170174   0.0057345
    2   0.0029375   0.0072160  -0.0046643   0.0085909  -0.0089361  -0.0014590
    3  -0.0060936  -0.0011932  -0.0087348  -0.0199690  -0.0008858   0.0049994
            7           8           9          10          11          12
    1  -0.0032677  -0.0035153  -0.0103427  -0.0082100  -0.0159244  -0.0030619
    2  -0.0041534  -0.0055769   0.0041868  -0.0074936   0.0064463   0.0029059
    3   0.0047745   0.0013653   0.0092128   0.0178902   0.0004325  -0.0017983
 Max gradient component =       1.997E-02
 RMS gradient           =       8.132E-03
 Computing fast CPCM-SWIG gradient
 Updating gradient with PCM contributions...
 -- total gradient after adding PCM contribution --
---------------------------------------------------
  Atom         X              Y              Z     
---------------------------------------------------
   1      -0.000111      -0.001143       0.000070
   2      -0.000037       0.000206       0.000096
   3       0.000053       0.000060      -0.000069
   4       0.000082       0.000071       0.000017
   5      -0.000037      -0.000012      -0.000012
   6       0.000194       0.000488      -0.000009
   7      -0.000033       0.000179      -0.000190
   8      -0.000023       0.000053       0.000051
   9      -0.000033       0.000019       0.000033
  10       0.000005      -0.000014       0.000017
  11      -0.000032       0.000009      -0.000017
  12      -0.000027       0.000082       0.000013
---------------------------------------------------
 Number of fixed atoms: 0
 Gradient time:  CPU 87.31 s  wall 14.48 s
 ----------------------------------------------------------------
             Standard Nuclear Orientation (Angstroms)
    I     Atom           X                Y                Z
 ----------------------------------------------------------------
    1      C       1.2586432774    -0.2081886214    -0.3209697218
    2      O       2.1314019660    -0.8536914097    -1.2300309302
    3      C      -0.1584464849    -0.1527564395    -0.8867854678
    4      O      -0.5784177572    -1.4548387329    -1.2495897420
    5      O      -0.1193646521     0.6398375941    -2.0413330625
    6      O       1.7542994185     1.0757314223    -0.0718764286
    7      H       1.2441616434    -0.7356607663     0.6329671260
    8      H       1.6923874475    -1.6597838994    -1.5324612381
    9      H      -0.8342978727     0.2686384109    -0.1416587864
   10      H      -0.9952153000    -1.8680994955    -0.4847333621
   11      H      -1.0078735372     0.9646823916    -2.2234345061
   12      H       1.5674784511     1.6169345455    -0.8512281803
 ----------------------------------------------------------------
 Nuclear Repulsion Energy =         273.53483147 hartrees
 There are       25 alpha and       25 beta electrons
 Discretize the solute cavity surface with Lebedev spheres
	Using 110 Lebedev grid points for each H atom
	Using 194 Lebedev grid points for other atoms
	Atomic van der Waals radii will be scaled by 1.20
 Remove points where switching function is < 1.0e-08
 Keep 947 surface tesserae and discard 877 interior tesserae
 Molecular Surface Area = 107.883 Angst**2

                       Distance Matrix (Angstroms)
             C (  1)   O (  2)   C (  3)   O (  4)   O (  5)   O (  6)
   O (  2)  1.415900
   C (  3)  1.526880  2.419201
   O (  4)  2.406505  2.775767  1.415423
   O (  5)  2.361716  2.820424  1.400969  2.285882
   O (  6)  1.398633  2.281710  2.414924  3.637632  2.753067
   H (  7)  1.090152  2.066855  2.148659  2.717174  3.301981  2.009524
   H (  8)  1.939839  0.966428  2.472573  2.297515  2.971474  3.101642
   H (  9)  2.154047  3.352544  1.090671  2.064790  2.063415  2.712398
   H ( 10)  2.803926  3.370494  1.950443  0.964111  3.078939  4.049250
   H ( 11)  3.183096  3.761434  1.938253  2.643272  0.963397  3.503018
   H ( 12)  1.925520  2.562322  2.472223  3.768203  2.283968  0.967053
             H (  7)   H (  8)   H (  9)   H ( 10)   H ( 11)
   H (  8)  2.396662
   H (  9)  2.434883  3.469479
   H ( 10)  2.747086  2.892116  2.170079
   H ( 11)  4.015204  3.828404  2.201907  3.323837
   H ( 12)  2.800370  3.349114  2.844279  4.341334  2.990121
 
 Requested basis set is 6-311++G(2df,2p)
 There are 84 shells and 264 basis functions
 A cutoff of  1.0D-12 yielded   3432 shell pairs
 There are     34141 function pairs (     42422 Cartesian)
 Smallest overlap matrix eigenvalue = 6.55E-05
 Guess MOs from SCF MO coefficient file

 -----------------------------------------------------------------------
  General SCF calculation program by
  Eric Jon Sundstrom, Paul Horn, Yuezhi Mao, Dmitri Zuev, Alec White,
  David Stuck, Shaama M.S., Shane Yost, Joonho Lee, David Small,
  Daniel Levine, Susi Lehtola, Hugh Burton, Evgeny Epifanovsky,
  Bang C. Huynh
 -----------------------------------------------------------------------
 Exchange:     0.1500 Hartree-Fock + 1.0000 wB97M-V + LR-HF
 Correlation:  1.0000 wB97M-V
 Using SG-2 standard quadrature grid
 Nonlocal Correlation:  VV10 with C = 0.0100 and b = 6.00 and scale = 1.00000
 Grid used for NLC:  SG-1 standard quadrature
 
 Citation of the SMD model:
 Marenich, A.V.; Cramer, C.J.; Truhlar, D.G.
 J. Phys. Chem. B 2009, 113, 6378-6396.
 iSolventCode=           1
 Solvent: water                                                           
 
 vradii
            1           2           3           4           5           6
    1   1.8500000   1.5200000   1.8500000   1.5200000   1.5200000   1.5200000
            7           8           9          10          11          12
    1   1.2000000   1.2000000   1.2000000   1.2000000   1.2000000   1.2000000
 -------------------------------------------------------
 OpenMP BLAS3 based DFT computing Module                
 Release: version 1.0, May 2013, Q-Chem Inc. Pittsburgh 
 -------------------------------------------------------
 A restricted SCF calculation will be
 performed using Roothaan-Hall, DIIS, GDM
 SCF converges when RMS gradient is below 1.0e-07
 ---------------------------------------
  Cycle       Energy         DIIS error
 ---------------------------------------
    1    -380.7172144542      7.47e-04  Roothaan Step
 ---------------------------------------
  Cycle       Energy         DIIS error
 ---------------------------------------
    1    -380.7522108355      8.27e-04  
    2    -380.7584245614      6.38e-04  Done DIIS. Switching to GDM
 ---------------------------------------
  Cycle       Energy        RMS Gradient
 ---------------------------------------
    1    -380.7584245614      6.15e-03   Normal BFGS step
    2    -380.7586106192      8.64e-03   Normal BFGS step
    3    -380.7608737843      5.36e-04   Normal BFGS step
    4    -380.7608928362      2.14e-04   Normal BFGS step
    5    -380.7608963183      9.10e-05   Normal BFGS step
    6    -380.7608965932      3.38e-05   Normal BFGS step
    7    -380.7608966431      1.35e-05   Normal BFGS step
    8    -380.7608966522      3.10e-06   Normal BFGS step
    9    -380.7608966526      1.27e-06   Normal BFGS step
   10    -380.7608966526      3.66e-07   Normal BFGS step
   11    -380.7608966526      9.93e-08  Convergence criterion met
 ---------------------------------------
 SCF time:   CPU 461.09s  wall 70.00s 
(3)  G-ENP(liq) elect-nuc-pol free energy of system     -380.760896653 a.u.
(4)  G-CDS(liq) cavity-dispersion-solvent structure 
     free energy                                                2.9012 kcal/mol
(6)  G-S(liq) free energy of system                     -380.756273268 a.u.
 SCF   energy in the final basis set =     -380.7562732683
 Total energy in the final basis set =     -380.7562732683
 
 --------------------------------------------------------------
 
                    Orbital Energies (a.u.)
 --------------------------------------------------------------
 
 Alpha MOs
 -- Occupied --
[...]

Order 1, Length 36
    Atom      X          Y          Z
     1    2.406023784603190e-03  -3.436609926482025e-03   6.919217310210521e-03
     2   -6.547665056009879e-04  -1.151631047322440e-03  -3.313408274266246e-04
     3   -3.667327381060877e-04  -1.999730638654239e-03   5.827188276354759e-04
     4   -5.121929351199206e-04  -2.085063654421964e-04  -7.175845808702925e-04
     5    7.144364848165593e-04  -8.685407121533744e-04   8.276476490175420e-05
     6   -8.365686280035393e-02   2.240558903769889e-01  -3.413845312638148e-01
     7   -6.967989385139695e-04  -9.418930811939486e-04   1.616680228858477e-03
     8    1.346566782988531e-04  -1.051104228607576e-04  -4.070594006976540e-04
     9    1.448641905275142e-04   1.571942556254479e-04  -9.356571526215131e-05
    10    4.642142989268712e-05   1.310031476386891e-04  -1.226186406797153e-05
    11    3.062411828012239e-04   9.472455357808862e-04   1.583112752277745e-05
    12    8.213374007851701e-02  -2.165783313438223e-01   3.337301417604582e-01




 # Finishing finite difference calculation for IDERIV #
 ######################################################
 ######################################################
 Requested basis set is 6-311++G(2df,2p)
 There are 84 shells and 264 basis functions
 **********************************************************************
 **                                                                  **
 **                       VIBRATIONAL ANALYSIS                       **
 **                       --------------------                       **
 **                                                                  **
 **        VIBRATIONAL FREQUENCIES (CM**-1) AND NORMAL MODES         **
 **     FORCE CONSTANTS (mDYN/ANGSTROM) AND REDUCED MASSES (AMU)     **
 **                  INFRARED INTENSITIES (KM/MOL)                   **
 **                                                                  **
 **********************************************************************
 

 Mode:                 1                      2                      3
 Frequency:        94.69                 149.55                 236.39
 Force Cnst:      0.0258                 0.0148                 0.0812
 Red. Mass:       4.8824                 1.1243                 2.4651
 IR Active:          YES                    YES                    YES
 IR Intens:       39.496                 95.113                 62.632
 Raman Active:       YES                    YES                    YES
               X      Y      Z        X      Y      Z        X      Y      Z
 C          0.008 -0.036 -0.043   -0.003  0.009  0.017   -0.049  0.064  0.016
 O          0.044  0.183 -0.162   -0.017 -0.040  0.041   -0.145 -0.018 -0.016
 C          0.017  0.045 -0.040   -0.001  0.011  0.004   -0.031  0.052 -0.023
 O         -0.175  0.045  0.172   -0.015  0.026 -0.048    0.179 -0.040  0.028
 O          0.088 -0.172 -0.180   -0.015 -0.007  0.001   -0.065 -0.006 -0.061
 O         -0.027 -0.075  0.232    0.008  0.012 -0.015    0.121 -0.019  0.100
 H          0.001 -0.226 -0.147   -0.013  0.043  0.037   -0.113  0.040  0.002
 H          0.134  0.178 -0.276   -0.192  0.147 -0.207   -0.430  0.248 -0.315
 H          0.086  0.259 -0.094   -0.007  0.009  0.003   -0.117 -0.007 -0.071
 H          0.332  0.014  0.435    0.840 -0.340  0.227   -0.110  0.059 -0.079
 H          0.128 -0.071 -0.197    0.004  0.079  0.066   -0.163 -0.412 -0.314
 H          0.130  0.046  0.280    0.042 -0.017 -0.044    0.451  0.009  0.043
 TransDip   0.196  0.046  0.006    0.311 -0.026  0.020   -0.144  0.042 -0.204

 Mode:                 4                      5                      6
 Frequency:       265.91                 289.31                 304.41
 Force Cnst:      0.1083                 0.0741                 0.0690
 Red. Mass:       2.5986                 1.5025                 1.2647
 IR Active:          YES                    YES                    YES
 IR Intens:       82.933                182.998                180.568
 Raman Active:       YES                    YES                    YES
               X      Y      Z        X      Y      Z        X      Y      Z
 C         -0.001 -0.008  0.049   -0.033  0.010  0.016   -0.016  0.009  0.012
 O         -0.112  0.014 -0.075   -0.108  0.001 -0.053   -0.082  0.020 -0.061
 C          0.009 -0.044  0.077   -0.004  0.020 -0.012   -0.013  0.010  0.021
 O         -0.001 -0.016  0.005    0.103 -0.033  0.036    0.014  0.012 -0.020
 O          0.233 -0.029  0.093    0.033 -0.024 -0.047    0.054  0.016  0.033
 O         -0.092  0.055 -0.068   -0.003 -0.007  0.015    0.019 -0.006 -0.002
 H          0.148  0.028  0.068   -0.016 -0.019  0.000    0.018 -0.024 -0.006
 H         -0.430  0.363 -0.550   -0.017 -0.166  0.264    0.208 -0.380  0.589
 H         -0.043 -0.025  0.017   -0.058  0.035 -0.076   -0.055 -0.007 -0.003
 H         -0.164  0.002 -0.075    0.074 -0.009  0.032    0.296 -0.124  0.062
 H          0.247 -0.140 -0.176    0.222  0.758  0.437   -0.038 -0.435 -0.329
 H         -0.305 -0.008 -0.062   -0.168  0.037  0.083   -0.160  0.060  0.087
 TransDip  -0.219  0.025 -0.191   -0.012  0.291  0.321    0.139 -0.359  0.193

 Mode:                 7                      8                      9
 Frequency:       381.56                 445.72                 526.75
 Force Cnst:      0.1105                 0.4717                 0.7946
 Red. Mass:       1.2884                 4.0302                 4.8606
 IR Active:          YES                    YES                    YES
 IR Intens:      190.843                 72.363                 41.229
 Raman Active:       YES                    YES                    YES
               X      Y      Z        X      Y      Z        X      Y      Z
 C         -0.016  0.009  0.036    0.032  0.088  0.103   -0.192 -0.040 -0.001
 O         -0.029  0.082 -0.013   -0.038  0.107  0.044    0.052  0.198  0.105
 C         -0.025 -0.035  0.026   -0.057 -0.070  0.059   -0.166 -0.011 -0.088
 O         -0.040 -0.021 -0.042   -0.131  0.006 -0.170   -0.000 -0.159  0.107
 O          0.034 -0.035  0.035   -0.037 -0.198 -0.016    0.078  0.166  0.035
 O          0.006  0.011 -0.015    0.275  0.044 -0.001    0.156 -0.174 -0.153
 H          0.029  0.039  0.053    0.115  0.114  0.121   -0.304 -0.068 -0.015
 H          0.110 -0.053  0.149   -0.054  0.129  0.011    0.318  0.214 -0.304
 H         -0.054 -0.049  0.007   -0.121 -0.087  0.010   -0.278 -0.041 -0.174
 H         -0.020 -0.073 -0.060   -0.255 -0.133 -0.313    0.161 -0.047  0.260
 H          0.083  0.123  0.087    0.039  0.102  0.157    0.122  0.139 -0.236
 H          0.806 -0.278 -0.409   -0.518  0.298  0.365   -0.290 -0.085  0.017
 TransDip   0.417 -0.144 -0.029   -0.217  0.099  0.131   -0.149  0.013 -0.141

 Mode:                10                     11                     12
 Frequency:       599.38                 763.09                 901.52
 Force Cnst:      1.1771                 1.4044                 1.4445
 Red. Mass:       5.5610                 4.0935                 3.0166
 IR Active:          YES                    YES                    YES
 IR Intens:       26.622                 73.438                 18.252
 Raman Active:       YES                    YES                    YES
               X      Y      Z        X      Y      Z        X      Y      Z
 C         -0.071 -0.167  0.119    0.104 -0.098  0.252   -0.146  0.080 -0.206
 O          0.011  0.124  0.037   -0.138  0.108  0.022   -0.087  0.060  0.087
 C          0.006  0.155  0.171    0.271 -0.087 -0.130    0.222 -0.067 -0.049
 O          0.188  0.277 -0.037   -0.067 -0.052  0.002   -0.004  0.044 -0.008
 O         -0.072 -0.172 -0.045   -0.061  0.126 -0.113    0.030 -0.073  0.099
 O         -0.069 -0.193 -0.144   -0.001 -0.022 -0.035   -0.002 -0.062 -0.025
 H         -0.065 -0.229  0.088    0.129 -0.059  0.280   -0.462  0.109 -0.189
 H          0.259  0.072 -0.170   -0.155  0.093  0.086    0.011  0.037  0.020
 H          0.025  0.242  0.145    0.295 -0.035 -0.143    0.471 -0.081  0.186
 H         -0.017  0.038 -0.287    0.010  0.234  0.204    0.015  0.152  0.059
 H         -0.082 -0.159  0.032   -0.286 -0.255  0.275   -0.053 -0.167  0.351
 H         -0.262 -0.416 -0.254   -0.227 -0.306 -0.183    0.128  0.274  0.185
 TransDip  -0.060 -0.153  0.014    0.130 -0.172  0.169    0.092  0.090 -0.046

 Mode:                13                     14                     15
 Frequency:      1107.58                1141.67                1183.34
 Force Cnst:      1.3478                 1.2086                 1.4004
 Red. Mass:       1.8648                 1.5739                 1.6975
 IR Active:          YES                    YES                    YES
 IR Intens:       11.790                236.955                 62.425
 Raman Active:       YES                    YES                    YES
               X      Y      Z        X      Y      Z        X      Y      Z
 C         -0.080 -0.029  0.079   -0.092 -0.070  0.011    0.007 -0.060 -0.009
 O          0.022 -0.050 -0.060   -0.036 -0.037 -0.015   -0.003  0.006 -0.001
 C         -0.015 -0.029 -0.130    0.034 -0.020  0.074    0.038  0.148 -0.018
 O          0.025  0.065 -0.015   -0.005 -0.013  0.022   -0.018 -0.094 -0.038
 O         -0.007 -0.064  0.098    0.020  0.048 -0.067   -0.025 -0.042  0.056
 O          0.036  0.084  0.021    0.036  0.102  0.019    0.038  0.087  0.029
 H         -0.146 -0.028  0.072   -0.142  0.018  0.056   -0.479 -0.337 -0.169
 H          0.321 -0.129 -0.259    0.600 -0.205 -0.433   -0.094  0.025  0.066
 H         -0.282 -0.143 -0.305    0.142  0.144  0.076    0.308  0.144  0.233
 H          0.116  0.597  0.327   -0.060 -0.420 -0.234   -0.023  0.012  0.022
 H         -0.025 -0.090  0.159   -0.096 -0.111  0.188    0.127  0.157 -0.306
 H         -0.054 -0.082 -0.080    0.022  0.071 -0.001   -0.233 -0.376 -0.247
 TransDip  -0.061  0.031 -0.086    0.088 -0.485 -0.012   -0.028  0.102 -0.230

 Mode:                16                     17                     18
 Frequency:      1201.65                1222.01                1262.53
 Force Cnst:      1.6276                 1.5821                 1.6521
 Red. Mass:       1.9131                 1.7982                 1.7592
 IR Active:          YES                    YES                    YES
 IR Intens:      260.320                380.048                216.557
 Raman Active:       YES                    YES                    YES
               X      Y      Z        X      Y      Z        X      Y      Z
 C         -0.055  0.091  0.066    0.073 -0.063 -0.037   -0.071  0.119  0.134
 O          0.077 -0.028 -0.064   -0.079  0.013  0.059    0.053 -0.040 -0.090
 C          0.046  0.162  0.018    0.014  0.153  0.027    0.056  0.001  0.026
 O         -0.031 -0.097 -0.029   -0.009 -0.097 -0.066   -0.010 -0.020 -0.016
 O          0.031 -0.016  0.029   -0.016 -0.026  0.023   -0.030  0.002 -0.015
 O         -0.023 -0.054 -0.020   -0.032 -0.022 -0.022   -0.025 -0.069 -0.016
 H         -0.146  0.088  0.057    0.442  0.196  0.111   -0.243  0.438  0.311
 H         -0.152  0.031  0.088    0.407 -0.107 -0.272    0.121 -0.067 -0.109
 H         -0.192  0.428 -0.351   -0.004  0.123  0.030    0.281 -0.209  0.356
 H         -0.058 -0.154 -0.069    0.049  0.379  0.236    0.013  0.078  0.052
 H         -0.205 -0.344  0.569    0.048  0.063 -0.117    0.155  0.256 -0.441
 H          0.022  0.046  0.043    0.187  0.356  0.205    0.042  0.091  0.086
 TransDip  -0.090  0.414  0.296    0.453  0.407 -0.138    0.016  0.439  0.170

 Mode:                19                     20                     21
 Frequency:      1305.55                1358.66                1386.15
 Force Cnst:      1.6952                 1.7944                 1.4390
 Red. Mass:       1.6881                 1.6499                 1.2712
 IR Active:          YES                    YES                    YES
 IR Intens:      135.894                 82.584                 37.549
 Raman Active:       YES                    YES                    YES
               X      Y      Z        X      Y      Z        X      Y      Z
 C         -0.050  0.029 -0.025    0.104  0.155 -0.064   -0.051  0.073 -0.026
 O          0.022 -0.010 -0.000   -0.058 -0.014  0.029    0.002 -0.012  0.004
 C         -0.008  0.015  0.173    0.060  0.021  0.019   -0.079 -0.058 -0.012
 O         -0.009 -0.041 -0.052   -0.020  0.002  0.013    0.021 -0.012 -0.028
 O          0.042  0.035 -0.110   -0.010 -0.005  0.009    0.013  0.006 -0.002
 O          0.012  0.013  0.006   -0.013 -0.062  0.044    0.017 -0.017  0.042
 H         -0.054 -0.226 -0.171   -0.066  0.138 -0.087    0.426  0.152  0.013
 H         -0.067  0.018  0.044    0.375 -0.116 -0.267    0.051 -0.021 -0.029
 H         -0.165 -0.497  0.329   -0.361 -0.223 -0.238    0.452  0.503  0.170
 H          0.091  0.480  0.302   -0.032 -0.140 -0.076    0.043  0.196  0.105
 H         -0.121 -0.155  0.287    0.024  0.037 -0.069   -0.047 -0.083  0.114
 H         -0.056 -0.118 -0.075   -0.284 -0.530 -0.239   -0.196 -0.376 -0.173
 TransDip  -0.048  0.047  0.367    0.202 -0.019 -0.208   -0.167 -0.097  0.033

 Mode:                22                     23                     24
 Frequency:      1416.78                1449.69                1492.04
 Force Cnst:      1.6358                 1.8500                 2.6192
 Red. Mass:       1.3832                 1.4941                 1.9969
 IR Active:          YES                    YES                    YES
 IR Intens:       62.922                 40.857                 33.795
 Raman Active:       YES                    YES                    YES
               X      Y      Z        X      Y      Z        X      Y      Z
 C          0.103 -0.094 -0.066    0.043  0.038  0.011    0.166  0.107  0.094
 O         -0.007  0.027 -0.011   -0.007 -0.003  0.000   -0.042 -0.012  0.009
 C         -0.078 -0.016  0.023    0.029 -0.130  0.134   -0.149  0.000 -0.092
 O          0.011  0.002 -0.009    0.007 -0.006 -0.038    0.013  0.007  0.007
 O          0.022  0.006 -0.015   -0.031  0.025 -0.011    0.039 -0.008 -0.000
 O          0.002  0.004  0.023   -0.010 -0.004 -0.021   -0.037 -0.037 -0.041
 H         -0.551  0.658  0.362   -0.372 -0.245 -0.141   -0.390 -0.433 -0.197
 H         -0.075  0.026  0.070    0.037 -0.010 -0.038    0.249 -0.075 -0.191
 H         -0.006  0.074  0.046   -0.085  0.607 -0.387    0.309 -0.025  0.370
 H          0.027  0.115  0.064    0.047  0.264  0.143    0.008 -0.009 -0.009
 H         -0.063 -0.103  0.182    0.069  0.146 -0.247   -0.088 -0.167  0.302
 H         -0.074 -0.090 -0.026    0.088  0.141  0.060    0.127  0.210  0.102
 TransDip   0.001 -0.253 -0.025    0.124 -0.007  0.163    0.134  0.124  0.037

 Mode:                25                     26                     27
 Frequency:      3081.69                3091.36                3772.51
 Force Cnst:      6.0814                 6.1290                 8.9347
 Red. Mass:       1.0869                 1.0885                 1.0655
 IR Active:          YES                    YES                    YES
 IR Intens:       20.937                 91.222                139.634
 Raman Active:       YES                    YES                    YES
               X      Y      Z        X      Y      Z        X      Y      Z
 C         -0.001  0.034 -0.057   -0.002  0.026 -0.047   -0.000  0.002 -0.002
 O          0.001 -0.001 -0.000    0.000 -0.000  0.000   -0.000 -0.001 -0.000
 C         -0.033  0.021  0.035    0.044 -0.024 -0.045    0.000 -0.000  0.000
 O          0.000 -0.000 -0.001   -0.000 -0.001  0.001    0.000  0.000 -0.000
 O          0.001 -0.000  0.000   -0.001  0.000  0.000   -0.000  0.000  0.000
 O          0.000 -0.000  0.001    0.000  0.000  0.001   -0.011  0.036 -0.049
 H          0.000 -0.381  0.680    0.005 -0.302  0.542   -0.000 -0.009  0.012
 H          0.002 -0.004 -0.003   -0.001 -0.002 -0.002    0.002  0.003  0.001
 H          0.389 -0.239 -0.420   -0.494  0.298  0.524   -0.000  0.000 -0.000
 H          0.000  0.001  0.004   -0.002 -0.003 -0.007   -0.003 -0.003  0.005
 H         -0.004 -0.003  0.001    0.005  0.003 -0.001    0.003  0.000  0.001
 H         -0.005  0.002 -0.013   -0.005  0.001 -0.011    0.182 -0.578  0.793
 TransDip  -0.003  0.136 -0.054    0.111 -0.002 -0.285    0.073 -0.255  0.270

 Mode:                28                     29                     30
 Frequency:      3787.72                3826.74                3831.99
 Force Cnst:      9.0062                 9.2016                 9.2304
 Red. Mass:       1.0655                 1.0665                 1.0669
 IR Active:          YES                    YES                    YES
 IR Intens:      145.146                150.011                158.834
 Raman Active:       YES                    YES                    YES
               X      Y      Z        X      Y      Z        X      Y      Z
 C         -0.001 -0.002 -0.000    0.000 -0.000 -0.000    0.000 -0.000  0.000
 O         -0.026 -0.052 -0.021   -0.001 -0.001 -0.000   -0.000 -0.000 -0.000
 C          0.000  0.000  0.000    0.000 -0.000 -0.002   -0.001  0.000  0.001
 O         -0.001 -0.001  0.001    0.028  0.028 -0.048   -0.002 -0.002  0.003
 O          0.000 -0.000  0.000   -0.004  0.001 -0.000   -0.057  0.022 -0.013
 O          0.000  0.000  0.000   -0.000 -0.000  0.000    0.000 -0.000  0.000
 H         -0.002 -0.000  0.005   -0.000 -0.000  0.000    0.001 -0.000  0.001
 H          0.431  0.839  0.326    0.010  0.017  0.006    0.003  0.006  0.002
 H         -0.002 -0.000 -0.000   -0.004 -0.003  0.003    0.004 -0.004  0.001
 H          0.009  0.009 -0.016   -0.437 -0.437  0.780    0.029  0.028 -0.052
 H         -0.008  0.003 -0.002    0.061 -0.022  0.013    0.914 -0.343  0.195
 H         -0.001  0.002 -0.003   -0.001  0.004 -0.006   -0.001  0.001 -0.002
 TransDip   0.135  0.331  0.145   -0.172 -0.239  0.260    0.345 -0.168  0.124

 STANDARD THERMODYNAMIC QUANTITIES AT   298.15 K  AND     1.00 ATM

   This Molecule has  0 Imaginary Frequencies
   Zero point vibrational energy:       59.867 kcal/mol

   Atom    1 Element C  Has Mass   12.00000
   Atom    2 Element O  Has Mass   15.99491
   Atom    3 Element C  Has Mass   12.00000
   Atom    4 Element O  Has Mass   15.99491
   Atom    5 Element O  Has Mass   15.99491
   Atom    6 Element O  Has Mass   15.99491
   Atom    7 Element H  Has Mass    1.00783
   Atom    8 Element H  Has Mass    1.00783
   Atom    9 Element H  Has Mass    1.00783
   Atom   10 Element H  Has Mass    1.00783
   Atom   11 Element H  Has Mass    1.00783
   Atom   12 Element H  Has Mass    1.00783
   Molecular Mass:    94.026620 amu
   Principal axes and moments of inertia in amu*Bohr^2:
                             1           2           3
    Eigenvalues --      357.48302   586.17427   726.09007
          X               0.84776    -0.37908    -0.37095
          Y               0.39154     0.91909    -0.04443
          Z               0.35778    -0.10757     0.92759
   Rotational Symmetry Number is   1
   The Molecule is an Asymmetric Top
   Translational Enthalpy:        0.889 kcal/mol
   Rotational Enthalpy:           0.889 kcal/mol
   Vibrational Enthalpy:         62.670 kcal/mol
   gas constant (RT):             0.592 kcal/mol
   Translational Entropy:        39.534  cal/mol.K
   Rotational Entropy:           26.523  cal/mol.K
   Vibrational Entropy:          16.206  cal/mol.K

   Total Enthalpy:               65.040 kcal/mol
   Total Entropy:                82.262  cal/mol.K
 Total job time:  6115.64s(wall), 40111.07s(cpu) 
 Tue Jul 18 18:16:12 2023

        *************************************************************
        *                                                           *
        *  Thank you very much for using Q-Chem.  Have a nice day.  *
        *                                                           *
        *************************************************************


