
Running Job 1 of 1 Q_in.in
qchem Q_in.in_132352.0 /scratch/ari.fischer/qChem1628441.hpc-mn1/qchem132352/ 0
/usr/local/qchem-5.4.1/exe/qcprog.exe_s Q_in.in_132352.0 /scratch/ari.fischer/qChem1628441.hpc-mn1/qchem132352/
                  Welcome to Q-Chem
     A Quantum Leap Into The Future Of Chemistry


 Q-Chem 5.4, Q-Chem, Inc., Pleasanton, CA (2021)

 License issued to: Nanyang Technological University (site)

 E. Epifanovsky,  A. T. B. Gilbert,  Xintian Feng,  Joonho Lee,  Yuezhi Mao,  
 N. Mardirossian,  P. Pokhilko,  A. White,  M. Wormit,  M. P. Coons,  
 A. L. Dempwolff,  Zhengting Gan,  D. Hait,  P. R. Horn,  L. D. Jacobson,  
 I. Kaliman,  J. Kussmann,  A. W. Lange,  Ka Un Lao,  D. S. Levine,  Jie Liu,  
 S. C. McKenzie,  A. F. Morrison,  K. Nanda,  F. Plasser,  D. R. Rehn,  
 M. L. Vidal,  Zhi-Qiang You,  Ying Zhu,  B. Alam,  B. Albrecht,  
 A. Aldossary,  E. Alguire,  J. H. Andersen,  D. Barton,  K. Begam,  A. Behn,  
 Y. A. Bernard,  E. J. Berquist,  H. Burton,  A. Carreras,  K. Carter-Fenk,  
 R. Chakraborty,  A. D. Chien,  K. D. Closser,  V. Cofer-Shabica,  
 S. Dasgupta,  Jia Deng,  M. de Wergifosse,  M. Diedenhofen,  Hainam Do,  
 S. Ehlert,  Po-Tung Fang,  S. Fatehi,  Qingguo Feng,  T. Friedhoff,  
 J. Gayvert,  Qinghui Ge,  G. Gidofalvi,  M. Goldey,  J. Gomes,  
 C. Gonzalez-Espinoza,  S. Gulania,  A. Gunina,  M. W. D. Hanson-Heine,  
 P. H. P. Harbach,  A. W. Hauser,  M. F. Herbst,  M. Hernandez Vera,  
 M. Hodecker,  Z. C. Holden,  S. Houck,  Xunkun Huang,  Kerwin Hui,  
 B. C. Huynh,  M. Ivanov,  Hyunjun Ji,  Hanjie Jiang,  B. Kaduk,  S. Kaehler,  
 K. Khistyaev,  Jaehoon Kim,  P. Klunzinger,  Z. Koczor-Benda,  
 Joong Hoon Koh,  D. Kosenkov,  L. Koulias,  T. Kowalczyk,  C. M. Krauter,  
 K. Kue,  A. Kunitsa,  T. Kus,  A. Landau,  K. V. Lawler,  D. Lefrancois,  
 S. Lehtola,  Rain Li,  Yi-Pei Li,  Jiashu Liang,  M. Liebenthal,  
 Hung-Hsuan Lin,  You-Sheng Lin,  Fenglai Liu,  Kuan-Yu Liu,  
 M. Loipersberger,  A. Luenser,  A. Manjanath,  P. Manohar,  E. Mansoor,  
 S. F. Manzer,  Shan-Ping Mao,  A. V. Marenich,  T. Markovich,  S. Mason,  
 S. A. Maurer,  P. F. McLaughlin,  M. F. S. J. Menger,  J.-M. Mewes,  
 S. A. Mewes,  P. Morgante,  J. W. Mullinax,  K. J. Oosterbaan,  G. Paran,  
 Alexander C. Paul,  Suranjan K. Paul,  F. Pavosevic,  Zheng Pei,  S. Prager,  
 E. I. Proynov,  E. Ramos,  B. Rana,  A. E. Rask,  A. Rettig,  R. M. Richard,  
 F. Rob,  E. Rossomme,  T. Scheele,  M. Scheurer,  M. Schneider,  
 N. Sergueev,  S. M. Sharada,  W. Skomorowski,  D. W. Small,  C. J. Stein,  
 Yu-Chuan Su,  E. J. Sundstrom,  Zhen Tao,  J. Thirman,  T. Tsuchimochi,  
 N. M. Tubman,  S. P. Veccham,  O. Vydrov,  J. Wenzel,  J. Witte,  A. Yamada,  
 Kun Yao,  S. Yeganeh,  S. R. Yost,  A. Zech,  Igor Ying Zhang,  Xing Zhang,  
 Yu Zhang,  D. Zuev,  A. Aspuru-Guzik,  A. T. Bell,  N. A. Besley,  
 K. B. Bravaya,  B. R. Brooks,  D. Casanova,  Jeng-Da Chai,  S. Coriani,  
 C. J. Cramer,  A. E. DePrince, III,  R. A. DiStasio Jr.,  A. Dreuw,  
 B. D. Dunietz,  T. R. Furlani,  W. A. Goddard III,  S. Grimme,  
 S. Hammes-Schiffer,  T. Head-Gordon,  W. J. Hehre,  Chao-Ping Hsu,  
 T.-C. Jagau,  Yousung Jung,  A. Klamt,  Jing Kong,  D. S. Lambrecht,  
 WanZhen Liang,  N. J. Mayhall,  C. W. McCurdy,  J. B. Neaton,  
 C. Ochsenfeld,  J. A. Parkhill,  R. Peverati,  V. A. Rassolov,  Yihan Shao,  
 L. V. Slipchenko,  T. Stauch,  R. P. Steele,  J. E. Subotnik,  
 A. J. W. Thom,  A. Tkatchenko,  D. G. Truhlar,  T. Van Voorhis,  
 T. A. Wesolowski,  K. B. Whaley,  H. L. Woodcock III,  P. M. Zimmerman,  
 S. Faraji,  P. M. W. Gill,  M. Head-Gordon,  J. M. Herbert,  A. I. Krylov

 Additional authors for Version 5.4.1: 
 S. Kotaru,  Shaozhi Li,  Xiangyuan Li,  F. Matz,  A. Molle,  Haisheng Ren,  
 Yingli Su,  Hung-Yi Tsai,  C. Utku,  Fang Wang

 Contributors to earlier versions of Q-Chem not listed above: 
 R. D. Adamson,  B. Austin,  R. Baer,  J. Baker,  G. J. O. Beran,  
 K. Brandhorst,  S. T. Brown,  E. F. C. Byrd,  A. K. Chakraborty,  
 G. K. L. Chan,  Chun-Min Chang,  Yunqing Chen,  C.-L. Cheng,  
 Siu Hung Chien,  D. M. Chipman,  D. L. Crittenden,  H. Dachsel,  
 R. J. Doerksen,  A. D. Dutoi,  R. G. Edgar,  J. Fosso-Tande,  
 L. Fusti-Molnar,  D. Ghosh,  A. Ghysels,  A. Golubeva-Zadorozhnaya,  
 J. Gonthier,  M. S. Gordon,  S. R. Gwaltney,  G. Hawkins,  J. E. Herr,  
 A. Heyden,  S. Hirata,  E. G. Hohenstein,  G. Kedziora,  F. J. Keil,  
 C. Kelley,  Jihan Kim,  R. A. King,  R. Z. Khaliullin,  P. P. Korambath,  
 W. Kurlancheek,  A. Laurent,  A. M. Lee,  M. S. Lee,  S. V. Levchenko,  
 Ching Yeh Lin,  D. Liotard,  E. Livshits,  R. C. Lochan,  I. Lotan,  
 L. A. Martinez-Martinez,  P. E. Maslen,  N. Nair,  D. P. O'Neill,  
 D. Neuhauser,  E. Neuscamman,  C. M. Oana,  R. Olivares-Amaya,  R. Olson,  
 T. M. Perrine,  B. Peters,  P. A. Pieniazek,  A. Prociuk,  Y. M. Rhee,  
 J. Ritchie,  M. A. Rohrdanz,  E. Rosta,  N. J. Russ,  H. F. Schaefer III,  
 M. W. Schmidt,  N. E. Schultz,  S. Sharma,  N. Shenvi,  C. D. Sherrill,  
 A. C. Simmonett,  A. Sodt,  T. Stein,  D. Stuck,  K. S. Thanthiriwatte,  
 V. Vanovschi,  L. Vogt,  Tao Wang,  A. Warshel,  M. A. Watson,  
 C. F. Williams,  Q. Wu,  X. Xu,  Jun Yang,  W. Zhang,  Yan Zhao

 Please cite Q-Chem as follows:
 Y. Shao et al., Mol. Phys. 113, 184-215 (2015)
 DOI: 10.1080/00268976.2014.952696

 Q-Chem 5.4.1 for Intel X86 EM64T Linux

 Parts of Q-Chem use Armadillo 9.800.1 (Horizon Scraper).
 http://arma.sourceforge.net/

 Q-Chem begins on Mon Jul 17 16:24:27 2023  

 Host: 
0

     Scratch files written to /scratch/ari.fischer/qChem1628441.hpc-mn1/qchem132352//
 Aug1521 |scratch|qcdevops|jenkins|workspace|build_RNUM 8249   
 Processing $rem in /usr/local/qchem-5.4.1/config/preferences:
 Processing $rem in /home/ari.fischer/.qchemrc:
 Symmetry turned off for PCM/SM12/SMD calculation

 Checking the input file for inconsistencies... 	...done.

--------------------------------------------------------------
User input:
--------------------------------------------------------------
$molecule
0 1
C         1.2515829227   -0.2064934823   -0.2914688211
O         2.0968210278   -0.9119840878   -1.1799574863
C        -0.1609673451   -0.1445771774   -0.8776082468
O        -0.5673284159   -1.4366779172   -1.2954352969
O        -0.0827505422    0.6685763606   -2.0178112814
O         1.7613698471    1.0832757114   -0.0929703513
H         1.2284451384   -0.6913274560    0.6921227537
H         1.5378274526   -1.6123186636   -1.5653899440
H        -0.8614411744    0.2643702296   -0.1405478986
H        -0.8242177097   -1.9374785094   -0.5022074422
H        -0.9781633759    0.9847548129   -2.2201445946
H         1.5535787744    1.5726851789   -0.9107156904
$end

$rem
BASIS = 6-311++G(2df,2p)
GUI = 2
JOB_TYPE = Optimization
METHOD = wB97M-V
SCF_ALGORITHM = DIIS_GDM
MAX_SCF_CYCLES = 400
GEOM_OPT_MAX_CYCLES = 150
SCF_CONVERGENCE = 7
THRESH = 12
Solvent_method = SMD
$end
--------------------------------------------------------------
 ----------------------------------------------------------------
             Standard Nuclear Orientation (Angstroms)
    I     Atom           X                Y                Z
 ----------------------------------------------------------------
    1      C       1.2515829227    -0.2064934823    -0.2914688211
    2      O       2.0968210278    -0.9119840878    -1.1799574863
    3      C      -0.1609673451    -0.1445771774    -0.8776082468
    4      O      -0.5673284159    -1.4366779172    -1.2954352969
    5      O      -0.0827505422     0.6685763606    -2.0178112814
    6      O       1.7613698471     1.0832757114    -0.0929703513
    7      H       1.2284451384    -0.6913274560     0.6921227537
    8      H       1.5378274526    -1.6123186636    -1.5653899440
    9      H      -0.8614411744     0.2643702296    -0.1405478986
   10      H      -0.8242177097    -1.9374785094    -0.5022074422
   11      H      -0.9781633759     0.9847548129    -2.2201445946
   12      H       1.5535787744     1.5726851789    -0.9107156904
 ----------------------------------------------------------------
 Nuclear Repulsion Energy =         274.36571919 hartrees
 There are       25 alpha and       25 beta electrons
 Requested basis set is 6-311++G(2df,2p)
 There are 84 shells and 264 basis functions

 Total QAlloc Memory Limit 288000 MB
 Mega-Array Size       188 MB
 MEM_STATIC part       192 MB
 
 Citation of the SMD model:
 Marenich, A.V.; Cramer, C.J.; Truhlar, D.G.
 J. Phys. Chem. B 2009, 113, 6378-6396.
 iSolventCode=           1
 Solvent: water                                                           
 
 vradii
            1           2           3           4           5           6
    1   1.8500000   1.5200000   1.8500000   1.5200000   1.5200000   1.5200000
            7           8           9          10          11          12
    1   1.2000000   1.2000000   1.2000000   1.2000000   1.2000000   1.2000000
 Changing PCM_VDW_RADII to SMD_RADIUS
 Discretize the solute cavity surface with Lebedev spheres
	Using 110 Lebedev grid points for each H atom
	Using 194 Lebedev grid points for other atoms
	Atomic van der Waals radii will be scaled by 1.20
 Remove points where switching function is < 1.0e-08
 Keep 940 surface tesserae and discard 884 interior tesserae
 Molecular Surface Area = 107.254 Angst**2
 A cutoff of  1.0D-12 yielded   3437 shell pairs
 There are     34169 function pairs (     42451 Cartesian)
 Smallest overlap matrix eigenvalue = 6.94E-05

 Scale SEOQF with 1.000000e-01/1.000000e-01/1.000000e-01

 Standard Electronic Orientation quadrupole field applied
 Nucleus-field energy     =    -0.0000000014 hartrees
 Guess from superposition of atomic densities
 Warning:  Energy on first SCF cycle will be non-variational
 SAD guess density has 50.000000 electrons

 -----------------------------------------------------------------------
  General SCF calculation program by
  Eric Jon Sundstrom, Paul Horn, Yuezhi Mao, Dmitri Zuev, Alec White,
  David Stuck, Shaama M.S., Shane Yost, Joonho Lee, David Small,
  Daniel Levine, Susi Lehtola, Hugh Burton, Evgeny Epifanovsky,
  Bang C. Huynh
 -----------------------------------------------------------------------
 Exchange:     0.1500 Hartree-Fock + 1.0000 wB97M-V + LR-HF
 Correlation:  1.0000 wB97M-V
 Using SG-2 standard quadrature grid
 Nonlocal Correlation:  VV10 with C = 0.0100 and b = 6.00 and scale = 1.00000
 Grid used for NLC:  SG-1 standard quadrature
 
 Citation of the SMD model:
 Marenich, A.V.; Cramer, C.J.; Truhlar, D.G.
 J. Phys. Chem. B 2009, 113, 6378-6396.
 iSolventCode=           1
 Solvent: water                                                           
 
 vradii
            1           2           3           4           5           6
    1   1.8500000   1.5200000   1.8500000   1.5200000   1.5200000   1.5200000
            7           8           9          10          11          12
    1   1.2000000   1.2000000   1.2000000   1.2000000   1.2000000   1.2000000
 using 8 threads for integral computing
 -------------------------------------------------------
 OpenMP Integral computing Module                
 Release: version 1.0, May 2013, Q-Chem Inc. Pittsburgh 
 -------------------------------------------------------
 -------------------------------------------------------
 OpenMP BLAS3 based DFT computing Module                
 Release: version 1.0, May 2013, Q-Chem Inc. Pittsburgh 
 -------------------------------------------------------
 A restricted SCF calculation will be
 performed using DIIS, GDM
 SCF converges when RMS gradient is below 1.0e-07
 ---------------------------------------
  Cycle       Energy         DIIS error
 ---------------------------------------
    1    -381.7980683585      3.08e-02  
    2    -380.6217770378      4.55e-03  Done DIIS. Switching to GDM
 ---------------------------------------
  Cycle       Energy        RMS Gradient
 ---------------------------------------
    1    -380.6217770378      6.18e-02   Descent step
    2    -380.7383454968      2.80e-02   Normal BFGS step
    3    -380.7593732845      2.22e-03   Normal BFGS step
    4    -380.7598985972      8.92e-04   Normal BFGS step
    5    -380.7599295373      3.19e-04   Normal BFGS step
    6    -380.7599349795      1.64e-04   Normal BFGS step
    7    -380.7599362673      3.71e-05   Normal BFGS step
    8    -380.7599363106      2.12e-05   Normal BFGS step
    9    -380.7599363248      6.50e-06   Normal BFGS step
   10    -380.7599363251      2.33e-06   Normal BFGS step
   11    -380.7599363253      2.93e-07   Normal BFGS step
   12    -380.7599363253      1.22e-07   Normal BFGS step
   13    -380.7599363253      3.62e-08  Convergence criterion met
 ---------------------------------------
 SCF time:   CPU 461.37s  wall 71.00s 
(3)  G-ENP(liq) elect-nuc-pol free energy of system     -380.759936325 a.u.
(4)  G-CDS(liq) cavity-dispersion-solvent structure 
     free energy                                                2.8186 kcal/mol
(6)  G-S(liq) free energy of system                     -380.755444564 a.u.
 SCF   energy in the final basis set =     -380.7554445641
 Total energy in the final basis set =     -380.7554445641
 
 --------------------------------------------------------------
 
                    Orbital Energies (a.u.)
 --------------------------------------------------------------
 
 Alpha MOs
 -- Occupied --
-19.3541 -19.3512 -19.3488 -19.3417 -10.4484 -10.4433  -1.2221  -1.1850
 -1.1455  -1.1298  -0.8435  -0.7499  -0.6681  -0.6580  -0.6322  -0.6212
 -0.5626  -0.5265  -0.5089  -0.4728  -0.4659  -0.4478  -0.4339  -0.4097
 -0.3807
 -- Virtual --
  0.0251   0.0420   0.0483   0.0519   0.0716   0.0791   0.1047   0.1070
  0.1238   0.1373   0.1439   0.1509   0.1574   0.1757   0.2203   0.2248
  0.2317   0.2368   0.2516   0.2563   0.2704   0.2750   0.2801   0.2856
  0.3032   0.3157   0.3280   0.3355   0.3371   0.3433   0.3450   0.3617
  0.3676   0.3686   0.3790   0.3921   0.4232   0.4366   0.4451   0.4648
  0.4889   0.5658   0.5787   0.5921   0.6045   0.6153   0.6356   0.6425
  0.6706   0.6786   0.6854   0.7325   0.7342   0.7707   0.8031   0.8120
  0.8343   0.8605   0.8940   0.9355   0.9544   0.9807   1.0017   1.0328
  1.0633   1.0718   1.0827   1.0982   1.1406   1.1470   1.1589   1.1812
  1.1916   1.2096   1.2221   1.2453   1.2669   1.2719   1.2935   1.3194
  1.3361   1.3580   1.3805   1.4086   1.4233   1.4504   1.4723   1.4932
  1.5103   1.5371   1.5460   1.5686   1.5811   1.6028   1.6348   1.7276
  1.7404   1.7571   1.8193   1.8677   1.9003   1.9353   1.9603   2.0026
  2.0451   2.1294   2.1483   2.1759   2.2425   2.3012   2.3418   2.3654
  2.3942   2.4116   2.4392   2.4418   2.4736   2.4999   2.5358   2.6220
  2.7034   2.7431   2.8023   2.8225   2.9114   2.9602   3.0504   3.1013
  3.1988   3.2417   3.2563   3.3395   3.3457   3.3641   3.4126   3.4611
  3.4823   3.4981   3.5844   3.6111   3.6230   3.6549   3.6815   3.7238
  3.7457   3.7904   3.8079   3.8417   3.8479   3.8591   3.8972   3.9164
  3.9411   4.0131   4.0246   4.1090   4.1167   4.1800   4.1900   4.2439
  4.2724   4.2882   4.3021   4.3150   4.3546   4.3702   4.4437   4.4512
  4.5246   4.6029   4.6931   5.1871   5.2001   5.2062   5.2325   5.2540
  5.2716   5.2827   5.2866   5.2922   5.3147   5.3320   5.3667   5.3998
  5.4280   5.4332   5.4424   5.4866   5.5340   5.5613   5.5737   5.6134
  5.6364   5.6479   5.6694   5.6969   5.7160   5.8571   5.8757   5.9337
  5.9706   6.0137   6.0475   6.0976   6.1300   6.5196   6.5544   6.7215
  6.7498   7.0499   7.0682   7.1171   7.1348   7.2050   7.2253   7.2358
  7.2770   7.3057   7.3157   7.3362   7.3557   7.3825   7.4184   7.4755
  7.5127   7.5886   7.6954   7.7178   7.7506   7.7597   7.7864   7.8726
  7.9060  24.7228  24.8376  50.5728  50.5920  50.5987  50.6660
 --------------------------------------------------------------
 
          Ground-State Mulliken Net Atomic Charges

     Atom                 Charge (a.u.)
  ----------------------------------------
      1 C                    -0.071936
      2 O                    -0.458793
      3 C                     0.024172
      4 O                    -0.459121
      5 O                    -0.441830
      6 O                    -0.414581
      7 H                     0.231670
      8 H                     0.321718
      9 H                     0.254177
     10 H                     0.334564
     11 H                     0.356101
     12 H                     0.323859
  ----------------------------------------
  Sum of atomic charges =     0.000000

 -----------------------------------------------------------------
                    Cartesian Multipole Moments
 -----------------------------------------------------------------
    Charge (ESU x 10^10)
                 0.0000
    Dipole Moment (Debye)
         X      -5.6720      Y      -0.8418      Z       1.6230
       Tot       5.9594
    Quadrupole Moments (Debye-Ang)
        XX     -45.5607     XY      -1.8730     YY     -31.4640
        XZ       3.5265     YZ      -5.7398     ZZ     -40.5190
    Octopole Moments (Debye-Ang^2)
       XXX    -111.8699    XXY       9.5474    XYY     -27.8676
       YYY      10.7284    XXZ      37.9592    XYZ       2.8168
       YYZ      28.9566    XZZ     -32.5926    YZZ      13.4093
       ZZZ     112.6858
    Hexadecapole Moments (Debye-Ang^3)
      XXXX    -473.8837   XXXY      -1.5763   XXYY     -99.5722
      XYYY      -3.7755   YYYY    -188.9920   XXXZ      61.5543
      XXYZ     -26.9743   XYYZ       0.4521   YYYZ     -35.1171
      XXZZ    -120.6216   XYZZ     -19.0178   YYZZ     -86.6684
      XZZZ      53.1831   YZZZ     -42.1146   ZZZZ    -355.0629
 -----------------------------------------------------------------
 Calculating analytic gradient of the SCF energy
 Gradient of CDS energy
            1           2           3           4           5           6
    1   0.0023801  -0.0004951  -0.0003528   0.0002761  -0.0000248  -0.0014980
    2   0.0033262   0.0006416   0.0015679   0.0004296  -0.0019702  -0.0039724
    3   0.0007147   0.0003230  -0.0022556  -0.0000161   0.0023195  -0.0006588
            7           8           9          10          11          12
    1  -0.0000496   0.0001514  -0.0000440  -0.0002662  -0.0002291   0.0001521
    2   0.0000081  -0.0003915   0.0000484  -0.0004515   0.0003240   0.0004397
    3   0.0001314  -0.0002696   0.0001042   0.0000813  -0.0003260  -0.0001480
 Gradient of SCF Energy
            1           2           3           4           5           6
    1  -0.0021608   0.0129366   0.0094328   0.0059601   0.0271310   0.0077862
    2   0.0054601   0.0103421  -0.0067219   0.0126390  -0.0098399  -0.0025250
    3  -0.0116107   0.0003660  -0.0093183  -0.0286917  -0.0000807   0.0130723
            7           8           9          10          11          12
    1  -0.0034552  -0.0104877  -0.0125881  -0.0055539  -0.0231155  -0.0058855
    2  -0.0050785  -0.0085202   0.0057608  -0.0122542   0.0076450   0.0030928
    3   0.0091261  -0.0002231   0.0117777   0.0245195  -0.0005219  -0.0084151
 Max gradient component =       2.869E-02
 RMS gradient           =       1.164E-02
 Computing fast CPCM-SWIG gradient
 Updating gradient with PCM contributions...
 -- total gradient after adding PCM contribution --
---------------------------------------------------
  Atom         X              Y              Z     
---------------------------------------------------
   1       0.000850       0.000789      -0.005186
   2       0.005209       0.004735       0.001036
   3      -0.000991      -0.001540       0.000094
   4       0.002091       0.001737      -0.008215
   5       0.009964      -0.001205      -0.000267
   6       0.002504      -0.001035       0.008491
   7      -0.000182      -0.000868       0.003696
   8      -0.006305      -0.003673      -0.001396
   9      -0.002098       0.001467       0.002569
  10      -0.001191      -0.002498       0.006325
  11      -0.006945       0.001354      -0.000357
  12      -0.002906       0.000737      -0.006792
---------------------------------------------------
 Number of fixed atoms: 0
 Gradient time:  CPU 86.91 s  wall 14.28 s
 Geometry Optimization Parameters
   NAtoms,    NIC,     NZ,  NCons,   NDum,   NFix, NCnnct, MaxDiis
       12      72       0       0       0       0       0       0


** GEOMETRY OPTIMIZATION IN DELOCALIZED INTERNAL COORDINATES **
   Searching for a Minimum

   Optimization Cycle:   1

                       Coordinates (Angstroms)
     ATOM                X               Y               Z
      1  C         1.2515829227   -0.2064934823   -0.2914688211
      2  O         2.0968210278   -0.9119840878   -1.1799574863
      3  C        -0.1609673451   -0.1445771774   -0.8776082468
      4  O        -0.5673284159   -1.4366779172   -1.2954352969
      5  O        -0.0827505422    0.6685763606   -2.0178112814
      6  O         1.7613698471    1.0832757114   -0.0929703513
      7  H         1.2284451384   -0.6913274560    0.6921227537
      8  H         1.5378274526   -1.6123186636   -1.5653899440
      9  H        -0.8614411744    0.2643702296   -0.1405478986
     10  H        -0.8242177097   -1.9374785094   -0.5022074422
     11  H        -0.9781633759    0.9847548129   -2.2201445946
     12  H         1.5535787744    1.5726851789   -0.9107156904
   Point Group: c1    Number of degrees of freedom:    30


   Energy is   -380.755444564


 Attempting to generate delocalized internal coordinates
 Initial Hessian constructed with Jon Baker's OPTIMIZE code

 30 Hessian modes will be used to form the next step
  Hessian Eigenvalues:
     0.005133    0.013334    0.013692    0.015296    0.015514    0.056673
     0.056962    0.061577    0.068510    0.092543    0.095049    0.160000
     0.160000    0.160000    0.160000    0.181971    0.187999    0.200727
     0.204648    0.293694    0.340343    0.341313    0.428430    0.432588
     0.451858    0.454559    0.522789    0.522885    0.528437    0.531909

 Minimum search - taking simple RFO step
 Searching for Lamda that Minimizes Along All modes
 Value Taken    Lamda =  -0.00126658
 Step Taken.  Stepsize is  0.122755

                             Maximum     Tolerance    Cnvgd?
         Gradient           0.006916      0.000300      NO
         Displacement       0.050828      0.001200      NO
         Energy change     *********      0.000001      NO


 New Cartesian Coordinates Obtained by Inverse Iteration

 Displacement from previous Coordinates is:  0.222125
 ----------------------------------------------------------------
             Standard Nuclear Orientation (Angstroms)
    I     Atom           X                Y                Z
 ----------------------------------------------------------------
    1      C       1.2494129180    -0.2105262717    -0.3009437643
    2      O       2.1154343656    -0.9042485551    -1.1804836916
    3      C      -0.1659581468    -0.1448916593    -0.8838221203
    4      O      -0.5950207365    -1.4376407346    -1.2716966238
    5      O      -0.1098155888     0.6531204960    -2.0348706677
    6      O       1.7619927152     1.0750293649    -0.0818448315
    7      H       1.2232322410    -0.7048963026     0.6713718684
    8      H       1.6022364619    -1.6204537189    -1.5827501774
    9      H      -0.8531686109     0.2748890632    -0.1486534273
   10      H      -0.8584856548    -1.9254210651    -0.4807430450
   11      H      -0.9958774163     0.9775805562    -2.2323631819
   12      H       1.5807740523     1.6002638265    -0.8753346374
 ----------------------------------------------------------------
 Nuclear Repulsion Energy =         273.49163305 hartrees
 There are       25 alpha and       25 beta electrons
 Discretize the solute cavity surface with Lebedev spheres
	Using 110 Lebedev grid points for each H atom
	Using 194 Lebedev grid points for other atoms
	Atomic van der Waals radii will be scaled by 1.20
 Remove points where switching function is < 1.0e-08
 Keep 945 surface tesserae and discard 879 interior tesserae
 Molecular Surface Area = 107.818 Angst**2
 Applying Cartesian multipole field
    Component          Value
    ---------          -----
     (2,0,0)        1.00000E-11
     (0,2,0)        2.00000E-11
     (0,0,2)       -3.00000E-11
 Nucleus-field energy     =    -0.0000000014 hartrees
 Requested basis set is 6-311++G(2df,2p)
 There are 84 shells and 264 basis functions
 A cutoff of  1.0D-12 yielded   3432 shell pairs
 There are     34149 function pairs (     42430 Cartesian)
 Smallest overlap matrix eigenvalue = 7.02E-05
 Guess MOs from SCF MO coefficient file

 -----------------------------------------------------------------------
  General SCF calculation program by
  Eric Jon Sundstrom, Paul Horn, Yuezhi Mao, Dmitri Zuev, Alec White,
  David Stuck, Shaama M.S., Shane Yost, Joonho Lee, David Small,
  Daniel Levine, Susi Lehtola, Hugh Burton, Evgeny Epifanovsky,
  Bang C. Huynh
 -----------------------------------------------------------------------
 Exchange:     0.1500 Hartree-Fock + 1.0000 wB97M-V + LR-HF
 Correlation:  1.0000 wB97M-V
 Using SG-2 standard quadrature grid
 Nonlocal Correlation:  VV10 with C = 0.0100 and b = 6.00 and scale = 1.00000
 Grid used for NLC:  SG-1 standard quadrature
 
 Citation of the SMD model:
 Marenich, A.V.; Cramer, C.J.; Truhlar, D.G.
 J. Phys. Chem. B 2009, 113, 6378-6396.
 iSolventCode=           1
 Solvent: water                                                           
 
 vradii
            1           2           3           4           5           6
    1   1.8500000   1.5200000   1.8500000   1.5200000   1.5200000   1.5200000
            7           8           9          10          11          12
    1   1.2000000   1.2000000   1.2000000   1.2000000   1.2000000   1.2000000
 -------------------------------------------------------
 OpenMP BLAS3 based DFT computing Module                
 Release: version 1.0, May 2013, Q-Chem Inc. Pittsburgh 
 -------------------------------------------------------
 A restricted SCF calculation will be
 performed using Roothaan-Hall, DIIS, GDM
 SCF converges when RMS gradient is below 1.0e-07
 ---------------------------------------
  Cycle       Energy         DIIS error
 ---------------------------------------
    1    -380.7166629466      8.14e-04  Roothaan Step
 ---------------------------------------
  Cycle       Energy         DIIS error
 ---------------------------------------
    1    -380.7522891924      8.04e-04  
    2    -380.7583798209      6.07e-04  Done DIIS. Switching to GDM
 ---------------------------------------
  Cycle       Energy        RMS Gradient
 ---------------------------------------
    1    -380.7583798209      7.08e-03   Normal BFGS step
    2    -380.7585864913      9.34e-03   Normal BFGS step
    3    -380.7606271110      5.33e-04   Normal BFGS step
    4    -380.7606460353      2.05e-04   Normal BFGS step
    5    -380.7606492398      8.29e-05   Normal BFGS step
    6    -380.7606495332      3.02e-05   Normal BFGS step
    7    -380.7606495735      1.43e-05   Normal BFGS step
    8    -380.7606495839      3.74e-06   Normal BFGS step
    9    -380.7606495843      1.42e-06   Normal BFGS step
   10    -380.7606495843      4.12e-07   Normal BFGS step
   11    -380.7606495843      1.01e-07   Normal BFGS step
   12    -380.7606495843      2.51e-08  Convergence criterion met
 ---------------------------------------
 SCF time:   CPU 477.11s  wall 76.00s 
(3)  G-ENP(liq) elect-nuc-pol free energy of system     -380.760649584 a.u.
(4)  G-CDS(liq) cavity-dispersion-solvent structure 
     free energy                                                2.8535 kcal/mol
(6)  G-S(liq) free energy of system                     -380.756102252 a.u.
 SCF   energy in the final basis set =     -380.7561022518
 Total energy in the final basis set =     -380.7561022518
 
 --------------------------------------------------------------
 
                    Orbital Energies (a.u.)
 --------------------------------------------------------------
 
 Alpha MOs
 -- Occupied --
-19.3526 -19.3489 -19.3485 -19.3418 -10.4480 -10.4440  -1.2205  -1.1861
 -1.1448  -1.1310  -0.8458  -0.7536  -0.6692  -0.6577  -0.6321  -0.6248
 -0.5649  -0.5247  -0.5059  -0.4731  -0.4647  -0.4474  -0.4332  -0.4097
 -0.3806
 -- Virtual --
  0.0250   0.0420   0.0481   0.0519   0.0713   0.0786   0.1052   0.1072
  0.1246   0.1372   0.1432   0.1511   0.1576   0.1755   0.2207   0.2246
  0.2310   0.2358   0.2522   0.2569   0.2706   0.2739   0.2824   0.2860
  0.3041   0.3145   0.3281   0.3352   0.3386   0.3436   0.3457   0.3610
  0.3683   0.3700   0.3799   0.3924   0.4220   0.4348   0.4445   0.4645
  0.4866   0.5682   0.5827   0.5964   0.6062   0.6167   0.6356   0.6448
  0.6727   0.6813   0.6892   0.7289   0.7333   0.7698   0.8042   0.8149
  0.8303   0.8617   0.8899   0.9342   0.9492   0.9790   1.0001   1.0322
  1.0607   1.0717   1.0779   1.0994   1.1405   1.1486   1.1624   1.1798
  1.1922   1.2094   1.2236   1.2413   1.2668   1.2722   1.2943   1.3131
  1.3300   1.3506   1.3780   1.4114   1.4235   1.4510   1.4649   1.4929
  1.5159   1.5364   1.5432   1.5737   1.5848   1.6058   1.6362   1.7213
  1.7394   1.7542   1.8100   1.8730   1.9020   1.9340   1.9541   1.9978
  2.0438   2.1226   2.1442   2.1743   2.2447   2.3025   2.3342   2.3612
  2.3816   2.3972   2.4384   2.4393   2.4636   2.4929   2.5229   2.6233
  2.7016   2.7409   2.8021   2.8234   2.9117   2.9616   3.0556   3.0925
  3.1967   3.2445   3.2579   3.3352   3.3447   3.3656   3.4020   3.4592
  3.4829   3.5050   3.5861   3.6128   3.6234   3.6542   3.6798   3.7186
  3.7521   3.7935   3.8067   3.8359   3.8457   3.8595   3.8924   3.9260
  3.9316   4.0160   4.0281   4.1010   4.1156   4.1853   4.1922   4.2510
  4.2735   4.2929   4.3119   4.3260   4.3656   4.3751   4.4459   4.4586
  4.5253   4.6128   4.6937   5.1908   5.1990   5.2062   5.2256   5.2560
  5.2682   5.2841   5.2850   5.2905   5.3124   5.3254   5.3625   5.4029
  5.4262   5.4343   5.4485   5.4792   5.5285   5.5595   5.5728   5.6174
  5.6383   5.6603   5.6754   5.7044   5.7289   5.8636   5.8813   5.9470
  5.9820   6.0173   6.0562   6.1132   6.1343   6.5252   6.5543   6.7230
  6.7531   7.0544   7.0678   7.1141   7.1314   7.2172   7.2406   7.2636
  7.2874   7.3085   7.3319   7.3383   7.3544   7.3853   7.4175   7.4695
  7.4966   7.6110   7.6959   7.7205   7.7452   7.7667   7.7972   7.8674
  7.9038  24.7313  24.8396  50.5741  50.5935  50.6000  50.6623
 --------------------------------------------------------------
 
          Ground-State Mulliken Net Atomic Charges

     Atom                 Charge (a.u.)
  ----------------------------------------
      1 C                    -0.076799
      2 O                    -0.458420
      3 C                     0.025060
      4 O                    -0.460674
      5 O                    -0.440007
      6 O                    -0.413324
      7 H                     0.236174
      8 H                     0.323204
      9 H                     0.255161
     10 H                     0.332154
     11 H                     0.353043
     12 H                     0.324428
  ----------------------------------------
  Sum of atomic charges =     0.000000

 -----------------------------------------------------------------
                    Cartesian Multipole Moments
 -----------------------------------------------------------------
    Charge (ESU x 10^10)
                 0.0000
    Dipole Moment (Debye)
         X      -5.4722      Y      -0.7499      Z       1.6164
       Tot       5.7550
    Quadrupole Moments (Debye-Ang)
        XX     -45.1892     XY      -1.9569     YY     -31.1376
        XZ       3.1256     YZ      -5.6746     ZZ     -40.5714
    Octopole Moments (Debye-Ang^2)
       XXX    -110.9510    XXY       9.4662    XYY     -26.3401
       YYY      11.9083    XXZ      37.2160    XYZ       3.4276
       YYZ      28.7000    XZZ     -31.9448    YZZ      12.9671
       ZZZ     112.7007
    Hexadecapole Moments (Debye-Ang^3)
      XXXX    -478.8897   XXXY      -1.9467   XXYY     -97.0586
      XYYY      -3.7771   YYYY    -186.4954   XXXZ      59.3673
      XXYZ     -26.3025   XYYZ      -1.5951   YYYZ     -35.2816
      XXZZ    -120.4272   XYZZ     -20.5711   YYZZ     -85.9628
      XZZZ      51.3457   YZZZ     -40.9152   ZZZZ    -356.2033
 -----------------------------------------------------------------
 Calculating analytic gradient of the SCF energy
 Gradient of CDS energy
            1           2           3           4           5           6
    1   0.0021984  -0.0003812  -0.0004110   0.0003099   0.0000127  -0.0014763
    2   0.0033428   0.0005286   0.0015410   0.0005518  -0.0020534  -0.0038751
    3   0.0008834   0.0002137  -0.0024800   0.0000119   0.0025061  -0.0007069
            7           8           9          10          11          12
    1  -0.0000306   0.0001632  -0.0000429  -0.0002680  -0.0002330   0.0001589
    2  -0.0000083  -0.0003892   0.0000425  -0.0004479   0.0003223   0.0004448
    3   0.0001161  -0.0002726   0.0000978   0.0000923  -0.0003252  -0.0001367
 Gradient of SCF Energy
            1           2           3           4           5           6
    1  -0.0022965   0.0096823   0.0094440   0.0033043   0.0165691   0.0060716
    2   0.0034889   0.0060700  -0.0051996   0.0105142  -0.0079083  -0.0013072
    3  -0.0056657   0.0002421  -0.0080732  -0.0209485  -0.0009119   0.0065497
            7           8           9          10          11          12
    1  -0.0028005  -0.0052178  -0.0106401  -0.0045927  -0.0162556  -0.0032681
    2  -0.0041427  -0.0059444   0.0039069  -0.0098358   0.0067069   0.0036512
    3   0.0056206  -0.0000655   0.0082799   0.0186872  -0.0005584  -0.0031563
 Max gradient component =       2.095E-02
 RMS gradient           =       8.280E-03
 Computing fast CPCM-SWIG gradient
 Updating gradient with PCM contributions...
 -- total gradient after adding PCM contribution --
---------------------------------------------------
  Atom         X              Y              Z     
---------------------------------------------------
   1       0.000583      -0.001044       0.000726
   2       0.001986       0.000000       0.000505
   3      -0.000527      -0.000308       0.000998
   4      -0.000725       0.000243      -0.000871
   5      -0.000047       0.000817      -0.000818
   6       0.000771       0.000651       0.001384
   7       0.000523       0.000149       0.000301
   8      -0.001171      -0.000806      -0.000769
   9      -0.000505      -0.000332      -0.000602
  10      -0.000017      -0.000546       0.000718
  11      -0.000536       0.000243      -0.000458
  12      -0.000334       0.000932      -0.001114
---------------------------------------------------
 Number of fixed atoms: 0
 Gradient time:  CPU 85.00 s  wall 14.09 s
 Geometry Optimization Parameters
   NAtoms,    NIC,     NZ,  NCons,   NDum,   NFix, NCnnct, MaxDiis
       12      72       0       0       0       0       0       0

 Cartesian Hessian Update
 Hessian updated using BFGS update


** GEOMETRY OPTIMIZATION IN DELOCALIZED INTERNAL COORDINATES **
   Searching for a Minimum

   Optimization Cycle:   2

                       Coordinates (Angstroms)
     ATOM                X               Y               Z
      1  C         1.2494129180   -0.2105262717   -0.3009437643
      2  O         2.1154343656   -0.9042485551   -1.1804836916
      3  C        -0.1659581468   -0.1448916593   -0.8838221203
      4  O        -0.5950207365   -1.4376407346   -1.2716966238
      5  O        -0.1098155888    0.6531204960   -2.0348706677
      6  O         1.7619927152    1.0750293649   -0.0818448315
      7  H         1.2232322410   -0.7048963026    0.6713718684
      8  H         1.6022364619   -1.6204537189   -1.5827501774
      9  H        -0.8531686109    0.2748890632   -0.1486534273
     10  H        -0.8584856548   -1.9254210651   -0.4807430450
     11  H        -0.9958774163    0.9775805562   -2.2323631819
     12  H         1.5807740523    1.6002638265   -0.8753346374
   Point Group: c1    Number of degrees of freedom:    30


   Energy is   -380.756102252

 Hessian updated using BFGS update

 28 Hessian modes will be used to form the next step
  Hessian Eigenvalues:
     0.005029    0.013150    0.013524    0.015271    0.015502    0.056760
     0.056963    0.062027    0.069158    0.093573    0.096628    0.153257
     0.165676    0.183708    0.185423    0.200468    0.205149    0.300946
     0.339896    0.344764    0.427065    0.434634    0.447112    0.454474
     0.499185    0.522843    0.528525    0.532978

 Minimum search - taking simple RFO step
 Searching for Lamda that Minimizes Along All modes
 Value Taken    Lamda =  -0.00011401
 Step Taken.  Stepsize is  0.070822

                             Maximum     Tolerance    Cnvgd?
         Gradient           0.002420      0.000300      NO
         Displacement       0.040085      0.001200      NO
         Energy change     -0.000658      0.000001      NO


 New Cartesian Coordinates Obtained by Inverse Iteration

 Displacement from previous Coordinates is:  0.077535
 ----------------------------------------------------------------
             Standard Nuclear Orientation (Angstroms)
    I     Atom           X                Y                Z
 ----------------------------------------------------------------
    1      C       1.2457875257    -0.2115243862    -0.3049348814
    2      O       2.1140442368    -0.8924431300    -1.1902221680
    3      C      -0.1656465640    -0.1452431313    -0.8847789642
    4      O      -0.5962099483    -1.4400078194    -1.2611398221
    5      O      -0.1060413257     0.6424017526    -2.0402422651
    6      O       1.7551584300     1.0714695521    -0.0763091082
    7      H       1.2177693714    -0.7146928656     0.6619119313
    8      H       1.6148314856    -1.6172073206    -1.5894316053
    9      H      -0.8457563884     0.2835709607    -0.1483872689
   10      H      -0.8681316617    -1.9174504646    -0.4685232306
   11      H      -0.9891597940     0.9728156427    -2.2348587896
   12      H       1.5781112321     1.6011162093    -0.8652181277
 ----------------------------------------------------------------
 Nuclear Repulsion Energy =         273.89163134 hartrees
 There are       25 alpha and       25 beta electrons
 Discretize the solute cavity surface with Lebedev spheres
	Using 110 Lebedev grid points for each H atom
	Using 194 Lebedev grid points for other atoms
	Atomic van der Waals radii will be scaled by 1.20
 Remove points where switching function is < 1.0e-08
 Keep 938 surface tesserae and discard 886 interior tesserae
 Molecular Surface Area = 107.716 Angst**2
 Applying Cartesian multipole field
    Component          Value
    ---------          -----
     (2,0,0)        1.00000E-11
     (0,2,0)        2.00000E-11
     (0,0,2)       -3.00000E-11
 Nucleus-field energy     =    -0.0000000014 hartrees
 Requested basis set is 6-311++G(2df,2p)
 There are 84 shells and 264 basis functions
 A cutoff of  1.0D-12 yielded   3435 shell pairs
 There are     34163 function pairs (     42444 Cartesian)
 Smallest overlap matrix eigenvalue = 6.93E-05
 Guess MOs from SCF MO coefficient file

 -----------------------------------------------------------------------
  General SCF calculation program by
  Eric Jon Sundstrom, Paul Horn, Yuezhi Mao, Dmitri Zuev, Alec White,
  David Stuck, Shaama M.S., Shane Yost, Joonho Lee, David Small,
  Daniel Levine, Susi Lehtola, Hugh Burton, Evgeny Epifanovsky,
  Bang C. Huynh
 -----------------------------------------------------------------------
 Exchange:     0.1500 Hartree-Fock + 1.0000 wB97M-V + LR-HF
 Correlation:  1.0000 wB97M-V
 Using SG-2 standard quadrature grid
 Nonlocal Correlation:  VV10 with C = 0.0100 and b = 6.00 and scale = 1.00000
 Grid used for NLC:  SG-1 standard quadrature
 
 Citation of the SMD model:
 Marenich, A.V.; Cramer, C.J.; Truhlar, D.G.
 J. Phys. Chem. B 2009, 113, 6378-6396.
 iSolventCode=           1
 Solvent: water                                                           
 
 vradii
            1           2           3           4           5           6
    1   1.8500000   1.5200000   1.8500000   1.5200000   1.5200000   1.5200000
            7           8           9          10          11          12
    1   1.2000000   1.2000000   1.2000000   1.2000000   1.2000000   1.2000000
 -------------------------------------------------------
 OpenMP BLAS3 based DFT computing Module                
 Release: version 1.0, May 2013, Q-Chem Inc. Pittsburgh 
 -------------------------------------------------------
 A restricted SCF calculation will be
 performed using Roothaan-Hall, DIIS, GDM
 SCF converges when RMS gradient is below 1.0e-07
 ---------------------------------------
  Cycle       Energy         DIIS error
 ---------------------------------------
    1    -380.7176823463      7.45e-04  Roothaan Step
 ---------------------------------------
  Cycle       Energy         DIIS error
 ---------------------------------------
    1    -380.7524677169      8.07e-04  
    2    -380.7584073358      6.19e-04  Done DIIS. Switching to GDM
 ---------------------------------------
  Cycle       Energy        RMS Gradient
 ---------------------------------------
    1    -380.7584073358      7.31e-03   Normal BFGS step
    2    -380.7585798188      9.52e-03   Normal BFGS step
    3    -380.7607238075      4.94e-04   Normal BFGS step
    4    -380.7607417990      1.99e-04   Normal BFGS step
    5    -380.7607447640      8.55e-05   Normal BFGS step
    6    -380.7607450716      3.08e-05   Normal BFGS step
    7    -380.7607451114      1.43e-05   Normal BFGS step
    8    -380.7607451218      3.46e-06   Normal BFGS step
    9    -380.7607451221      1.33e-06   Normal BFGS step
   10    -380.7607451221      3.98e-07   Normal BFGS step
   11    -380.7607451222      1.07e-07   Normal BFGS step
   12    -380.7607451221      2.32e-08  Convergence criterion met
 ---------------------------------------
 SCF time:   CPU 476.00s  wall 73.00s 
(3)  G-ENP(liq) elect-nuc-pol free energy of system     -380.760745122 a.u.
(4)  G-CDS(liq) cavity-dispersion-solvent structure 
     free energy                                                2.8744 kcal/mol
(6)  G-S(liq) free energy of system                     -380.756164520 a.u.
 SCF   energy in the final basis set =     -380.7561645198
 Total energy in the final basis set =     -380.7561645198
 
 --------------------------------------------------------------
 
                    Orbital Energies (a.u.)
 --------------------------------------------------------------
 
 Alpha MOs
 -- Occupied --
-19.3524 -19.3484 -19.3482 -19.3415 -10.4471 -10.4431  -1.2214  -1.1869
 -1.1451  -1.1316  -0.8468  -0.7539  -0.6704  -0.6578  -0.6328  -0.6255
 -0.5650  -0.5249  -0.5051  -0.4736  -0.4646  -0.4478  -0.4331  -0.4098
 -0.3803
 -- Virtual --
  0.0250   0.0420   0.0480   0.0519   0.0713   0.0785   0.1053   0.1071
  0.1249   0.1372   0.1433   0.1511   0.1574   0.1754   0.2212   0.2253
  0.2312   0.2359   0.2524   0.2574   0.2707   0.2736   0.2839   0.2871
  0.3043   0.3144   0.3292   0.3350   0.3392   0.3437   0.3463   0.3604
  0.3687   0.3702   0.3807   0.3930   0.4234   0.4353   0.4457   0.4653
  0.4867   0.5681   0.5844   0.5979   0.6073   0.6169   0.6360   0.6456
  0.6738   0.6825   0.6910   0.7295   0.7338   0.7680   0.8032   0.8159
  0.8303   0.8635   0.8905   0.9355   0.9488   0.9782   1.0002   1.0322
  1.0619   1.0731   1.0774   1.0994   1.1402   1.1490   1.1630   1.1796
  1.1927   1.2099   1.2271   1.2397   1.2674   1.2739   1.2948   1.3123
  1.3301   1.3495   1.3785   1.4123   1.4245   1.4537   1.4639   1.4948
  1.5187   1.5373   1.5447   1.5750   1.5859   1.6083   1.6360   1.7213
  1.7398   1.7577   1.8110   1.8738   1.9032   1.9361   1.9552   2.0012
  2.0455   2.1245   2.1458   2.1738   2.2454   2.3049   2.3350   2.3620
  2.3791   2.4007   2.4370   2.4441   2.4658   2.4941   2.5195   2.6266
  2.7056   2.7415   2.8031   2.8246   2.9152   2.9642   3.0615   3.0928
  3.1975   3.2477   3.2626   3.3350   3.3470   3.3677   3.4032   3.4598
  3.4863   3.5083   3.5861   3.6172   3.6263   3.6534   3.6778   3.7172
  3.7551   3.7962   3.8082   3.8353   3.8479   3.8620   3.8931   3.9292
  3.9340   4.0198   4.0344   4.1047   4.1199   4.1904   4.1940   4.2545
  4.2758   4.2963   4.3165   4.3288   4.3727   4.3795   4.4460   4.4595
  4.5281   4.6200   4.6960   5.1915   5.1993   5.2073   5.2257   5.2569
  5.2688   5.2853   5.2866   5.2906   5.3130   5.3257   5.3654   5.4049
  5.4257   5.4370   5.4515   5.4816   5.5288   5.5624   5.5779   5.6206
  5.6429   5.6634   5.6802   5.7087   5.7356   5.8693   5.8875   5.9529
  5.9877   6.0199   6.0597   6.1214   6.1421   6.5302   6.5604   6.7293
  6.7589   7.0551   7.0684   7.1163   7.1332   7.2197   7.2460   7.2702
  7.2908   7.3142   7.3391   7.3419   7.3561   7.3894   7.4190   7.4720
  7.4976   7.6157   7.6986   7.7227   7.7483   7.7707   7.8011   7.8683
  7.9050  24.7375  24.8546  50.5756  50.5958  50.6040  50.6668
 --------------------------------------------------------------
 
          Ground-State Mulliken Net Atomic Charges

     Atom                 Charge (a.u.)
  ----------------------------------------
      1 C                    -0.076965
      2 O                    -0.458317
      3 C                     0.024715
      4 O                    -0.461354
      5 O                    -0.439022
      6 O                    -0.413082
      7 H                     0.237616
      8 H                     0.323028
      9 H                     0.255013
     10 H                     0.331769
     11 H                     0.352481
     12 H                     0.324117
  ----------------------------------------
  Sum of atomic charges =     0.000000

 -----------------------------------------------------------------
                    Cartesian Multipole Moments
 -----------------------------------------------------------------
    Charge (ESU x 10^10)
                 0.0000
    Dipole Moment (Debye)
         X      -5.4414      Y      -0.7189      Z       1.6248
       Tot       5.7241
    Quadrupole Moments (Debye-Ang)
        XX     -45.0764     XY      -2.0257     YY     -31.0898
        XZ       3.0837     YZ      -5.6896     ZZ     -40.6018
    Octopole Moments (Debye-Ang^2)
       XXX    -110.4656    XXY       9.1961    XYY     -25.9465
       YYY      12.3200    XXZ      37.2123    XYZ       3.5934
       YYZ      28.7129    XZZ     -31.9539    YZZ      12.8881
       ZZZ     112.7417
    Hexadecapole Moments (Debye-Ang^3)
      XXXX    -476.8152   XXXY      -2.6245   XXYY     -95.8193
      XYYY      -4.3562   YYYY    -185.5524   XXXZ      59.5558
      XXYZ     -25.8858   XYYZ      -1.8022   YYYZ     -35.6156
      XXZZ    -120.4769   XYZZ     -20.9323   YYZZ     -85.6834
      XZZZ      51.8698   YZZZ     -40.7733   ZZZZ    -356.8466
 -----------------------------------------------------------------
 Calculating analytic gradient of the SCF energy
 Gradient of CDS energy
            1           2           3           4           5           6
    1   0.0024679  -0.0005231  -0.0004348   0.0003490  -0.0000085  -0.0016097
    2   0.0035709   0.0006316   0.0015832   0.0006482  -0.0022028  -0.0042111
    3   0.0008359   0.0003508  -0.0027796   0.0000320   0.0027739  -0.0007944
            7           8           9          10          11          12
    1  -0.0000383   0.0001678  -0.0000290  -0.0002682  -0.0002317   0.0001586
    2  -0.0000061  -0.0003890   0.0000551  -0.0004451   0.0003208   0.0004443
    3   0.0001126  -0.0002726   0.0001022   0.0000980  -0.0003257  -0.0001332
 Gradient of SCF Energy
            1           2           3           4           5           6
    1  -0.0028378   0.0072864   0.0092184   0.0041177   0.0164431   0.0050640
    2   0.0044072   0.0055728  -0.0047714   0.0099574  -0.0088033  -0.0020060
    3  -0.0061248  -0.0000027  -0.0088284  -0.0196622  -0.0000665   0.0043891
            7           8           9          10          11          12
    1  -0.0032937  -0.0037732  -0.0097124  -0.0044345  -0.0151392  -0.0029388
    2  -0.0039645  -0.0046671   0.0041798  -0.0088686   0.0062532   0.0027104
    3   0.0049689   0.0004826   0.0086854   0.0175862   0.0001312  -0.0015586
 Max gradient component =       1.966E-02
 RMS gradient           =       7.823E-03
 Computing fast CPCM-SWIG gradient
 Updating gradient with PCM contributions...
 -- total gradient after adding PCM contribution --
---------------------------------------------------
  Atom         X              Y              Z     
---------------------------------------------------
   1       0.000071      -0.000155       0.000309
   2      -0.000285      -0.000566       0.000320
   3      -0.000551       0.000188       0.000212
   4      -0.000190       0.000053       0.000397
   5      -0.000188       0.000086       0.000140
   6      -0.000287       0.000026      -0.000876
   7       0.000076       0.000374      -0.000317
   8       0.000156       0.000495      -0.000208
   9       0.000262      -0.000177      -0.000237
  10       0.000355       0.000115      -0.000410
  11       0.000532      -0.000337       0.000152
  12       0.000049      -0.000101       0.000519
---------------------------------------------------
 Number of fixed atoms: 0
 Gradient time:  CPU 83.75 s  wall 14.07 s
 Geometry Optimization Parameters
   NAtoms,    NIC,     NZ,  NCons,   NDum,   NFix, NCnnct, MaxDiis
       12      72       0       0       0       0       0       0

 Cartesian Hessian Update
 Hessian updated using BFGS update


** GEOMETRY OPTIMIZATION IN DELOCALIZED INTERNAL COORDINATES **
   Searching for a Minimum

   Optimization Cycle:   3

                       Coordinates (Angstroms)
     ATOM                X               Y               Z
      1  C         1.2457875257   -0.2115243862   -0.3049348814
      2  O         2.1140442368   -0.8924431300   -1.1902221680
      3  C        -0.1656465640   -0.1452431313   -0.8847789642
      4  O        -0.5962099483   -1.4400078194   -1.2611398221
      5  O        -0.1060413257    0.6424017526   -2.0402422651
      6  O         1.7551584300    1.0714695521   -0.0763091082
      7  H         1.2177693714   -0.7146928656    0.6619119313
      8  H         1.6148314856   -1.6172073206   -1.5894316053
      9  H        -0.8457563884    0.2835709607   -0.1483872689
     10  H        -0.8681316617   -1.9174504646   -0.4685232306
     11  H        -0.9891597940    0.9728156427   -2.2348587896
     12  H         1.5781112321    1.6011162093   -0.8652181277
   Point Group: c1    Number of degrees of freedom:    30


   Energy is   -380.756164520

 Hessian updated using BFGS update

 29 Hessian modes will be used to form the next step
  Hessian Eigenvalues:
     0.004157    0.010309    0.013429    0.015233    0.015461    0.056762
     0.056962    0.062202    0.069238    0.094501    0.101579    0.157755
     0.161960    0.165217    0.183610    0.185014    0.200090    0.205244
     0.320805    0.341466    0.344767    0.429103    0.435571    0.453283
     0.485722    0.521894    0.526704    0.529617    0.560040

 Minimum search - taking simple RFO step
 Searching for Lamda that Minimizes Along All modes
 Value Taken    Lamda =  -0.00003483
 Step Taken.  Stepsize is  0.068688

                             Maximum     Tolerance    Cnvgd?
         Gradient           0.000601      0.000300      NO
         Displacement       0.042927      0.001200      NO
         Energy change     -0.000062      0.000001      NO


 New Cartesian Coordinates Obtained by Inverse Iteration

 Displacement from previous Coordinates is:  0.066483
 ----------------------------------------------------------------
             Standard Nuclear Orientation (Angstroms)
    I     Atom           X                Y                Z
 ----------------------------------------------------------------
    1      C       1.2461218680    -0.2119525110    -0.3086275259
    2      O       2.1173183370    -0.8821632754    -1.1988388737
    3      C      -0.1649756503    -0.1459745935    -0.8871729759
    4      O      -0.5991190805    -1.4421686809    -1.2545134012
    5      O      -0.1082505790     0.6357727396    -2.0465785465
    6      O       1.7524002752     1.0698808458    -0.0687714095
    7      H       1.2184568050    -0.7239774460     0.6541426328
    8      H       1.6284202147    -1.6188633880    -1.5881430869
    9      H      -0.8420837512     0.2883493047    -0.1503443534
   10      H      -0.8817247922    -1.9095124894    -0.4595102341
   11      H      -0.9908757101     0.9703099070    -2.2378024204
   12      H       1.5790686632     1.6031045869    -0.8559741052
 ----------------------------------------------------------------
 Nuclear Repulsion Energy =         273.80750055 hartrees
 There are       25 alpha and       25 beta electrons
 Discretize the solute cavity surface with Lebedev spheres
	Using 110 Lebedev grid points for each H atom
	Using 194 Lebedev grid points for other atoms
	Atomic van der Waals radii will be scaled by 1.20
 Remove points where switching function is < 1.0e-08
 Keep 940 surface tesserae and discard 884 interior tesserae
 Molecular Surface Area = 107.799 Angst**2
 Applying Cartesian multipole field
    Component          Value
    ---------          -----
     (2,0,0)        1.00000E-11
     (0,2,0)        2.00000E-11
     (0,0,2)       -3.00000E-11
 Nucleus-field energy     =    -0.0000000015 hartrees
 Requested basis set is 6-311++G(2df,2p)
 There are 84 shells and 264 basis functions
 A cutoff of  1.0D-12 yielded   3435 shell pairs
 There are     34163 function pairs (     42444 Cartesian)
 Smallest overlap matrix eigenvalue = 6.90E-05
 Guess MOs from SCF MO coefficient file

 -----------------------------------------------------------------------
  General SCF calculation program by
  Eric Jon Sundstrom, Paul Horn, Yuezhi Mao, Dmitri Zuev, Alec White,
  David Stuck, Shaama M.S., Shane Yost, Joonho Lee, David Small,
  Daniel Levine, Susi Lehtola, Hugh Burton, Evgeny Epifanovsky,
  Bang C. Huynh
 -----------------------------------------------------------------------
 Exchange:     0.1500 Hartree-Fock + 1.0000 wB97M-V + LR-HF
 Correlation:  1.0000 wB97M-V
 Using SG-2 standard quadrature grid
 Nonlocal Correlation:  VV10 with C = 0.0100 and b = 6.00 and scale = 1.00000
 Grid used for NLC:  SG-1 standard quadrature
 
 Citation of the SMD model:
 Marenich, A.V.; Cramer, C.J.; Truhlar, D.G.
 J. Phys. Chem. B 2009, 113, 6378-6396.
 iSolventCode=           1
 Solvent: water                                                           
 
 vradii
            1           2           3           4           5           6
    1   1.8500000   1.5200000   1.8500000   1.5200000   1.5200000   1.5200000
            7           8           9          10          11          12
    1   1.2000000   1.2000000   1.2000000   1.2000000   1.2000000   1.2000000
 -------------------------------------------------------
 OpenMP BLAS3 based DFT computing Module                
 Release: version 1.0, May 2013, Q-Chem Inc. Pittsburgh 
 -------------------------------------------------------
 A restricted SCF calculation will be
 performed using Roothaan-Hall, DIIS, GDM
 SCF converges when RMS gradient is below 1.0e-07
 ---------------------------------------
  Cycle       Energy         DIIS error
 ---------------------------------------
    1    -380.7176250178      7.44e-04  Roothaan Step
 ---------------------------------------
  Cycle       Energy         DIIS error
 ---------------------------------------
    1    -380.7524731762      8.09e-04  
    2    -380.7584200139      6.24e-04  Done DIIS. Switching to GDM
 ---------------------------------------
  Cycle       Energy        RMS Gradient
 ---------------------------------------
    1    -380.7584200139      7.25e-03   Normal BFGS step
    2    -380.7585909310      9.59e-03   Normal BFGS step
    3    -380.7607630822      5.01e-04   Normal BFGS step
    4    -380.7607811327      1.97e-04   Normal BFGS step
    5    -380.7607841974      8.36e-05   Normal BFGS step
    6    -380.7607844894      3.08e-05   Normal BFGS step
    7    -380.7607845303      1.41e-05   Normal BFGS step
    8    -380.7607845403      3.53e-06   Normal BFGS step
    9    -380.7607845407      1.37e-06   Normal BFGS step
   10    -380.7607845407      4.02e-07   Normal BFGS step
   11    -380.7607845407      1.08e-07   Normal BFGS step
   12    -380.7607845407      2.26e-08  Convergence criterion met
 ---------------------------------------
 SCF time:   CPU 471.44s  wall 75.00s 
(3)  G-ENP(liq) elect-nuc-pol free energy of system     -380.760784541 a.u.
(4)  G-CDS(liq) cavity-dispersion-solvent structure 
     free energy                                                2.8814 kcal/mol
(6)  G-S(liq) free energy of system                     -380.756192693 a.u.
 SCF   energy in the final basis set =     -380.7561926925
 Total energy in the final basis set =     -380.7561926925
 
 --------------------------------------------------------------
 
                    Orbital Energies (a.u.)
 --------------------------------------------------------------
 
 Alpha MOs
 -- Occupied --
-19.3523 -19.3484 -19.3482 -19.3416 -10.4469 -10.4431  -1.2213  -1.1871
 -1.1448  -1.1318  -0.8469  -0.7537  -0.6707  -0.6572  -0.6331  -0.6255
 -0.5650  -0.5249  -0.5043  -0.4745  -0.4642  -0.4483  -0.4328  -0.4098
 -0.3801
 -- Virtual --
  0.0250   0.0420   0.0480   0.0519   0.0712   0.0785   0.1054   0.1071
  0.1250   0.1371   0.1431   0.1512   0.1572   0.1752   0.2213   0.2255
  0.2309   0.2357   0.2522   0.2578   0.2704   0.2732   0.2846   0.2873
  0.3042   0.3139   0.3296   0.3346   0.3399   0.3438   0.3465   0.3596
  0.3690   0.3701   0.3810   0.3932   0.4232   0.4355   0.4459   0.4657
  0.4862   0.5679   0.5853   0.5980   0.6070   0.6165   0.6360   0.6455
  0.6740   0.6829   0.6922   0.7295   0.7339   0.7670   0.8010   0.8155
  0.8299   0.8651   0.8908   0.9354   0.9481   0.9768   0.9999   1.0323
  1.0625   1.0736   1.0775   1.0995   1.1397   1.1492   1.1633   1.1791
  1.1928   1.2099   1.2294   1.2381   1.2672   1.2744   1.2942   1.3108
  1.3304   1.3478   1.3775   1.4124   1.4245   1.4550   1.4624   1.4954
  1.5192   1.5363   1.5449   1.5743   1.5862   1.6097   1.6355   1.7211
  1.7392   1.7592   1.8107   1.8734   1.9025   1.9363   1.9553   2.0014
  2.0458   2.1235   2.1446   2.1726   2.2461   2.3053   2.3342   2.3610
  2.3770   2.3992   2.4359   2.4462   2.4657   2.4936   2.5164   2.6288
  2.7082   2.7405   2.8021   2.8246   2.9156   2.9656   3.0635   3.0906
  3.1950   3.2493   3.2638   3.3333   3.3478   3.3693   3.4020   3.4587
  3.4884   3.5104   3.5863   3.6193   3.6285   3.6516   3.6765   3.7141
  3.7552   3.7964   3.8084   3.8335   3.8483   3.8615   3.8911   3.9300
  3.9340   4.0204   4.0365   4.1049   4.1185   4.1904   4.1936   4.2536
  4.2747   4.2971   4.3162   4.3292   4.3738   4.3794   4.4435   4.4565
  4.5278   4.6226   4.6961   5.1926   5.1991   5.2078   5.2249   5.2572
  5.2697   5.2853   5.2874   5.2897   5.3119   5.3250   5.3654   5.4059
  5.4230   5.4379   5.4525   5.4800   5.5273   5.5604   5.5801   5.6197
  5.6435   5.6621   5.6812   5.7080   5.7370   5.8707   5.8890   5.9530
  5.9891   6.0186   6.0591   6.1210   6.1432   6.5300   6.5611   6.7302
  6.7599   7.0550   7.0673   7.1171   7.1334   7.2184   7.2458   7.2695
  7.2903   7.3147   7.3382   7.3419   7.3569   7.3889   7.4177   7.4703
  7.4953   7.6153   7.6985   7.7225   7.7483   7.7711   7.8025   7.8686
  7.9051  24.7366  24.8558  50.5750  50.5951  50.6047  50.6675
 --------------------------------------------------------------
 
          Ground-State Mulliken Net Atomic Charges

     Atom                 Charge (a.u.)
  ----------------------------------------
      1 C                    -0.076889
      2 O                    -0.457264
      3 C                     0.022590
      4 O                    -0.461680
      5 O                    -0.438713
      6 O                    -0.412673
      7 H                     0.238800
      8 H                     0.323048
      9 H                     0.254524
     10 H                     0.331796
     11 H                     0.352468
     12 H                     0.323994
  ----------------------------------------
  Sum of atomic charges =     0.000000

 -----------------------------------------------------------------
                    Cartesian Multipole Moments
 -----------------------------------------------------------------
    Charge (ESU x 10^10)
                -0.0000
    Dipole Moment (Debye)
         X      -5.4140      Y      -0.7082      Z       1.6512
       Tot       5.7043
    Quadrupole Moments (Debye-Ang)
        XX     -44.9393     XY      -2.0956     YY     -31.0469
        XZ       3.0642     YZ      -5.7082     ZZ     -40.7336
    Octopole Moments (Debye-Ang^2)
       XXX    -110.2699    XXY       8.9223    XYY     -25.5965
       YYY      12.5598    XXZ      37.1975    XYZ       3.7270
       YYZ      28.7626    XZZ     -32.0666    YZZ      12.8451
       ZZZ     113.1330
    Hexadecapole Moments (Debye-Ang^3)
      XXXX    -476.9349   XXXY      -3.2286   XXYY     -94.8567
      XYYY      -4.9728   YYYY    -185.0324   XXXZ      59.6592
      XXYZ     -25.6763   XYYZ      -2.0777   YYYZ     -35.8501
      XXZZ    -120.9016   XYZZ     -21.2372   YYZZ     -85.7432
      XZZZ      52.3184   YZZZ     -40.7966   ZZZZ    -358.7470
 -----------------------------------------------------------------
 Calculating analytic gradient of the SCF energy
 Gradient of CDS energy
            1           2           3           4           5           6
    1   0.0025005  -0.0005547  -0.0004377   0.0003493  -0.0000022  -0.0016221
    2   0.0035997   0.0006434   0.0015860   0.0006439  -0.0022067  -0.0042542
    3   0.0008516   0.0003802  -0.0028155   0.0000241   0.0028112  -0.0008385
            7           8           9          10          11          12
    1  -0.0000360   0.0001715  -0.0000263  -0.0002689  -0.0002320   0.0001586
    2  -0.0000080  -0.0003885   0.0000611  -0.0004421   0.0003203   0.0004451
    3   0.0001113  -0.0002727   0.0001015   0.0001028  -0.0003254  -0.0001305
 Gradient of SCF Energy
            1           2           3           4           5           6
    1  -0.0028428   0.0069023   0.0097810   0.0043658   0.0164200   0.0051579
    2   0.0048790   0.0057352  -0.0050068   0.0097152  -0.0091450  -0.0021649
    3  -0.0066121  -0.0000300  -0.0091705  -0.0198342  -0.0000853   0.0047211
            7           8           9          10          11          12
    1  -0.0032894  -0.0035727  -0.0097745  -0.0047609  -0.0153697  -0.0030168
    2  -0.0041962  -0.0046323   0.0044280  -0.0086630   0.0064922   0.0025585
    3   0.0051678   0.0006134   0.0089150   0.0177866   0.0001169  -0.0015886
 Max gradient component =       1.983E-02
 RMS gradient           =       7.940E-03
 Computing fast CPCM-SWIG gradient
 Updating gradient with PCM contributions...
 -- total gradient after adding PCM contribution --
---------------------------------------------------
  Atom         X              Y              Z     
---------------------------------------------------
   1      -0.000002       0.000316      -0.000177
   2      -0.000528      -0.000571       0.000375
   3       0.000145      -0.000037      -0.000229
   4      -0.000239       0.000112       0.000296
   5      -0.000201      -0.000159       0.000256
   6      -0.000190      -0.000060      -0.000604
   7       0.000076       0.000209      -0.000099
   8       0.000270       0.000638      -0.000116
   9       0.000138       0.000027       0.000025
  10       0.000290       0.000036      -0.000284
  11       0.000263      -0.000171       0.000040
  12      -0.000021      -0.000339       0.000518
---------------------------------------------------
 Number of fixed atoms: 0
 Gradient time:  CPU 84.41 s  wall 14.12 s
 Geometry Optimization Parameters
   NAtoms,    NIC,     NZ,  NCons,   NDum,   NFix, NCnnct, MaxDiis
       12      72       0       0       0       0       0       0

 Cartesian Hessian Update
 Hessian updated using BFGS update


** GEOMETRY OPTIMIZATION IN DELOCALIZED INTERNAL COORDINATES **
   Searching for a Minimum

   Optimization Cycle:   4

                       Coordinates (Angstroms)
     ATOM                X               Y               Z
      1  C         1.2461218680   -0.2119525110   -0.3086275259
      2  O         2.1173183370   -0.8821632754   -1.1988388737
      3  C        -0.1649756503   -0.1459745935   -0.8871729759
      4  O        -0.5991190805   -1.4421686809   -1.2545134012
      5  O        -0.1082505790    0.6357727396   -2.0465785465
      6  O         1.7524002752    1.0698808458   -0.0687714095
      7  H         1.2184568050   -0.7239774460    0.6541426328
      8  H         1.6284202147   -1.6188633880   -1.5881430869
      9  H        -0.8420837512    0.2883493047   -0.1503443534
     10  H        -0.8817247922   -1.9095124894   -0.4595102341
     11  H        -0.9908757101    0.9703099070   -2.2378024204
     12  H         1.5790686632    1.6031045869   -0.8559741052
   Point Group: c1    Number of degrees of freedom:    30


   Energy is   -380.756192693

 Hessian updated using BFGS update

 30 Hessian modes will be used to form the next step
  Hessian Eigenvalues:
     0.001980    0.007269    0.013423    0.015247    0.015443    0.056841
     0.056948    0.062725    0.071565    0.094396    0.101074    0.157313
     0.159820    0.163693    0.167424    0.183847    0.193514    0.203375
     0.213036    0.320063    0.341125    0.348896    0.429286    0.437273
     0.454101    0.488083    0.518328    0.522997    0.529376    0.546142

 Minimum search - taking simple RFO step
 Searching for Lamda that Minimizes Along All modes
 Value Taken    Lamda =  -0.00007397
 Step Taken.  Stepsize is  0.175780

                             Maximum     Tolerance    Cnvgd?
         Gradient           0.000612      0.000300      NO
         Displacement       0.104627      0.001200      NO
         Energy change     -0.000028      0.000001      NO


 New Cartesian Coordinates Obtained by Inverse Iteration

 Displacement from previous Coordinates is:  0.144738
 ----------------------------------------------------------------
             Standard Nuclear Orientation (Angstroms)
    I     Atom           X                Y                Z
 ----------------------------------------------------------------
    1      C       1.2467699218    -0.2119512148    -0.3175755292
    2      O       2.1235546812    -0.8599525781    -1.2191150303
    3      C      -0.1650481025    -0.1479790823    -0.8912554558
    4      O      -0.6010750109    -1.4471595362    -1.2462779307
    5      O      -0.1155679667     0.6286368612    -2.0545413035
    6      O       1.7457997462     1.0692558067    -0.0592234091
    7      H       1.2216834989    -0.7411492304     0.6370237477
    8      H       1.6653303530    -1.6358263933    -1.5678329287
    9      H      -0.8379443026     0.2912898623    -0.1521948280
   10      H      -0.9156906442    -1.8930913219    -0.4506072649
   11      H      -0.9976501230     0.9720287860    -2.2351265868
   12      H       1.5845945488     1.6087030404    -0.8454077806
 ----------------------------------------------------------------
 Nuclear Repulsion Energy =         273.59799537 hartrees
 There are       25 alpha and       25 beta electrons
 Discretize the solute cavity surface with Lebedev spheres
	Using 110 Lebedev grid points for each H atom
	Using 194 Lebedev grid points for other atoms
	Atomic van der Waals radii will be scaled by 1.20
 Remove points where switching function is < 1.0e-08
 Keep 941 surface tesserae and discard 883 interior tesserae
 Molecular Surface Area = 107.993 Angst**2
 Applying Cartesian multipole field
    Component          Value
    ---------          -----
     (2,0,0)        1.00000E-11
     (0,2,0)        2.00000E-11
     (0,0,2)       -3.00000E-11
 Nucleus-field energy     =    -0.0000000015 hartrees
 Requested basis set is 6-311++G(2df,2p)
 There are 84 shells and 264 basis functions
 A cutoff of  1.0D-12 yielded   3430 shell pairs
 There are     34118 function pairs (     42393 Cartesian)
 Smallest overlap matrix eigenvalue = 6.81E-05
 Guess MOs from SCF MO coefficient file

 -----------------------------------------------------------------------
  General SCF calculation program by
  Eric Jon Sundstrom, Paul Horn, Yuezhi Mao, Dmitri Zuev, Alec White,
  David Stuck, Shaama M.S., Shane Yost, Joonho Lee, David Small,
  Daniel Levine, Susi Lehtola, Hugh Burton, Evgeny Epifanovsky,
  Bang C. Huynh
 -----------------------------------------------------------------------
 Exchange:     0.1500 Hartree-Fock + 1.0000 wB97M-V + LR-HF
 Correlation:  1.0000 wB97M-V
 Using SG-2 standard quadrature grid
 Nonlocal Correlation:  VV10 with C = 0.0100 and b = 6.00 and scale = 1.00000
 Grid used for NLC:  SG-1 standard quadrature
 
 Citation of the SMD model:
 Marenich, A.V.; Cramer, C.J.; Truhlar, D.G.
 J. Phys. Chem. B 2009, 113, 6378-6396.
 iSolventCode=           1
 Solvent: water                                                           
 
 vradii
            1           2           3           4           5           6
    1   1.8500000   1.5200000   1.8500000   1.5200000   1.5200000   1.5200000
            7           8           9          10          11          12
    1   1.2000000   1.2000000   1.2000000   1.2000000   1.2000000   1.2000000
 -------------------------------------------------------
 OpenMP BLAS3 based DFT computing Module                
 Release: version 1.0, May 2013, Q-Chem Inc. Pittsburgh 
 -------------------------------------------------------
 A restricted SCF calculation will be
 performed using Roothaan-Hall, DIIS, GDM
 SCF converges when RMS gradient is below 1.0e-07
 ---------------------------------------
  Cycle       Energy         DIIS error
 ---------------------------------------
    1    -380.7164312643      8.08e-04  Roothaan Step
 ---------------------------------------
  Cycle       Energy         DIIS error
 ---------------------------------------
    1    -380.7522946067      8.22e-04  
    2    -380.7584020058      6.35e-04  Done DIIS. Switching to GDM
 ---------------------------------------
  Cycle       Energy        RMS Gradient
 ---------------------------------------
    1    -380.7584020058      6.24e-03   Normal BFGS step
    2    -380.7585762115      9.30e-03   Normal BFGS step
    3    -380.7608291352      5.44e-04   Normal BFGS step
    4    -380.7608478327      1.94e-04   Normal BFGS step
    5    -380.7608511211      8.33e-05   Normal BFGS step
    6    -380.7608514069      3.13e-05   Normal BFGS step
    7    -380.7608514514      1.42e-05   Normal BFGS step
    8    -380.7608514613      4.17e-06   Normal BFGS step
    9    -380.7608514616      1.63e-06   Normal BFGS step
   10    -380.7608514617      4.59e-07   Normal BFGS step
   11    -380.7608514617      1.19e-07   Normal BFGS step
   12    -380.7608514617      2.46e-08  Convergence criterion met
 ---------------------------------------
 SCF time:   CPU 475.18s  wall 75.00s 
(3)  G-ENP(liq) elect-nuc-pol free energy of system     -380.760851462 a.u.
(4)  G-CDS(liq) cavity-dispersion-solvent structure 
     free energy                                                2.8947 kcal/mol
(6)  G-S(liq) free energy of system                     -380.756238408 a.u.
 SCF   energy in the final basis set =     -380.7562384077
 Total energy in the final basis set =     -380.7562384077
 
 --------------------------------------------------------------
 
                    Orbital Energies (a.u.)
 --------------------------------------------------------------
 
 Alpha MOs
 -- Occupied --
-19.3519 -19.3487 -19.3478 -19.3419 -10.4463 -10.4432  -1.2206  -1.1870
 -1.1442  -1.1319  -0.8470  -0.7527  -0.6715  -0.6554  -0.6337  -0.6255
 -0.5646  -0.5248  -0.5021  -0.4767  -0.4628  -0.4496  -0.4321  -0.4096
 -0.3797
 -- Virtual --
  0.0248   0.0419   0.0478   0.0521   0.0711   0.0783   0.1056   0.1073
  0.1250   0.1369   0.1429   0.1512   0.1569   0.1747   0.2211   0.2257
  0.2301   0.2354   0.2516   0.2589   0.2698   0.2732   0.2858   0.2872
  0.3037   0.3131   0.3303   0.3339   0.3422   0.3440   0.3470   0.3581
  0.3696   0.3702   0.3814   0.3932   0.4231   0.4358   0.4458   0.4670
  0.4846   0.5672   0.5879   0.5972   0.6064   0.6159   0.6363   0.6452
  0.6745   0.6832   0.6946   0.7303   0.7343   0.7663   0.7940   0.8125
  0.8307   0.8685   0.8920   0.9342   0.9478   0.9746   0.9991   1.0322
  1.0635   1.0758   1.0776   1.0993   1.1388   1.1494   1.1639   1.1777
  1.1929   1.2098   1.2327   1.2366   1.2650   1.2760   1.2928   1.3067
  1.3340   1.3446   1.3747   1.4129   1.4244   1.4562   1.4602   1.4968
  1.5195   1.5344   1.5449   1.5707   1.5873   1.6127   1.6347   1.7214
  1.7352   1.7624   1.8102   1.8723   1.8999   1.9347   1.9586   1.9999
  2.0480   2.1218   2.1431   2.1690   2.2465   2.3037   2.3322   2.3586
  2.3750   2.3931   2.4348   2.4502   2.4639   2.4927   2.5113   2.6338
  2.7116   2.7381   2.7996   2.8254   2.9167   2.9679   3.0679   3.0873
  3.1870   3.2523   3.2670   3.3279   3.3476   3.3728   3.3995   3.4549
  3.4934   3.5147   3.5848   3.6223   3.6329   3.6478   3.6752   3.7078
  3.7554   3.7969   3.8099   3.8303   3.8482   3.8609   3.8862   3.9289
  3.9342   4.0219   4.0404   4.1048   4.1169   4.1878   4.1941   4.2494
  4.2709   4.2996   4.3133   4.3306   4.3733   4.3808   4.4391   4.4486
  4.5283   4.6252   4.6971   5.1963   5.1980   5.2107   5.2232   5.2580
  5.2717   5.2838   5.2889   5.2915   5.3086   5.3232   5.3645   5.4086
  5.4154   5.4397   5.4546   5.4755   5.5219   5.5553   5.5852   5.6152
  5.6427   5.6590   5.6836   5.7039   5.7398   5.8707   5.8930   5.9532
  5.9907   6.0152   6.0561   6.1177   6.1450   6.5278   6.5611   6.7308
  6.7598   7.0547   7.0653   7.1207   7.1341   7.2148   7.2441   7.2680
  7.2879   7.3136   7.3342   7.3396   7.3590   7.3881   7.4144   7.4647
  7.4915   7.6142   7.6984   7.7218   7.7473   7.7696   7.8069   7.8688
  7.9047  24.7328  24.8567  50.5735  50.5928  50.6053  50.6685
 --------------------------------------------------------------
 
          Ground-State Mulliken Net Atomic Charges

     Atom                 Charge (a.u.)
  ----------------------------------------
      1 C                    -0.071881
      2 O                    -0.455337
      3 C                     0.014611
      4 O                    -0.462745
      5 O                    -0.439180
      6 O                    -0.413729
      7 H                     0.242378
      8 H                     0.323156
      9 H                     0.253664
     10 H                     0.332040
     11 H                     0.352551
     12 H                     0.324470
  ----------------------------------------
  Sum of atomic charges =     0.000000

 -----------------------------------------------------------------
                    Cartesian Multipole Moments
 -----------------------------------------------------------------
    Charge (ESU x 10^10)
                 0.0000
    Dipole Moment (Debye)
         X      -5.3560      Y      -0.7312      Z       1.7517
       Tot       5.6824
    Quadrupole Moments (Debye-Ang)
        XX     -44.5100     XY      -2.2939     YY     -30.8652
        XZ       3.0514     YZ      -5.7473     ZZ     -41.1856
    Octopole Moments (Debye-Ang^2)
       XXX    -109.7546    XXY       8.0625    XYY     -24.7083
       YYY      12.6167    XXZ      37.1643    XYZ       3.9505
       YYZ      28.7802    XZZ     -32.3312    YZZ      12.8859
       ZZZ     114.6460
    Hexadecapole Moments (Debye-Ang^3)
      XXXX    -476.5846   XXXY      -4.7877   XXYY     -92.2032
      XYYY      -6.7245   YYYY    -183.9746   XXXZ      60.0271
      XXYZ     -25.1090   XYYZ      -2.7002   YYYZ     -35.9653
      XXZZ    -121.9010   XYZZ     -21.5494   YYZZ     -86.0030
      XZZZ      53.5512   YZZZ     -41.1437   ZZZZ    -363.9354
 -----------------------------------------------------------------
 Calculating analytic gradient of the SCF energy
 Gradient of CDS energy
            1           2           3           4           5           6
    1   0.0024307  -0.0005357  -0.0004439   0.0003437   0.0000189  -0.0015941
    2   0.0036099   0.0005984   0.0015905   0.0006219  -0.0022015  -0.0042248
    3   0.0009385   0.0003521  -0.0028251   0.0000051   0.0028249  -0.0008951
            7           8           9          10          11          12
    1  -0.0000340   0.0001809  -0.0000209  -0.0002706  -0.0002333   0.0001584
    2  -0.0000099  -0.0003876   0.0000702  -0.0004358   0.0003214   0.0004473
    3   0.0001100  -0.0002722   0.0001001   0.0001105  -0.0003232  -0.0001256
 Gradient of SCF Energy
            1           2           3           4           5           6
    1  -0.0031280   0.0067797   0.0102389   0.0053793   0.0167827   0.0052478
    2   0.0050071   0.0066039  -0.0052892   0.0092857  -0.0096276  -0.0021060
    3  -0.0070301  -0.0005235  -0.0092013  -0.0205325  -0.0003295   0.0053511
            7           8           9          10          11          12
    1  -0.0034545  -0.0034659  -0.0099633  -0.0056605  -0.0158387  -0.0029174
    2  -0.0048843  -0.0053689   0.0047786  -0.0082699   0.0068982   0.0029724
    3   0.0055191   0.0008419   0.0092587   0.0183980   0.0003366  -0.0020885
 Max gradient component =       2.053E-02
 RMS gradient           =       8.230E-03
 Computing fast CPCM-SWIG gradient
 Updating gradient with PCM contributions...
 -- total gradient after adding PCM contribution --
---------------------------------------------------
  Atom         X              Y              Z     
---------------------------------------------------
   1      -0.000436       0.000466      -0.000575
   2      -0.000272      -0.000256       0.000231
   3       0.000846      -0.000396      -0.000557
   4      -0.000103       0.000181      -0.000167
   5       0.000164      -0.000428       0.000374
   6      -0.000063       0.000045      -0.000012
   7      -0.000115      -0.000285       0.000275
   8       0.000210       0.000307      -0.000119
   9      -0.000103       0.000377       0.000390
  10       0.000117      -0.000110       0.000183
  11      -0.000286       0.000131      -0.000044
  12       0.000042      -0.000033       0.000020
---------------------------------------------------
 Number of fixed atoms: 0
 Gradient time:  CPU 84.27 s  wall 14.11 s
 Geometry Optimization Parameters
   NAtoms,    NIC,     NZ,  NCons,   NDum,   NFix, NCnnct, MaxDiis
       12      72       0       0       0       0       0       0

 Cartesian Hessian Update
 Hessian updated using BFGS update


** GEOMETRY OPTIMIZATION IN DELOCALIZED INTERNAL COORDINATES **
   Searching for a Minimum

   Optimization Cycle:   5

                       Coordinates (Angstroms)
     ATOM                X               Y               Z
      1  C         1.2467699218   -0.2119512148   -0.3175755292
      2  O         2.1235546812   -0.8599525781   -1.2191150303
      3  C        -0.1650481025   -0.1479790823   -0.8912554558
      4  O        -0.6010750109   -1.4471595362   -1.2462779307
      5  O        -0.1155679667    0.6286368612   -2.0545413035
      6  O         1.7457997462    1.0692558067   -0.0592234091
      7  H         1.2216834989   -0.7411492304    0.6370237477
      8  H         1.6653303530   -1.6358263933   -1.5678329287
      9  H        -0.8379443026    0.2912898623   -0.1521948280
     10  H        -0.9156906442   -1.8930913219   -0.4506072649
     11  H        -0.9976501230    0.9720287860   -2.2351265868
     12  H         1.5845945488    1.6087030404   -0.8454077806
   Point Group: c1    Number of degrees of freedom:    30


   Energy is   -380.756238408

 Hessian updated using BFGS update

[...]
 Smallest overlap matrix eigenvalue = 6.55E-05
 Guess MOs from SCF MO coefficient file

 -----------------------------------------------------------------------
  General SCF calculation program by
  Eric Jon Sundstrom, Paul Horn, Yuezhi Mao, Dmitri Zuev, Alec White,
  David Stuck, Shaama M.S., Shane Yost, Joonho Lee, David Small,
  Daniel Levine, Susi Lehtola, Hugh Burton, Evgeny Epifanovsky,
  Bang C. Huynh
 -----------------------------------------------------------------------
 Exchange:     0.1500 Hartree-Fock + 1.0000 wB97M-V + LR-HF
 Correlation:  1.0000 wB97M-V
 Using SG-2 standard quadrature grid
 Nonlocal Correlation:  VV10 with C = 0.0100 and b = 6.00 and scale = 1.00000
 Grid used for NLC:  SG-1 standard quadrature
 
 Citation of the SMD model:
 Marenich, A.V.; Cramer, C.J.; Truhlar, D.G.
 J. Phys. Chem. B 2009, 113, 6378-6396.
 iSolventCode=           1
 Solvent: water                                                           
 
 vradii
            1           2           3           4           5           6
    1   1.8500000   1.5200000   1.8500000   1.5200000   1.5200000   1.5200000
            7           8           9          10          11          12
    1   1.2000000   1.2000000   1.2000000   1.2000000   1.2000000   1.2000000
 -------------------------------------------------------
 OpenMP BLAS3 based DFT computing Module                
 Release: version 1.0, May 2013, Q-Chem Inc. Pittsburgh 
 -------------------------------------------------------
 A restricted SCF calculation will be
 performed using Roothaan-Hall, DIIS, GDM
 SCF converges when RMS gradient is below 1.0e-07
 ---------------------------------------
  Cycle       Energy         DIIS error
 ---------------------------------------
    1    -380.7172190593      7.47e-04  Roothaan Step
 ---------------------------------------
  Cycle       Energy         DIIS error
 ---------------------------------------
    1    -380.7522176630      8.27e-04  
    2    -380.7584286755      6.37e-04  Done DIIS. Switching to GDM
 ---------------------------------------
  Cycle       Energy        RMS Gradient
 ---------------------------------------
    1    -380.7584286755      6.12e-03   Normal BFGS step
    2    -380.7586165977      8.61e-03   Normal BFGS step
    3    -380.7608729327      5.36e-04   Normal BFGS step
    4    -380.7608919784      2.14e-04   Normal BFGS step
    5    -380.7608954619      8.99e-05   Normal BFGS step
    6    -380.7608957335      3.34e-05   Normal BFGS step
    7    -380.7608957826      1.35e-05   Normal BFGS step
    8    -380.7608957916      3.14e-06   Normal BFGS step
    9    -380.7608957920      1.28e-06   Normal BFGS step
   10    -380.7608957920      3.67e-07   Normal BFGS step
   11    -380.7608957921      1.00e-07   Normal BFGS step
   12    -380.7608957920      2.77e-08  Convergence criterion met
 ---------------------------------------
 SCF time:   CPU 481.57s  wall 78.00s 
(3)  G-ENP(liq) elect-nuc-pol free energy of system     -380.760895792 a.u.
(4)  G-CDS(liq) cavity-dispersion-solvent structure 
     free energy                                                2.9000 kcal/mol
(6)  G-S(liq) free energy of system                     -380.756274338 a.u.
 SCF   energy in the final basis set =     -380.7562743381
 Total energy in the final basis set =     -380.7562743381
 
 --------------------------------------------------------------
 
                    Orbital Energies (a.u.)
 --------------------------------------------------------------
 
 Alpha MOs
 -- Occupied --
-19.3515 -19.3486 -19.3476 -19.3417 -10.4462 -10.4430  -1.2202  -1.1867
 -1.1441  -1.1317  -0.8470  -0.7520  -0.6720  -0.6536  -0.6353  -0.6252
 -0.5644  -0.5240  -0.5007  -0.4794  -0.4594  -0.4522  -0.4315  -0.4088
 -0.3801
 -- Virtual --
  0.0247   0.0421   0.0477   0.0520   0.0711   0.0784   0.1054   0.1077
  0.1242   0.1367   0.1431   0.1512   0.1568   0.1744   0.2209   0.2250
  0.2301   0.2360   0.2499   0.2612   0.2706   0.2732   0.2846   0.2861
  0.3031   0.3154   0.3285   0.3338   0.3433   0.3438   0.3467   0.3565
  0.3687   0.3723   0.3806   0.3929   0.4252   0.4351   0.4453   0.4667
  0.4811   0.5668   0.5912   0.5957   0.6092   0.6165   0.6384   0.6463
  0.6731   0.6818   0.6951   0.7335   0.7375   0.7653   0.7876   0.8064
  0.8408   0.8697   0.8901   0.9312   0.9503   0.9790   0.9969   1.0322
  1.0631   1.0769   1.0801   1.1005   1.1377   1.1473   1.1665   1.1767
  1.1911   1.2108   1.2267   1.2356   1.2630   1.2754   1.2920   1.3096
  1.3365   1.3452   1.3674   1.4134   1.4240   1.4526   1.4618   1.4934
  1.5195   1.5365   1.5464   1.5678   1.5892   1.6107   1.6334   1.7195
  1.7378   1.7634   1.8069   1.8805   1.8976   1.9290   1.9770   1.9894
  2.0429   2.1207   2.1488   2.1665   2.2486   2.2985   2.3290   2.3563
  2.3790   2.3864   2.4349   2.4509   2.4636   2.4895   2.5125   2.6363
  2.7042   2.7433   2.7999   2.8344   2.9126   2.9701   3.0708   3.0903
  3.1698   3.2538   3.2748   3.3236   3.3416   3.3739   3.3982   3.4538
  3.4968   3.5196   3.5794   3.6205   3.6390   3.6453   3.6767   3.7086
  3.7560   3.7995   3.8145   3.8287   3.8454   3.8633   3.8864   3.9201
  3.9376   4.0212   4.0397   4.0993   4.1186   4.1859   4.1979   4.2416
  4.2713   4.3033   4.3106   4.3334   4.3719   4.3825   4.4380   4.4489
  4.5342   4.6181   4.6990   5.1964   5.2013   5.2141   5.2218   5.2595
  5.2736   5.2785   5.2916   5.2970   5.3058   5.3251   5.3545   5.4032
  5.4179   5.4411   5.4582   5.4788   5.5144   5.5549   5.5937   5.6005
  5.6425   5.6612   5.6837   5.6988   5.7424   5.8559   5.8969   5.9557
  5.9935   6.0137   6.0568   6.1157   6.1523   6.5235   6.5620   6.7276
  6.7567   7.0551   7.0702   7.1249   7.1329   7.2139   7.2459   7.2697
  7.2870   7.3117   7.3347   7.3380   7.3586   7.3897   7.4144   7.4623
  7.4969   7.6145   7.7009   7.7227   7.7420   7.7680   7.8087   7.8689
  7.9030  24.7322  24.8543  50.5739  50.5933  50.6036  50.6697
 --------------------------------------------------------------
 
          Ground-State Mulliken Net Atomic Charges

     Atom                 Charge (a.u.)
  ----------------------------------------
      1 C                    -0.082904
      2 O                    -0.455794
      3 C                     0.023954
      4 O                    -0.462571
      5 O                    -0.440834
      6 O                    -0.415251
      7 H                     0.245714
      8 H                     0.323434
      9 H                     0.253550
     10 H                     0.333987
     11 H                     0.353067
     12 H                     0.323648
  ----------------------------------------
  Sum of atomic charges =     0.000000

 -----------------------------------------------------------------
                    Cartesian Multipole Moments
 -----------------------------------------------------------------
    Charge (ESU x 10^10)
                 0.0000
    Dipole Moment (Debye)
         X      -5.6071      Y      -0.7925      Z       1.8268
       Tot       5.9501
    Quadrupole Moments (Debye-Ang)
        XX     -44.0546     XY      -2.1847     YY     -31.0171
        XZ       3.4401     YZ      -5.5714     ZZ     -41.4924
    Octopole Moments (Debye-Ang^2)
       XXX    -111.7647    XXY       6.3630    XYY     -25.1463
       YYY      12.6097    XXZ      37.2436    XYZ       3.6459
       YYZ      28.8297    XZZ     -33.1591    YZZ      12.8784
       ZZZ     115.7319
    Hexadecapole Moments (Debye-Ang^3)
      XXXX    -479.6075   XXXY      -5.3570   XXYY     -90.7815
      XYYY      -7.1697   YYYY    -186.1789   XXXZ      63.0082
      XXYZ     -24.0471   XYYZ      -2.0258   YYYZ     -35.2128
      XXZZ    -122.6867   XYZZ     -20.7380   YYZZ     -86.6274
      XZZZ      56.0018   YZZZ     -41.4340   ZZZZ    -364.9091
 -----------------------------------------------------------------
 Calculating analytic gradient of the SCF energy
 Gradient of CDS energy
            1           2           3           4           5           6
    1   0.0023703  -0.0004798  -0.0004538   0.0003404   0.0000595  -0.0015914
    2   0.0037074   0.0005489   0.0014976   0.0006573  -0.0021298  -0.0042736
    3   0.0009837   0.0002939  -0.0026417   0.0000205   0.0026274  -0.0008796
            7           8           9          10          11          12
    1  -0.0000298   0.0001828  -0.0000302  -0.0002817  -0.0002377   0.0001515
    2  -0.0000116  -0.0003880   0.0000505  -0.0004281   0.0003207   0.0004488
    3   0.0001146  -0.0002713   0.0000962   0.0001062  -0.0003231  -0.0001270
 Gradient of SCF Energy
            1           2           3           4           5           6
    1  -0.0029898   0.0067266   0.0095723   0.0083254   0.0170570   0.0055831
    2   0.0041318   0.0070030  -0.0047774   0.0085476  -0.0089638  -0.0019957
    3  -0.0061891  -0.0012829  -0.0087184  -0.0199989  -0.0008596   0.0050063
            7           8           9          10          11          12
    1  -0.0032586  -0.0034731  -0.0103194  -0.0082129  -0.0159255  -0.0030852
    2  -0.0043504  -0.0055982   0.0041917  -0.0074917   0.0064471   0.0028561
    3   0.0049819   0.0013253   0.0092203   0.0178837   0.0004434  -0.0018120
 Max gradient component =       2.000E-02
 RMS gradient           =       8.154E-03
 Computing fast CPCM-SWIG gradient
 Updating gradient with PCM contributions...
 -- total gradient after adding PCM contribution --
---------------------------------------------------
  Atom         X              Y              Z     
---------------------------------------------------
   1      -0.000048       0.000045      -0.000037
   2       0.000010       0.000010       0.000018
   3       0.000074      -0.000053      -0.000055
   4       0.000017       0.000034      -0.000017
   5       0.000003      -0.000033       0.000019
   6       0.000045      -0.000024      -0.000012
   7      -0.000025      -0.000025       0.000028
   8       0.000016       0.000016       0.000004
   9      -0.000013       0.000021       0.000038
  10       0.000003      -0.000015       0.000015
  11      -0.000034       0.000008      -0.000009
  12      -0.000049       0.000016       0.000007
---------------------------------------------------
 Number of fixed atoms: 0
 Gradient time:  CPU 85.78 s  wall 14.30 s
 Geometry Optimization Parameters
   NAtoms,    NIC,     NZ,  NCons,   NDum,   NFix, NCnnct, MaxDiis
       12      72       0       0       0       0       0       0

 Cartesian Hessian Update
 Hessian updated using BFGS update


** GEOMETRY OPTIMIZATION IN DELOCALIZED INTERNAL COORDINATES **
   Searching for a Minimum

   Optimization Cycle:  12

                       Coordinates (Angstroms)
     ATOM                X               Y               Z
      1  C         1.2586432774   -0.2081886214   -0.3219697218
      2  O         2.1314019660   -0.8536914097   -1.2300309302
      3  C        -0.1584464849   -0.1527564395   -0.8867854678
      4  O        -0.5784177572   -1.4548387329   -1.2495897420
      5  O        -0.1193646521    0.6398375941   -2.0413330625
      6  O         1.7542994185    1.0757314223   -0.0718764286
      7  H         1.2441616434   -0.7356607663    0.6329671260
      8  H         1.6923874475   -1.6597838994   -1.5324612381
      9  H        -0.8342978727    0.2686384109   -0.1416587864
     10  H        -0.9952153000   -1.8680994955   -0.4847333621
     11  H        -1.0078735372    0.9646823916   -2.2234345061
     12  H         1.5674784511    1.6169345455   -0.8512281803
   Point Group: c1    Number of degrees of freedom:    30


   Energy is   -380.756274338

 Hessian updated using BFGS update

 30 Hessian modes will be used to form the next step
  Hessian Eigenvalues:
     0.000899    0.002316    0.004301    0.008494    0.015160    0.056840
     0.058068    0.063311    0.074960    0.094650    0.103651    0.157848
     0.160822    0.163775    0.169727    0.186158    0.194805    0.209204
     0.219274    0.324425    0.341256    0.362273    0.433016    0.436839
     0.461872    0.496320    0.521401    0.528421    0.529087    0.550357

 Minimum search - taking simple RFO step
 Searching for Lamda that Minimizes Along All modes
 Value Taken    Lamda =  -0.00000029
 Step Taken.  Stepsize is  0.007544

                             Maximum     Tolerance    Cnvgd?
         Gradient           0.000052      0.000300     YES
         Displacement       0.005810      0.001200      NO
         Energy change     -0.000000      0.000001     YES


                       Distance Matrix (Angstroms)
             C (  1)   O (  2)   C (  3)   O (  4)   O (  5)   O (  6)
   O (  2)  1.415259
   C (  3)  1.526510  2.419201
   O (  4)  2.406119  2.775767  1.415423
   O (  5)  2.360988  2.820424  1.400969  2.285882
   O (  6)  1.398811  2.281710  2.414924  3.637632  2.753067
   H (  7)  1.091027  2.066855  2.148659  2.717174  3.301981  2.009524
   H (  8)  1.939214  0.966428  2.472573  2.297515  2.971474  3.101642
   H (  9)  2.154131  3.352544  1.090671  2.064790  2.063415  2.712398
   H ( 10)  2.803868  3.370494  1.950443  0.964111  3.078939  4.049250
   H ( 11)  3.182498  3.761434  1.938253  2.643272  0.963397  3.503018
   H ( 12)  1.925245  2.562322  2.472223  3.768203  2.283968  0.967053
             H (  7)   H (  8)   H (  9)   H ( 10)   H ( 11)
   H (  8)  2.396662
   H (  9)  2.434883  3.469479
   H ( 10)  2.747086  2.892116  2.170079
   H ( 11)  4.015204  3.828404  2.201907  3.323837
   H ( 12)  2.800370  3.349114  2.844279  4.341334  2.990121
 
 Final energy is   -380.756274338058     


 ******************************
 **  OPTIMIZATION CONVERGED  **
 ******************************

                       Coordinates (Angstroms)
     ATOM                X               Y               Z
      1  C         1.2586432774   -0.2081886214   -0.3219697218
      2  O         2.1314019660   -0.8536914097   -1.2300309302
      3  C        -0.1584464849   -0.1527564395   -0.8867854678
      4  O        -0.5784177572   -1.4548387329   -1.2495897420
      5  O        -0.1193646521    0.6398375941   -2.0413330625
      6  O         1.7542994185    1.0757314223   -0.0718764286
      7  H         1.2441616434   -0.7356607663    0.6329671260
      8  H         1.6923874475   -1.6597838994   -1.5324612381
      9  H        -0.8342978727    0.2686384109   -0.1416587864
     10  H        -0.9952153000   -1.8680994955   -0.4847333621
     11  H        -1.0078735372    0.9646823916   -2.2234345061
     12  H         1.5674784511    1.6169345455   -0.8512281803

Z-matrix Print:
$molecule
0 1
O 
H  1 0.963397
C  1 1.400969 2 108.711771
H  3 1.090671 1 111.205713 2 -38.746498 0
O  3 1.415423 1 108.510904 2 82.723177 0
H  5 0.964111 3 108.617264 1 -153.898534 0
C  3 1.526510 1 107.431813 2 -158.755558 0
H  7 1.091027 3 109.213291 1 174.388541 0
O  7 1.398811 3 111.208599 1 56.556077 0
H  9 0.967053 7 107.525749 3 -46.956360 0
O  7 1.415259 3 110.587274 1 -63.875762 0
H  11 0.966428 7 107.522731 3 -46.625433 0
$end

 
 --------------------------------------------------------------
 
                    Orbital Energies (a.u.)
 --------------------------------------------------------------
 
 Alpha MOs
 -- Occupied --
-19.3515 -19.3486 -19.3476 -19.3417 -10.4462 -10.4430  -1.2202  -1.1867
 -1.1441  -1.1317  -0.8470  -0.7520  -0.6720  -0.6536  -0.6353  -0.6252
 -0.5644  -0.5240  -0.5007  -0.4794  -0.4594  -0.4522  -0.4315  -0.4088
 -0.3801
 -- Virtual --
  0.0247   0.0421   0.0477   0.0520   0.0711   0.0784   0.1054   0.1077
  0.1242   0.1367   0.1431   0.1512   0.1568   0.1744   0.2209   0.2250
  0.2301   0.2360   0.2499   0.2612   0.2706   0.2732   0.2846   0.2861
  0.3031   0.3154   0.3285   0.3338   0.3433   0.3438   0.3467   0.3565
  0.3687   0.3723   0.3806   0.3929   0.4252   0.4351   0.4453   0.4667
  0.4811   0.5668   0.5912   0.5957   0.6092   0.6165   0.6384   0.6463
  0.6731   0.6818   0.6951   0.7335   0.7375   0.7653   0.7876   0.8064
  0.8408   0.8697   0.8901   0.9312   0.9503   0.9790   0.9969   1.0322
  1.0631   1.0769   1.0801   1.1005   1.1377   1.1473   1.1665   1.1767
  1.1911   1.2108   1.2267   1.2356   1.2630   1.2754   1.2920   1.3096
  1.3365   1.3452   1.3674   1.4134   1.4240   1.4526   1.4618   1.4934
  1.5195   1.5365   1.5464   1.5678   1.5892   1.6107   1.6334   1.7195
  1.7378   1.7634   1.8069   1.8805   1.8976   1.9290   1.9770   1.9894
  2.0429   2.1207   2.1488   2.1665   2.2486   2.2985   2.3290   2.3563
  2.3790   2.3864   2.4349   2.4509   2.4636   2.4895   2.5125   2.6363
  2.7042   2.7433   2.7999   2.8344   2.9126   2.9701   3.0708   3.0903
  3.1698   3.2538   3.2748   3.3236   3.3416   3.3739   3.3982   3.4538
  3.4968   3.5196   3.5794   3.6205   3.6390   3.6453   3.6767   3.7086
  3.7560   3.7995   3.8145   3.8287   3.8454   3.8633   3.8864   3.9201
  3.9376   4.0212   4.0397   4.0993   4.1186   4.1859   4.1979   4.2416
  4.2713   4.3033   4.3106   4.3334   4.3719   4.3825   4.4380   4.4489
  4.5342   4.6181   4.6990   5.1964   5.2013   5.2141   5.2218   5.2595
  5.2736   5.2785   5.2916   5.2970   5.3058   5.3251   5.3545   5.4032
  5.4179   5.4411   5.4582   5.4788   5.5144   5.5549   5.5937   5.6005
  5.6425   5.6612   5.6837   5.6988   5.7424   5.8559   5.8969   5.9557
  5.9935   6.0137   6.0568   6.1157   6.1523   6.5235   6.5620   6.7276
  6.7567   7.0551   7.0702   7.1249   7.1329   7.2139   7.2459   7.2697
  7.2870   7.3117   7.3347   7.3380   7.3586   7.3897   7.4144   7.4623
  7.4969   7.6145   7.7009   7.7227   7.7420   7.7680   7.8087   7.8689
  7.9030  24.7322  24.8543  50.5739  50.5933  50.6036  50.6697
 --------------------------------------------------------------
 
          Ground-State Mulliken Net Atomic Charges

     Atom                 Charge (a.u.)
  ----------------------------------------
      1 C                    -0.082904
      2 O                    -0.455794
      3 C                     0.023954
      4 O                    -0.462571
      5 O                    -0.440834
      6 O                    -0.415251
      7 H                     0.245714
      8 H                     0.323434
      9 H                     0.253550
     10 H                     0.333987
     11 H                     0.353067
     12 H                     0.323648
  ----------------------------------------
  Sum of atomic charges =     0.000000

 -----------------------------------------------------------------
                    Cartesian Multipole Moments
 -----------------------------------------------------------------
    Charge (ESU x 10^10)
                 0.0000
    Dipole Moment (Debye)
         X      -5.6071      Y      -0.7925      Z       1.8268
       Tot       5.9501
    Quadrupole Moments (Debye-Ang)
        XX     -44.0546     XY      -2.1847     YY     -31.0171
        XZ       3.4401     YZ      -5.5714     ZZ     -41.4924
    Octopole Moments (Debye-Ang^2)
       XXX    -111.7647    XXY       6.3630    XYY     -25.1463
       YYY      12.6097    XXZ      37.2436    XYZ       3.6459
       YYZ      28.8297    XZZ     -33.1591    YZZ      12.8784
       ZZZ     115.7319
    Hexadecapole Moments (Debye-Ang^3)
      XXXX    -479.6075   XXXY      -5.3570   XXYY     -90.7815
      XYYY      -7.1697   YYYY    -186.1789   XXXZ      63.0082
      XXYZ     -24.0471   XYYZ      -2.0258   YYYZ     -35.2128
      XXZZ    -122.6867   XYZZ     -20.7380   YYZZ     -86.6274
      XZZZ      56.0018   YZZZ     -41.4340   ZZZZ    -364.9091
 -----------------------------------------------------------------
 Total job time:  1089.98s(wall), 6804.66s(cpu) 
 Mon Jul 17 16:42:37 2023

        *************************************************************
        *                                                           *
        *  Thank you very much for using Q-Chem.  Have a nice day.  *
        *                                                           *
        *************************************************************


