
Running Job 1 of 1 Q_in.in
qchem Q_in.in_382594.0 /scratch/ari.fischer/qChem1524787.hpc-mn1/qchem382594/ 0
/usr/local/qchem-5.4.1/exe/qcprog.exe_s Q_in.in_382594.0 /scratch/ari.fischer/qChem1524787.hpc-mn1/qchem382594/
                  Welcome to Q-Chem
     A Quantum Leap Into The Future Of Chemistry


 Q-Chem 5.4, Q-Chem, Inc., Pleasanton, CA (2021)

 License issued to: Nanyang Technological University (site)

 E. Epifanovsky,  A. T. B. Gilbert,  Xintian Feng,  Joonho Lee,  Yuezhi Mao,  
 N. Mardirossian,  P. Pokhilko,  A. White,  M. Wormit,  M. P. Coons,  
 A. L. Dempwolff,  Zhengting Gan,  D. Hait,  P. R. Horn,  L. D. Jacobson,  
 I. Kaliman,  J. Kussmann,  A. W. Lange,  Ka Un Lao,  D. S. Levine,  Jie Liu,  
 S. C. McKenzie,  A. F. Morrison,  K. Nanda,  F. Plasser,  D. R. Rehn,  
 M. L. Vidal,  Zhi-Qiang You,  Ying Zhu,  B. Alam,  B. Albrecht,  
 A. Aldossary,  E. Alguire,  J. H. Andersen,  D. Barton,  K. Begam,  A. Behn,  
 Y. A. Bernard,  E. J. Berquist,  H. Burton,  A. Carreras,  K. Carter-Fenk,  
 R. Chakraborty,  A. D. Chien,  K. D. Closser,  V. Cofer-Shabica,  
 S. Dasgupta,  Jia Deng,  M. de Wergifosse,  M. Diedenhofen,  Hainam Do,  
 S. Ehlert,  Po-Tung Fang,  S. Fatehi,  Qingguo Feng,  T. Friedhoff,  
 J. Gayvert,  Qinghui Ge,  G. Gidofalvi,  M. Goldey,  J. Gomes,  
 C. Gonzalez-Espinoza,  S. Gulania,  A. Gunina,  M. W. D. Hanson-Heine,  
 P. H. P. Harbach,  A. W. Hauser,  M. F. Herbst,  M. Hernandez Vera,  
 M. Hodecker,  Z. C. Holden,  S. Houck,  Xunkun Huang,  Kerwin Hui,  
 B. C. Huynh,  M. Ivanov,  Hyunjun Ji,  Hanjie Jiang,  B. Kaduk,  S. Kaehler,  
 K. Khistyaev,  Jaehoon Kim,  P. Klunzinger,  Z. Koczor-Benda,  
 Joong Hoon Koh,  D. Kosenkov,  L. Koulias,  T. Kowalczyk,  C. M. Krauter,  
 K. Kue,  A. Kunitsa,  T. Kus,  A. Landau,  K. V. Lawler,  D. Lefrancois,  
 S. Lehtola,  Rain Li,  Yi-Pei Li,  Jiashu Liang,  M. Liebenthal,  
 Hung-Hsuan Lin,  You-Sheng Lin,  Fenglai Liu,  Kuan-Yu Liu,  
 M. Loipersberger,  A. Luenser,  A. Manjanath,  P. Manohar,  E. Mansoor,  
 S. F. Manzer,  Shan-Ping Mao,  A. V. Marenich,  T. Markovich,  S. Mason,  
 S. A. Maurer,  P. F. McLaughlin,  M. F. S. J. Menger,  J.-M. Mewes,  
 S. A. Mewes,  P. Morgante,  J. W. Mullinax,  K. J. Oosterbaan,  G. Paran,  
 Alexander C. Paul,  Suranjan K. Paul,  F. Pavosevic,  Zheng Pei,  S. Prager,  
 E. I. Proynov,  E. Ramos,  B. Rana,  A. E. Rask,  A. Rettig,  R. M. Richard,  
 F. Rob,  E. Rossomme,  T. Scheele,  M. Scheurer,  M. Schneider,  
 N. Sergueev,  S. M. Sharada,  W. Skomorowski,  D. W. Small,  C. J. Stein,  
 Yu-Chuan Su,  E. J. Sundstrom,  Zhen Tao,  J. Thirman,  T. Tsuchimochi,  
 N. M. Tubman,  S. P. Veccham,  O. Vydrov,  J. Wenzel,  J. Witte,  A. Yamada,  
 Kun Yao,  S. Yeganeh,  S. R. Yost,  A. Zech,  Igor Ying Zhang,  Xing Zhang,  
 Yu Zhang,  D. Zuev,  A. Aspuru-Guzik,  A. T. Bell,  N. A. Besley,  
 K. B. Bravaya,  B. R. Brooks,  D. Casanova,  Jeng-Da Chai,  S. Coriani,  
 C. J. Cramer,  A. E. DePrince, III,  R. A. DiStasio Jr.,  A. Dreuw,  
 B. D. Dunietz,  T. R. Furlani,  W. A. Goddard III,  S. Grimme,  
 S. Hammes-Schiffer,  T. Head-Gordon,  W. J. Hehre,  Chao-Ping Hsu,  
 T.-C. Jagau,  Yousung Jung,  A. Klamt,  Jing Kong,  D. S. Lambrecht,  
 WanZhen Liang,  N. J. Mayhall,  C. W. McCurdy,  J. B. Neaton,  
 C. Ochsenfeld,  J. A. Parkhill,  R. Peverati,  V. A. Rassolov,  Yihan Shao,  
 L. V. Slipchenko,  T. Stauch,  R. P. Steele,  J. E. Subotnik,  
 A. J. W. Thom,  A. Tkatchenko,  D. G. Truhlar,  T. Van Voorhis,  
 T. A. Wesolowski,  K. B. Whaley,  H. L. Woodcock III,  P. M. Zimmerman,  
 S. Faraji,  P. M. W. Gill,  M. Head-Gordon,  J. M. Herbert,  A. I. Krylov

 Additional authors for Version 5.4.1: 
 S. Kotaru,  Shaozhi Li,  Xiangyuan Li,  F. Matz,  A. Molle,  Haisheng Ren,  
 Yingli Su,  Hung-Yi Tsai,  C. Utku,  Fang Wang

 Contributors to earlier versions of Q-Chem not listed above: 
 R. D. Adamson,  B. Austin,  R. Baer,  J. Baker,  G. J. O. Beran,  
 K. Brandhorst,  S. T. Brown,  E. F. C. Byrd,  A. K. Chakraborty,  
 G. K. L. Chan,  Chun-Min Chang,  Yunqing Chen,  C.-L. Cheng,  
 Siu Hung Chien,  D. M. Chipman,  D. L. Crittenden,  H. Dachsel,  
 R. J. Doerksen,  A. D. Dutoi,  R. G. Edgar,  J. Fosso-Tande,  
 L. Fusti-Molnar,  D. Ghosh,  A. Ghysels,  A. Golubeva-Zadorozhnaya,  
 J. Gonthier,  M. S. Gordon,  S. R. Gwaltney,  G. Hawkins,  J. E. Herr,  
 A. Heyden,  S. Hirata,  E. G. Hohenstein,  G. Kedziora,  F. J. Keil,  
 C. Kelley,  Jihan Kim,  R. A. King,  R. Z. Khaliullin,  P. P. Korambath,  
 W. Kurlancheek,  A. Laurent,  A. M. Lee,  M. S. Lee,  S. V. Levchenko,  
 Ching Yeh Lin,  D. Liotard,  E. Livshits,  R. C. Lochan,  I. Lotan,  
 L. A. Martinez-Martinez,  P. E. Maslen,  N. Nair,  D. P. O'Neill,  
 D. Neuhauser,  E. Neuscamman,  C. M. Oana,  R. Olivares-Amaya,  R. Olson,  
 T. M. Perrine,  B. Peters,  P. A. Pieniazek,  A. Prociuk,  Y. M. Rhee,  
 J. Ritchie,  M. A. Rohrdanz,  E. Rosta,  N. J. Russ,  H. F. Schaefer III,  
 M. W. Schmidt,  N. E. Schultz,  S. Sharma,  N. Shenvi,  C. D. Sherrill,  
 A. C. Simmonett,  A. Sodt,  T. Stein,  D. Stuck,  K. S. Thanthiriwatte,  
 V. Vanovschi,  L. Vogt,  Tao Wang,  A. Warshel,  M. A. Watson,  
 C. F. Williams,  Q. Wu,  X. Xu,  Jun Yang,  W. Zhang,  Yan Zhao

 Please cite Q-Chem as follows:
 Y. Shao et al., Mol. Phys. 113, 184-215 (2015)
 DOI: 10.1080/00268976.2014.952696

 Q-Chem 5.4.1 for Intel X86 EM64T Linux

 Parts of Q-Chem use Armadillo 9.800.1 (Horizon Scraper).
 http://arma.sourceforge.net/

 Q-Chem begins on Fri May  5 15:43:12 2023  

 Host: 
0

     Scratch files written to /scratch/ari.fischer/qChem1524787.hpc-mn1/qchem382594//
 Aug1521 |scratch|qcdevops|jenkins|workspace|build_RNUM 8249   
 Processing $rem in /usr/local/qchem-5.4.1/config/preferences:
 Processing $rem in /home/ari.fischer/.qchemrc:
 Symmetry turned off for PCM/SM12/SMD calculation


!!********************************************.
!!******************Warning*******************.
!!Desired Analytical derivatives not available.
!!Finite difference job might take a long time.
!!********************************************.
!!********************************************.


 2-order derivative to be evaluated numerically with 1-order analytical derivatives

 Checking the input file for inconsistencies... 	...done.

--------------------------------------------------------------
User input:
--------------------------------------------------------------
$molecule
0 1
C         0.6315991465    0.2477079889    0.0000033321
O        -0.1135024584    1.1967886302    0.0002458748
C         2.1481280727    0.4392796677    0.0000297314
H         2.4626548454    1.4901100069    0.0001486280
O         2.9119595448   -0.4867043651   -0.0000348933
O         0.2708823096   -1.0243151281    0.0000094324
H        -0.6985185606   -1.0862441004    0.0001453947
$end

$rem
BASIS = 6-311++G(2df,2p)
GUI = 2
JOB_TYPE = Frequency
METHOD = wB97M-V
SOLVENT_METHOD = SMD
SCF_ALGORITHM = DIIS_GDM
MAX_SCF_CYCLES = 400
SCF_CONVERGENCE = 7
THRESH = 12
SYMMETRY_IGNORE = 1
$end
--------------------------------------------------------------
 ----------------------------------------------------------------
             Standard Nuclear Orientation (Angstroms)
    I     Atom           X                Y                Z
 ----------------------------------------------------------------
    1      C       0.6315991465     0.2477079889     0.0000033321
    2      O      -0.1135024584     1.1967886302     0.0002458748
    3      C       2.1481280727     0.4392796677     0.0000297314
    4      H       2.4626548454     1.4901100069     0.0001486280
    5      O       2.9119595448    -0.4867043651    -0.0000348933
    6      O       0.2708823096    -1.0243151281     0.0000094324
    7      H      -0.6985185606    -1.0862441004     0.0001453947
 ----------------------------------------------------------------
 Nuclear Repulsion Energy =         162.60946097 hartrees
 There are       19 alpha and       19 beta electrons
 Requested basis set is 6-311++G(2df,2p)
 There are 52 shells and 190 basis functions

 Total QAlloc Memory Limit 288000 MB
 Mega-Array Size       188 MB
 MEM_STATIC part       192 MB
 
 Citation of the SMD model:
 Marenich, A.V.; Cramer, C.J.; Truhlar, D.G.
 J. Phys. Chem. B 2009, 113, 6378-6396.
 iSolventCode=           1
 Solvent: water                                                           
 
 vradii
            1           2           3           4           5           6
    1   1.8500000   1.5200000   1.8500000   1.2000000   1.5200000   1.5200000
            7
    1   1.2000000
 Changing PCM_VDW_RADII to SMD_RADIUS
 Discretize the solute cavity surface with Lebedev spheres
	Using 110 Lebedev grid points for each H atom
	Using 194 Lebedev grid points for other atoms
	Atomic van der Waals radii will be scaled by 1.20
 Remove points where switching function is < 1.0e-08
 Keep 690 surface tesserae and discard 500 interior tesserae
 Molecular Surface Area = 86.677 Angst**2

                       Distance Matrix (Angstroms)
             C (  1)   O (  2)   C (  3)   H (  4)   O (  5)   O (  6)
   O (  2)  1.206619
   C (  3)  1.528581  2.385119
   H (  4)  2.212765  2.592802  1.096892
   O (  5)  2.395706  3.462307  1.200369  2.027232
   O (  6)  1.322180  2.254119  2.380370  3.335596  2.695239
   H (  7)  1.883784  2.356795  3.229647  4.078065  3.659918  0.971377

 
 A cutoff of  1.0D-12 yielded   1326 shell pairs
 There are     17916 function pairs (     22968 Cartesian)
 Smallest overlap matrix eigenvalue = 1.10E-04
 Guess from superposition of atomic densities
 Warning:  Energy on first SCF cycle will be non-variational
 SAD guess density has 38.000000 electrons

 -----------------------------------------------------------------------
  General SCF calculation program by
  Eric Jon Sundstrom, Paul Horn, Yuezhi Mao, Dmitri Zuev, Alec White,
  David Stuck, Shaama M.S., Shane Yost, Joonho Lee, David Small,
  Daniel Levine, Susi Lehtola, Hugh Burton, Evgeny Epifanovsky,
  Bang C. Huynh
 -----------------------------------------------------------------------
 Exchange:     0.1500 Hartree-Fock + 1.0000 wB97M-V + LR-HF
 Correlation:  1.0000 wB97M-V
 Using SG-2 standard quadrature grid
 Nonlocal Correlation:  VV10 with C = 0.0100 and b = 6.00 and scale = 1.00000
 Grid used for NLC:  SG-1 standard quadrature
 using 8 threads for integral computing
 -------------------------------------------------------
 OpenMP Integral computing Module                
 Release: version 1.0, May 2013, Q-Chem Inc. Pittsburgh 
 -------------------------------------------------------
 
 Citation of the SMD model:
 Marenich, A.V.; Cramer, C.J.; Truhlar, D.G.
 J. Phys. Chem. B 2009, 113, 6378-6396.
 iSolventCode=           1
 Solvent: water                                                           
 
 vradii
            1           2           3           4           5           6
    1   1.8500000   1.5200000   1.8500000   1.2000000   1.5200000   1.5200000
            7
    1   1.2000000
 -------------------------------------------------------
 OpenMP BLAS3 based DFT computing Module                
 Release: version 1.0, May 2013, Q-Chem Inc. Pittsburgh 
 -------------------------------------------------------
 A restricted SCF calculation will be
 performed using DIIS, GDM
 SCF converges when RMS gradient is below 1.0e-07
 ---------------------------------------
  Cycle       Energy         DIIS error
 ---------------------------------------
    1    -304.0200036580      3.85e-02  
    2    -302.9656446606      6.51e-03  Done DIIS. Switching to GDM
 ---------------------------------------
  Cycle       Energy        RMS Gradient
 ---------------------------------------
    1    -302.9656446606      1.65e-01   Descent step
    2    -303.0934500679      6.67e-02   Normal BFGS step
    3    -303.1162967779      1.40e-02   Normal BFGS step
    4    -303.1168495527      7.18e-03   Normal BFGS step
    5    -303.1175804928      8.78e-04   Normal BFGS step
    6    -303.1175883794      9.51e-04   Normal BFGS step
    7    -303.1175907093      2.94e-04   Normal BFGS step
    8    -303.1175912555      5.54e-05   Normal BFGS step
    9    -303.1175912797      1.99e-05   Normal BFGS step
   10    -303.1175912822      3.81e-06   Normal BFGS step
   11    -303.1175912825      1.87e-06   Normal BFGS step
   12    -303.1175912825      5.33e-07   Normal BFGS step
   13    -303.1175912825      1.06e-07   Normal BFGS step
   14    -303.1175912825      7.03e-08  Convergence criterion met
 ---------------------------------------
 SCF time:   CPU 144.38s  wall 18.00s 
(3)  G-ENP(liq) elect-nuc-pol free energy of system     -303.117591282 a.u.
(4)  G-CDS(liq) cavity-dispersion-solvent structure 
     free energy                                                5.3003 kcal/mol
(6)  G-S(liq) free energy of system                     -303.109144721 a.u.
 SCF   energy in the final basis set =     -303.1091447208
 Total energy in the final basis set =     -303.1091447208
 
 --------------------------------------------------------------
 
                    Orbital Energies (a.u.)
 --------------------------------------------------------------
 
 Alpha MOs
 -- Occupied --
-19.3983 -19.3728 -19.3535 -10.5033 -10.4626  -1.2670  -1.2170  -1.1779
 -0.8398  -0.7350  -0.6374  -0.6286  -0.5975  -0.5954  -0.5356  -0.5206
 -0.4532  -0.4489  -0.3859
 -- Virtual --
 -0.0084   0.0309   0.0483   0.0730   0.0845   0.0931   0.1136   0.1149
  0.1305   0.1450   0.1535   0.1724   0.2131   0.2342   0.2366   0.2463
  0.2849   0.2909   0.3065   0.3112   0.3182   0.3252   0.3397   0.3438
  0.3543   0.4065   0.4140   0.4298   0.5064   0.5353   0.5922   0.5934
  0.6151   0.6273   0.6789   0.6881   0.6934   0.7197   0.7749   0.8061
  0.8173   0.8503   0.8787   0.9077   0.9735   1.0358   1.0547   1.1018
  1.1057   1.1201   1.1250   1.1440   1.1444   1.1796   1.2016   1.2153
  1.2376   1.2384   1.3187   1.3439   1.4205   1.4945   1.5183   1.5832
  1.6041   1.6131   1.6615   1.7759   1.7906   1.8281   1.8381   1.8611
  1.9250   1.9717   2.0978   2.2010   2.2990   2.3287   2.3690   2.4807
  2.5037   2.5670   2.6485   2.6509   2.7151   2.8193   2.8227   2.8319
  2.8962   2.9784   3.0036   3.0874   3.1156   3.1505   3.2545   3.2959
  3.3077   3.3444   3.3876   3.4184   3.4562   3.4601   3.5120   3.5880
  3.6328   3.6734   3.6926   3.7301   3.7976   3.8845   3.9597   3.9907
  4.0730   4.1018   4.1859   4.2216   4.2961   4.4064   4.6217   4.6940
  5.1049   5.1103   5.1261   5.1507   5.1519   5.1701   5.2050   5.2164
  5.2265   5.2399   5.2911   5.3470   5.4535   5.4918   5.5458   5.5684
  5.5898   5.6113   5.7338   5.7590   5.8943   6.0650   6.0765   6.3802
  6.4364   6.5907   6.7570   6.8920   6.9181   6.9366   7.0071   7.0290
  7.0670   7.1265   7.2253   7.2737   7.2880   7.3242   7.3888   7.4280
  7.5334   7.6260   7.6645   7.7623   7.8320   7.8619  24.9107  25.1129
 50.5594  50.7065  50.7219
 --------------------------------------------------------------
 
          Ground-State Mulliken Net Atomic Charges

     Atom                 Charge (a.u.)
  ----------------------------------------
      1 C                     0.324083
      2 O                    -0.448160
      3 C                     0.177496
      4 H                     0.195331
      5 O                    -0.323209
      6 O                    -0.297194
      7 H                     0.371653
  ----------------------------------------
  Sum of atomic charges =     0.000000

 -----------------------------------------------------------------
                    Cartesian Multipole Moments
 -----------------------------------------------------------------
    Charge (ESU x 10^10)
                 0.0000
    Dipole Moment (Debye)
         X      -1.5791      Y       0.1130      Z      -0.0001
       Tot       1.5831
    Quadrupole Moments (Debye-Ang)
        XX     -32.9081     XY      10.0194     YY     -30.9324
        XZ       0.0004     YZ      -0.0012     ZZ     -26.9061
    Octopole Moments (Debye-Ang^2)
       XXX    -126.1193    XXY      14.1925    XYY     -32.8352
       YYY      -9.0420    XXZ      -0.0002    XYZ       0.0005
       YYZ      -0.0018    XZZ     -30.7629    YZZ      -1.9428
       ZZZ      -0.0047
    Hexadecapole Moments (Debye-Ang^3)
      XXXX    -599.7275   XXXY      56.7980   XXYY     -98.1416
      XYYY      19.4393   YYYY    -144.5218   XXXZ       0.0036
      XXYZ      -0.0018   XYYZ       0.0007   YYYZ      -0.0074
      XXZZ     -82.7290   XYZZ       2.6377   YYZZ     -27.7410
      XZZZ       0.0006   YZZZ      -0.0060   ZZZZ     -23.6323
 -----------------------------------------------------------------
 Calculating analytic gradient of the SCF energy
 Gradient of CDS energy
            1           2           3           4           5           6
    1  -0.0029618   0.0008646   0.0024154  -0.0001250  -0.0008324   0.0009691
    2  -0.0019213  -0.0010363  -0.0009218   0.0001193   0.0009257   0.0031077
    3   0.0000002  -0.0000003  -0.0000001   0.0000000   0.0000001  -0.0000000
            7
    1  -0.0003297
    2  -0.0002734
    3   0.0000000
 Gradient of SCF Energy
            1           2           3           4           5           6
    1   0.0024843  -0.0061886  -0.0032145   0.0027711   0.0030854   0.0199749
    2  -0.0011966   0.0103722  -0.0069569   0.0094823  -0.0055817  -0.0028101
    3  -0.0000323   0.0000131   0.0000092   0.0000009  -0.0000008   0.0000068
            7
    1  -0.0189126
    2  -0.0033092
    3   0.0000031
 Max gradient component =       1.997E-02
 RMS gradient           =       7.323E-03
 Computing fast CPCM-SWIG gradient
 Updating gradient with PCM contributions...
 -- total gradient after adding PCM contribution --
---------------------------------------------------
  Atom         X              Y              Z     
---------------------------------------------------
   1      -0.000051       0.000079      -0.000030
   2       0.000011      -0.000049       0.000011
   3       0.000022      -0.000018       0.000009
   4      -0.000021       0.000022      -0.000000
   5      -0.000005       0.000055      -0.000001
   6       0.000004      -0.000069       0.000009
   7       0.000042      -0.000020       0.000001
---------------------------------------------------
 Number of fixed atoms: 0
 Gradient time:  CPU 28.08 s  wall 4.15 s
 ######################################################
 ######################################################
 # Starting finite difference calculation for IDERIV  #
 Finite diff step size:  1.88973e-03 a.u.
 ----------------------------------------------------------------
             Standard Nuclear Orientation (Angstroms)
    I     Atom           X                Y                Z
 ----------------------------------------------------------------
    1      C       0.6325991465     0.2477079889     0.0000033321
    2      O      -0.1135024584     1.1967886302     0.0002458748
    3      C       2.1481280727     0.4392796677     0.0000297314
    4      H       2.4626548454     1.4901100069     0.0001486280
    5      O       2.9119595448    -0.4867043651    -0.0000348933
    6      O       0.2708823096    -1.0243151281     0.0000094324
    7      H      -0.6985185606    -1.0862441004     0.0001453947
 ----------------------------------------------------------------
 Nuclear Repulsion Energy =         162.60693382 hartrees
 There are       19 alpha and       19 beta electrons
 Discretize the solute cavity surface with Lebedev spheres
	Using 110 Lebedev grid points for each H atom
	Using 194 Lebedev grid points for other atoms
	Atomic van der Waals radii will be scaled by 1.20
 Remove points where switching function is < 1.0e-08
 Keep 690 surface tesserae and discard 500 interior tesserae
 Molecular Surface Area = 86.679 Angst**2

                       Distance Matrix (Angstroms)
             C (  1)   O (  2)   C (  3)   H (  4)   O (  5)   O (  6)
   O (  2)  1.207237
   C (  3)  1.527589  2.385119
   H (  4)  2.211937  2.592802  1.096892
   O (  5)  2.394754  3.462307  1.200369  2.027232
   O (  6)  1.322453  2.254119  2.380370  3.335596  2.695239
   H (  7)  1.884490  2.356795  3.229647  4.078065  3.659918  0.971377

 
 Requested basis set is 6-311++G(2df,2p)
 There are 52 shells and 190 basis functions
 A cutoff of  1.0D-12 yielded   1326 shell pairs
 There are     17916 function pairs (     22968 Cartesian)
 Smallest overlap matrix eigenvalue = 1.09E-04
 Guess MOs from SCF MO coefficient file

 -----------------------------------------------------------------------
  General SCF calculation program by
  Eric Jon Sundstrom, Paul Horn, Yuezhi Mao, Dmitri Zuev, Alec White,
  David Stuck, Shaama M.S., Shane Yost, Joonho Lee, David Small,
  Daniel Levine, Susi Lehtola, Hugh Burton, Evgeny Epifanovsky,
  Bang C. Huynh
 -----------------------------------------------------------------------
 Exchange:     0.1500 Hartree-Fock + 1.0000 wB97M-V + LR-HF
 Correlation:  1.0000 wB97M-V
 Using SG-2 standard quadrature grid
 Nonlocal Correlation:  VV10 with C = 0.0100 and b = 6.00 and scale = 1.00000
 Grid used for NLC:  SG-1 standard quadrature
 
 Citation of the SMD model:
 Marenich, A.V.; Cramer, C.J.; Truhlar, D.G.
 J. Phys. Chem. B 2009, 113, 6378-6396.
 iSolventCode=           1
 Solvent: water                                                           
 
 vradii
            1           2           3           4           5           6
    1   1.8500000   1.5200000   1.8500000   1.2000000   1.5200000   1.5200000
            7
    1   1.2000000
 -------------------------------------------------------
 OpenMP BLAS3 based DFT computing Module                
 Release: version 1.0, May 2013, Q-Chem Inc. Pittsburgh 
 -------------------------------------------------------
 A restricted SCF calculation will be
 performed using Roothaan-Hall, DIIS, GDM
 SCF converges when RMS gradient is below 1.0e-07
 ---------------------------------------
  Cycle       Energy         DIIS error
 ---------------------------------------
    1    -303.0921695140      6.99e-04  Roothaan Step
 ---------------------------------------
  Cycle       Energy         DIIS error
 ---------------------------------------
    1    -303.1123716242      9.63e-04  
    2    -303.1134740104      1.18e-03  Done DIIS. Switching to GDM
 ---------------------------------------
  Cycle       Energy        RMS Gradient
 ---------------------------------------
    1    -303.1134740104      2.62e-02   Normal BFGS step
    2    -303.1108131434      4.08e-02  Line search: overstep
    3    -303.1174232159      2.19e-03   Normal BFGS step
    4    -303.1175676420      8.90e-04   Normal BFGS step
    5    -303.1175796113      8.72e-04   Normal BFGS step
    6    -303.1175841131      1.16e-04   Normal BFGS step
    7    -303.1175843814      9.58e-05   Normal BFGS step
    8    -303.1175844253      6.07e-05   Normal BFGS step
    9    -303.1175844408      1.04e-05   Normal BFGS step
   10    -303.1175844419      3.30e-06   Normal BFGS step
   11    -303.1175844420      1.18e-06   Normal BFGS step
   12    -303.1175844420      2.40e-07   Normal BFGS step
   13    -303.1175844421      1.21e-07   Normal BFGS step
   14    -303.1175844421      4.21e-08  Convergence criterion met
 ---------------------------------------
 SCF time:   CPU 157.54s  wall 20.00s 
(3)  G-ENP(liq) elect-nuc-pol free energy of system     -303.117584442 a.u.
(4)  G-CDS(liq) cavity-dispersion-solvent structure 
     free energy                                                5.2968 kcal/mol
(6)  G-S(liq) free energy of system                     -303.109143486 a.u.
 SCF   energy in the final basis set =     -303.1091434860
 Total energy in the final basis set =     -303.1091434860
 
 --------------------------------------------------------------
 
                    Orbital Energies (a.u.)
 --------------------------------------------------------------
 
 Alpha MOs
 -- Occupied --
-19.3983 -19.3729 -19.3535 -10.5034 -10.4626  -1.2668  -1.2170  -1.1777
 -0.8401  -0.7351  -0.6374  -0.6286  -0.5974  -0.5955  -0.5355  -0.5206
 -0.4531  -0.4488  -0.3861
 -- Virtual --
 -0.0087   0.0309   0.0483   0.0730   0.0844   0.0931   0.1136   0.1149
  0.1305   0.1449   0.1535   0.1724   0.2131   0.2342   0.2366   0.2463
  0.2849   0.2909   0.3065   0.3113   0.3182   0.3252   0.3397   0.3438
  0.3543   0.4066   0.4140   0.4298   0.5063   0.5351   0.5923   0.5933
  0.6150   0.6273   0.6788   0.6883   0.6935   0.7195   0.7748   0.8061
  0.8172   0.8502   0.8788   0.9077   0.9734   1.0358   1.0547   1.1019
  1.1057   1.1201   1.1251   1.1440   1.1445   1.1796   1.2016   1.2153
  1.2376   1.2385   1.3188   1.3438   1.4206   1.4946   1.5181   1.5834
  1.6040   1.6131   1.6617   1.7759   1.7904   1.8280   1.8378   1.8610
  1.9251   1.9716   2.0979   2.2011   2.2987   2.3287   2.3687   2.4808
  2.5035   2.5668   2.6488   2.6508   2.7149   2.8193   2.8225   2.8322
  2.8961   2.9787   3.0036   3.0873   3.1153   3.1505   3.2546   3.2957
  3.3075   3.3442   3.3879   3.4186   3.4565   3.4604   3.5117   3.5872
  3.6327   3.6739   3.6927   3.7301   3.7977   3.8848   3.9592   3.9915
  4.0748   4.1022   4.1860   4.2213   4.2963   4.4061   4.6223   4.6949
  5.1050   5.1103   5.1261   5.1507   5.1519   5.1700   5.2049   5.2163
  5.2266   5.2394   5.2911   5.3468   5.4533   5.4916   5.5451   5.5683
  5.5899   5.6116   5.7337   5.7587   5.8945   6.0636   6.0758   6.3802
  6.4339   6.5899   6.7556   6.8920   6.9180   6.9365   7.0071   7.0289
  7.0667   7.1267   7.2252   7.2733   7.2881   7.3242   7.3886   7.4260
  7.5332   7.6262   7.6644   7.7624   7.8318   7.8617  24.9110  25.1125
 50.5591  50.7065  50.7209
 --------------------------------------------------------------
 
          Ground-State Mulliken Net Atomic Charges

     Atom                 Charge (a.u.)
  ----------------------------------------
      1 C                     0.324516
      2 O                    -0.448557
      3 C                     0.177462
      4 H                     0.195405
      5 O                    -0.323085
      6 O                    -0.297506
      7 H                     0.371765
  ----------------------------------------
  Sum of atomic charges =     0.000000

 -----------------------------------------------------------------
                    Cartesian Multipole Moments
 -----------------------------------------------------------------
    Charge (ESU x 10^10)
                 0.0000
    Dipole Moment (Debye)
         X      -1.5731      Y       0.1122      Z      -0.0001
       Tot       1.5771
    Quadrupole Moments (Debye-Ang)
        XX     -32.8948     XY      10.0206     YY     -30.9355
        XZ       0.0003     YZ      -0.0012     ZZ     -26.9069
    Octopole Moments (Debye-Ang^2)
       XXX    -126.0963    XXY      14.1929    XYY     -32.8374
       YYY      -9.0453    XXZ      -0.0002    XYZ       0.0005
       YYZ      -0.0018    XZZ     -30.7638    YZZ      -1.9442
       ZZZ      -0.0048
    Hexadecapole Moments (Debye-Ang^3)
      XXXX    -599.6438   XXXY      56.7949   XXYY     -98.1326
      XYYY      19.4422   YYYY    -144.5433   XXXZ       0.0036
      XXYZ      -0.0018   XYYZ       0.0007   YYYZ      -0.0074
      XXZZ     -82.7253   XYZZ       2.6367   YYZZ     -27.7442
      XZZZ       0.0006   YZZZ      -0.0060   ZZZZ     -23.6339
 -----------------------------------------------------------------
 Calculating analytic gradient of the SCF energy
 Gradient of CDS energy
            1           2           3           4           5           6
    1  -0.0029710   0.0008708   0.0024131  -0.0001250  -0.0008325   0.0009743
    2  -0.0019238  -0.0010425  -0.0009221   0.0001195   0.0009257   0.0031166
    3   0.0000002  -0.0000003  -0.0000001   0.0000000   0.0000001  -0.0000000
            7
    1  -0.0003299
    2  -0.0002734
    3   0.0000000
 Gradient of SCF Energy
            1           2           3           4           5           6
    1   0.0039003  -0.0068952  -0.0035640   0.0027733   0.0030555   0.0196598
    2  -0.0014890   0.0109413  -0.0070620   0.0095056  -0.0055560  -0.0029176
    3  -0.0000324   0.0000133   0.0000092   0.0000009  -0.0000008   0.0000068
            7
    1  -0.0189297
    2  -0.0034223
    3   0.0000031
 Max gradient component =       1.966E-02
 RMS gradient           =       7.402E-03
 Computing fast CPCM-SWIG gradient
 Updating gradient with PCM contributions...
 -- total gradient after adding PCM contribution --
---------------------------------------------------
  Atom         X              Y              Z     
---------------------------------------------------
   1       0.001358      -0.000228      -0.000030
   2      -0.000691       0.000531       0.000011
   3      -0.000318      -0.000118       0.000009
   4      -0.000026       0.000033      -0.000000
   5      -0.000044       0.000093      -0.000001
   6      -0.000290      -0.000183       0.000009
   7       0.000012      -0.000128       0.000001
---------------------------------------------------
 Number of fixed atoms: 0
 Gradient time:  CPU 27.85 s  wall 4.02 s
 ----------------------------------------------------------------
             Standard Nuclear Orientation (Angstroms)
    I     Atom           X                Y                Z
 ----------------------------------------------------------------
    1      C       0.6305991465     0.2477079889     0.0000033321
    2      O      -0.1135024584     1.1967886302     0.0002458748
    3      C       2.1481280727     0.4392796677     0.0000297314
    4      H       2.4626548454     1.4901100069     0.0001486280
    5      O       2.9119595448    -0.4867043651    -0.0000348933
    6      O       0.2708823096    -1.0243151281     0.0000094324
    7      H      -0.6985185606    -1.0862441004     0.0001453947
 ----------------------------------------------------------------
 Nuclear Repulsion Energy =         162.61199580 hartrees
 There are       19 alpha and       19 beta electrons
 Discretize the solute cavity surface with Lebedev spheres
	Using 110 Lebedev grid points for each H atom
	Using 194 Lebedev grid points for other atoms
	Atomic van der Waals radii will be scaled by 1.20
 Remove points where switching function is < 1.0e-08
 Keep 690 surface tesserae and discard 500 interior tesserae
 Molecular Surface Area = 86.675 Angst**2

                       Distance Matrix (Angstroms)
             C (  1)   O (  2)   C (  3)   H (  4)   O (  5)   O (  6)
   O (  2)  1.206002
   C (  3)  1.529573  2.385119
   H (  4)  2.213592  2.592802  1.096892
   O (  5)  2.396657  3.462307  1.200369  2.027232
   O (  6)  1.321907  2.254119  2.380370  3.335596  2.695239
   H (  7)  1.883078  2.356795  3.229647  4.078065  3.659918  0.971377

 
 Requested basis set is 6-311++G(2df,2p)
 There are 52 shells and 190 basis functions
 A cutoff of  1.0D-12 yielded   1326 shell pairs
 There are     17916 function pairs (     22968 Cartesian)
 Smallest overlap matrix eigenvalue = 1.10E-04
 Guess MOs from SCF MO coefficient file

 -----------------------------------------------------------------------
  General SCF calculation program by
  Eric Jon Sundstrom, Paul Horn, Yuezhi Mao, Dmitri Zuev, Alec White,
  David Stuck, Shaama M.S., Shane Yost, Joonho Lee, David Small,
  Daniel Levine, Susi Lehtola, Hugh Burton, Evgeny Epifanovsky,
  Bang C. Huynh
 -----------------------------------------------------------------------
 Exchange:     0.1500 Hartree-Fock + 1.0000 wB97M-V + LR-HF
 Correlation:  1.0000 wB97M-V
 Using SG-2 standard quadrature grid
 Nonlocal Correlation:  VV10 with C = 0.0100 and b = 6.00 and scale = 1.00000
 Grid used for NLC:  SG-1 standard quadrature
 
 Citation of the SMD model:
 Marenich, A.V.; Cramer, C.J.; Truhlar, D.G.
 J. Phys. Chem. B 2009, 113, 6378-6396.
 iSolventCode=           1
 Solvent: water                                                           
 
 vradii
            1           2           3           4           5           6
    1   1.8500000   1.5200000   1.8500000   1.2000000   1.5200000   1.5200000
            7
    1   1.2000000
 -------------------------------------------------------
 OpenMP BLAS3 based DFT computing Module                
 Release: version 1.0, May 2013, Q-Chem Inc. Pittsburgh 
 -------------------------------------------------------
 A restricted SCF calculation will be
 performed using Roothaan-Hall, DIIS, GDM
 SCF converges when RMS gradient is below 1.0e-07
 ---------------------------------------
  Cycle       Energy         DIIS error
 ---------------------------------------
    1    -303.0921848445      7.00e-04  Roothaan Step
 ---------------------------------------
  Cycle       Energy         DIIS error
 ---------------------------------------
    1    -303.1124335541      9.56e-04  
    2    -303.1135761188      1.16e-03  Done DIIS. Switching to GDM
 ---------------------------------------
  Cycle       Energy        RMS Gradient
 ---------------------------------------
    1    -303.1135761188      2.61e-02   Normal BFGS step
    2    -303.1109890607      4.06e-02  Line search: overstep
    3    -303.1174358748      2.18e-03   Normal BFGS step
    4    -303.1175787338      8.95e-04   Normal BFGS step
    5    -303.1175907494      8.75e-04   Normal BFGS step
    6    -303.1175951081      1.15e-04   Normal BFGS step
    7    -303.1175953863      9.32e-05   Normal BFGS step
    8    -303.1175954279      6.18e-05   Normal BFGS step
    9    -303.1175954434      1.07e-05   Normal BFGS step
   10    -303.1175954445      3.13e-06   Normal BFGS step
   11    -303.1175954446      1.17e-06   Normal BFGS step
   12    -303.1175954446      2.58e-07   Normal BFGS step
   13    -303.1175954446      1.19e-07   Normal BFGS step
   14    -303.1175954446      4.80e-08  Convergence criterion met
 ---------------------------------------
 SCF time:   CPU 158.55s  wall 21.00s 
(3)  G-ENP(liq) elect-nuc-pol free energy of system     -303.117595445 a.u.
(4)  G-CDS(liq) cavity-dispersion-solvent structure 
     free energy                                                5.3038 kcal/mol
(6)  G-S(liq) free energy of system                     -303.109143294 a.u.
 SCF   energy in the final basis set =     -303.1091432944
 Total energy in the final basis set =     -303.1091432944
 
 --------------------------------------------------------------
 
                    Orbital Energies (a.u.)
 --------------------------------------------------------------
 
 Alpha MOs
 -- Occupied --
-19.3984 -19.3728 -19.3535 -10.5032 -10.4626  -1.2671  -1.2169  -1.1782
 -0.8395  -0.7350  -0.6374  -0.6286  -0.5975  -0.5954  -0.5356  -0.5206
 -0.4533  -0.4491  -0.3857
 -- Virtual --
 -0.0082   0.0309   0.0483   0.0730   0.0845   0.0931   0.1136   0.1149
  0.1305   0.1450   0.1534   0.1724   0.2131   0.2342   0.2366   0.2463
  0.2849   0.2909   0.3065   0.3111   0.3182   0.3253   0.3396   0.3437
  0.3543   0.4064   0.4140   0.4298   0.5065   0.5354   0.5922   0.5935
  0.6152   0.6273   0.6789   0.6879   0.6934   0.7199   0.7749   0.8062
  0.8173   0.8505   0.8786   0.9078   0.9735   1.0359   1.0547   1.1017
  1.1056   1.1201   1.1249   1.1439   1.1443   1.1796   1.2016   1.2153
  1.2377   1.2384   1.3186   1.3440   1.4204   1.4945   1.5185   1.5830
  1.6041   1.6131   1.6613   1.7760   1.7907   1.8283   1.8384   1.8612
  1.9250   1.9719   2.0978   2.2010   2.2992   2.3287   2.3694   2.4806
  2.5039   2.5671   2.6482   2.6510   2.7154   2.8193   2.8230   2.8317
  2.8962   2.9781   3.0037   3.0876   3.1158   3.1506   3.2544   3.2960
  3.3078   3.3445   3.3874   3.4182   3.4558   3.4599   3.5123   3.5887
  3.6329   3.6729   3.6926   3.7302   3.7976   3.8843   3.9601   3.9900
  4.0712   4.1014   4.1858   4.2218   4.2958   4.4068   4.6211   4.6931
  5.1048   5.1102   5.1261   5.1507   5.1519   5.1702   5.2051   5.2165
  5.2264   5.2404   5.2910   5.3473   5.4536   5.4919   5.5465   5.5684
  5.5897   5.6109   5.7339   5.7593   5.8941   6.0665   6.0771   6.3803
  6.4390   6.5915   6.7584   6.8920   6.9181   6.9367   7.0070   7.0291
  7.0673   7.1263   7.2253   7.2741   7.2879   7.3243   7.3891   7.4300
  7.5336   7.6257   7.6645   7.7622   7.8322   7.8622  24.9104  25.1133
 50.5597  50.7064  50.7229
 --------------------------------------------------------------
 
          Ground-State Mulliken Net Atomic Charges

     Atom                 Charge (a.u.)
  ----------------------------------------
      1 C                     0.323650
      2 O                    -0.447760
      3 C                     0.177528
      4 H                     0.195256
      5 O                    -0.323332
      6 O                    -0.296882
      7 H                     0.371541
  ----------------------------------------
  Sum of atomic charges =     0.000000

 -----------------------------------------------------------------
                    Cartesian Multipole Moments
 -----------------------------------------------------------------
    Charge (ESU x 10^10)
                 0.0000
    Dipole Moment (Debye)
         X      -1.5851      Y       0.1139      Z      -0.0001
       Tot       1.5892
    Quadrupole Moments (Debye-Ang)
        XX     -32.9214     XY      10.0182     YY     -30.9294
        XZ       0.0004     YZ      -0.0012     ZZ     -26.9053
    Octopole Moments (Debye-Ang^2)
       XXX    -126.1423    XXY      14.1922    XYY     -32.8331
       YYY      -9.0387    XXZ      -0.0002    XYZ       0.0005
       YYZ      -0.0018    XZZ     -30.7620    YZZ      -1.9413
       ZZZ      -0.0047
    Hexadecapole Moments (Debye-Ang^3)
      XXXX    -599.8115   XXXY      56.8011   XXYY     -98.1506
      XYYY      19.4364   YYYY    -144.5003   XXXZ       0.0036
      XXYZ      -0.0018   XYYZ       0.0007   YYYZ      -0.0074
      XXZZ     -82.7327   XYZZ       2.6388   YYZZ     -27.7378
      XZZZ       0.0006   YZZZ      -0.0060   ZZZZ     -23.6307
 -----------------------------------------------------------------
 Calculating analytic gradient of the SCF energy
 Gradient of CDS energy
            1           2           3           4           5           6
    1  -0.0029528   0.0008583   0.0024176  -0.0001251  -0.0008324   0.0009638
    2  -0.0019188  -0.0010301  -0.0009214   0.0001192   0.0009257   0.0030987
    3   0.0000002  -0.0000003  -0.0000001   0.0000000   0.0000001  -0.0000000
            7
    1  -0.0003295
    2  -0.0002734
    3   0.0000000
 Gradient of SCF Energy
            1           2           3           4           5           6
    1   0.0010693  -0.0054805  -0.0028668   0.0027688   0.0031148   0.0202898
    2  -0.0009012   0.0097999  -0.0068521   0.0094589  -0.0056071  -0.0027024
    3  -0.0000321   0.0000129   0.0000093   0.0000009  -0.0000008   0.0000067
            7
    1  -0.0188954
    2  -0.0031960
    3   0.0000031
 Max gradient component =       2.029E-02
 RMS gradient           =       7.263E-03
 Computing fast CPCM-SWIG gradient
 Updating gradient with PCM contributions...
 -- total gradient after adding PCM contribution --
---------------------------------------------------
  Atom         X              Y              Z     
---------------------------------------------------
   1      -0.001458       0.000390      -0.000029
   2       0.000713      -0.000632       0.000011
   3       0.000359       0.000082       0.000009
   4      -0.000016       0.000010      -0.000000
   5       0.000033       0.000018      -0.000001
   6       0.000298       0.000045       0.000009
   7       0.000072       0.000087       0.000001
---------------------------------------------------
 Number of fixed atoms: 0
 Gradient time:  CPU 27.74 s  wall 4.04 s
 ----------------------------------------------------------------
             Standard Nuclear Orientation (Angstroms)
    I     Atom           X                Y                Z
 ----------------------------------------------------------------
    1      C       0.6315991465     0.2487079889     0.0000033321
    2      O      -0.1135024584     1.1967886302     0.0002458748
    3      C       2.1481280727     0.4392796677     0.0000297314
    4      H       2.4626548454     1.4901100069     0.0001486280
    5      O       2.9119595448    -0.4867043651    -0.0000348933
    6      O       0.2708823096    -1.0243151281     0.0000094324
    7      H      -0.6985185606    -1.0862441004     0.0001453947
 ----------------------------------------------------------------
 Nuclear Repulsion Energy =         162.60861332 hartrees
 There are       19 alpha and       19 beta electrons
 Discretize the solute cavity surface with Lebedev spheres
	Using 110 Lebedev grid points for each H atom
	Using 194 Lebedev grid points for other atoms
	Atomic van der Waals radii will be scaled by 1.20
 Remove points where switching function is < 1.0e-08
 Keep 690 surface tesserae and discard 500 interior tesserae
 Molecular Surface Area = 86.677 Angst**2

                       Distance Matrix (Angstroms)
             C (  1)   O (  2)   C (  3)   H (  4)   O (  5)   O (  6)
   O (  2)  1.205833
   C (  3)  1.528456  2.385119
   H (  4)  2.212203  2.592802  1.096892
   O (  5)  2.396012  3.462307  1.200369  2.027232
   O (  6)  1.323142  2.254119  2.380370  3.335596  2.695239
   H (  7)  1.884492  2.356795  3.229647  4.078065  3.659918  0.971377

 
 Requested basis set is 6-311++G(2df,2p)
 There are 52 shells and 190 basis functions
 A cutoff of  1.0D-12 yielded   1326 shell pairs
 There are     17916 function pairs (     22968 Cartesian)
 Smallest overlap matrix eigenvalue = 1.09E-04
 Guess MOs from SCF MO coefficient file

 -----------------------------------------------------------------------
  General SCF calculation program by
  Eric Jon Sundstrom, Paul Horn, Yuezhi Mao, Dmitri Zuev, Alec White,
  David Stuck, Shaama M.S., Shane Yost, Joonho Lee, David Small,
  Daniel Levine, Susi Lehtola, Hugh Burton, Evgeny Epifanovsky,
  Bang C. Huynh
 -----------------------------------------------------------------------
 Exchange:     0.1500 Hartree-Fock + 1.0000 wB97M-V + LR-HF
 Correlation:  1.0000 wB97M-V
 Using SG-2 standard quadrature grid
 Nonlocal Correlation:  VV10 with C = 0.0100 and b = 6.00 and scale = 1.00000
 Grid used for NLC:  SG-1 standard quadrature
 
 Citation of the SMD model:
 Marenich, A.V.; Cramer, C.J.; Truhlar, D.G.
 J. Phys. Chem. B 2009, 113, 6378-6396.
 iSolventCode=           1
 Solvent: water                                                           
 
 vradii
            1           2           3           4           5           6
    1   1.8500000   1.5200000   1.8500000   1.2000000   1.5200000   1.5200000
            7
    1   1.2000000
 -------------------------------------------------------
 OpenMP BLAS3 based DFT computing Module                
 Release: version 1.0, May 2013, Q-Chem Inc. Pittsburgh 
 -------------------------------------------------------
 A restricted SCF calculation will be
 performed using Roothaan-Hall, DIIS, GDM
 SCF converges when RMS gradient is below 1.0e-07
 ---------------------------------------
  Cycle       Energy         DIIS error
 ---------------------------------------
    1    -303.0921862082      7.00e-04  Roothaan Step
 ---------------------------------------
  Cycle       Energy         DIIS error
 ---------------------------------------
    1    -303.1123895618      9.62e-04  
    2    -303.1135035396      1.17e-03  Done DIIS. Switching to GDM
 ---------------------------------------
  Cycle       Energy        RMS Gradient
 ---------------------------------------
    1    -303.1135035396      2.63e-02   Normal BFGS step
    2    -303.1108700021      4.08e-02  Line search: overstep
    3    -303.1174259664      2.18e-03   Normal BFGS step
    4    -303.1175693364      8.90e-04   Normal BFGS step
    5    -303.1175812345      8.90e-04   Normal BFGS step
    6    -303.1175857190      1.13e-04   Normal BFGS step
    7    -303.1175859815      9.42e-05   Normal BFGS step
    8    -303.1175860239      6.00e-05   Normal BFGS step
    9    -303.1175860389      1.03e-05   Normal BFGS step
   10    -303.1175860400      3.21e-06   Normal BFGS step
   11    -303.1175860401      1.15e-06   Normal BFGS step
   12    -303.1175860401      2.42e-07   Normal BFGS step
   13    -303.1175860401      1.17e-07   Normal BFGS step
   14    -303.1175860402      4.32e-08  Convergence criterion met
 ---------------------------------------
 SCF time:   CPU 157.23s  wall 20.00s 
(3)  G-ENP(liq) elect-nuc-pol free energy of system     -303.117586040 a.u.
(4)  G-CDS(liq) cavity-dispersion-solvent structure 
     free energy                                                5.2980 kcal/mol
(6)  G-S(liq) free energy of system                     -303.109143148 a.u.
 SCF   energy in the final basis set =     -303.1091431479
 Total energy in the final basis set =     -303.1091431479
 
 --------------------------------------------------------------
 
                    Orbital Energies (a.u.)
 --------------------------------------------------------------
 
 Alpha MOs
 -- Occupied --
-19.3981 -19.3728 -19.3537 -10.5033 -10.4626  -1.2668  -1.2170  -1.1781
 -0.8398  -0.7349  -0.6373  -0.6286  -0.5974  -0.5954  -0.5357  -0.5206
 -0.4533  -0.4491  -0.3859
 -- Virtual --
 -0.0085   0.0309   0.0483   0.0730   0.0845   0.0930   0.1136   0.1149
  0.1305   0.1450   0.1534   0.1724   0.2131   0.2342   0.2366   0.2463
  0.2849   0.2909   0.3065   0.3113   0.3182   0.3253   0.3397   0.3437
  0.3543   0.4065   0.4140   0.4295   0.5065   0.5353   0.5923   0.5934
  0.6151   0.6274   0.6788   0.6882   0.6935   0.7197   0.7747   0.8062
  0.8173   0.8506   0.8787   0.9079   0.9734   1.0357   1.0547   1.1020
  1.1057   1.1199   1.1248   1.1439   1.1444   1.1797   1.2016   1.2152
  1.2376   1.2385   1.3187   1.3438   1.4209   1.4946   1.5183   1.5832
  1.6041   1.6131   1.6615   1.7761   1.7904   1.8282   1.8383   1.8611
  1.9251   1.9716   2.0980   2.2012   2.2990   2.3286   2.3686   2.4811
  2.5040   2.5670   2.6486   2.6508   2.7153   2.8192   2.8228   2.8313
  2.8963   2.9785   3.0037   3.0870   3.1154   3.1505   3.2548   3.2956
  3.3075   3.3442   3.3879   3.4179   3.4562   3.4600   3.5118   3.5886
  3.6326   3.6735   3.6928   3.7301   3.7978   3.8843   3.9592   3.9911
  4.0732   4.1018   4.1859   4.2217   4.2963   4.4064   4.6219   4.6941
  5.1050   5.1103   5.1261   5.1506   5.1519   5.1701   5.2050   5.2166
  5.2267   5.2398   5.2911   5.3471   5.4535   5.4918   5.5460   5.5685
  5.5897   5.6115   5.7341   5.7588   5.8945   6.0636   6.0762   6.3801
  6.4385   6.5907   6.7565   6.8920   6.9181   6.9366   7.0071   7.0291
  7.0682   7.1267   7.2252   7.2739   7.2879   7.3245   7.3888   7.4270
  7.5336   7.6259   7.6645   7.7622   7.8324   7.8619  24.9110  25.1125
 50.5589  50.7064  50.7230
 --------------------------------------------------------------
 
          Ground-State Mulliken Net Atomic Charges

     Atom                 Charge (a.u.)
  ----------------------------------------
      1 C                     0.324116
      2 O                    -0.447254
      3 C                     0.177736
      4 H                     0.195180
      5 O                    -0.323184
      6 O                    -0.298101
      7 H                     0.371506
  ----------------------------------------
  Sum of atomic charges =     0.000000

 -----------------------------------------------------------------
                    Cartesian Multipole Moments
 -----------------------------------------------------------------
    Charge (ESU x 10^10)
                 0.0000
    Dipole Moment (Debye)
         X      -1.5802      Y       0.1260      Z      -0.0001
       Tot       1.5852
    Quadrupole Moments (Debye-Ang)
        XX     -32.9065     XY      10.0184     YY     -30.9310
        XZ       0.0004     YZ      -0.0012     ZZ     -26.9053
    Octopole Moments (Debye-Ang^2)
       XXX    -126.1176    XXY      14.1883    XYY     -32.8386
       YYY      -9.0258    XXZ      -0.0002    XYZ       0.0005
       YYZ      -0.0018    XZZ     -30.7635    YZZ      -1.9376
       ZZZ      -0.0047
    Hexadecapole Moments (Debye-Ang^3)
      XXXX    -599.7005   XXXY      56.7626   XXYY     -98.1505
      XYYY      19.4267   YYYY    -144.5313   XXXZ       0.0035
      XXYZ      -0.0018   XYYZ       0.0007   YYYZ      -0.0074
      XXZZ     -82.7265   XYZZ       2.6352   YYZZ     -27.7414
      XZZZ       0.0006   YZZZ      -0.0060   ZZZZ     -23.6302
 -----------------------------------------------------------------
 Calculating analytic gradient of the SCF energy
 Gradient of CDS energy
            1           2           3           4           5           6
    1  -0.0029644   0.0008584   0.0024152  -0.0001249  -0.0008328   0.0009782
    2  -0.0019624  -0.0010271  -0.0009226   0.0001193   0.0009253   0.0031420
    3   0.0000002  -0.0000003  -0.0000001   0.0000000   0.0000001  -0.0000000
            7
    1  -0.0003297
    2  -0.0002745
    3   0.0000000
 Gradient of SCF Energy
            1           2           3           4           5           6
    1   0.0021892  -0.0056795  -0.0033052   0.0027180   0.0031551   0.0198371
    2   0.0002977   0.0095400  -0.0071402   0.0094869  -0.0055779  -0.0032953
    3  -0.0000321   0.0000129   0.0000092   0.0000009  -0.0000008   0.0000068
            7
    1  -0.0189147
    2  -0.0033114
    3   0.0000031
 Max gradient component =       1.984E-02
 RMS gradient           =       7.243E-03
 Computing fast CPCM-SWIG gradient
 Updating gradient with PCM contributions...
 -- total gradient after adding PCM contribution --
---------------------------------------------------
  Atom         X              Y              Z     
---------------------------------------------------
   1      -0.000363       0.001585      -0.000029
   2       0.000536      -0.000877       0.000011
   3      -0.000073      -0.000196       0.000009
   4      -0.000072       0.000016      -0.000000
   5       0.000073       0.000058      -0.000001
   6      -0.000115      -0.000540       0.000009
   7       0.000012      -0.000046       0.000001
---------------------------------------------------
 Number of fixed atoms: 0
 Gradient time:  CPU 28.16 s  wall 4.12 s
 ----------------------------------------------------------------
             Standard Nuclear Orientation (Angstroms)
    I     Atom           X                Y                Z
 ----------------------------------------------------------------
    1      C       0.6315991465     0.2467079889     0.0000033321
    2      O      -0.1135024584     1.1967886302     0.0002458748
    3      C       2.1481280727     0.4392796677     0.0000297314
    4      H       2.4626548454     1.4901100069     0.0001486280
    5      O       2.9119595448    -0.4867043651    -0.0000348933
    6      O       0.2708823096    -1.0243151281     0.0000094324
    7      H      -0.6985185606    -1.0862441004     0.0001453947
 ----------------------------------------------------------------
 Nuclear Repulsion Energy =         162.61033433 hartrees
 There are       19 alpha and       19 beta electrons
 Discretize the solute cavity surface with Lebedev spheres
	Using 110 Lebedev grid points for each H atom
	Using 194 Lebedev grid points for other atoms
	Atomic van der Waals radii will be scaled by 1.20
 Remove points where switching function is < 1.0e-08
 Keep 690 surface tesserae and discard 500 interior tesserae
 Molecular Surface Area = 86.677 Angst**2

                       Distance Matrix (Angstroms)
             C (  1)   O (  2)   C (  3)   H (  4)   O (  5)   O (  6)
   O (  2)  1.207406
   C (  3)  1.528707  2.385119
   H (  4)  2.213326  2.592802  1.096892
   O (  5)  2.395399  3.462307  1.200369  2.027232
   O (  6)  1.321218  2.254119  2.380370  3.335596  2.695239
   H (  7)  1.883076  2.356795  3.229647  4.078065  3.659918  0.971377

 
 Requested basis set is 6-311++G(2df,2p)
 There are 52 shells and 190 basis functions
 A cutoff of  1.0D-12 yielded   1326 shell pairs
 There are     17916 function pairs (     22968 Cartesian)
 Smallest overlap matrix eigenvalue = 1.10E-04
 Guess MOs from SCF MO coefficient file

 -----------------------------------------------------------------------
  General SCF calculation program by
  Eric Jon Sundstrom, Paul Horn, Yuezhi Mao, Dmitri Zuev, Alec White,
  David Stuck, Shaama M.S., Shane Yost, Joonho Lee, David Small,
  Daniel Levine, Susi Lehtola, Hugh Burton, Evgeny Epifanovsky,
  Bang C. Huynh
 -----------------------------------------------------------------------
 Exchange:     0.1500 Hartree-Fock + 1.0000 wB97M-V + LR-HF
 Correlation:  1.0000 wB97M-V
 Using SG-2 standard quadrature grid
 Nonlocal Correlation:  VV10 with C = 0.0100 and b = 6.00 and scale = 1.00000
 Grid used for NLC:  SG-1 standard quadrature
 
 Citation of the SMD model:
 Marenich, A.V.; Cramer, C.J.; Truhlar, D.G.
 J. Phys. Chem. B 2009, 113, 6378-6396.
 iSolventCode=           1
 Solvent: water                                                           
 
 vradii
            1           2           3           4           5           6
    1   1.8500000   1.5200000   1.8500000   1.2000000   1.5200000   1.5200000
            7
    1   1.2000000
 -------------------------------------------------------
 OpenMP BLAS3 based DFT computing Module                
 Release: version 1.0, May 2013, Q-Chem Inc. Pittsburgh 
 -------------------------------------------------------
 A restricted SCF calculation will be
 performed using Roothaan-Hall, DIIS, GDM
 SCF converges when RMS gradient is below 1.0e-07
 ---------------------------------------
  Cycle       Energy         DIIS error
 ---------------------------------------
    1    -303.0921920483      6.98e-04  Roothaan Step
 ---------------------------------------
  Cycle       Energy         DIIS error
 ---------------------------------------
    1    -303.1123697792      9.64e-04  
    2    -303.1134712781      1.18e-03  Done DIIS. Switching to GDM
 ---------------------------------------
  Cycle       Energy        RMS Gradient
 ---------------------------------------
    1    -303.1134712781      2.63e-02   Normal BFGS step
    2    -303.1107991474      4.09e-02  Line search: overstep
    3    -303.1174311516      2.19e-03   Normal BFGS step
    4    -303.1175766726      8.89e-04   Normal BFGS step
    5    -303.1175888087      8.59e-04   Normal BFGS step
    6    -303.1175932594      1.17e-04   Normal BFGS step
    7    -303.1175935405      9.57e-05   Normal BFGS step
    8    -303.1175935839      6.23e-05   Normal BFGS step
    9    -303.1175936000      1.07e-05   Normal BFGS step
   10    -303.1175936011      3.30e-06   Normal BFGS step
   11    -303.1175936012      1.19e-06   Normal BFGS step
   12    -303.1175936012      2.45e-07   Normal BFGS step
   13    -303.1175936012      1.23e-07   Normal BFGS step
   14    -303.1175936012      4.30e-08  Convergence criterion met
 ---------------------------------------
 SCF time:   CPU 157.08s  wall 20.00s 
(3)  G-ENP(liq) elect-nuc-pol free energy of system     -303.117593601 a.u.
(4)  G-CDS(liq) cavity-dispersion-solvent structure 
     free energy                                                5.3026 kcal/mol
(6)  G-S(liq) free energy of system                     -303.109143447 a.u.
 SCF   energy in the final basis set =     -303.1091434473
 Total energy in the final basis set =     -303.1091434473
 
 --------------------------------------------------------------
 
                    Orbital Energies (a.u.)
 --------------------------------------------------------------
 
 Alpha MOs
 -- Occupied --
-19.3986 -19.3728 -19.3534 -10.5034 -10.4626  -1.2671  -1.2170  -1.1778
 -0.8398  -0.7352  -0.6375  -0.6285  -0.5975  -0.5954  -0.5355  -0.5206
 -0.4531  -0.4488  -0.3859
 -- Virtual --
 -0.0084   0.0309   0.0483   0.0730   0.0845   0.0931   0.1136   0.1149
  0.1305   0.1449   0.1535   0.1724   0.2131   0.2342   0.2365   0.2463
  0.2848   0.2909   0.3065   0.3111   0.3182   0.3252   0.3397   0.3439
  0.3543   0.4065   0.4140   0.4301   0.5062   0.5353   0.5922   0.5934
  0.6150   0.6273   0.6789   0.6880   0.6934   0.7197   0.7750   0.8061
  0.8172   0.8501   0.8788   0.9076   0.9735   1.0359   1.0548   1.1016
  1.1056   1.1202   1.1251   1.1440   1.1444   1.1796   1.2016   1.2153
  1.2377   1.2384   1.3188   1.3439   1.4201   1.4944   1.5183   1.5832
  1.6041   1.6131   1.6616   1.7758   1.7907   1.8280   1.8379   1.8611
  1.9250   1.9719   2.0977   2.2008   2.2989   2.3289   2.3694   2.4803
  2.5034   2.5669   2.6484   2.6510   2.7150   2.8193   2.8227   2.8325
  2.8960   2.9784   3.0036   3.0879   3.1157   3.1506   3.2543   3.2961
  3.3078   3.3445   3.3874   3.4189   3.4561   3.4603   3.5121   3.5873
  3.6329   3.6734   3.6925   3.7302   3.7975   3.8847   3.9602   3.9904
  4.0727   4.1019   4.1859   4.2214   4.2958   4.4065   4.6215   4.6939
  5.1049   5.1103   5.1262   5.1508   5.1519   5.1702   5.2049   5.2163
  5.2264   5.2400   5.2910   5.3470   5.4534   5.4917   5.5456   5.5682
  5.5899   5.6111   5.7335   5.7593   5.8941   6.0665   6.0768   6.3804
  6.4344   6.5908   6.7575   6.8920   6.9180   6.9365   7.0070   7.0289
  7.0658   7.1264   7.2253   7.2735   7.2881   7.3240   7.3889   7.4289
  7.5333   7.6260   7.6645   7.7624   7.8316   7.8620  24.9105  25.1133
 50.5598  50.7065  50.7208
 --------------------------------------------------------------
 
          Ground-State Mulliken Net Atomic Charges

     Atom                 Charge (a.u.)
  ----------------------------------------
      1 C                     0.324050
      2 O                    -0.449066
      3 C                     0.177257
      4 H                     0.195481
      5 O                    -0.323234
      6 O                    -0.296288
      7 H                     0.371800
  ----------------------------------------
  Sum of atomic charges =     0.000000

 -----------------------------------------------------------------
                    Cartesian Multipole Moments
 -----------------------------------------------------------------
    Charge (ESU x 10^10)
                 0.0000
    Dipole Moment (Debye)
         X      -1.5780      Y       0.1000      Z      -0.0001
       Tot       1.5811
    Quadrupole Moments (Debye-Ang)
        XX     -32.9096     XY      10.0204     YY     -30.9338
        XZ       0.0004     YZ      -0.0012     ZZ     -26.9069
    Octopole Moments (Debye-Ang^2)
       XXX    -126.1209    XXY      14.1968    XYY     -32.8318
       YYY      -9.0583    XXZ      -0.0002    XYZ       0.0005
       YYZ      -0.0018    XZZ     -30.7623    YZZ      -1.9480
       ZZZ      -0.0048
    Hexadecapole Moments (Debye-Ang^3)
      XXXX    -599.7544   XXXY      56.8333   XXYY     -98.1327
      XYYY      19.4519   YYYY    -144.5124   XXXZ       0.0036
      XXYZ      -0.0018   XYYZ       0.0007   YYYZ      -0.0074
      XXZZ     -82.7314   XYZZ       2.6403   YYZZ     -27.7406
      XZZZ       0.0006   YZZZ      -0.0060   ZZZZ     -23.6345
 -----------------------------------------------------------------
 Calculating analytic gradient of the SCF energy
 Gradient of CDS energy
            1           2           3           4           5           6
    1  -0.0029594   0.0008707   0.0024155  -0.0001251  -0.0008320   0.0009600
    2  -0.0018805  -0.0010455  -0.0009209   0.0001194   0.0009261   0.0030737
    3   0.0000002  -0.0000003  -0.0000001   0.0000000   0.0000001  -0.0000000
            7
    1  -0.0003297
    2  -0.0002723
    3   0.0000000
 Gradient of SCF Energy
            1           2           3           4           5           6
    1   0.0027736  -0.0066937  -0.0031237   0.0028242   0.0030156   0.0201142
    2  -0.0026919   0.0112003  -0.0067735   0.0094777  -0.0055855  -0.0023200
    3  -0.0000324   0.0000133   0.0000092   0.0000009  -0.0000008   0.0000067
            7
    1  -0.0189104
    2  -0.0033070
    3   0.0000031
 Max gradient component =       2.011E-02
 RMS gradient           =       7.424E-03
 Computing fast CPCM-SWIG gradient
 Updating gradient with PCM contributions...
 -- total gradient after adding PCM contribution --
---------------------------------------------------
  Atom         X              Y              Z     
---------------------------------------------------
   1       0.000255      -0.001427      -0.000030
   2      -0.000511       0.000775       0.000011
   3       0.000116       0.000160       0.000009
   4       0.000029       0.000028      -0.000000
   5      -0.000084       0.000052      -0.000001
   6       0.000124       0.000407       0.000009
   7       0.000071       0.000005       0.000001
---------------------------------------------------
 Number of fixed atoms: 0
 Gradient time:  CPU 28.07 s  wall 4.08 s
 ----------------------------------------------------------------
             Standard Nuclear Orientation (Angstroms)
    I     Atom           X                Y                Z
 ----------------------------------------------------------------
    1      C       0.6315991465     0.2477079889     0.0010033321
    2      O      -0.1135024584     1.1967886302     0.0002458748
    3      C       2.1481280727     0.4392796677     0.0000297314
    4      H       2.4626548454     1.4901100069     0.0001486280
    5      O       2.9119595448    -0.4867043651    -0.0000348933
    6      O       0.2708823096    -1.0243151281     0.0000094324
    7      H      -0.6985185606    -1.0862441004     0.0001453947
 ----------------------------------------------------------------
 Nuclear Repulsion Energy =         162.60944802 hartrees
 There are       19 alpha and       19 beta electrons
 Discretize the solute cavity surface with Lebedev spheres
	Using 110 Lebedev grid points for each H atom
	Using 194 Lebedev grid points for other atoms
	Atomic van der Waals radii will be scaled by 1.20
 Remove points where switching function is < 1.0e-08
 Keep 690 surface tesserae and discard 500 interior tesserae
 Molecular Surface Area = 86.677 Angst**2

                       Distance Matrix (Angstroms)
             C (  1)   O (  2)   C (  3)   H (  4)   O (  5)   O (  6)
   O (  2)  1.206620
   C (  3)  1.528581  2.385119
   H (  4)  2.212765  2.592802  1.096892
   O (  5)  2.395706  3.462307  1.200369  2.027232
   O (  6)  1.322180  2.254119  2.380370  3.335596  2.695239
   H (  7)  1.883784  2.356795  3.229647  4.078065  3.659918  0.971377

 
 Requested basis set is 6-311++G(2df,2p)
 There are 52 shells and 190 basis functions
 A cutoff of  1.0D-12 yielded   1326 shell pairs
 There are     17916 function pairs (     22968 Cartesian)
 Smallest overlap matrix eigenvalue = 1.10E-04
 Guess MOs from SCF MO coefficient file

 -----------------------------------------------------------------------
  General SCF calculation program by
  Eric Jon Sundstrom, Paul Horn, Yuezhi Mao, Dmitri Zuev, Alec White,
  David Stuck, Shaama M.S., Shane Yost, Joonho Lee, David Small,
  Daniel Levine, Susi Lehtola, Hugh Burton, Evgeny Epifanovsky,
  Bang C. Huynh
 -----------------------------------------------------------------------
 Exchange:     0.1500 Hartree-Fock + 1.0000 wB97M-V + LR-HF
 Correlation:  1.0000 wB97M-V
 Using SG-2 standard quadrature grid
 Nonlocal Correlation:  VV10 with C = 0.0100 and b = 6.00 and scale = 1.00000
 Grid used for NLC:  SG-1 standard quadrature
 
 Citation of the SMD model:
 Marenich, A.V.; Cramer, C.J.; Truhlar, D.G.
 J. Phys. Chem. B 2009, 113, 6378-6396.
 iSolventCode=           1
 Solvent: water                                                           
 
 vradii
            1           2           3           4           5           6
    1   1.8500000   1.5200000   1.8500000   1.2000000   1.5200000   1.5200000
            7
    1   1.2000000
 -------------------------------------------------------
 OpenMP BLAS3 based DFT computing Module                
 Release: version 1.0, May 2013, Q-Chem Inc. Pittsburgh 
 -------------------------------------------------------
 A restricted SCF calculation will be
 performed using Roothaan-Hall, DIIS, GDM
 SCF converges when RMS gradient is below 1.0e-07
 ---------------------------------------
  Cycle       Energy         DIIS error
 ---------------------------------------
    1    -303.0921534307      7.01e-04  Roothaan Step
 ---------------------------------------
  Cycle       Energy         DIIS error
 ---------------------------------------
    1    -303.1124061415      9.60e-04  
    2    -303.1135301390      1.17e-03  Done DIIS. Switching to GDM
 ---------------------------------------
  Cycle       Energy        RMS Gradient
 ---------------------------------------
    1    -303.1135301390      2.62e-02   Normal BFGS step
    2    -303.1109106176      4.07e-02  Line search: overstep
    3    -303.1174311008      2.18e-03   Normal BFGS step
    4    -303.1175743155      8.92e-04   Normal BFGS step
    5    -303.1175862444      8.79e-04   Normal BFGS step
    6    -303.1175906960      1.13e-04   Normal BFGS step
    7    -303.1175909639      9.44e-05   Normal BFGS step
    8    -303.1175910069      6.05e-05   Normal BFGS step
    9    -303.1175910222      1.04e-05   Normal BFGS step
   10    -303.1175910234      3.18e-06   Normal BFGS step
   11    -303.1175910235      1.27e-06   Normal BFGS step
   12    -303.1175910235      7.15e-07   Normal BFGS step
   13    -303.1175910235      3.39e-07   Normal BFGS step
   14    -303.1175910235      9.73e-08  Convergence criterion met
 ---------------------------------------
 SCF time:   CPU 157.47s  wall 20.00s 
(3)  G-ENP(liq) elect-nuc-pol free energy of system     -303.117591023 a.u.
(4)  G-CDS(liq) cavity-dispersion-solvent structure 
     free energy                                                5.3003 kcal/mol
(6)  G-S(liq) free energy of system                     -303.109144463 a.u.
 SCF   energy in the final basis set =     -303.1091444635
 Total energy in the final basis set =     -303.1091444635
 
 --------------------------------------------------------------
 
                    Orbital Energies (a.u.)
 --------------------------------------------------------------
 
 Alpha MOs
 -- Occupied --
-19.3983 -19.3728 -19.3535 -10.5033 -10.4626  -1.2670  -1.2170  -1.1779
 -0.8398  -0.7350  -0.6374  -0.6286  -0.5975  -0.5954  -0.5356  -0.5206
 -0.4532  -0.4489  -0.3859
 -- Virtual --
 -0.0084   0.0309   0.0483   0.0730   0.0845   0.0931   0.1136   0.1149
  0.1305   0.1450   0.1535   0.1724   0.2131   0.2342   0.2366   0.2463
  0.2849   0.2909   0.3065   0.3112   0.3182   0.3252   0.3397   0.3438
  0.3543   0.4065   0.4140   0.4298   0.5064   0.5353   0.5922   0.5934
  0.6151   0.6273   0.6789   0.6881   0.6934   0.7197   0.7749   0.8061
  0.8173   0.8503   0.8787   0.9077   0.9735   1.0358   1.0547   1.1018
  1.1057   1.1201   1.1250   1.1439   1.1444   1.1796   1.2016   1.2153
  1.2376   1.2384   1.3187   1.3439   1.4205   1.4945   1.5183   1.5832
  1.6041   1.6131   1.6615   1.7759   1.7906   1.8281   1.8381   1.8611
  1.9250   1.9717   2.0978   2.2010   2.2990   2.3287   2.3690   2.4807
  2.5037   2.5670   2.6485   2.6509   2.7151   2.8193   2.8227   2.8320
  2.8962   2.9784   3.0036   3.0874   3.1156   3.1505   3.2545   3.2959
  3.3077   3.3444   3.3876   3.4184   3.4562   3.4601   3.5120   3.5880
  3.6328   3.6734   3.6926   3.7301   3.7976   3.8845   3.9597   3.9907
  4.0730   4.1018   4.1859   4.2216   4.2961   4.4064   4.6217   4.6940
  5.1049   5.1103   5.1261   5.1507   5.1519   5.1701   5.2050   5.2164
  5.2265   5.2399   5.2911   5.3470   5.4535   5.4918   5.5458   5.5684
  5.5898   5.6113   5.7338   5.7590   5.8943   6.0650   6.0765   6.3802
  6.4364   6.5907   6.7570   6.8920   6.9181   6.9366   7.0071   7.0290
  7.0670   7.1265   7.2253   7.2737   7.2880   7.3242   7.3888   7.4280
  7.5334   7.6260   7.6645   7.7623   7.8320   7.8619  24.9107  25.1129
 50.5594  50.7065  50.7219
 --------------------------------------------------------------
 
          Ground-State Mulliken Net Atomic Charges

     Atom                 Charge (a.u.)
  ----------------------------------------
      1 C                     0.324082
      2 O                    -0.448159
      3 C                     0.177496
      4 H                     0.195330
      5 O                    -0.323208
      6 O                    -0.297194
      7 H                     0.371653
  ----------------------------------------
  Sum of atomic charges =     0.000000

 -----------------------------------------------------------------
                    Cartesian Multipole Moments
 -----------------------------------------------------------------
    Charge (ESU x 10^10)
                 0.0000
    Dipole Moment (Debye)
         X      -1.5791      Y       0.1130      Z       0.0023
       Tot       1.5831
    Quadrupole Moments (Debye-Ang)
        XX     -32.9081     XY      10.0194     YY     -30.9324
        XZ       0.0025     YZ      -0.0004     ZZ     -26.9061
    Octopole Moments (Debye-Ang^2)
       XXX    -126.1193    XXY      14.1925    XYY     -32.8352
       YYY      -9.0420    XXZ      -0.0008    XYZ       0.0015
       YYZ      -0.0082    XZZ     -30.7629    YZZ      -1.9428
       ZZZ      -0.0176
    Hexadecapole Moments (Debye-Ang^3)
      XXXX    -599.7274   XXXY      56.7980   XXYY     -98.1416
      XYYY      19.4393   YYYY    -144.5218   XXXZ       0.0096
      XXYZ      -0.0017   XYYZ      -0.0013   YYYZ      -0.0096
      XXZZ     -82.7290   XYZZ       2.6377   YYZZ     -27.7410
      XZZZ      -0.0059   YZZZ      -0.0094   ZZZZ     -23.6323
 -----------------------------------------------------------------
 Calculating analytic gradient of the SCF energy
 Gradient of CDS energy
            1           2           3           4           5           6
    1  -0.0029618   0.0008646   0.0024154  -0.0001250  -0.0008324   0.0009691
    2  -0.0019213  -0.0010363  -0.0009218   0.0001193   0.0009257   0.0031077
    3  -0.0000020   0.0000008  -0.0000011   0.0000000   0.0000001   0.0000024
            7
    1  -0.0003297
    2  -0.0002734
    3  -0.0000002
 Gradient of SCF Energy
            1           2           3           4           5           6
    1   0.0024844  -0.0061887  -0.0032145   0.0027711   0.0030854   0.0199749
    2  -0.0011966   0.0103723  -0.0069568   0.0094823  -0.0055817  -0.0028102
    3   0.0003242  -0.0001161  -0.0001921   0.0000449   0.0000384  -0.0001120
            7
    1  -0.0189126
    2  -0.0033092
    3   0.0000126
 Max gradient component =       1.997E-02
 RMS gradient           =       7.323E-03
 Computing fast CPCM-SWIG gradient
 Updating gradient with PCM contributions...
 -- total gradient after adding PCM contribution --
---------------------------------------------------
  Atom         X              Y              Z     
---------------------------------------------------
   1      -0.000051       0.000079       0.000302
   2       0.000011      -0.000049      -0.000110
   3       0.000022      -0.000018      -0.000180
   4      -0.000021       0.000022       0.000040
   5      -0.000005       0.000055       0.000041
   6       0.000004      -0.000069      -0.000102
   7       0.000042      -0.000020       0.000009
---------------------------------------------------
 Number of fixed atoms: 0
 Gradient time:  CPU 28.09 s  wall 4.09 s
 ----------------------------------------------------------------
             Standard Nuclear Orientation (Angstroms)
    I     Atom           X                Y                Z
 ----------------------------------------------------------------
    1      C       0.6315991465     0.2477079889    -0.0009966679
    2      O      -0.1135024584     1.1967886302     0.0002458748
    3      C       2.1481280727     0.4392796677     0.0000297314
    4      H       2.4626548454     1.4901100069     0.0001486280
    5      O       2.9119595448    -0.4867043651    -0.0000348933
    6      O       0.2708823096    -1.0243151281     0.0000094324
    7      H      -0.6985185606    -1.0862441004     0.0001453947
 ----------------------------------------------------------------
 Nuclear Repulsion Energy =         162.60944052 hartrees
 There are       19 alpha and       19 beta electrons
 Discretize the solute cavity surface with Lebedev spheres
	Using 110 Lebedev grid points for each H atom
	Using 194 Lebedev grid points for other atoms
	Atomic van der Waals radii will be scaled by 1.20
 Remove points where switching function is < 1.0e-08
 Keep 690 surface tesserae and discard 500 interior tesserae
 Molecular Surface Area = 86.677 Angst**2

                       Distance Matrix (Angstroms)
             C (  1)   O (  2)   C (  3)   H (  4)   O (  5)   O (  6)
   O (  2)  1.206620
   C (  3)  1.528581  2.385119
   H (  4)  2.212765  2.592802  1.096892
   O (  5)  2.395706  3.462307  1.200369  2.027232
   O (  6)  1.322180  2.254119  2.380370  3.335596  2.695239
   H (  7)  1.883784  2.356795  3.229647  4.078065  3.659918  0.971377

 
 Requested basis set is 6-311++G(2df,2p)
 There are 52 shells and 190 basis functions
 A cutoff of  1.0D-12 yielded   1326 shell pairs
 There are     17916 function pairs (     22968 Cartesian)
 Smallest overlap matrix eigenvalue = 1.10E-04
 Guess MOs from SCF MO coefficient file

 -----------------------------------------------------------------------
  General SCF calculation program by
  Eric Jon Sundstrom, Paul Horn, Yuezhi Mao, Dmitri Zuev, Alec White,
  David Stuck, Shaama M.S., Shane Yost, Joonho Lee, David Small,
  Daniel Levine, Susi Lehtola, Hugh Burton, Evgeny Epifanovsky,
  Bang C. Huynh
 -----------------------------------------------------------------------
 Exchange:     0.1500 Hartree-Fock + 1.0000 wB97M-V + LR-HF
 Correlation:  1.0000 wB97M-V
 Using SG-2 standard quadrature grid
 Nonlocal Correlation:  VV10 with C = 0.0100 and b = 6.00 and scale = 1.00000
 Grid used for NLC:  SG-1 standard quadrature
 
 Citation of the SMD model:
 Marenich, A.V.; Cramer, C.J.; Truhlar, D.G.
 J. Phys. Chem. B 2009, 113, 6378-6396.
 iSolventCode=           1
 Solvent: water                                                           
 
 vradii
            1           2           3           4           5           6
    1   1.8500000   1.5200000   1.8500000   1.2000000   1.5200000   1.5200000
            7
    1   1.2000000
 -------------------------------------------------------
 OpenMP BLAS3 based DFT computing Module                
 Release: version 1.0, May 2013, Q-Chem Inc. Pittsburgh 
 -------------------------------------------------------
 A restricted SCF calculation will be
 performed using Roothaan-Hall, DIIS, GDM
 SCF converges when RMS gradient is below 1.0e-07
 ---------------------------------------
  Cycle       Energy         DIIS error
 ---------------------------------------
    1    -303.0921778686      7.00e-04  Roothaan Step
 ---------------------------------------
  Cycle       Energy         DIIS error
 ---------------------------------------
    1    -303.1123949326      9.61e-04  
    2    -303.1135119909      1.17e-03  Done DIIS. Switching to GDM
 ---------------------------------------
  Cycle       Energy        RMS Gradient
 ---------------------------------------
    1    -303.1135119909      2.62e-02   Normal BFGS step
    2    -303.1108775914      4.08e-02  Line search: overstep
    3    -303.1174302399      2.19e-03   Normal BFGS step
    4    -303.1175741296      8.91e-04   Normal BFGS step
    5    -303.1175861263      8.75e-04   Normal BFGS step
    6    -303.1175905782      1.14e-04   Normal BFGS step
    7    -303.1175908506      9.46e-05   Normal BFGS step
    8    -303.1175908938      6.10e-05   Normal BFGS step
    9    -303.1175909095      1.03e-05   Normal BFGS step
   10    -303.1175909107      4.06e-06   Normal BFGS step
   11    -303.1175909108      2.46e-06   Normal BFGS step
   12    -303.1175909109      1.21e-06   Normal BFGS step
   13    -303.1175909109      3.92e-07   Normal BFGS step
   14    -303.1175909109      1.43e-07   Normal BFGS step
   15    -303.1175909109      4.08e-08  Convergence criterion met
 ---------------------------------------
 SCF time:   CPU 165.63s  wall 21.00s 
(3)  G-ENP(liq) elect-nuc-pol free energy of system     -303.117590911 a.u.
(4)  G-CDS(liq) cavity-dispersion-solvent structure 
     free energy                                                5.3003 kcal/mol
(6)  G-S(liq) free energy of system                     -303.109144352 a.u.
 SCF   energy in the final basis set =     -303.1091443517
 Total energy in the final basis set =     -303.1091443517
 
 --------------------------------------------------------------
 
                    Orbital Energies (a.u.)
 --------------------------------------------------------------
 
 Alpha MOs
 -- Occupied --
-19.3983 -19.3728 -19.3535 -10.5033 -10.4626  -1.2670  -1.2170  -1.1779
 -0.8398  -0.7350  -0.6374  -0.6286  -0.5975  -0.5954  -0.5356  -0.5206
 -0.4532  -0.4489  -0.3859
 -- Virtual --
 -0.0084   0.0309   0.0483   0.0730   0.0845   0.0931   0.1136   0.1149
  0.1305   0.1450   0.1535   0.1724   0.2131   0.2342   0.2366   0.2463
  0.2849   0.2909   0.3065   0.3112   0.3182   0.3252   0.3397   0.3438
  0.3543   0.4065   0.4140   0.4298   0.5064   0.5353   0.5922   0.5934
  0.6151   0.6273   0.6789   0.6881   0.6934   0.7197   0.7749   0.8061
  0.8173   0.8503   0.8787   0.9077   0.9735   1.0358   1.0547   1.1018
  1.1057   1.1201   1.1250   1.1439   1.1444   1.1796   1.2016   1.2153
  1.2376   1.2385   1.3187   1.3439   1.4205   1.4945   1.5183   1.5832
  1.6041   1.6131   1.6615   1.7759   1.7906   1.8281   1.8381   1.8611
  1.9250   1.9717   2.0978   2.2010   2.2990   2.3287   2.3690   2.4807
  2.5037   2.5670   2.6485   2.6509   2.7151   2.8193   2.8227   2.8320
  2.8962   2.9784   3.0036   3.0874   3.1156   3.1505   3.2545   3.2959
  3.3077   3.3444   3.3876   3.4184   3.4562   3.4601   3.5120   3.5880
  3.6328   3.6734   3.6926   3.7301   3.7976   3.8845   3.9597   3.9907
  4.0730   4.1018   4.1859   4.2216   4.2961   4.4064   4.6217   4.6940
  5.1049   5.1103   5.1261   5.1507   5.1519   5.1701   5.2050   5.2164
  5.2265   5.2399   5.2911   5.3470   5.4535   5.4918   5.5458   5.5684
  5.5897   5.6113   5.7338   5.7590   5.8943   6.0650   6.0765   6.3802
  6.4364   6.5907   6.7570   6.8920   6.9181   6.9366   7.0071   7.0290
  7.0670   7.1265   7.2253   7.2737   7.2880   7.3242   7.3888   7.4280
  7.5334   7.6260   7.6645   7.7623   7.8320   7.8619  24.9107  25.1129
 50.5594  50.7065  50.7219
 --------------------------------------------------------------
 
          Ground-State Mulliken Net Atomic Charges

     Atom                 Charge (a.u.)
  ----------------------------------------
      1 C                     0.324081
      2 O                    -0.448159
      3 C                     0.177496
      4 H                     0.195331
      5 O                    -0.323208
      6 O                    -0.297193
      7 H                     0.371653
  ----------------------------------------
  Sum of atomic charges =     0.000000

 -----------------------------------------------------------------
                    Cartesian Multipole Moments
 -----------------------------------------------------------------
    Charge (ESU x 10^10)
                 0.0000
    Dipole Moment (Debye)
         X      -1.5791      Y       0.1130      Z      -0.0025
       Tot       1.5831
    Quadrupole Moments (Debye-Ang)
        XX     -32.9081     XY      10.0194     YY     -30.9324
        XZ      -0.0018     YZ      -0.0019     ZZ     -26.9061
    Octopole Moments (Debye-Ang^2)
       XXX    -126.1192    XXY      14.1926    XYY     -32.8352
       YYY      -9.0420    XXZ       0.0003    XYZ      -0.0005
       YYZ       0.0047    XZZ     -30.7629    YZZ      -1.9428
       ZZZ       0.0081
    Hexadecapole Moments (Debye-Ang^3)
      XXXX    -599.7274   XXXY      56.7980   XXYY     -98.1416
      XYYY      19.4393   YYYY    -144.5218   XXXZ      -0.0025
[...]


     2 Order 1, Length 21
    Atom      X          Y          Z
     1   -3.715120755232136e-01   2.770700953610459e-01   8.076055691043878e-05
     2    3.676981319284954e-01  -3.551480722729657e-01  -9.186284619732698e-05
     3   -8.960207358870691e-03   4.589681939256844e-02   1.483273690848900e-05
     4    8.610739678202028e-04  -3.000952047359349e-03  -1.703162066646546e-06
     5   -2.370870499796361e-02   3.159655030555227e-03  -2.452594621592529e-06
     6    3.630503779126509e-02   2.814917477104050e-02   8.346771058444559e-07
     7   -6.820132063612803e-04   3.873249409009764e-03  -7.435360620091762e-07

Order 1, Length 21
    Atom      X          Y          Z
     1    3.078298953232282e-01  -4.370538340752146e-01  -9.520975804032831e-05
     2   -3.551480722729657e-01   5.521397023004437e-01   1.145879823133160e-04
     3    8.139069150548954e-03  -4.570865711383537e-03  -6.389282637784110e-06
     4    2.296998829422609e-03   2.576382118151948e-03   1.885299830879672e-06
     5    5.933246760543726e-03   6.286258687670601e-04   9.497831742772861e-07
     6    2.174417917608469e-02  -1.199966497910674e-01  -1.566358657138605e-05
     7    9.204108141364010e-03   6.276691818185757e-03   2.336758104906230e-07

Order 1, Length 21
    Atom      X          Y          Z
     1    8.697470548953258e-05  -9.148803041781467e-05  -6.389583230036222e-02
     2   -9.186284619732698e-05   1.145879823133160e-04   2.563008499482191e-02
     3   -1.676661387987746e-06  -8.357468419913472e-06   2.458046054495491e-02
     4    5.346385588749909e-07   1.251048785219139e-06  -3.971575393978312e-03
     5    5.534666129181804e-06  -6.070959817194538e-07  -3.545027489370692e-03
     6    5.457894105714550e-07  -1.549492221442380e-05   2.611215972634702e-02
     7    7.493159776225898e-07   1.084774840219565e-07  -4.908317290181903e-03


     3 Order 1, Length 21
    Atom      X          Y          Z
     1   -1.793538709144498e-01  -4.994876774035688e-02   8.082833285111975e-06
     2   -8.960207358870691e-03   8.139069150548954e-03  -1.676661387987746e-06
     3    6.568916843378735e-01  -1.972723182374466e-01  -1.242412442452364e-05
     4   -9.131684159607559e-02  -8.977912722801115e-02  -9.885850413028057e-06
     5   -3.688107691624539e-01   3.310605324985787e-01   2.031297435427211e-05
     6   -9.066421976583741e-03  -2.649177649766147e-03  -2.673122728226887e-06
     7    6.153586334749100e-04   4.498502149228755e-04  -1.044558709098277e-06

Order 1, Length 21
    Atom      X          Y          Z
     1   -5.300148134030656e-02  -9.400859770209241e-02  -1.338565885304902e-07
     2    4.589681939256844e-02  -4.570865711383537e-03  -8.357468419913472e-06
     3   -1.972723182374466e-01   9.150596304249455e-01   6.562448898730568e-05
     4   -8.308512752258218e-02  -2.691738570279634e-01  -2.364564395810510e-05
     5    3.341875574501518e-01  -5.246565018727006e-01  -3.551840768910010e-05
     6   -4.545410190827820e-02  -1.590968688737845e-02   2.507472690693903e-06
     7   -1.269087851681423e-03  -6.740312562638606e-03  -3.197753065929272e-07

Order 1, Length 21
    Atom      X          Y          Z
     1   -1.442072462107289e-05  -2.186481054090675e-06  -1.001766956581232e-01
     2    1.483273690848900e-05  -6.389282637784110e-06   2.458046054495491e-02
     3   -1.242412442452364e-05   6.562448898730568e-05   1.685905179543510e-01
     4   -8.616099971753227e-06  -2.522925140882751e-05  -5.775916230791356e-02
     5    1.846630695127561e-05  -3.329254365214155e-05  -5.269578009938828e-02
     6    8.267842699310234e-07   1.813480822296814e-06   1.180352408016451e-02
     7    3.278203114623430e-07  -3.404494058343146e-07   5.654672567781502e-03


     4 Order 1, Length 21
    Atom      X          Y          Z
     1   -2.655966290760068e-03  -2.655575055444518e-02  -4.272615447678933e-06
     2    8.610739678202028e-04   2.296998829422609e-03   5.346385588749909e-07
     3   -9.131684159607559e-02  -8.308512752258218e-02  -8.616099971753227e-06
     4    8.862790848829570e-02   7.684745544116503e-02   8.296467801682414e-06
     5    1.326368759546916e-02   3.464897817637083e-02   3.364871496108727e-06
     6   -8.891224081851792e-03  -2.803849258686196e-03   6.161677414565820e-07
     7    1.115689021616192e-04  -1.348703669467721e-03   1.001089403816902e-08

Order 1, Length 21
    Atom      X          Y          Z
     1    6.034132204947375e-03  -3.189788163727573e-03  -3.110248027554458e-06
     2   -3.000952047359349e-03   2.576382118151948e-03   1.251048785219139e-06
     3   -8.977912722801115e-02  -2.691738570279634e-01  -2.522925140882751e-05
     4    7.684745544116503e-02   3.059768671370574e-01   3.211232666971514e-05
     5    1.101176992646293e-02  -3.598888509995782e-02  -5.073341192617903e-06
     6   -1.263057047692135e-03  -1.053528412165397e-04   4.386247769323988e-08
     7    1.504312006726540e-04  -9.533560577622911e-05   2.102781208352505e-08

Order 1, Length 21
    Atom      X          Y          Z
     1    2.228335884580293e-06  -3.735298244134561e-06   2.128173389507488e-02
     2   -1.703162066646546e-06   1.885299830879672e-06  -3.971575393978312e-03
     3   -9.885850413028057e-06  -2.364564395810510e-05  -5.775916230791356e-02
     4    8.296467801682414e-06   3.211232666971514e-05   2.236355185263642e-02
     5    2.520726558697208e-06  -5.398446989329612e-06   1.886379140135040e-02
     6   -9.659086493962578e-07  -1.130560591848420e-06  -3.454525685673641e-04
     7    9.678342739850000e-07  -8.767109383310911e-08  -4.293707342427495e-04


     5 Order 1, Length 21
    Atom      X          Y          Z
     1   -2.026644996778462e-02   4.161968563947020e-02  -3.813681877090538e-06
     2   -2.370870499796361e-02   5.933246760543726e-03   5.534666129181804e-06
     3   -3.688107691624539e-01   3.341875574501518e-01   1.846630695127561e-05
     4    1.326368759546916e-02   1.101176992646293e-02   2.520726558697208e-06
     5    4.032676635461486e-01  -3.907746308653318e-01  -2.439681023089497e-05
     6   -5.199718423117275e-03  -2.960018204358583e-03   1.555906726970509e-06
     7    1.456212137810645e-03   9.823343507985370e-04  -1.955986935109909e-08

Order 1, Length 21
    Atom      X          Y          Z
     1    1.987770381611496e-02   1.489795963173133e-03   1.804511369083471e-06
     2    3.159655030555227e-03   6.286258687670601e-04  -6.070959817194538e-07
     3    3.310605324985787e-01  -5.246565018727006e-01  -3.329254365214155e-05
     4    3.464897817637083e-02  -3.598888509995782e-02  -5.398446989329612e-06
     5   -3.907746308653318e-01   5.526249877514647e-01   3.861562441003654e-05
     6    1.798059100484117e-03   4.151313010287034e-03  -8.748998743385358e-07
     7    2.274752069781756e-04   1.750785835973205e-03  -4.310716695240048e-07

Order 1, Length 21
    Atom      X          Y          Z
     1    3.068952688110684e-06   1.129277801323970e-06   2.180871275186876e-02
     2   -2.452594621592529e-06   9.497831742772861e-07  -3.545027489370692e-03
     3    2.031297435427211e-05  -3.551840768910010e-05  -5.269578009938828e-02
     4    3.364871496108727e-06  -5.073341192617903e-06   1.886379140135040e-02
     5   -2.439681023089497e-05   3.861562441003654e-05   1.803353594285672e-02
     6    4.419240472243245e-07  -2.221095970115387e-07  -1.772178626974472e-03
     7   -2.211212188342082e-08   1.192096844460206e-07  -6.922564542323861e-04


     6 Order 1, Length 21
    Atom      X          Y          Z
     1   -1.555716754324779e-01  -6.318395203856675e-02   7.473489186612213e-06
     2    3.630503779126509e-02   2.174417917608469e-02   5.457894105714550e-07
     3   -9.066421976583741e-03  -4.545410190827820e-02   8.267842699310234e-07
     4   -8.891224081851792e-03  -1.263057047692135e-03  -9.659086493962578e-07
     5   -5.199718423117275e-03   1.798059100484117e-03   4.419240472243245e-07
     6    6.256409095456168e-01   7.474432190989869e-02  -7.609318418794604e-05
     7   -4.832176333418104e-01   1.161461056059465e-02   6.745073246715968e-05

Order 1, Length 21
    Atom      X          Y          Z
     1   -6.038616981564434e-02  -2.506222038896571e-01  -3.416237571476804e-06
     2    2.814917477104050e-02  -1.199966497910674e-01  -1.549492221442380e-05
     3   -2.649177649766147e-03  -1.590968688737845e-02   1.813480822296814e-06
     4   -2.803849258686196e-03  -1.053528412165397e-04  -1.130560591848420e-06
     5   -2.960018204358583e-03   4.151313010287034e-03  -2.221095970115387e-07
     6    7.474432190989869e-02   4.221351900727443e-01   1.295390829065144e-05
     7   -3.409657757522960e-02  -3.965261534781885e-02   4.971206062246797e-06

Order 1, Length 21
    Atom      X          Y          Z
     1    1.097774752301550e-05   2.277645533239633e-06  -5.856532127338976e-02
     2    8.346771058444559e-07  -1.566358657138605e-05   2.611215972634702e-02
     3   -2.673122728226887e-06   2.507472690693903e-06   1.180352408016451e-02
     4    6.161677414565820e-07   4.386247769323988e-08  -3.454525685673641e-04
     5    1.555906726970509e-06  -8.748998743385358e-07  -1.772178626974472e-03
     6   -7.609318418794604e-05   1.295390829065144e-05   3.833111189483553e-02
     7    6.547952215683937e-05  -1.244425820084724e-06  -1.556214491345163e-02


     7 Order 1, Length 21
    Atom      X          Y          Z
     1   -1.581733024782445e-02  -1.552273619710733e-02   4.557206951240259e-07
     2   -6.820132063612803e-04   9.204108141364010e-03   7.493159776225898e-07
     3    6.153586334749100e-04  -1.269087851681423e-03   3.278203114623430e-07
     4    1.115689021616192e-04   1.504312006726540e-04   9.678342739850000e-07
     5    1.456212137810645e-03   2.274752069781756e-04  -2.211212188342082e-08
     6   -4.832176333418104e-01  -3.409657757522960e-02   6.547952215683937e-05
     7    4.975343682713265e-01   4.130638752291955e-02  -6.766143203112960e-05

Order 1, Length 21
    Atom      X          Y          Z
     1   -5.687748287643500e-02  -1.364010572533936e-02   6.861990409801081e-06
     2    3.873249409009764e-03   6.276691818185757e-03   1.084774840219565e-07
     3    4.498502149228755e-04  -6.740312562638606e-03  -3.404494058343146e-07
     4   -1.348703669467721e-03  -9.533560577622911e-05  -8.767109383310911e-08
     5    9.823343507985370e-04   1.750785835973205e-03   1.192096844460206e-07
     6    1.161461056059465e-02  -3.965261534781885e-02  -1.244425820084724e-06
     7    4.130638752291955e-02   5.210091080972094e-02  -5.415094232647435e-06

Order 1, Length 21
    Atom      X          Y          Z
     1    2.111596833161373e-06   9.400013148720539e-07   4.142893591930222e-03
     2   -7.435360620091762e-07   2.336758104906230e-07  -4.908317290181903e-03
     3   -1.044558709098277e-06  -3.197753065929272e-07   5.654672567781502e-03
     4    1.001089403816902e-08   2.102781208352505e-08  -4.293707342427495e-04
     5   -1.955986935109909e-08  -4.310716695240048e-07  -6.922564542323861e-04
     6    6.745073246715968e-05   4.971206062246797e-06  -1.556214491345163e-02
     7   -6.766143203112960e-05  -5.415094232647435e-06   1.179476793855757e-02




 # Finishing finite difference calculation for IDERIV #
 ######################################################
 ######################################################
 Requested basis set is 6-311++G(2df,2p)
 There are 52 shells and 190 basis functions
 **********************************************************************
 **                                                                  **
 **                       VIBRATIONAL ANALYSIS                       **
 **                       --------------------                       **
 **                                                                  **
 **        VIBRATIONAL FREQUENCIES (CM**-1) AND NORMAL MODES         **
 **     FORCE CONSTANTS (mDYN/ANGSTROM) AND REDUCED MASSES (AMU)     **
 **                  INFRARED INTENSITIES (KM/MOL)                   **
 **                                                                  **
 **********************************************************************
 

 Mode:                 1                      2                      3
 Frequency:        93.87                 274.98                 505.90
 Force Cnst:      0.0183                 0.3736                 1.2550
 Red. Mass:       3.5259                 8.3865                 8.3226
 IR Active:          YES                    YES                    YES
 IR Intens:       33.520                 18.845                 34.223
 Raman Active:       YES                    YES                    YES
               X      Y      Z        X      Y      Z        X      Y      Z
 C          0.000  0.000  0.063    0.046  0.201  0.000    0.012 -0.152 -0.000
 O         -0.000  0.000 -0.180   -0.218 -0.008  0.000    0.435  0.160  0.000
 C          0.000 -0.000  0.298    0.040  0.072 -0.000   -0.319  0.087  0.000
 H          0.000 -0.000  0.894    0.430 -0.051 -0.000   -0.465  0.131  0.000
 O          0.000  0.000 -0.240   -0.356 -0.262 -0.000   -0.318  0.120  0.000
 O          0.000 -0.000  0.099    0.453  0.086  0.000    0.132 -0.209 -0.000
 H         -0.000  0.000 -0.093    0.481 -0.276 -0.000    0.151 -0.470  0.000
 TransDip   0.000 -0.000  0.185    0.134  0.037 -0.000   -0.161 -0.096  0.000

 Mode:                 4                      5                      6
 Frequency:       527.52                 647.31                 652.48
 Force Cnst:      0.2401                 1.1085                 0.5081
 Red. Mass:       1.4646                 4.4900                 2.0255
 IR Active:          YES                    YES                    YES
 IR Intens:       74.267                161.388                168.626
 Raman Active:       YES                    YES                    YES
               X      Y      Z        X      Y      Z        X      Y      Z
 C         -0.000  0.000 -0.196   -0.257  0.059  0.000    0.000 -0.000  0.237
 O         -0.000 -0.000  0.044   -0.069  0.253 -0.000    0.000 -0.000 -0.088
 C          0.000  0.000  0.012   -0.104 -0.239  0.000    0.000  0.000  0.040
 H          0.000 -0.000  0.435   -0.214 -0.204 -0.001    0.000  0.000 -0.390
 O          0.000 -0.000  0.017    0.205 -0.015 -0.000   -0.000  0.000 -0.018
 O         -0.000  0.000 -0.007    0.136 -0.042 -0.000   -0.000  0.000 -0.133
 H          0.000  0.000  0.878    0.188 -0.780  0.002   -0.000  0.001  0.874
 TransDip   0.000  0.000  0.276   -0.264 -0.310  0.001    0.000  0.000  0.416

 Mode:                 7                      8                      9
 Frequency:       882.03                1037.36                1175.03
 Force Cnst:      2.3047                 1.2232                 1.5680
 Red. Mass:       5.0281                 1.9293                 1.9276
 IR Active:          YES                    YES                    YES
 IR Intens:       61.859                  6.927                309.111
 Raman Active:       YES                    YES                    YES
               X      Y      Z        X      Y      Z        X      Y      Z
 C          0.119 -0.046  0.000    0.000 -0.000  0.153    0.072  0.109 -0.000
 O          0.030 -0.153 -0.000   -0.000  0.000 -0.032   -0.054  0.076  0.000
 C         -0.319 -0.246 -0.000   -0.000  0.000 -0.233   -0.069 -0.057 -0.000
 H         -0.623 -0.167 -0.000    0.000 -0.000  0.958   -0.065 -0.066 -0.000
 O          0.040  0.040  0.000   -0.000  0.000  0.053    0.018  0.007  0.000
 O          0.113  0.311  0.000   -0.000  0.000 -0.021    0.041 -0.179 -0.000
 H          0.100  0.508  0.000   -0.000 -0.000 -0.022   -0.053  0.959  0.000
 TransDip  -0.149 -0.203 -0.000    0.000 -0.000  0.084    0.087  0.556  0.000

 Mode:                10                     11                     12
 Frequency:      1373.21                1391.49                1760.81
 Force Cnst:      1.3275                 3.6186                20.8066
 Red. Mass:       1.1948                 3.1720                11.3901
 IR Active:          YES                    YES                    YES
 IR Intens:       26.710                 88.738                948.031
 Raman Active:       YES                    YES                    YES
               X      Y      Z        X      Y      Z        X      Y      Z
 C         -0.057 -0.040  0.000    0.262  0.277 -0.000   -0.479  0.526  0.000
 O          0.023 -0.013 -0.000   -0.014 -0.058 -0.000    0.304 -0.361 -0.000
 C         -0.066 -0.028  0.000   -0.109 -0.091 -0.000   -0.147  0.200  0.000
 H          0.920 -0.348 -0.000    0.225 -0.217 -0.000   -0.081  0.243  0.000
 O         -0.004  0.064  0.000   -0.005  0.053  0.000    0.144 -0.173 -0.000
 O          0.015  0.014 -0.000   -0.108 -0.069  0.000    0.026 -0.045 -0.000
 H          0.002  0.129  0.000   -0.025 -0.845 -0.000    0.008  0.301 -0.000
 TransDip  -0.107 -0.127 -0.000    0.119  0.277  0.000   -0.475  0.864  0.000

 Mode:                13                     14                     15
 Frequency:      1824.49                3059.10                3731.89
 Force Cnst:     19.9585                 6.0205                 8.7383
 Red. Mass:      10.1764                 1.0919                 1.0649
 IR Active:          YES                    YES                    YES
 IR Intens:       57.221                 40.802                243.055
 Raman Active:       YES                    YES                    YES
               X      Y      Z        X      Y      Z        X      Y      Z
 C          0.213 -0.184 -0.000    0.004 -0.001 -0.000   -0.002 -0.002 -0.000
 O         -0.095  0.119  0.000   -0.002  0.001  0.000   -0.000  0.001  0.000
 C         -0.466  0.477  0.000   -0.027 -0.083 -0.000    0.000  0.000 -0.000
 H          0.408  0.207  0.000    0.307  0.948  0.000    0.002  0.001  0.000
 O          0.289 -0.347 -0.000   -0.001  0.002  0.000    0.000  0.000 -0.000
 O         -0.029  0.008  0.000    0.000  0.000  0.000   -0.061 -0.005  0.000
 H         -0.015 -0.198  0.000   -0.001 -0.001  0.000    0.994  0.085 -0.000
 TransDip  -0.228  0.083 -0.000   -0.032 -0.202 -0.000    0.460  0.195 -0.000

 STANDARD THERMODYNAMIC QUANTITIES AT   298.15 K  AND     1.00 ATM

   This Molecule has  0 Imaginary Frequencies
   Zero point vibrational energy:       27.072 kcal/mol

   Atom    1 Element C  Has Mass   12.00000
   Atom    2 Element O  Has Mass   15.99491
   Atom    3 Element C  Has Mass   12.00000
   Atom    4 Element H  Has Mass    1.00783
   Atom    5 Element O  Has Mass   15.99491
   Atom    6 Element O  Has Mass   15.99491
   Atom    7 Element H  Has Mass    1.00783
   Molecular Mass:    74.000390 amu
   Principal axes and moments of inertia in amu*Bohr^2:
                             1           2           3
    Eigenvalues --      163.52752   399.57505   563.10256
          X               0.96935     0.24568     0.00004
          Y              -0.24568     0.96935    -0.00008
          Z              -0.00006     0.00007     1.00000
   Rotational Symmetry Number is   1
   The Molecule is an Asymmetric Top
   Translational Enthalpy:        0.889 kcal/mol
   Rotational Enthalpy:           0.889 kcal/mol
   Vibrational Enthalpy:         28.340 kcal/mol
   gas constant (RT):             0.592 kcal/mol
   Translational Entropy:        38.820  cal/mol.K
   Rotational Entropy:           25.112  cal/mol.K
   Vibrational Entropy:           7.443  cal/mol.K

   Total Enthalpy:               30.709 kcal/mol
   Total Entropy:                71.376  cal/mol.K
 Total job time:  1056.38s(wall), 8109.40s(cpu) 
 Fri May  5 16:00:49 2023

        *************************************************************
        *                                                           *
        *  Thank you very much for using Q-Chem.  Have a nice day.  *
        *                                                           *
        *************************************************************


