
Running Job 1 of 2 Q_in.in
qchem Q_in.in_422365.0 /scratch/ari.fischer/qChem1937729.hpc-mn1/qchem422365/ 0
/usr/local/qchem-5.4.1/exe/qcprog.exe_s Q_in.in_422365.0 /scratch/ari.fischer/qChem1937729.hpc-mn1/qchem422365/
                  Welcome to Q-Chem
     A Quantum Leap Into The Future Of Chemistry


 Q-Chem 5.4, Q-Chem, Inc., Pleasanton, CA (2021)

 License issued to: Nanyang Technological University (site)

 E. Epifanovsky,  A. T. B. Gilbert,  Xintian Feng,  Joonho Lee,  Yuezhi Mao,  
 N. Mardirossian,  P. Pokhilko,  A. White,  M. Wormit,  M. P. Coons,  
 A. L. Dempwolff,  Zhengting Gan,  D. Hait,  P. R. Horn,  L. D. Jacobson,  
 I. Kaliman,  J. Kussmann,  A. W. Lange,  Ka Un Lao,  D. S. Levine,  Jie Liu,  
 S. C. McKenzie,  A. F. Morrison,  K. Nanda,  F. Plasser,  D. R. Rehn,  
 M. L. Vidal,  Zhi-Qiang You,  Ying Zhu,  B. Alam,  B. Albrecht,  
 A. Aldossary,  E. Alguire,  J. H. Andersen,  D. Barton,  K. Begam,  A. Behn,  
 Y. A. Bernard,  E. J. Berquist,  H. Burton,  A. Carreras,  K. Carter-Fenk,  
 R. Chakraborty,  A. D. Chien,  K. D. Closser,  V. Cofer-Shabica,  
 S. Dasgupta,  Jia Deng,  M. de Wergifosse,  M. Diedenhofen,  Hainam Do,  
 S. Ehlert,  Po-Tung Fang,  S. Fatehi,  Qingguo Feng,  T. Friedhoff,  
 J. Gayvert,  Qinghui Ge,  G. Gidofalvi,  M. Goldey,  J. Gomes,  
 C. Gonzalez-Espinoza,  S. Gulania,  A. Gunina,  M. W. D. Hanson-Heine,  
 P. H. P. Harbach,  A. W. Hauser,  M. F. Herbst,  M. Hernandez Vera,  
 M. Hodecker,  Z. C. Holden,  S. Houck,  Xunkun Huang,  Kerwin Hui,  
 B. C. Huynh,  M. Ivanov,  Hyunjun Ji,  Hanjie Jiang,  B. Kaduk,  S. Kaehler,  
 K. Khistyaev,  Jaehoon Kim,  P. Klunzinger,  Z. Koczor-Benda,  
 Joong Hoon Koh,  D. Kosenkov,  L. Koulias,  T. Kowalczyk,  C. M. Krauter,  
 K. Kue,  A. Kunitsa,  T. Kus,  A. Landau,  K. V. Lawler,  D. Lefrancois,  
 S. Lehtola,  Rain Li,  Yi-Pei Li,  Jiashu Liang,  M. Liebenthal,  
 Hung-Hsuan Lin,  You-Sheng Lin,  Fenglai Liu,  Kuan-Yu Liu,  
 M. Loipersberger,  A. Luenser,  A. Manjanath,  P. Manohar,  E. Mansoor,  
 S. F. Manzer,  Shan-Ping Mao,  A. V. Marenich,  T. Markovich,  S. Mason,  
 S. A. Maurer,  P. F. McLaughlin,  M. F. S. J. Menger,  J.-M. Mewes,  
 S. A. Mewes,  P. Morgante,  J. W. Mullinax,  K. J. Oosterbaan,  G. Paran,  
 Alexander C. Paul,  Suranjan K. Paul,  F. Pavosevic,  Zheng Pei,  S. Prager,  
 E. I. Proynov,  E. Ramos,  B. Rana,  A. E. Rask,  A. Rettig,  R. M. Richard,  
 F. Rob,  E. Rossomme,  T. Scheele,  M. Scheurer,  M. Schneider,  
 N. Sergueev,  S. M. Sharada,  W. Skomorowski,  D. W. Small,  C. J. Stein,  
 Yu-Chuan Su,  E. J. Sundstrom,  Zhen Tao,  J. Thirman,  T. Tsuchimochi,  
 N. M. Tubman,  S. P. Veccham,  O. Vydrov,  J. Wenzel,  J. Witte,  A. Yamada,  
 Kun Yao,  S. Yeganeh,  S. R. Yost,  A. Zech,  Igor Ying Zhang,  Xing Zhang,  
 Yu Zhang,  D. Zuev,  A. Aspuru-Guzik,  A. T. Bell,  N. A. Besley,  
 K. B. Bravaya,  B. R. Brooks,  D. Casanova,  Jeng-Da Chai,  S. Coriani,  
 C. J. Cramer,  A. E. DePrince, III,  R. A. DiStasio Jr.,  A. Dreuw,  
 B. D. Dunietz,  T. R. Furlani,  W. A. Goddard III,  S. Grimme,  
 S. Hammes-Schiffer,  T. Head-Gordon,  W. J. Hehre,  Chao-Ping Hsu,  
 T.-C. Jagau,  Yousung Jung,  A. Klamt,  Jing Kong,  D. S. Lambrecht,  
 WanZhen Liang,  N. J. Mayhall,  C. W. McCurdy,  J. B. Neaton,  
 C. Ochsenfeld,  J. A. Parkhill,  R. Peverati,  V. A. Rassolov,  Yihan Shao,  
 L. V. Slipchenko,  T. Stauch,  R. P. Steele,  J. E. Subotnik,  
 A. J. W. Thom,  A. Tkatchenko,  D. G. Truhlar,  T. Van Voorhis,  
 T. A. Wesolowski,  K. B. Whaley,  H. L. Woodcock III,  P. M. Zimmerman,  
 S. Faraji,  P. M. W. Gill,  M. Head-Gordon,  J. M. Herbert,  A. I. Krylov

 Additional authors for Version 5.4.1: 
 S. Kotaru,  Shaozhi Li,  Xiangyuan Li,  F. Matz,  A. Molle,  Haisheng Ren,  
 Yingli Su,  Hung-Yi Tsai,  C. Utku,  Fang Wang

 Contributors to earlier versions of Q-Chem not listed above: 
 R. D. Adamson,  B. Austin,  R. Baer,  J. Baker,  G. J. O. Beran,  
 K. Brandhorst,  S. T. Brown,  E. F. C. Byrd,  A. K. Chakraborty,  
 G. K. L. Chan,  Chun-Min Chang,  Yunqing Chen,  C.-L. Cheng,  
 Siu Hung Chien,  D. M. Chipman,  D. L. Crittenden,  H. Dachsel,  
 R. J. Doerksen,  A. D. Dutoi,  R. G. Edgar,  J. Fosso-Tande,  
 L. Fusti-Molnar,  D. Ghosh,  A. Ghysels,  A. Golubeva-Zadorozhnaya,  
 J. Gonthier,  M. S. Gordon,  S. R. Gwaltney,  G. Hawkins,  J. E. Herr,  
 A. Heyden,  S. Hirata,  E. G. Hohenstein,  G. Kedziora,  F. J. Keil,  
 C. Kelley,  Jihan Kim,  R. A. King,  R. Z. Khaliullin,  P. P. Korambath,  
 W. Kurlancheek,  A. Laurent,  A. M. Lee,  M. S. Lee,  S. V. Levchenko,  
 Ching Yeh Lin,  D. Liotard,  E. Livshits,  R. C. Lochan,  I. Lotan,  
 L. A. Martinez-Martinez,  P. E. Maslen,  N. Nair,  D. P. O'Neill,  
 D. Neuhauser,  E. Neuscamman,  C. M. Oana,  R. Olivares-Amaya,  R. Olson,  
 T. M. Perrine,  B. Peters,  P. A. Pieniazek,  A. Prociuk,  Y. M. Rhee,  
 J. Ritchie,  M. A. Rohrdanz,  E. Rosta,  N. J. Russ,  H. F. Schaefer III,  
 M. W. Schmidt,  N. E. Schultz,  S. Sharma,  N. Shenvi,  C. D. Sherrill,  
 A. C. Simmonett,  A. Sodt,  T. Stein,  D. Stuck,  K. S. Thanthiriwatte,  
 V. Vanovschi,  L. Vogt,  Tao Wang,  A. Warshel,  M. A. Watson,  
 C. F. Williams,  Q. Wu,  X. Xu,  Jun Yang,  W. Zhang,  Yan Zhao

 Please cite Q-Chem as follows:
 Y. Shao et al., Mol. Phys. 113, 184-215 (2015)
 DOI: 10.1080/00268976.2014.952696

 Q-Chem 5.4.1 for Intel X86 EM64T Linux

 Parts of Q-Chem use Armadillo 9.800.1 (Horizon Scraper).
 http://arma.sourceforge.net/

 Q-Chem begins on Tue Feb 13 13:17:37 2024  

 Host: 
0

     Scratch files written to /scratch/ari.fischer/qChem1937729.hpc-mn1/qchem422365//
 Aug1521 |scratch|qcdevops|jenkins|workspace|build_RNUM 8249   
 Processing $rem in /usr/local/qchem-5.4.1/config/preferences:
 Processing $rem in /home/ari.fischer/.qchemrc:
 Symmetry turned off for PCM/SM12/SMD calculation


!!********************************************.
!!******************Warning*******************.
!!Desired Analytical derivatives not available.
!!Finite difference job might take a long time.
!!********************************************.
!!********************************************.


 2-order derivative to be evaluated numerically with 1-order analytical derivatives

 Checking the input file for inconsistencies... 	...done.

--------------------------------------------------------------
User input:
--------------------------------------------------------------
$molecule
0 2
C    0.6072590    0.0995536    0.2712973
O    1.4192511   -0.7394526    0.5581471
H   -2.1260617    1.1525979    0.6669314
C   -0.8871969   -0.2005200    0.1817492
O   -1.1409735   -1.4918036    0.0903525
O   -1.6789620    0.6859211   -0.2986864
O    0.9279556    1.3610303    0.0358978
H    0.1400538    1.8737466   -0.2114864
O   -1.2145785    0.1862517    2.0046042
O   -2.1040941    1.1019169    1.9304935
H   -2.0845900   -1.6251677   -0.0954806
$end

$rem
BASIS = 6-311++G(2df,2p)
GUI = 2
JOB_TYPE = Frequency
METHOD = wB97M-V
SOLVENT_METHOD = SMD
SCF_ALGORITHM = DIIS_GDM
MAX_SCF_CYCLES = 400
SCF_CONVERGENCE = 7
THRESH = 12
SYMMETRY_IGNORE = 1
$end

--------------------------------------------------------------
 ----------------------------------------------------------------
             Standard Nuclear Orientation (Angstroms)
    I     Atom           X                Y                Z
 ----------------------------------------------------------------
    1      C       0.6072590000     0.0995536000     0.2712973000
    2      O       1.4192511000    -0.7394526000     0.5581471000
    3      H      -2.1260617000     1.1525979000     0.6669314000
    4      C      -0.8871969000    -0.2005200000     0.1817492000
    5      O      -1.1409735000    -1.4918036000     0.0903525000
    6      O      -1.6789620000     0.6859211000    -0.2986864000
    7      O       0.9279556000     1.3610303000     0.0358978000
    8      H       0.1400538000     1.8737466000    -0.2114864000
    9      O      -1.2145785000     0.1862517000     2.0046042000
   10      O      -2.1040941000     1.1019169000     1.9304935000
   11      H      -2.0845900000    -1.6251677000    -0.0954806000
 ----------------------------------------------------------------
 Nuclear Repulsion Energy =         412.38009275 hartrees
 There are       32 alpha and       31 beta electrons
 Requested basis set is 6-311++G(2df,2p)
 There are 82 shells and 302 basis functions

 Total QAlloc Memory Limit 288000 MB
 Mega-Array Size       188 MB
 MEM_STATIC part       192 MB
 
 Citation of the SMD model:
 Marenich, A.V.; Cramer, C.J.; Truhlar, D.G.
 J. Phys. Chem. B 2009, 113, 6378-6396.
 iSolventCode=           1
 Solvent: water                                                           
 
 vradii
            1           2           3           4           5           6
    1   1.8500000   1.5200000   1.2000000   1.8500000   1.5200000   1.5200000
            7           8           9          10          11
    1   1.5200000   1.2000000   1.5200000   1.5200000   1.2000000
 Changing PCM_VDW_RADII to SMD_RADIUS
 Discretize the solute cavity surface with Lebedev spheres
	Using 110 Lebedev grid points for each H atom
	Using 194 Lebedev grid points for other atoms
	Atomic van der Waals radii will be scaled by 1.20
 Remove points where switching function is < 1.0e-08
 Keep 991 surface tesserae and discard 891 interior tesserae
 Molecular Surface Area = 116.087 Angst**2

                       Distance Matrix (Angstroms)
             C (  1)   O (  2)   H (  3)   C (  4)   O (  5)   O (  6)
   O (  2)  1.202308
   H (  3)  2.955752  4.020066
   C (  4)  1.526912  2.398297  1.897661
   O (  5)  2.370965  2.709172  2.880226  1.319155
   O (  6)  2.428068  3.516359  1.161939  1.281986  2.276679
   O (  7)  1.322718  2.219492  3.125487  2.398852  3.524499  2.713621
   H (  8)  1.897135  3.009567  2.535144  2.347863  3.613733  2.174247
   O (  9)  2.516140  3.144237  1.885204  1.891976  2.546693  2.402180
   O ( 10)  3.333032  4.205703  1.264769  2.497056  3.322816  2.307170
   H ( 11)  3.217956  3.672686  2.880794  1.881549  0.970944  2.355198
             O (  7)   H (  8)   O (  9)   O ( 10)
   H (  8)  0.972042
   O (  9)  3.137891  3.097374
   O ( 10)  3.584684  3.196873  1.278739
   H ( 11)  4.243827  4.147879  2.906633  3.397343
 
 A cutoff of  1.0D-12 yielded   3141 shell pairs
 There are     43033 function pairs (     55052 Cartesian)
 Smallest overlap matrix eigenvalue = 4.51E-05
 Guess from superposition of atomic densities
 Warning:  Energy on first SCF cycle will be non-variational
 SAD guess density has 63.000000 electrons

 -----------------------------------------------------------------------
  General SCF calculation program by
  Eric Jon Sundstrom, Paul Horn, Yuezhi Mao, Dmitri Zuev, Alec White,
  David Stuck, Shaama M.S., Shane Yost, Joonho Lee, David Small,
  Daniel Levine, Susi Lehtola, Hugh Burton, Evgeny Epifanovsky,
  Bang C. Huynh
 -----------------------------------------------------------------------
 Exchange:     0.1500 Hartree-Fock + 1.0000 wB97M-V + LR-HF
 Correlation:  1.0000 wB97M-V
 Using SG-2 standard quadrature grid
 Nonlocal Correlation:  VV10 with C = 0.0100 and b = 6.00 and scale = 1.00000
 Grid used for NLC:  SG-1 standard quadrature
 using 16 threads for integral computing
 -------------------------------------------------------
 OpenMP Integral computing Module                
 Release: version 1.0, May 2013, Q-Chem Inc. Pittsburgh 
 -------------------------------------------------------
 
 Citation of the SMD model:
 Marenich, A.V.; Cramer, C.J.; Truhlar, D.G.
 J. Phys. Chem. B 2009, 113, 6378-6396.
 iSolventCode=           1
 Solvent: water                                                           
 
 vradii
            1           2           3           4           5           6
    1   1.8500000   1.5200000   1.2000000   1.8500000   1.5200000   1.5200000
            7           8           9          10          11
    1   1.5200000   1.2000000   1.5200000   1.5200000   1.2000000
 -------------------------------------------------------
 OpenMP BLAS3 based DFT computing Module                
 Release: version 1.0, May 2013, Q-Chem Inc. Pittsburgh 
 -------------------------------------------------------
 A unrestricted SCF calculation will be
 performed using DIIS, GDM
 SCF converges when RMS gradient is below 1.0e-07
 ---------------------------------------
  Cycle       Energy         DIIS error
 ---------------------------------------
    1    -530.7941530371      1.50e-02  
    2    -529.0930439922      2.46e-03  Done DIIS. Switching to GDM
 ---------------------------------------
  Cycle       Energy        RMS Gradient
 ---------------------------------------
    1    -529.0930439922      1.45e-01   Descent step
    2    -529.2792041059      2.80e-02   Normal BFGS step
    3    -529.3023866349      1.37e-02   Normal BFGS step
    4    -529.3035179035      1.43e-02   Normal BFGS step
    5    -529.3046598358      2.96e-03   Normal BFGS step
    6    -529.3046979730      1.93e-03   Normal BFGS step
    7    -529.3047300674      9.13e-04   Normal BFGS step
    8    -529.3047353814      5.43e-04   Normal BFGS step
    9    -529.3047373024      3.34e-04   Normal BFGS step
   10    -529.3047377315      1.33e-04   Normal BFGS step
   11    -529.3047378145      7.79e-05   Normal BFGS step
   12    -529.3047378376      3.21e-05   Normal BFGS step
   13    -529.3047378423      2.69e-05   Normal BFGS step
   14    -529.3047378439      2.03e-05   Normal BFGS step
   15    -529.3047378449      1.18e-05   Normal BFGS step
   16    -529.3047378454      3.66e-06   Normal BFGS step
   17    -529.3047378455      1.75e-06   Normal BFGS step
   18    -529.3047378455      9.71e-07   Normal BFGS step
   19    -529.3047378455      4.16e-07   Normal BFGS step
   20    -529.3047378455      1.99e-07   Normal BFGS step
   21    -529.3047378455      6.07e-08  Convergence criterion met
 ---------------------------------------
 SCF time:   CPU 921.31s  wall 62.00s 
<S^2> =          0.755971719
(3)  G-ENP(liq) elect-nuc-pol free energy of system     -529.304737845 a.u.
(4)  G-CDS(liq) cavity-dispersion-solvent structure 
     free energy                                                4.6432 kcal/mol
(6)  G-S(liq) free energy of system                     -529.297338464 a.u.
 SCF   energy in the final basis set =     -529.2973384641
 Total energy in the final basis set =     -529.2973384641
 
 --------------------------------------------------------------
 
                    Orbital Energies (a.u.)
 --------------------------------------------------------------
 
 Alpha MOs
 -- Occupied --
-19.4564 -19.4509 -19.4003 -19.3999 -19.3688 -19.3514 -10.5371 -10.5112
 -1.3702  -1.2804  -1.2538  -1.1960  -1.1761  -0.9790  -0.8475  -0.7557
 -0.7338  -0.7035  -0.6681  -0.6335  -0.6256  -0.6025  -0.5859  -0.5603
 -0.5335  -0.5165  -0.4946  -0.4725  -0.4532  -0.4222  -0.4057  -0.3956
 -- Virtual --
  0.0206   0.0327   0.0461   0.0579   0.0763   0.0890   0.1045   0.1063
  0.1196   0.1299   0.1516   0.1531   0.1608   0.1869   0.1897   0.2136
  0.2314   0.2355   0.2537   0.2576   0.2635   0.2868   0.2917   0.2994
  0.3034   0.3105   0.3202   0.3213   0.3249   0.3397   0.3446   0.3490
  0.3512   0.3560   0.3571   0.3775   0.3941   0.4027   0.4066   0.4131
  0.4291   0.4438   0.4871   0.5080   0.5246   0.5821   0.6019   0.6136
  0.6245   0.6492   0.6658   0.7058   0.7320   0.7501   0.7693   0.7906
  0.8239   0.8348   0.8495   0.8824   0.9051   0.9215   0.9467   0.9770
  1.0335   1.0571   1.0662   1.0788   1.0893   1.0992   1.1159   1.1227
  1.1324   1.1535   1.1691   1.1768   1.2017   1.2050   1.2084   1.2191
  1.2453   1.2558   1.2598   1.2693   1.3000   1.3338   1.3827   1.4307
  1.4545   1.4735   1.5006   1.5144   1.5302   1.5531   1.5922   1.6244
  1.6309   1.6598   1.6772   1.7173   1.7306   1.7510   1.7708   1.8129
  1.8551   1.8760   1.8996   1.9567   2.0113   2.0289   2.0719   2.1207
  2.1605   2.1725   2.1963   2.2866   2.2961   2.3356   2.3674   2.3780
  2.4141   2.4404   2.4553   2.5402   2.5813   2.5870   2.6110   2.6615
  2.6690   2.6942   2.8151   2.8469   2.8594   2.8772   2.9359   3.0188
  3.1507   3.1551   3.1868   3.2260   3.2638   3.3365   3.3731   3.3939
  3.4199   3.4449   3.4629   3.4944   3.5583   3.5755   3.6012   3.6298
  3.7016   3.7217   3.7511   3.7864   3.8134   3.8319   3.8613   3.9116
  3.9536   3.9830   4.0266   4.0945   4.1292   4.1704   4.2248   4.2891
  4.2996   4.3321   4.4319   4.5523   4.6784   4.6898   4.7753   4.7795
  4.8932   5.0118   5.0545   5.1084   5.1246   5.1284   5.1490   5.1609
  5.1651   5.1842   5.1945   5.2033   5.2115   5.2378   5.2443   5.2477
  5.2585   5.2672   5.2897   5.3119   5.3174   5.3343   5.3750   5.3867
  5.4242   5.4667   5.4881   5.5466   5.5607   5.5761   5.5914   5.6302
  5.6471   5.6669   5.6922   5.7019   5.7353   5.8275   5.8888   6.0622
  6.0756   6.1308   6.2627   6.4256   6.4875   6.5418   6.6074   6.6672
  6.7065   6.7814   6.8248   6.9169   6.9288   6.9894   6.9980   7.0203
  7.0330   7.0449   7.0839   7.1058   7.1266   7.1766   7.2292   7.2457
  7.2661   7.2982   7.3186   7.3450   7.3558   7.3658   7.4129   7.4560
  7.5034   7.5293   7.5370   7.5514   7.6501   7.6825   7.7430   7.8075
  7.8480   7.8931   7.8990   7.9756   8.0535   8.1471  24.9823  25.1632
 50.4808  50.5011  50.5736  50.6147  50.7137  50.7482
 
 Beta MOs
 -- Occupied --
-19.4408 -19.4356 -19.4003 -19.3999 -19.3689 -19.3513 -10.5375 -10.5112
 -1.3432  -1.2788  -1.2535  -1.1958  -1.1760  -0.9406  -0.8440  -0.7556
 -0.7271  -0.7019  -0.6660  -0.6064  -0.6027  -0.5855  -0.5616  -0.5475
 -0.5235  -0.5152  -0.4888  -0.4707  -0.4529  -0.4142  -0.3843
 -- Virtual --
 -0.0396   0.0248   0.0330   0.0463   0.0582   0.0768   0.0894   0.1048
  0.1066   0.1205   0.1306   0.1533   0.1542   0.1613   0.1902   0.1920
  0.2172   0.2328   0.2381   0.2555   0.2588   0.2652   0.2874   0.2982
  0.3000   0.3038   0.3110   0.3212   0.3224   0.3272   0.3409   0.3472
  0.3499   0.3523   0.3573   0.3597   0.3801   0.3951   0.4046   0.4073
  0.4147   0.4298   0.4438   0.4877   0.5082   0.5251   0.5828   0.6028
  0.6142   0.6251   0.6491   0.6659   0.7060   0.7322   0.7504   0.7702
  0.7906   0.8275   0.8352   0.8502   0.8830   0.9072   0.9226   0.9475
  0.9783   1.0384   1.0613   1.0697   1.0842   1.0908   1.1026   1.1169
  1.1249   1.1371   1.1639   1.1731   1.1847   1.2043   1.2088   1.2124
  1.2273   1.2470   1.2618   1.2640   1.2730   1.3087   1.3370   1.3863
  1.4362   1.4590   1.4761   1.5087   1.5168   1.5345   1.5678   1.5994
  1.6268   1.6364   1.6635   1.6861   1.7232   1.7386   1.7561   1.7747
  1.8173   1.8584   1.8798   1.9021   1.9605   2.0146   2.0412   2.0746
  2.1247   2.1632   2.1823   2.1988   2.2986   2.3111   2.3400   2.3718
  2.3803   2.4150   2.4410   2.4560   2.5435   2.5817   2.5904   2.6117
  2.6632   2.6720   2.7021   2.8149   2.8467   2.8592   2.8779   2.9356
  3.0172   3.1496   3.1549   3.1865   3.2256   3.2630   3.3382   3.3724
  3.3935   3.4195   3.4445   3.4620   3.4940   3.5578   3.5752   3.6007
  3.6290   3.7011   3.7215   3.7504   3.7860   3.8133   3.8313   3.8599
  3.9118   3.9534   3.9827   4.0258   4.0940   4.1288   4.1689   4.2250
  4.2896   4.2996   4.3321   4.4318   4.5913   4.6991   4.7117   4.7808
  4.7973   4.9051   5.0469   5.1141   5.1208   5.1402   5.1447   5.1633
  5.1661   5.1791   5.1927   5.2043   5.2158   5.2372   5.2477   5.2612
  5.2681   5.2742   5.2908   5.3049   5.3170   5.3267   5.3457   5.3810
  5.3912   5.4308   5.4678   5.4908   5.5497   5.5664   5.5804   5.5949
  5.6455   5.6524   5.6748   5.7027   5.7146   5.7382   5.8286   5.8900
  6.0624   6.0757   6.1306   6.2637   6.4261   6.4935   6.5920   6.6082
  6.6757   6.7099   6.7841   6.8741   6.9227   6.9697   6.9984   7.0083
  7.0290   7.0451   7.0809   7.1343   7.1397   7.1461   7.1792   7.2358
  7.2613   7.2682   7.3092   7.3243   7.3539   7.3730   7.4038   7.4191
  7.4672   7.5079   7.5343   7.5456   7.5576   7.6530   7.6836   7.7461
  7.8087   7.8485   7.8934   7.9028   7.9772   8.0665   8.1665  24.9821
 25.1632  50.4924  50.5127  50.5736  50.6151  50.7137  50.7483
 --------------------------------------------------------------
 
          Ground-State Mulliken Net Atomic Charges

     Atom                 Charge (a.u.)    Spin (a.u.)
  --------------------------------------------------------
      1 C                     0.351218       0.000169
      2 O                    -0.432917       0.001558
      3 H                     0.380283      -0.009106
      4 C                     0.247887      -0.022178
      5 O                    -0.312887      -0.001969
      6 O                    -0.459288      -0.001475
      7 O                    -0.291018      -0.000782
      8 H                     0.341278       0.000121
      9 O                    -0.085961       0.517700
     10 O                    -0.112525       0.515490
     11 H                     0.373930       0.000472
  --------------------------------------------------------
  Sum of atomic charges =     0.000000
  Sum of spin   charges =     1.000000

 -----------------------------------------------------------------
                    Cartesian Multipole Moments
 -----------------------------------------------------------------
    Charge (ESU x 10^10)
                 0.0000
    Dipole Moment (Debye)
         X      -5.2360      Y       1.8023      Z      -2.3993
       Tot       6.0350
    Quadrupole Moments (Debye-Ang)
        XX     -45.0536     XY       5.1697     YY     -41.9506
        XZ      -0.1632     YZ       0.8297     ZZ     -50.7887
    Octopole Moments (Debye-Ang^2)
       XXX      44.1497    XXY     -18.0126    XYY       9.7885
       YYY      -7.6739    XXZ     -31.2621    XYZ       1.0627
       YYZ     -30.4896    XZZ      32.9010    YZZ      -8.8044
       ZZZ     -92.5011
    Hexadecapole Moments (Debye-Ang^3)
      XXXX    -501.5826   XXXY      56.0039   XXYY    -115.7235
      XYYY      32.5634   YYYY    -247.1735   XXXZ      86.3086
      XXYZ      -8.1253   XYYZ      30.6132   YYYZ     -30.5437
      XXZZ    -160.4432   XYZZ      17.9874   YYZZ    -102.7949
      XZZZ     109.2870   YZZZ     -36.9993   ZZZZ    -344.5254
 -----------------------------------------------------------------
 Calculating analytic gradient of the SCF energy
 Gradient of CDS energy
            1           2           3           4           5           6
    1   0.0026969  -0.0008646  -0.0002663  -0.0021673   0.0006137   0.0011625
    2   0.0024449   0.0009149   0.0001892  -0.0017155   0.0029110  -0.0013284
    3  -0.0003282  -0.0002722  -0.0000135  -0.0012796   0.0004135   0.0007208
            7           8           9          10          11
    1  -0.0008177   0.0000132  -0.0001729   0.0001073  -0.0003046
    2  -0.0034208   0.0003205   0.0000774  -0.0001121  -0.0002810
    3   0.0007248  -0.0001169   0.0000119   0.0002174  -0.0000780
 Gradient of SCF Energy
            1           2           3           4           5           6
    1  -0.0000352   0.0002004  -0.0018455   0.0010037   0.0224944  -0.0027905
    2   0.0002288   0.0004275   0.0049704  -0.0007737  -0.0024069  -0.0007914
    3   0.0007348   0.0005028   0.0007915  -0.0007435   0.0054486  -0.0094466
            7           8           9          10          11
    1   0.0182478  -0.0150434   0.0026582  -0.0018123  -0.0230776
    2  -0.0099053   0.0128740  -0.0025095   0.0011484  -0.0032623
    3   0.0045226  -0.0039669   0.0020429   0.0044787  -0.0043651
 Max gradient component =       2.308E-02
 RMS gradient           =       8.043E-03
 Computing fast CPCM-SWIG gradient
 Updating gradient with PCM contributions...
 -- total gradient after adding PCM contribution --
---------------------------------------------------
  Atom         X              Y              Z     
---------------------------------------------------
   1       0.000011      -0.000012      -0.000016
   2      -0.000011      -0.000014       0.000009
   3       0.000001      -0.000018       0.000005
   4      -0.000046       0.000025      -0.000011
   5      -0.000019       0.000016       0.000022
   6       0.000020      -0.000013       0.000047
   7       0.000021      -0.000022      -0.000069
   8      -0.000011       0.000006       0.000013
   9       0.000034       0.000086      -0.000002
  10       0.000019      -0.000063      -0.000011
  11      -0.000019       0.000011       0.000013
---------------------------------------------------
 Number of fixed atoms: 0
 Gradient time:  CPU 117.23 s  wall 10.22 s
 ######################################################
 ######################################################
 # Starting finite difference calculation for IDERIV  #
 Finite diff step size:  1.88973e-03 a.u.
 ----------------------------------------------------------------
             Standard Nuclear Orientation (Angstroms)
    I     Atom           X                Y                Z
 ----------------------------------------------------------------
    1      C       0.6082590000     0.0995536000     0.2712973000
    2      O       1.4192511000    -0.7394526000     0.5581471000
    3      H      -2.1260617000     1.1525979000     0.6669314000
    4      C      -0.8871969000    -0.2005200000     0.1817492000
    5      O      -1.1409735000    -1.4918036000     0.0903525000
    6      O      -1.6789620000     0.6859211000    -0.2986864000
    7      O       0.9279556000     1.3610303000     0.0358978000
    8      H       0.1400538000     1.8737466000    -0.2114864000
    9      O      -1.2145785000     0.1862517000     2.0046042000
   10      O      -2.1040941000     1.1019169000     1.9304935000
   11      H      -2.0845900000    -1.6251677000    -0.0954806000
 ----------------------------------------------------------------
 Nuclear Repulsion Energy =         412.37452526 hartrees
 There are       32 alpha and       31 beta electrons
 Discretize the solute cavity surface with Lebedev spheres
	Using 110 Lebedev grid points for each H atom
	Using 194 Lebedev grid points for other atoms
	Atomic van der Waals radii will be scaled by 1.20
 Remove points where switching function is < 1.0e-08
 Keep 991 surface tesserae and discard 891 interior tesserae
 Molecular Surface Area = 116.090 Angst**2

                       Distance Matrix (Angstroms)
             C (  1)   O (  2)   H (  3)   C (  4)   O (  5)   O (  6)
   O (  2)  1.201633
   H (  3)  2.956677  4.020066
   C (  4)  1.527891  2.398297  1.897661
   O (  5)  2.371703  2.709172  2.880226  1.319155
   O (  6)  2.429010  3.516359  1.161939  1.281986  2.276679
   O (  7)  1.322476  2.219492  3.125487  2.398852  3.524499  2.713621
   H (  8)  1.897382  3.009567  2.535144  2.347863  3.613733  2.174247
   O (  9)  2.516864  3.144237  1.885204  1.891976  2.546693  2.402180
   O ( 10)  3.333845  4.205703  1.264769  2.497056  3.322816  2.307170
   H ( 11)  3.218793  3.672686  2.880794  1.881549  0.970944  2.355198
             O (  7)   H (  8)   O (  9)   O ( 10)
   H (  8)  0.972042
   O (  9)  3.137891  3.097374
   O ( 10)  3.584684  3.196873  1.278739
   H ( 11)  4.243827  4.147879  2.906633  3.397343
 
 Requested basis set is 6-311++G(2df,2p)
 There are 82 shells and 302 basis functions
 A cutoff of  1.0D-12 yielded   3141 shell pairs
 There are     43033 function pairs (     55052 Cartesian)
 Smallest overlap matrix eigenvalue = 4.52E-05
 Guess MOs from SCF MO coefficient file

 -----------------------------------------------------------------------
  General SCF calculation program by
  Eric Jon Sundstrom, Paul Horn, Yuezhi Mao, Dmitri Zuev, Alec White,
  David Stuck, Shaama M.S., Shane Yost, Joonho Lee, David Small,
  Daniel Levine, Susi Lehtola, Hugh Burton, Evgeny Epifanovsky,
  Bang C. Huynh
 -----------------------------------------------------------------------
 Exchange:     0.1500 Hartree-Fock + 1.0000 wB97M-V + LR-HF
 Correlation:  1.0000 wB97M-V
 Using SG-2 standard quadrature grid
 Nonlocal Correlation:  VV10 with C = 0.0100 and b = 6.00 and scale = 1.00000
 Grid used for NLC:  SG-1 standard quadrature
 
 Citation of the SMD model:
 Marenich, A.V.; Cramer, C.J.; Truhlar, D.G.
 J. Phys. Chem. B 2009, 113, 6378-6396.
 iSolventCode=           1
 Solvent: water                                                           
 
 vradii
            1           2           3           4           5           6
    1   1.8500000   1.5200000   1.2000000   1.8500000   1.5200000   1.5200000
            7           8           9          10          11
    1   1.5200000   1.2000000   1.5200000   1.5200000   1.2000000
 -------------------------------------------------------
 OpenMP BLAS3 based DFT computing Module                
 Release: version 1.0, May 2013, Q-Chem Inc. Pittsburgh 
 -------------------------------------------------------
 A unrestricted SCF calculation will be
 performed using Roothaan-Hall, DIIS, GDM
 SCF converges when RMS gradient is below 1.0e-07
 ---------------------------------------
  Cycle       Energy         DIIS error
 ---------------------------------------
    1    -529.2655104819      3.21e-04  Roothaan Step
 ---------------------------------------
  Cycle       Energy         DIIS error
 ---------------------------------------
    1    -529.2947523726      4.09e-04  
    2    -529.2991362557      4.32e-04  Done DIIS. Switching to GDM
 ---------------------------------------
  Cycle       Energy        RMS Gradient
 ---------------------------------------
    1    -529.2991362557      2.25e-02   Normal BFGS step
    2    -529.2961603574      3.84e-02  Line search: overstep
    3    -529.3045210916      4.41e-03   Normal BFGS step
    4    -529.3047002164      1.46e-03   Normal BFGS step
    5    -529.3047279027      1.91e-03   Normal BFGS step
    6    -529.3047399652      3.01e-04   Normal BFGS step
    7    -529.3047408869      3.58e-04   Normal BFGS step
    8    -529.3047414509      9.73e-05   Normal BFGS step
    9    -529.3047415220      6.57e-05   Normal BFGS step
   10    -529.3047415467      3.46e-05   Normal BFGS step
   11    -529.3047415552      1.50e-05   Normal BFGS step
   12    -529.3047415567      1.03e-05   Normal BFGS step
   13    -529.3047415574      8.00e-06   Normal BFGS step
   14    -529.3047415575      5.91e-06   Normal BFGS step
   15    -529.3047415576      3.04e-06   Normal BFGS step
   16    -529.3047415577      1.12e-06   Normal BFGS step
   17    -529.3047415577      3.17e-07   Normal BFGS step
   18    -529.3047415577      1.14e-07   Normal BFGS step
   19    -529.3047415577      6.53e-08  Convergence criterion met
 ---------------------------------------
 SCF time:   CPU 894.45s  wall 59.00s 
<S^2> =          0.755967314
(3)  G-ENP(liq) elect-nuc-pol free energy of system     -529.304741558 a.u.
(4)  G-CDS(liq) cavity-dispersion-solvent structure 
     free energy                                                4.6464 kcal/mol
(6)  G-S(liq) free energy of system                     -529.297337089 a.u.
 SCF   energy in the final basis set =     -529.2973370892
 Total energy in the final basis set =     -529.2973370892
 
 --------------------------------------------------------------
 
                    Orbital Energies (a.u.)
 --------------------------------------------------------------
 
 Alpha MOs
 -- Occupied --
-19.4563 -19.4508 -19.4003 -19.3999 -19.3687 -19.3514 -10.5371 -10.5111
 -1.3701  -1.2804  -1.2538  -1.1961  -1.1762  -0.9789  -0.8472  -0.7558
 -0.7338  -0.7034  -0.6681  -0.6334  -0.6256  -0.6027  -0.5860  -0.5603
 -0.5334  -0.5164  -0.4946  -0.4725  -0.4533  -0.4222  -0.4057  -0.3955
 -- Virtual --
  0.0208   0.0328   0.0461   0.0579   0.0763   0.0890   0.1045   0.1063
  0.1196   0.1299   0.1516   0.1531   0.1608   0.1869   0.1897   0.2137
  0.2314   0.2355   0.2537   0.2576   0.2635   0.2867   0.2917   0.2994
  0.3033   0.3105   0.3202   0.3214   0.3249   0.3396   0.3446   0.3490
  0.3512   0.3560   0.3571   0.3775   0.3941   0.4026   0.4067   0.4131
  0.4291   0.4438   0.4871   0.5080   0.5246   0.5822   0.6020   0.6137
  0.6245   0.6494   0.6658   0.7058   0.7320   0.7501   0.7693   0.7907
  0.8239   0.8347   0.8495   0.8826   0.9051   0.9216   0.9468   0.9770
  1.0335   1.0571   1.0662   1.0788   1.0892   1.0991   1.1158   1.1227
  1.1324   1.1535   1.1691   1.1768   1.2018   1.2050   1.2084   1.2191
  1.2453   1.2558   1.2598   1.2693   1.2999   1.3339   1.3826   1.4307
  1.4545   1.4735   1.5006   1.5143   1.5302   1.5531   1.5922   1.6244
  1.6308   1.6599   1.6771   1.7173   1.7307   1.7510   1.7708   1.8129
  1.8552   1.8761   1.8996   1.9567   2.0113   2.0288   2.0720   2.1208
  2.1605   2.1726   2.1963   2.2866   2.2962   2.3358   2.3675   2.3779
  2.4141   2.4404   2.4553   2.5403   2.5812   2.5870   2.6109   2.6614
  2.6690   2.6942   2.8149   2.8470   2.8593   2.8774   2.9361   3.0188
  3.1507   3.1551   3.1865   3.2258   3.2636   3.3365   3.3732   3.3941
  3.4199   3.4448   3.4630   3.4945   3.5586   3.5752   3.6015   3.6298
  3.7014   3.7216   3.7511   3.7863   3.8134   3.8317   3.8613   3.9114
  3.9535   3.9830   4.0261   4.0948   4.1282   4.1699   4.2247   4.2894
  4.2997   4.3323   4.4316   4.5524   4.6784   4.6898   4.7753   4.7785
  4.8932   5.0118   5.0545   5.1085   5.1247   5.1285   5.1490   5.1609
  5.1651   5.1842   5.1945   5.2034   5.2114   5.2378   5.2443   5.2477
  5.2585   5.2673   5.2897   5.3119   5.3175   5.3343   5.3751   5.3868
  5.4241   5.4668   5.4881   5.5472   5.5609   5.5761   5.5917   5.6304
  5.6471   5.6671   5.6922   5.7020   5.7353   5.8275   5.8888   6.0628
  6.0763   6.1309   6.2627   6.4281   6.4876   6.5419   6.6085   6.6674
  6.7069   6.7816   6.8248   6.9169   6.9289   6.9894   6.9980   7.0204
  7.0330   7.0449   7.0839   7.1058   7.1267   7.1772   7.2294   7.2458
  7.2662   7.2983   7.3186   7.3450   7.3559   7.3658   7.4135   7.4561
  7.5034   7.5298   7.5371   7.5520   7.6502   7.6828   7.7426   7.8080
  7.8482   7.8933   7.8989   7.9756   8.0535   8.1471  24.9824  25.1635
 50.4808  50.5012  50.5737  50.6148  50.7137  50.7492
 
 Beta MOs
 -- Occupied --
-19.4408 -19.4356 -19.4003 -19.3999 -19.3688 -19.3513 -10.5374 -10.5111
 -1.3432  -1.2788  -1.2535  -1.1959  -1.1761  -0.9405  -0.8437  -0.7557
 -0.7270  -0.7018  -0.6660  -0.6064  -0.6028  -0.5856  -0.5615  -0.5475
 -0.5235  -0.5152  -0.4888  -0.4707  -0.4530  -0.4142  -0.3842
 -- Virtual --
 -0.0395   0.0250   0.0330   0.0463   0.0582   0.0768   0.0894   0.1048
  0.1066   0.1205   0.1306   0.1534   0.1542   0.1613   0.1902   0.1920
  0.2172   0.2328   0.2381   0.2555   0.2588   0.2652   0.2873   0.2982
  0.3001   0.3038   0.3109   0.3212   0.3225   0.3272   0.3409   0.3472
  0.3499   0.3523   0.3573   0.3597   0.3800   0.3951   0.4046   0.4075
  0.4147   0.4298   0.4438   0.4877   0.5082   0.5251   0.5829   0.6028
  0.6143   0.6251   0.6493   0.6660   0.7060   0.7322   0.7504   0.7702
  0.7908   0.8275   0.8351   0.8503   0.8832   0.9072   0.9227   0.9475
  0.9783   1.0384   1.0614   1.0697   1.0842   1.0907   1.1025   1.1168
  1.1249   1.1371   1.1639   1.1731   1.1847   1.2043   1.2089   1.2124
  1.2273   1.2469   1.2617   1.2639   1.2730   1.3087   1.3370   1.3862
  1.4362   1.4591   1.4760   1.5088   1.5167   1.5344   1.5679   1.5995
  1.6268   1.6363   1.6636   1.6860   1.7232   1.7387   1.7561   1.7747
  1.8174   1.8585   1.8799   1.9021   1.9605   2.0146   2.0412   2.0747
  2.1248   2.1632   2.1824   2.1988   2.2987   2.3111   2.3401   2.3719
  2.3801   2.4150   2.4409   2.4560   2.5436   2.5816   2.5904   2.6116
  2.6631   2.6720   2.7021   2.8147   2.8468   2.8592   2.8780   2.9358
  3.0173   3.1496   3.1549   3.1862   3.2254   3.2628   3.3382   3.3725
  3.3937   3.4195   3.4444   3.4622   3.4941   3.5581   3.5749   3.6010
  3.6290   3.7009   3.7214   3.7504   3.7859   3.8134   3.8312   3.8599
  3.9116   3.9533   3.9827   4.0254   4.0942   4.1279   4.1683   4.2249
  4.2899   4.2997   4.3322   4.4315   4.5913   4.6991   4.7117   4.7798
  4.7974   4.9051   5.0469   5.1141   5.1208   5.1403   5.1448   5.1633
  5.1661   5.1791   5.1927   5.2043   5.2158   5.2371   5.2478   5.2612
  5.2682   5.2743   5.2908   5.3049   5.3171   5.3267   5.3457   5.3810
  5.3913   5.4308   5.4678   5.4908   5.5504   5.5665   5.5803   5.5952
  5.6457   5.6525   5.6749   5.7028   5.7147   5.7382   5.8286   5.8900
  6.0630   6.0764   6.1307   6.2638   6.4286   6.4936   6.5920   6.6092
  6.6759   6.7102   6.7842   6.8741   6.9227   6.9698   6.9985   7.0083
  7.0292   7.0451   7.0809   7.1344   7.1398   7.1462   7.1798   7.2361
  7.2613   7.2683   7.3093   7.3243   7.3539   7.3732   7.4040   7.4196
  7.4672   7.5079   7.5349   7.5458   7.5580   7.6531   7.6838   7.7457
  7.8092   7.8486   7.8936   7.9026   7.9772   8.0665   8.1665  24.9821
 25.1634  50.4925  50.5128  50.5737  50.6152  50.7137  50.7492
 --------------------------------------------------------------
 
          Ground-State Mulliken Net Atomic Charges

     Atom                 Charge (a.u.)    Spin (a.u.)
  --------------------------------------------------------
      1 C                     0.351288       0.000161
      2 O                    -0.432428       0.001562
      3 H                     0.380270      -0.009104
      4 C                     0.247535      -0.022149
      5 O                    -0.312904      -0.001959
      6 O                    -0.459294      -0.001477
      7 O                    -0.291016      -0.000780
      8 H                     0.341346       0.000121
      9 O                    -0.086055       0.517726
     10 O                    -0.112658       0.515429
     11 H                     0.373916       0.000471
  --------------------------------------------------------
  Sum of atomic charges =     0.000000
  Sum of spin   charges =     1.000000

 -----------------------------------------------------------------
                    Cartesian Multipole Moments
 -----------------------------------------------------------------
    Charge (ESU x 10^10)
                 0.0000
    Dipole Moment (Debye)
         X      -5.2278      Y       1.8003      Z      -2.4002
       Tot       6.0276
    Quadrupole Moments (Debye-Ang)
        XX     -45.0526     XY       5.1683     YY     -41.9510
        XZ      -0.1573     YZ       0.8271     ZZ     -50.7921
    Octopole Moments (Debye-Ang^2)
       XXX      44.1663    XXY     -18.0198    XYY       9.7913
       YYY      -7.6793    XXZ     -31.2671    XYZ       1.0658
       YYZ     -30.4910    XZZ      32.9119    YZZ      -8.8102
       ZZZ     -92.5113
    Hexadecapole Moments (Debye-Ang^3)
      XXXX    -501.6384   XXXY      56.0052   XXYY    -115.7424
      XYYY      32.5499   YYYY    -247.1747   XXXZ      86.3303
      XXYZ      -8.1338   XYYZ      30.6205   YYYZ     -30.5524
      XXZZ    -160.4657   XYZZ      17.9931   YYZZ    -102.8000
      XZZZ     109.3137   YZZZ     -37.0122   ZZZZ    -344.5599
 -----------------------------------------------------------------
 Calculating analytic gradient of the SCF energy
 Gradient of CDS energy
            1           2           3           4           5           6
    1   0.0026871  -0.0008582  -0.0002663  -0.0021682   0.0006136   0.0011625
    2   0.0024420   0.0009087   0.0001892  -0.0017156   0.0029110  -0.0013283
    3  -0.0003284  -0.0002702  -0.0000135  -0.0012799   0.0004136   0.0007209
            7           8           9          10          11
    1  -0.0008131   0.0000130  -0.0001730   0.0001073  -0.0003046
    2  -0.0034114   0.0003202   0.0000774  -0.0001121  -0.0002810
    3   0.0007231  -0.0001169   0.0000119   0.0002174  -0.0000780
 Gradient of SCF Energy
            1           2           3           4           5           6
    1   0.0013891  -0.0005774  -0.0018460   0.0006345   0.0224832  -0.0028073
    2  -0.0001438   0.0009914   0.0049711  -0.0008378  -0.0024105  -0.0007786
    3   0.0009464   0.0002952   0.0007825  -0.0007538   0.0054490  -0.0094449
            7           8           9          10          11
    1   0.0179551  -0.0150169   0.0026372  -0.0017853  -0.0230663
    2  -0.0101219   0.0129529  -0.0024806   0.0011153  -0.0032576
    3   0.0045448  -0.0039801   0.0020523   0.0044730  -0.0043645
 Max gradient component =       2.307E-02
 RMS gradient           =       8.037E-03
 Computing fast CPCM-SWIG gradient
 Updating gradient with PCM contributions...
 -- total gradient after adding PCM contribution --
---------------------------------------------------
  Atom         X              Y              Z     
---------------------------------------------------
   1       0.001444      -0.000383       0.000200
   2      -0.000800       0.000556      -0.000200
   3      -0.000002      -0.000014      -0.000001
   4      -0.000413      -0.000046      -0.000027
   5      -0.000021       0.000010       0.000023
   6       0.000005      -0.000003       0.000044
   7      -0.000261      -0.000234      -0.000048
   8       0.000011       0.000080       0.000001
   9       0.000017       0.000111       0.000009
  10       0.000041      -0.000092      -0.000014
  11      -0.000020       0.000014       0.000012
---------------------------------------------------
 Number of fixed atoms: 0
 Gradient time:  CPU 117.04 s  wall 9.59 s
 ----------------------------------------------------------------
             Standard Nuclear Orientation (Angstroms)
    I     Atom           X                Y                Z
 ----------------------------------------------------------------
    1      C       0.6062590000     0.0995536000     0.2712973000
    2      O       1.4192511000    -0.7394526000     0.5581471000
    3      H      -2.1260617000     1.1525979000     0.6669314000
    4      C      -0.8871969000    -0.2005200000     0.1817492000
    5      O      -1.1409735000    -1.4918036000     0.0903525000
    6      O      -1.6789620000     0.6859211000    -0.2986864000
    7      O       0.9279556000     1.3610303000     0.0358978000
    8      H       0.1400538000     1.8737466000    -0.2114864000
    9      O      -1.2145785000     0.1862517000     2.0046042000
   10      O      -2.1040941000     1.1019169000     1.9304935000
   11      H      -2.0845900000    -1.6251677000    -0.0954806000
 ----------------------------------------------------------------
 Nuclear Repulsion Energy =         412.38567225 hartrees
 There are       32 alpha and       31 beta electrons
 Discretize the solute cavity surface with Lebedev spheres
	Using 110 Lebedev grid points for each H atom
	Using 194 Lebedev grid points for other atoms
	Atomic van der Waals radii will be scaled by 1.20
 Remove points where switching function is < 1.0e-08
 Keep 991 surface tesserae and discard 891 interior tesserae
 Molecular Surface Area = 116.085 Angst**2

                       Distance Matrix (Angstroms)
             C (  1)   O (  2)   H (  3)   C (  4)   O (  5)   O (  6)
   O (  2)  1.202984
   H (  3)  2.954827  4.020066
   C (  4)  1.525934  2.398297  1.897661
   O (  5)  2.370228  2.709172  2.880226  1.319155
   O (  6)  2.427127  3.516359  1.161939  1.281986  2.276679
   O (  7)  1.322961  2.219492  3.125487  2.398852  3.524499  2.713621
   H (  8)  1.896889  3.009567  2.535144  2.347863  3.613733  2.174247
   O (  9)  2.515416  3.144237  1.885204  1.891976  2.546693  2.402180
   O ( 10)  3.332218  4.205703  1.264769  2.497056  3.322816  2.307170
   H ( 11)  3.217120  3.672686  2.880794  1.881549  0.970944  2.355198
             O (  7)   H (  8)   O (  9)   O ( 10)
   H (  8)  0.972042
   O (  9)  3.137891  3.097374
   O ( 10)  3.584684  3.196873  1.278739
   H ( 11)  4.243827  4.147879  2.906633  3.397343
 
 Requested basis set is 6-311++G(2df,2p)
 There are 82 shells and 302 basis functions
 A cutoff of  1.0D-12 yielded   3141 shell pairs
 There are     43033 function pairs (     55052 Cartesian)
 Smallest overlap matrix eigenvalue = 4.49E-05
 Guess MOs from SCF MO coefficient file

 -----------------------------------------------------------------------
  General SCF calculation program by
  Eric Jon Sundstrom, Paul Horn, Yuezhi Mao, Dmitri Zuev, Alec White,
  David Stuck, Shaama M.S., Shane Yost, Joonho Lee, David Small,
  Daniel Levine, Susi Lehtola, Hugh Burton, Evgeny Epifanovsky,
  Bang C. Huynh
 -----------------------------------------------------------------------
 Exchange:     0.1500 Hartree-Fock + 1.0000 wB97M-V + LR-HF
 Correlation:  1.0000 wB97M-V
 Using SG-2 standard quadrature grid
 Nonlocal Correlation:  VV10 with C = 0.0100 and b = 6.00 and scale = 1.00000
 Grid used for NLC:  SG-1 standard quadrature
 
 Citation of the SMD model:
 Marenich, A.V.; Cramer, C.J.; Truhlar, D.G.
 J. Phys. Chem. B 2009, 113, 6378-6396.
 iSolventCode=           1
 Solvent: water                                                           
 
 vradii
            1           2           3           4           5           6
    1   1.8500000   1.5200000   1.2000000   1.8500000   1.5200000   1.5200000
            7           8           9          10          11
    1   1.5200000   1.2000000   1.5200000   1.5200000   1.2000000
 -------------------------------------------------------
 OpenMP BLAS3 based DFT computing Module                
 Release: version 1.0, May 2013, Q-Chem Inc. Pittsburgh 
 -------------------------------------------------------
 A unrestricted SCF calculation will be
 performed using Roothaan-Hall, DIIS, GDM
 SCF converges when RMS gradient is below 1.0e-07
 ---------------------------------------
  Cycle       Energy         DIIS error
 ---------------------------------------
    1    -529.2654677820      3.21e-04  Roothaan Step
 ---------------------------------------
  Cycle       Energy         DIIS error
 ---------------------------------------
    1    -529.2946448747      4.11e-04  
    2    -529.2989910891      4.38e-04  Done DIIS. Switching to GDM
 ---------------------------------------
  Cycle       Energy        RMS Gradient
 ---------------------------------------
    1    -529.2989910891      2.31e-02   Normal BFGS step
    2    -529.2959133480      3.92e-02  Line search: overstep
    3    -529.3045091488      4.45e-03   Normal BFGS step
    4    -529.3046896727      1.46e-03   Normal BFGS step
    5    -529.3047178296      1.89e-03   Normal BFGS step
    6    -529.3047297874      3.07e-04   Normal BFGS step
    7    -529.3047307238      3.67e-04   Normal BFGS step
    8    -529.3047312952      9.65e-05   Normal BFGS step
    9    -529.3047313692      6.55e-05   Normal BFGS step
   10    -529.3047313953      3.40e-05   Normal BFGS step
   11    -529.3047314045      1.80e-05   Normal BFGS step
   12    -529.3047314062      1.21e-05   Normal BFGS step
   13    -529.3047314070      9.24e-06   Normal BFGS step
   14    -529.3047314072      6.55e-06   Normal BFGS step
   15    -529.3047314073      3.05e-06   Normal BFGS step
   16    -529.3047314074      1.15e-06   Normal BFGS step
   17    -529.3047314074      3.18e-07   Normal BFGS step
   18    -529.3047314074      1.10e-07   Normal BFGS step
   19    -529.3047314074      6.74e-08  Convergence criterion met
 ---------------------------------------
 SCF time:   CPU 894.37s  wall 60.00s 
<S^2> =          0.755976116
(3)  G-ENP(liq) elect-nuc-pol free energy of system     -529.304731407 a.u.
(4)  G-CDS(liq) cavity-dispersion-solvent structure 
     free energy                                                4.6400 kcal/mol
(6)  G-S(liq) free energy of system                     -529.297337132 a.u.
 SCF   energy in the final basis set =     -529.2973371317
 Total energy in the final basis set =     -529.2973371317
 
 --------------------------------------------------------------
 
                    Orbital Energies (a.u.)
 --------------------------------------------------------------
 
 Alpha MOs
 -- Occupied --
-19.4565 -19.4509 -19.4003 -19.3999 -19.3688 -19.3514 -10.5372 -10.5113
 -1.3702  -1.2804  -1.2537  -1.1960  -1.1759  -0.9791  -0.8478  -0.7556
 -0.7339  -0.7035  -0.6682  -0.6335  -0.6257  -0.6024  -0.5858  -0.5603
 -0.5335  -0.5165  -0.4946  -0.4724  -0.4531  -0.4222  -0.4057  -0.3956
 -- Virtual --
  0.0203   0.0327   0.0461   0.0579   0.0763   0.0890   0.1045   0.1063
  0.1196   0.1299   0.1515   0.1531   0.1608   0.1869   0.1897   0.2136
  0.2314   0.2355   0.2537   0.2576   0.2635   0.2869   0.2917   0.2994
  0.3035   0.3106   0.3202   0.3212   0.3249   0.3397   0.3446   0.3490
  0.3511   0.3560   0.3571   0.3776   0.3940   0.4028   0.4065   0.4132
  0.4291   0.4438   0.4870   0.5080   0.5247   0.5821   0.6019   0.6135
  0.6245   0.6490   0.6657   0.7058   0.7319   0.7501   0.7694   0.7904
  0.8239   0.8348   0.8495   0.8823   0.9051   0.9215   0.9467   0.9770
  1.0334   1.0571   1.0662   1.0788   1.0894   1.0992   1.1160   1.1227
  1.1324   1.1535   1.1691   1.1768   1.2017   1.2050   1.2084   1.2192
  1.2454   1.2558   1.2598   1.2693   1.3000   1.3338   1.3827   1.4307
  1.4544   1.4736   1.5006   1.5144   1.5302   1.5530   1.5921   1.6245
  1.6309   1.6597   1.6774   1.7173   1.7306   1.7510   1.7707   1.8128
  1.8550   1.8759   1.8996   1.9568   2.0113   2.0289   2.0718   2.1206
  2.1605   2.1725   2.1963   2.2865   2.2961   2.3354   2.3673   2.3781
  2.4141   2.4405   2.4553   2.5401   2.5814   2.5870   2.6111   2.6615
  2.6690   2.6941   2.8153   2.8468   2.8594   2.8771   2.9357   3.0187
  3.1508   3.1551   3.1871   3.2262   3.2641   3.3365   3.3730   3.3937
  3.4199   3.4451   3.4627   3.4943   3.5580   3.5758   3.6009   3.6298
  3.7017   3.7217   3.7511   3.7865   3.8133   3.8320   3.8614   3.9117
  3.9537   3.9831   4.0270   4.0943   4.1302   4.1710   4.2248   4.2888
  4.2995   4.3320   4.4322   4.5523   4.6784   4.6898   4.7754   4.7805
  4.8932   5.0117   5.0545   5.1084   5.1246   5.1284   5.1490   5.1608
  5.1651   5.1841   5.1944   5.2033   5.2115   5.2378   5.2442   5.2478
  5.2584   5.2671   5.2897   5.3119   5.3173   5.3342   5.3750   5.3866
  5.4242   5.4667   5.4881   5.5460   5.5604   5.5761   5.5912   5.6300
  5.6470   5.6667   5.6921   5.7019   5.7353   5.8275   5.8889   6.0616
  6.0751   6.1306   6.2626   6.4231   6.4874   6.5418   6.6064   6.6670
  6.7062   6.7813   6.8247   6.9169   6.9288   6.9894   6.9979   7.0201
  7.0330   7.0449   7.0838   7.1057   7.1266   7.1759   7.2290   7.2456
  7.2660   7.2982   7.3186   7.3450   7.3557   7.3657   7.4123   7.4560
  7.5035   7.5288   7.5369   7.5509   7.6499   7.6823   7.7433   7.8070
  7.8479   7.8930   7.8992   7.9756   8.0534   8.1470  24.9822  25.1630
 50.4807  50.5011  50.5735  50.6147  50.7136  50.7473
 
 Beta MOs
 -- Occupied --
-19.4409 -19.4357 -19.4004 -19.4000 -19.3689 -19.3513 -10.5376 -10.5113
 -1.3433  -1.2788  -1.2534  -1.1957  -1.1758  -0.9407  -0.8443  -0.7556
 -0.7271  -0.7020  -0.6661  -0.6064  -0.6026  -0.5854  -0.5616  -0.5476
 -0.5235  -0.5153  -0.4888  -0.4707  -0.4528  -0.4143  -0.3844
 -- Virtual --
 -0.0396   0.0246   0.0330   0.0463   0.0582   0.0768   0.0894   0.1049
  0.1066   0.1205   0.1306   0.1533   0.1542   0.1613   0.1902   0.1920
  0.2172   0.2328   0.2381   0.2555   0.2587   0.2652   0.2874   0.2982
  0.3000   0.3039   0.3110   0.3212   0.3223   0.3272   0.3409   0.3472
  0.3499   0.3523   0.3573   0.3597   0.3802   0.3951   0.4047   0.4072
  0.4147   0.4298   0.4438   0.4877   0.5082   0.5251   0.5828   0.6027
  0.6141   0.6251   0.6489   0.6659   0.7060   0.7321   0.7504   0.7703
  0.7905   0.8275   0.8352   0.8502   0.8829   0.9073   0.9225   0.9474
  0.9783   1.0384   1.0613   1.0696   1.0842   1.0909   1.1026   1.1170
  1.1249   1.1371   1.1638   1.1731   1.1847   1.2043   1.2088   1.2124
  1.2274   1.2470   1.2618   1.2641   1.2730   1.3087   1.3370   1.3864
  1.4362   1.4590   1.4761   1.5087   1.5168   1.5345   1.5677   1.5994
  1.6269   1.6364   1.6633   1.6862   1.7231   1.7386   1.7560   1.7747
  1.8173   1.8583   1.8797   1.9022   1.9605   2.0146   2.0412   2.0744
  2.1246   2.1632   2.1823   2.1988   2.2985   2.3110   2.3398   2.3718
  2.3804   2.4151   2.4410   2.4559   2.5434   2.5818   2.5904   2.6118
  2.6632   2.6720   2.7021   2.8151   2.8466   2.8593   2.8777   2.9354
  3.0172   3.1497   3.1549   3.1869   3.2258   3.2633   3.3382   3.3723
  3.3933   3.4195   3.4447   3.4618   3.4939   3.5575   3.5756   3.6004
  3.6290   3.7012   3.7215   3.7504   3.7862   3.8132   3.8315   3.8599
  3.9119   3.9535   3.9827   4.0262   4.0938   4.1298   4.1694   4.2250
  4.2892   4.2994   4.3320   4.4321   4.5913   4.6991   4.7117   4.7819
  4.7973   4.9050   5.0469   5.1141   5.1208   5.1402   5.1447   5.1633
  5.1661   5.1790   5.1926   5.2043   5.2158   5.2372   5.2477   5.2611
  5.2680   5.2742   5.2908   5.3050   5.3169   5.3266   5.3457   5.3809
  5.3912   5.4308   5.4678   5.4908   5.5490   5.5663   5.5804   5.5946
  5.6453   5.6523   5.6748   5.7027   5.7146   5.7382   5.8286   5.8901
  6.0618   6.0752   6.1304   6.2637   6.4237   6.4934   6.5919   6.6071
  6.6754   6.7096   6.7839   6.8741   6.9227   6.9697   6.9983   7.0083
  7.0289   7.0451   7.0809   7.1343   7.1397   7.1460   7.1785   7.2356
  7.2614   7.2681   7.3091   7.3243   7.3539   7.3728   7.4036   7.4187
  7.4671   7.5079   7.5337   7.5455   7.5573   7.6528   7.6834   7.7465
  7.8083   7.8483   7.8932   7.9030   7.9772   8.0664   8.1665  24.9820
 25.1629  50.4924  50.5127  50.5735  50.6150  50.7137  50.7474
 --------------------------------------------------------------
 
          Ground-State Mulliken Net Atomic Charges

     Atom                 Charge (a.u.)    Spin (a.u.)
  --------------------------------------------------------
      1 C                     0.351149       0.000177
      2 O                    -0.433404       0.001553
      3 H                     0.380296      -0.009108
      4 C                     0.248238      -0.022207
      5 O                    -0.312871      -0.001979
      6 O                    -0.459283      -0.001473
      7 O                    -0.291020      -0.000784
      8 H                     0.341210       0.000121
      9 O                    -0.085867       0.517675
     10 O                    -0.112391       0.515551
     11 H                     0.373943       0.000473
  --------------------------------------------------------
  Sum of atomic charges =     0.000000
  Sum of spin   charges =     1.000000

 -----------------------------------------------------------------
                    Cartesian Multipole Moments
 -----------------------------------------------------------------
    Charge (ESU x 10^10)
                 0.0000
    Dipole Moment (Debye)
         X      -5.2443      Y       1.8044      Z      -2.3984
       Tot       6.0424
    Quadrupole Moments (Debye-Ang)
        XX     -45.0545     XY       5.1710     YY     -41.9502
        XZ      -0.1691     YZ       0.8323     ZZ     -50.7852
    Octopole Moments (Debye-Ang^2)
       XXX      44.1333    XXY     -18.0054    XYY       9.7858
       YYY      -7.6685    XXZ     -31.2570    XYZ       1.0595
       YYZ     -30.4883    XZZ      32.8902    YZZ      -8.7986
       ZZZ     -92.4908
    Hexadecapole Moments (Debye-Ang^3)
      XXXX    -501.5267   XXXY      56.0026   XXYY    -115.7046
      XYYY      32.5768   YYYY    -247.1723   XXXZ      86.2869
      XXYZ      -8.1169   XYYZ      30.6059   YYYZ     -30.5349
      XXZZ    -160.4207   XYZZ      17.9817   YYZZ    -102.7898
      XZZZ     109.2603   YZZZ     -36.9863   ZZZZ    -344.4908
 -----------------------------------------------------------------
 Calculating analytic gradient of the SCF energy
 Gradient of CDS energy
            1           2           3           4           5           6
    1   0.0027067  -0.0008712  -0.0002663  -0.0021665   0.0006139   0.0011626
    2   0.0024477   0.0009211   0.0001892  -0.0017153   0.0029109  -0.0013285
    3  -0.0003279  -0.0002743  -0.0000135  -0.0012794   0.0004134   0.0007207
            7           8           9          10          11
    1  -0.0008224   0.0000133  -0.0001728   0.0001073  -0.0003046
    2  -0.0034302   0.0003207   0.0000774  -0.0001121  -0.0002810
    3   0.0007265  -0.0001169   0.0000119   0.0002174  -0.0000780
 Gradient of SCF Energy
            1           2           3           4           5           6
    1  -0.0014599   0.0009759  -0.0018449   0.0013749   0.0225056  -0.0027734
    2   0.0005975  -0.0001331   0.0049696  -0.0007091  -0.0024031  -0.0008043
    3   0.0005242   0.0007092   0.0008006  -0.0007328   0.0054481  -0.0094483
            7           8           9          10          11
    1   0.0185406  -0.0150699   0.0026794  -0.0018394  -0.0230889
    2  -0.0096886   0.0127951  -0.0025384   0.0011815  -0.0032670
    3   0.0045003  -0.0039536   0.0020335   0.0044844  -0.0043657
 Max gradient component =       2.309E-02
 RMS gradient           =       8.063E-03
 Computing fast CPCM-SWIG gradient
 Updating gradient with PCM contributions...
 -- total gradient after adding PCM contribution --
---------------------------------------------------
  Atom         X              Y              Z     
---------------------------------------------------
   1      -0.001422       0.000355      -0.000231
   2       0.000776      -0.000582       0.000216
   3       0.000005      -0.000022       0.000012
   4       0.000322       0.000097       0.000005
   5      -0.000017       0.000023       0.000021
   6       0.000035      -0.000023       0.000050
   7       0.000303       0.000189      -0.000089
   8      -0.000032      -0.000068       0.000024
   9       0.000051       0.000061      -0.000014
  10      -0.000003      -0.000035      -0.000008
  11      -0.000019       0.000007       0.000013
---------------------------------------------------
 Number of fixed atoms: 0
 Gradient time:  CPU 117.15 s  wall 9.66 s
 ----------------------------------------------------------------
             Standard Nuclear Orientation (Angstroms)
    I     Atom           X                Y                Z
 ----------------------------------------------------------------
    1      C       0.6072590000     0.1005536000     0.2712973000
    2      O       1.4192511000    -0.7394526000     0.5581471000
    3      H      -2.1260617000     1.1525979000     0.6669314000
    4      C      -0.8871969000    -0.2005200000     0.1817492000
    5      O      -1.1409735000    -1.4918036000     0.0903525000
    6      O      -1.6789620000     0.6859211000    -0.2986864000
    7      O       0.9279556000     1.3610303000     0.0358978000
    8      H       0.1400538000     1.8737466000    -0.2114864000
    9      O      -1.2145785000     0.1862517000     2.0046042000
   10      O      -2.1040941000     1.1019169000     1.9304935000
   11      H      -2.0845900000    -1.6251677000    -0.0954806000
 ----------------------------------------------------------------
 Nuclear Repulsion Energy =         412.37970399 hartrees
 There are       32 alpha and       31 beta electrons
 Discretize the solute cavity surface with Lebedev spheres
	Using 110 Lebedev grid points for each H atom
	Using 194 Lebedev grid points for other atoms
	Atomic van der Waals radii will be scaled by 1.20
 Remove points where switching function is < 1.0e-08
 Keep 991 surface tesserae and discard 891 interior tesserae
 Molecular Surface Area = 116.087 Angst**2

                       Distance Matrix (Angstroms)
             C (  1)   O (  2)   H (  3)   C (  4)   O (  5)   O (  6)
   O (  2)  1.203006
   H (  3)  2.955396  4.020066
   C (  4)  1.527109  2.398297  1.897661
   O (  5)  2.371636  2.709172  2.880226  1.319155
   O (  6)  2.427827  3.516359  1.161939  1.281986  2.276679
   O (  7)  1.321764  2.219492  3.125487  2.398852  3.524499  2.713621
   H (  8)  1.896200  3.009567  2.535144  2.347863  3.613733  2.174247
   O (  9)  2.516106  3.144237  1.885204  1.891976  2.546693  2.402180
   O ( 10)  3.332731  4.205703  1.264769  2.497056  3.322816  2.307170
   H ( 11)  3.218492  3.672686  2.880794  1.881549  0.970944  2.355198
             O (  7)   H (  8)   O (  9)   O ( 10)
   H (  8)  0.972042
   O (  9)  3.137891  3.097374
   O ( 10)  3.584684  3.196873  1.278739
   H ( 11)  4.243827  4.147879  2.906633  3.397343
 
 Requested basis set is 6-311++G(2df,2p)
 There are 82 shells and 302 basis functions
 A cutoff of  1.0D-12 yielded   3141 shell pairs
 There are     43033 function pairs (     55052 Cartesian)
 Smallest overlap matrix eigenvalue = 4.51E-05
 Guess MOs from SCF MO coefficient file

 -----------------------------------------------------------------------
  General SCF calculation program by
  Eric Jon Sundstrom, Paul Horn, Yuezhi Mao, Dmitri Zuev, Alec White,
  David Stuck, Shaama M.S., Shane Yost, Joonho Lee, David Small,
  Daniel Levine, Susi Lehtola, Hugh Burton, Evgeny Epifanovsky,
  Bang C. Huynh
 -----------------------------------------------------------------------
 Exchange:     0.1500 Hartree-Fock + 1.0000 wB97M-V + LR-HF
 Correlation:  1.0000 wB97M-V
 Using SG-2 standard quadrature grid
 Nonlocal Correlation:  VV10 with C = 0.0100 and b = 6.00 and scale = 1.00000
 Grid used for NLC:  SG-1 standard quadrature
 
 Citation of the SMD model:
 Marenich, A.V.; Cramer, C.J.; Truhlar, D.G.
 J. Phys. Chem. B 2009, 113, 6378-6396.
 iSolventCode=           1
 Solvent: water                                                           
 
 vradii
            1           2           3           4           5           6
    1   1.8500000   1.5200000   1.2000000   1.8500000   1.5200000   1.5200000
            7           8           9          10          11
    1   1.5200000   1.2000000   1.5200000   1.5200000   1.2000000
 -------------------------------------------------------
 OpenMP BLAS3 based DFT computing Module                
 Release: version 1.0, May 2013, Q-Chem Inc. Pittsburgh 
 -------------------------------------------------------
 A unrestricted SCF calculation will be
 performed using Roothaan-Hall, DIIS, GDM
 SCF converges when RMS gradient is below 1.0e-07
 ---------------------------------------
  Cycle       Energy         DIIS error
 ---------------------------------------
    1    -529.2654443214      3.21e-04  Roothaan Step
 ---------------------------------------
  Cycle       Energy         DIIS error
 ---------------------------------------
    1    -529.2946904091      4.10e-04  
    2    -529.2990620247      4.35e-04  Done DIIS. Switching to GDM
 ---------------------------------------
  Cycle       Energy        RMS Gradient
 ---------------------------------------
    1    -529.2990620247      2.29e-02   Normal BFGS step
    2    -529.2960188930      3.90e-02  Line search: overstep
    3    -529.3045187562      4.47e-03   Normal BFGS step
    4    -529.3046994999      1.46e-03   Normal BFGS step
    5    -529.3047274049      1.91e-03   Normal BFGS step
    6    -529.3047395016      3.06e-04   Normal BFGS step
    7    -529.3047404347      3.62e-04   Normal BFGS step
    8    -529.3047410026      9.70e-05   Normal BFGS step
    9    -529.3047410746      6.57e-05   Normal BFGS step
   10    -529.3047410993      3.49e-05   Normal BFGS step
   11    -529.3047411079      1.49e-05   Normal BFGS step
   12    -529.3047411094      1.01e-05   Normal BFGS step
   13    -529.3047411100      7.90e-06   Normal BFGS step
   14    -529.3047411102      5.86e-06   Normal BFGS step
   15    -529.3047411103      3.05e-06   Normal BFGS step
   16    -529.3047411103      1.12e-06   Normal BFGS step
   17    -529.3047411103      3.18e-07   Normal BFGS step
   18    -529.3047411103      1.15e-07   Normal BFGS step
   19    -529.3047411104      6.56e-08  Convergence criterion met
 ---------------------------------------
 SCF time:   CPU 887.32s  wall 59.00s 
<S^2> =          0.755970877
(3)  G-ENP(liq) elect-nuc-pol free energy of system     -529.304741110 a.u.
(4)  G-CDS(liq) cavity-dispersion-solvent structure 
     free energy                                                4.6461 kcal/mol
(6)  G-S(liq) free energy of system                     -529.297337148 a.u.
 SCF   energy in the final basis set =     -529.2973371481
 Total energy in the final basis set =     -529.2973371481
 
 --------------------------------------------------------------
 
                    Orbital Energies (a.u.)
 --------------------------------------------------------------
 
 Alpha MOs
 -- Occupied --
-19.4564 -19.4508 -19.4005 -19.3999 -19.3688 -19.3512 -10.5371 -10.5112
 -1.3702  -1.2805  -1.2539  -1.1959  -1.1760  -0.9790  -0.8475  -0.7560
 -0.7338  -0.7036  -0.6681  -0.6335  -0.6256  -0.6024  -0.5859  -0.5604
 -0.5335  -0.5164  -0.4946  -0.4724  -0.4531  -0.4221  -0.4057  -0.3955
 -- Virtual --
  0.0206   0.0327   0.0461   0.0579   0.0763   0.0890   0.1045   0.1063
  0.1196   0.1299   0.1515   0.1531   0.1608   0.1869   0.1896   0.2136
  0.2314   0.2355   0.2537   0.2576   0.2635   0.2868   0.2917   0.2994
  0.3034   0.3105   0.3202   0.3213   0.3249   0.3397   0.3446   0.3490
  0.3512   0.3560   0.3572   0.3775   0.3941   0.4027   0.4067   0.4132
  0.4291   0.4438   0.4872   0.5080   0.5246   0.5821   0.6019   0.6136
  0.6245   0.6491   0.6658   0.7058   0.7320   0.7501   0.7693   0.7904
  0.8238   0.8348   0.8495   0.8824   0.9050   0.9215   0.9465   0.9770
  1.0335   1.0572   1.0663   1.0788   1.0894   1.0991   1.1159   1.1227
  1.1324   1.1535   1.1691   1.1768   1.2018   1.2050   1.2084   1.2192
  1.2453   1.2558   1.2598   1.2694   1.3000   1.3339   1.3825   1.4307
  1.4545   1.4736   1.5005   1.5144   1.5302   1.5531   1.5920   1.6243
  1.6309   1.6599   1.6772   1.7174   1.7306   1.7509   1.7707   1.8129
  1.8551   1.8759   1.8996   1.9568   2.0113   2.0288   2.0719   2.1208
  2.1605   2.1725   2.1963   2.2865   2.2962   2.3356   2.3675   2.3781
  2.4140   2.4404   2.4552   2.5401   2.5813   2.5870   2.6110   2.6615
  2.6691   2.6943   2.8151   2.8469   2.8594   2.8770   2.9361   3.0188
  3.1508   3.1553   3.1869   3.2259   3.2638   3.3365   3.3733   3.3942
  3.4200   3.4451   3.4628   3.4943   3.5582   3.5755   3.6010   3.6299
  3.7013   3.7217   3.7511   3.7864   3.8134   3.8317   3.8613   3.9116
  3.9541   3.9830   4.0264   4.0944   4.1286   4.1702   4.2248   4.2888
  4.2998   4.3320   4.4316   4.5523   4.6785   4.6898   4.7753   4.7794
  4.8932   5.0118   5.0546   5.1084   5.1247   5.1284   5.1490   5.1609
  5.1651   5.1841   5.1945   5.2033   5.2115   5.2377   5.2443   5.2477
  5.2585   5.2672   5.2897   5.3119   5.3174   5.3343   5.3751   5.3867
  5.4242   5.4663   5.4881   5.5465   5.5605   5.5762   5.5913   5.6303
  5.6472   5.6669   5.6922   5.7020   5.7352   5.8273   5.8889   6.0631
  6.0762   6.1309   6.2628   6.4239   6.4875   6.5418   6.6076   6.6671
  6.7062   6.7819   6.8248   6.9169   6.9288   6.9893   6.9979   7.0202
  7.0330   7.0449   7.0839   7.1058   7.1266   7.1763   7.2293   7.2458
  7.2662   7.2983   7.3185   7.3450   7.3559   7.3658   7.4129   7.4561
  7.5032   7.5294   7.5370   7.5516   7.6502   7.6826   7.7429   7.8073
  7.8481   7.8932   7.8991   7.9756   8.0535   8.1471  24.9822  25.1636
 50.4808  50.5011  50.5737  50.6149  50.7137  50.7473
 
 Beta MOs
 -- Occupied --
-19.4408 -19.4356 -19.4005 -19.4000 -19.3689 -19.3512 -10.5375 -10.5112
 -1.3432  -1.2789  -1.2536  -1.1957  -1.1759  -0.9406  -0.8439  -0.7559
 -0.7271  -0.7020  -0.6660  -0.6064  -0.6026  -0.5856  -0.5617  -0.5475
 -0.5235  -0.5152  -0.4887  -0.4707  -0.4528  -0.4142  -0.3843
 -- Virtual --
 -0.0396   0.0248   0.0330   0.0463   0.0582   0.0768   0.0894   0.1048
  0.1066   0.1205   0.1306   0.1533   0.1542   0.1613   0.1902   0.1920
  0.2172   0.2328   0.2381   0.2555   0.2588   0.2652   0.2874   0.2982
  0.3000   0.3038   0.3109   0.3212   0.3224   0.3272   0.3409   0.3472
  0.3499   0.3523   0.3573   0.3597   0.3801   0.3951   0.4046   0.4074
  0.4148   0.4298   0.4438   0.4878   0.5082   0.5250   0.5828   0.6027
  0.6143   0.6251   0.6490   0.6660   0.7060   0.7322   0.7504   0.7702
  0.7905   0.8274   0.8352   0.8502   0.8831   0.9072   0.9226   0.9473
  0.9782   1.0384   1.0614   1.0697   1.0842   1.0909   1.1024   1.1169
  1.1248   1.1372   1.1638   1.1731   1.1847   1.2044   1.2089   1.2124
  1.2274   1.2470   1.2618   1.2640   1.2731   1.3087   1.3370   1.3862
  1.4362   1.4590   1.4761   1.5087   1.5167   1.5345   1.5678   1.5993
  1.6267   1.6364   1.6636   1.6860   1.7233   1.7386   1.7560   1.7747
  1.8173   1.8584   1.8798   1.9021   1.9606   2.0146   2.0411   2.0745
  2.1247   2.1631   2.1823   2.1988   2.2985   2.3111   2.3400   2.3720
  2.3804   2.4150   2.4410   2.4559   2.5434   2.5817   2.5905   2.6117
  2.6632   2.6721   2.7022   2.8149   2.8466   2.8592   2.8776   2.9358
  3.0173   3.1497   3.1551   3.1866   3.2254   3.2630   3.3383   3.3726
  3.3938   3.4196   3.4446   3.4619   3.4939   3.5578   3.5752   3.6006
  3.6291   3.7008   3.7215   3.7504   3.7860   3.8133   3.8312   3.8599
  3.9118   3.9539   3.9827   4.0257   4.0939   4.1283   4.1686   4.2251
  4.2892   4.2998   4.3319   4.4315   4.5913   4.6991   4.7117   4.7808
  4.7973   4.9050   5.0469   5.1142   5.1209   5.1402   5.1448   5.1633
  5.1662   5.1790   5.1927   5.2042   5.2157   5.2372   5.2478   5.2612
  5.2681   5.2742   5.2908   5.3050   5.3170   5.3267   5.3457   5.3810
  5.3912   5.4308   5.4674   5.4908   5.5495   5.5663   5.5805   5.5947
  5.6456   5.6525   5.6749   5.7028   5.7146   5.7381   5.8284   5.8901
  6.0633   6.0763   6.1307   6.2638   6.4244   6.4935   6.5920   6.6083
  6.6755   6.7096   6.7846   6.8741   6.9227   6.9697   6.9983   7.0083
  7.0290   7.0451   7.0810   7.1343   7.1397   7.1460   7.1790   7.2360
  7.2614   7.2683   7.3092   7.3241   7.3540   7.3731   7.4038   7.4191
  7.4672   7.5077   7.5344   7.5456   7.5578   7.6531   7.6837   7.7460
  7.8085   7.8485   7.8935   7.9029   7.9772   8.0665   8.1665  24.9819
 25.1635  50.4925  50.5127  50.5738  50.6153  50.7137  50.7474
 --------------------------------------------------------------
 
          Ground-State Mulliken Net Atomic Charges

     Atom                 Charge (a.u.)    Spin (a.u.)
  --------------------------------------------------------
      1 C                     0.350916       0.000168
      2 O                    -0.433706       0.001565
      3 H                     0.380253      -0.009107
      4 C                     0.248156      -0.022175
      5 O                    -0.312986      -0.001964
      6 O                    -0.459279      -0.001474
      7 O                    -0.290177      -0.000783
      8 H                     0.341418       0.000122
      9 O                    -0.085948       0.517695
     10 O                    -0.112575       0.515481
     11 H                     0.373929       0.000471
  --------------------------------------------------------
  Sum of atomic charges =     0.000000
  Sum of spin   charges =     1.000000

 -----------------------------------------------------------------
                    Cartesian Multipole Moments
 -----------------------------------------------------------------
    Charge (ESU x 10^10)
                 0.0000
    Dipole Moment (Debye)
         X      -5.2378      Y       1.8147      Z      -2.4021
       Tot       6.0413
    Quadrupole Moments (Debye-Ang)
        XX     -45.0609     XY       5.1836     YY     -41.9418
        XZ      -0.1665     YZ       0.8320     ZZ     -50.7915
    Octopole Moments (Debye-Ang^2)
       XXX      44.1353    XXY     -18.0006    XYY       9.7942
       YYY      -7.6552    XXZ     -31.2702    XYZ       1.0657
       YYZ     -30.4916    XZZ      32.8988    YZZ      -8.8001
       ZZZ     -92.5110
    Hexadecapole Moments (Debye-Ang^3)
      XXXX    -501.6390   XXXY      56.0376   XXYY    -115.7174
      XYYY      32.5904   YYYY    -247.1336   XXXZ      86.2946
      XXYZ      -8.1240   XYYZ      30.6121   YYYZ     -30.5434
      XXZZ    -160.4556   XYZZ      17.9965   YYZZ    -102.7924
      XZZZ     109.2802   YZZZ     -36.9991   ZZZZ    -344.5418
 -----------------------------------------------------------------
 Calculating analytic gradient of the SCF energy
 Gradient of CDS energy
            1           2           3           4           5           6
    1   0.0026941  -0.0008707  -0.0002663  -0.0021675   0.0006139   0.0011625
    2   0.0024033   0.0009215   0.0001892  -0.0017158   0.0029110  -0.0013284
    3  -0.0003198  -0.0002741  -0.0000135  -0.0012797   0.0004136   0.0007208
            7           8           9          10          11
    1  -0.0008083   0.0000127  -0.0001730   0.0001072  -0.0003046
    2  -0.0033843   0.0003196   0.0000772  -0.0001121  -0.0002810
    3   0.0007181  -0.0001166   0.0000119   0.0002174  -0.0000780
 Gradient of SCF Energy
            1           2           3           4           5           6
    1  -0.0003866   0.0007105  -0.0018363   0.0009149   0.0224288  -0.0027486
    2   0.0016420  -0.0002542   0.0049774  -0.0009190  -0.0024439  -0.0008188
    3   0.0004795   0.0006882   0.0007898  -0.0007521   0.0054400  -0.0094349
            7           8           9          10          11
    1   0.0181904  -0.0150500   0.0026630  -0.0018093  -0.0230769
    2  -0.0103920   0.0128429  -0.0025075   0.0011424  -0.0032692
    3   0.0045989  -0.0039635   0.0020363   0.0044807  -0.0043629
 Max gradient component =       2.308E-02
 RMS gradient           =       8.058E-03
 Computing fast CPCM-SWIG gradient
 Updating gradient with PCM contributions...
 -- total gradient after adding PCM contribution --
---------------------------------------------------
  Atom         X              Y              Z     
---------------------------------------------------
   1      -0.000355       0.001405      -0.000279
   2       0.000506      -0.000698       0.000193
   3       0.000006      -0.000018       0.000004
   4      -0.000122      -0.000122      -0.000014
   5      -0.000091      -0.000020       0.000013
   6       0.000071      -0.000024       0.000059
   7      -0.000055      -0.000487       0.000002
   8      -0.000000      -0.000060       0.000026
   9       0.000036       0.000091      -0.000008
  10       0.000024      -0.000069      -0.000011
  11      -0.000020       0.000001       0.000015
---------------------------------------------------
 Number of fixed atoms: 0
 Gradient time:  CPU 118.29 s  wall 9.78 s
 ----------------------------------------------------------------
             Standard Nuclear Orientation (Angstroms)
    I     Atom           X                Y                Z
 ----------------------------------------------------------------
    1      C       0.6072590000     0.0985536000     0.2712973000
    2      O       1.4192511000    -0.7394526000     0.5581471000
    3      H      -2.1260617000     1.1525979000     0.6669314000
    4      C      -0.8871969000    -0.2005200000     0.1817492000
    5      O      -1.1409735000    -1.4918036000     0.0903525000
    6      O      -1.6789620000     0.6859211000    -0.2986864000
    7      O       0.9279556000     1.3610303000     0.0358978000
    8      H       0.1400538000     1.8737466000    -0.2114864000
    9      O      -1.2145785000     0.1862517000     2.0046042000
   10      O      -2.1040941000     1.1019169000     1.9304935000
   11      H      -2.0845900000    -1.6251677000    -0.0954806000
 ----------------------------------------------------------------
 Nuclear Repulsion Energy =         412.38050026 hartrees
 There are       32 alpha and       31 beta electrons
 Discretize the solute cavity surface with Lebedev spheres
	Using 110 Lebedev grid points for each H atom
	Using 194 Lebedev grid points for other atoms
	Atomic van der Waals radii will be scaled by 1.20
 Remove points where switching function is < 1.0e-08
 Keep 991 surface tesserae and discard 891 interior tesserae
 Molecular Surface Area = 116.088 Angst**2

                       Distance Matrix (Angstroms)
             C (  1)   O (  2)   H (  3)   C (  4)   O (  5)   O (  6)
   O (  2)  1.201611
   H (  3)  2.956109  4.020066
   C (  4)  1.526716  2.398297  1.897661
   O (  5)  2.370294  2.709172  2.880226  1.319155
   O (  6)  2.428310  3.516359  1.161939  1.281986  2.276679
   O (  7)  1.323672  2.219492  3.125487  2.398852  3.524499  2.713621
   H (  8)  1.898070  3.009567  2.535144  2.347863  3.613733  2.174247
   O (  9)  2.516175  3.144237  1.885204  1.891976  2.546693  2.402180
   O ( 10)  3.333333  4.205703  1.264769  2.497056  3.322816  2.307170
   H ( 11)  3.217420  3.672686  2.880794  1.881549  0.970944  2.355198
             O (  7)   H (  8)   O (  9)   O ( 10)
   H (  8)  0.972042
   O (  9)  3.137891  3.097374
   O ( 10)  3.584684  3.196873  1.278739
   H ( 11)  4.243827  4.147879  2.906633  3.397343
 
 Requested basis set is 6-311++G(2df,2p)
 There are 82 shells and 302 basis functions
 A cutoff of  1.0D-12 yielded   3141 shell pairs
 There are     43033 function pairs (     55052 Cartesian)
 Smallest overlap matrix eigenvalue = 4.51E-05
 Guess MOs from SCF MO coefficient file

 -----------------------------------------------------------------------
  General SCF calculation program by
  Eric Jon Sundstrom, Paul Horn, Yuezhi Mao, Dmitri Zuev, Alec White,
  David Stuck, Shaama M.S., Shane Yost, Joonho Lee, David Small,
  Daniel Levine, Susi Lehtola, Hugh Burton, Evgeny Epifanovsky,
  Bang C. Huynh
 -----------------------------------------------------------------------
 Exchange:     0.1500 Hartree-Fock + 1.0000 wB97M-V + LR-HF
 Correlation:  1.0000 wB97M-V
 Using SG-2 standard quadrature grid
 Nonlocal Correlation:  VV10 with C = 0.0100 and b = 6.00 and scale = 1.00000
 Grid used for NLC:  SG-1 standard quadrature
 
 Citation of the SMD model:
 Marenich, A.V.; Cramer, C.J.; Truhlar, D.G.
 J. Phys. Chem. B 2009, 113, 6378-6396.
 iSolventCode=           1
 Solvent: water                                                           
 
 vradii
            1           2           3           4           5           6
    1   1.8500000   1.5200000   1.2000000   1.8500000   1.5200000   1.5200000
            7           8           9          10          11
    1   1.5200000   1.2000000   1.5200000   1.5200000   1.2000000
 -------------------------------------------------------
 OpenMP BLAS3 based DFT computing Module                
 Release: version 1.0, May 2013, Q-Chem Inc. Pittsburgh 
 -------------------------------------------------------
 A unrestricted SCF calculation will be
 performed using Roothaan-Hall, DIIS, GDM
 SCF converges when RMS gradient is below 1.0e-07
 ---------------------------------------
  Cycle       Energy         DIIS error
 ---------------------------------------
    1    -529.2654561446      3.22e-04  Roothaan Step
 ---------------------------------------
  Cycle       Energy         DIIS error
 ---------------------------------------
    1    -529.2947452096      4.09e-04  
    2    -529.2991361065      4.32e-04  Done DIIS. Switching to GDM
 ---------------------------------------
  Cycle       Energy        RMS Gradient
 ---------------------------------------
    1    -529.2991361065      2.24e-02   Normal BFGS step
    2    -529.2961741203      3.82e-02  Line search: overstep
    3    -529.3045122323      4.38e-03   Normal BFGS step
    4    -529.3046904778      1.47e-03   Normal BFGS step
    5    -529.3047182308      1.90e-03   Normal BFGS step
    6    -529.3047302379      2.98e-04   Normal BFGS step
    7    -529.3047311519      3.60e-04   Normal BFGS step
    8    -529.3047317173      9.75e-05   Normal BFGS step
    9    -529.3047317891      6.57e-05   Normal BFGS step
   10    -529.3047318144      3.40e-05   Normal BFGS step
   11    -529.3047318233      1.66e-05   Normal BFGS step
   12    -529.3047318249      1.13e-05   Normal BFGS step
   13    -529.3047318256      8.75e-06   Normal BFGS step
   14    -529.3047318258      6.29e-06   Normal BFGS step
   15    -529.3047318259      3.04e-06   Normal BFGS step
   16    -529.3047318260      1.13e-06   Normal BFGS step
   17    -529.3047318260      3.16e-07   Normal BFGS step
   18    -529.3047318260      1.10e-07   Normal BFGS step
   19    -529.3047318260      6.54e-08  Convergence criterion met
[...]
---------------------------------------------------
  Atom         X              Y              Z     
---------------------------------------------------
   1       0.002347      -0.002318       0.000482
   2      -0.001845       0.001570      -0.000768
   3       0.000408      -0.000958       0.001336
   4      -0.001490       0.000006      -0.000655
   5      -0.000006       0.000040       0.000696
   6      -0.000134      -0.000380       0.000960
   7       0.000071       0.000205       0.000202
   8       0.000005       0.000118       0.000067
   9       0.000601       0.001327      -0.000091
  10      -0.000377       0.000305      -0.001229
  11       0.000420       0.000085      -0.000999
---------------------------------------------------
 Number of fixed atoms: 0
 Gradient time:  CPU 119.47 s  wall 9.85 s
rPathMan2.  file_steps = 952
 IRC --- Status = 3.  Assess initial corrector step
 IRC --- bisector search: b =  0.000000 E =     -529.309002 G.B =  -0.003921
 IRC --- bisector search: b =  0.005273 E =     -529.309001 G.B =   0.004352
 IRC --- performed gradient/energy interpolation
 IRC --- bisector search:  estimate b(min) =   2.507912553860723E-003
 ----------------------------------------------------------------
             Standard Nuclear Orientation (Angstroms)
    I     Atom           X                Y                Z
 ----------------------------------------------------------------
    1      C       0.5991447867     0.1142974492     0.3093759934
    2      O       1.4165171205    -0.7359267664     0.5425072766
    3      H      -2.1867319013     1.2370884356     0.3463697490
    4      C      -0.9177334615    -0.1604611252     0.3931229777
    5      O      -1.1362555882    -1.4682411782     0.1258402205
    6      O      -1.6725372706     0.7153201938    -0.3093665331
    7      O       0.9295396623     1.3584792935     0.0031536359
    8      H       0.1387191762     1.8801968777    -0.2124575311
    9      O      -1.2071008519     0.0437853764     1.8849830169
   10      O      -2.0268065415     1.0174981902     2.1066570858
   11      H      -2.0786921197    -1.5979626073    -0.0563663624
 ----------------------------------------------------------------
 Nuclear Repulsion Energy =         415.32938022 hartrees
 There are       32 alpha and       31 beta electrons
 Discretize the solute cavity surface with Lebedev spheres
	Using 110 Lebedev grid points for each H atom
	Using 194 Lebedev grid points for other atoms
	Atomic van der Waals radii will be scaled by 1.20
 Remove points where switching function is < 1.0e-08
 Keep 995 surface tesserae and discard 887 interior tesserae
 Molecular Surface Area = 116.127 Angst**2

                       Distance Matrix (Angstroms)
             C (  1)   O (  2)   H (  3)   C (  4)   O (  5)   O (  6)
   O (  2)  1.202218
   H (  3)  3.003854  4.112744
   C (  4)  1.543835  2.408776  1.888303
   O (  5)  2.355786  2.688223  2.910488  1.352583
   O (  6)  2.429940  3.517679  0.983173  1.352854  2.290184
   O (  7)  1.323224  2.216887  3.137464  2.423154  3.503271  2.698542
   H (  8)  1.898079  3.007797  2.476610  2.376364  3.598895  2.155685
   O (  9)  2.397923  3.048535  2.179674  1.533329  2.320738  2.341529
   O ( 10)  3.307811  4.168638  1.781125  2.356657  3.300851  2.460485
   H ( 11)  3.199439  3.649417  2.865551  1.901651  0.968614  2.362255
             O (  7)   H (  8)   O (  9)   O ( 10)
   H (  8)  0.971635
   O (  9)  3.136070  3.095625
   O ( 10)  3.644308  3.288167  1.291965
   H ( 11)  4.218240  4.127817  2.687721  3.394407
 
 Applying Cartesian multipole field
    Component          Value
    ---------          -----
     (2,0,0)        1.00000E-11
     (0,2,0)        2.00000E-11
     (0,0,2)       -3.00000E-11
 Nucleus-field energy     =     0.0000000008 hartrees
 Requested basis set is 6-311++G(2df,2p)
 There are 82 shells and 302 basis functions
 A cutoff of  1.0D-12 yielded   3144 shell pairs
 There are     43132 function pairs (     55206 Cartesian)
 Smallest overlap matrix eigenvalue = 5.29E-05
 Guess MOs from SCF MO coefficient file

 -----------------------------------------------------------------------
  General SCF calculation program by
  Eric Jon Sundstrom, Paul Horn, Yuezhi Mao, Dmitri Zuev, Alec White,
  David Stuck, Shaama M.S., Shane Yost, Joonho Lee, David Small,
  Daniel Levine, Susi Lehtola, Hugh Burton, Evgeny Epifanovsky,
  Bang C. Huynh
 -----------------------------------------------------------------------
 Exchange:     0.1500 Hartree-Fock + 1.0000 wB97M-V + LR-HF
 Correlation:  1.0000 wB97M-V
 Using SG-2 standard quadrature grid
 Nonlocal Correlation:  VV10 with C = 0.0100 and b = 6.00 and scale = 1.00000
 Grid used for NLC:  SG-1 standard quadrature
 
 Citation of the SMD model:
 Marenich, A.V.; Cramer, C.J.; Truhlar, D.G.
 J. Phys. Chem. B 2009, 113, 6378-6396.
 iSolventCode=           1
 Solvent: water                                                           
 
 vradii
            1           2           3           4           5           6
    1   1.8500000   1.5200000   1.2000000   1.8500000   1.5200000   1.5200000
            7           8           9          10          11
    1   1.5200000   1.2000000   1.5200000   1.5200000   1.2000000
 -------------------------------------------------------
 OpenMP BLAS3 based DFT computing Module                
 Release: version 1.0, May 2013, Q-Chem Inc. Pittsburgh 
 -------------------------------------------------------
 A unrestricted SCF calculation will be
 performed using Roothaan-Hall, DIIS, GDM
 SCF converges when RMS gradient is below 1.0e-07
 ---------------------------------------
  Cycle       Energy         DIIS error
 ---------------------------------------
    1    -529.2742497083      3.39e-04  Roothaan Step
 ---------------------------------------
  Cycle       Energy         DIIS error
 ---------------------------------------
    1    -529.3048274417      4.27e-04  
    2    -529.3100477470      4.40e-04  Done DIIS. Switching to GDM
 ---------------------------------------
  Cycle       Energy        RMS Gradient
 ---------------------------------------
    1    -529.3100477470      2.32e-02   Normal BFGS step
    2    -529.3072865524      3.88e-02  Line search: overstep
    3    -529.3155864037      4.33e-03   Normal BFGS step
    4    -529.3157925211      7.99e-04   Normal BFGS step
    5    -529.3158249254      8.30e-04   Normal BFGS step
    6    -529.3158337501      1.38e-04   Normal BFGS step
    7    -529.3158345782      1.92e-04   Normal BFGS step
    8    -529.3158347218      4.05e-05   Normal BFGS step
    9    -529.3158347639      8.08e-05   Normal BFGS step
   10    -529.3158347795      2.10e-05   Normal BFGS step
   11    -529.3158347842      1.14e-05   Normal BFGS step
   12    -529.3158347852      9.41e-06   Normal BFGS step
   13    -529.3158347856      7.32e-06   Normal BFGS step
   14    -529.3158347858      5.64e-06   Normal BFGS step
   15    -529.3158347860      2.11e-06   Normal BFGS step
   16    -529.3158347861      6.54e-07   Normal BFGS step
   17    -529.3158347861      2.21e-07   Normal BFGS step
   18    -529.3158347861      1.27e-07   Normal BFGS step
   19    -529.3158347861      6.18e-08  Convergence criterion met
 ---------------------------------------
 SCF time:   CPU 908.24s  wall 61.00s 
<S^2> =          0.754188888
(3)  G-ENP(liq) elect-nuc-pol free energy of system     -529.315834786 a.u.
(4)  G-CDS(liq) cavity-dispersion-solvent structure 
     free energy                                                4.2847 kcal/mol
(6)  G-S(liq) free energy of system                     -529.309006688 a.u.
 SCF   energy in the final basis set =     -529.3090066876
 Total energy in the final basis set =     -529.3090066876
 
 --------------------------------------------------------------
 
                    Orbital Energies (a.u.)
 --------------------------------------------------------------
 
 Alpha MOs
 -- Occupied --
-19.4807 -19.4423 -19.4000 -19.3821 -19.3800 -19.3505 -10.5443 -10.5084
 -1.3749  -1.2736  -1.2449  -1.1940  -1.1741  -1.0164  -0.8466  -0.7546
 -0.7289  -0.7069  -0.6933  -0.6321  -0.6294  -0.6008  -0.5809  -0.5531
 -0.5254  -0.5162  -0.4942  -0.4734  -0.4532  -0.4334  -0.4131  -0.3968
 -- Virtual --
  0.0313   0.0467   0.0524   0.0588   0.0781   0.0888   0.1038   0.1081
  0.1198   0.1337   0.1446   0.1594   0.1737   0.1937   0.1996   0.2202
  0.2311   0.2449   0.2492   0.2552   0.2597   0.2627   0.2870   0.2952
  0.3046   0.3092   0.3163   0.3195   0.3274   0.3332   0.3410   0.3470
  0.3544   0.3553   0.3696   0.3788   0.3903   0.3925   0.4049   0.4102
  0.4267   0.4479   0.4869   0.4971   0.5091   0.5708   0.5811   0.5849
  0.6182   0.6473   0.6733   0.6954   0.7336   0.7570   0.7714   0.7849
  0.8233   0.8504   0.8680   0.8929   0.9020   0.9242   0.9577   1.0057
  1.0353   1.0561   1.0589   1.0900   1.0978   1.1041   1.1142   1.1241
  1.1537   1.1584   1.1751   1.1840   1.2058   1.2106   1.2137   1.2306
  1.2439   1.2475   1.2557   1.2808   1.2833   1.2969   1.3602   1.4120
  1.4239   1.4815   1.4977   1.5169   1.5465   1.5639   1.5929   1.6052
  1.6247   1.6475   1.6732   1.6934   1.7177   1.7494   1.7687   1.8315
  1.8423   1.8514   1.9084   1.9223   1.9759   1.9818   2.0204   2.0789
  2.1006   2.1607   2.2080   2.2473   2.2676   2.3113   2.3507   2.3656
  2.3929   2.4253   2.4379   2.4773   2.4972   2.5499   2.5913   2.6445
  2.6710   2.7059   2.8204   2.8367   2.8820   2.9148   2.9711   3.0314
  3.1299   3.1573   3.2157   3.2777   3.2906   3.3521   3.3822   3.4052
  3.4498   3.4765   3.5203   3.5803   3.6050   3.6109   3.6361   3.6855
  3.6937   3.7311   3.7588   3.7933   3.8218   3.8562   3.8795   3.9129
  3.9340   4.0407   4.0814   4.1102   4.1329   4.2260   4.2742   4.2835
  4.3113   4.3465   4.4211   4.5668   4.6858   4.7265   4.7637   4.8647
  4.9535   5.0453   5.0727   5.1104   5.1183   5.1404   5.1499   5.1533
  5.1651   5.1854   5.1966   5.2126   5.2232   5.2290   5.2373   5.2510
  5.2624   5.2809   5.2911   5.3090   5.3342   5.3755   5.4000   5.4214
  5.4544   5.4976   5.5030   5.5662   5.5896   5.5957   5.6031   5.6465
  5.6592   5.6862   5.6930   5.7386   5.7498   5.8644   5.9493   6.0595
  6.1099   6.1249   6.2193   6.3536   6.4497   6.5130   6.5587   6.6367
  6.7281   6.7923   6.8704   6.9181   6.9317   6.9659   6.9918   7.0227
  7.0363   7.0743   7.0912   7.1042   7.1233   7.1829   7.2101   7.2660
  7.2685   7.2858   7.3103   7.3249   7.3699   7.3881   7.4080   7.4235
  7.4558   7.5210   7.5457   7.6044   7.6305   7.6769   7.7374   7.7968
  7.8398   7.8635   7.8890   7.9270   8.0640   8.1193  24.8299  25.1272
 50.4439  50.4982  50.5807  50.5978  50.6265  50.7303
 
 Beta MOs
 -- Occupied --
-19.4699 -19.4235 -19.4000 -19.3818 -19.3800 -19.3503 -10.5447 -10.5083
 -1.3505  -1.2715  -1.2430  -1.1937  -1.1738  -0.9830  -0.8391  -0.7540
 -0.7218  -0.7003  -0.6889  -0.6137  -0.6010  -0.5856  -0.5632  -0.5381
 -0.5214  -0.5127  -0.4872  -0.4710  -0.4520  -0.4177  -0.3931
 -- Virtual --
 -0.0457   0.0319   0.0470   0.0550   0.0610   0.0787   0.0893   0.1041
  0.1090   0.1204   0.1358   0.1460   0.1602   0.1774   0.1953   0.2035
  0.2229   0.2330   0.2471   0.2530   0.2563   0.2610   0.2674   0.2876
  0.2958   0.3053   0.3096   0.3179   0.3236   0.3293   0.3337   0.3417
  0.3479   0.3558   0.3567   0.3708   0.3817   0.3908   0.3955   0.4066
  0.4118   0.4272   0.4484   0.4873   0.4978   0.5100   0.5715   0.5818
  0.5852   0.6186   0.6478   0.6736   0.6956   0.7342   0.7580   0.7731
  0.7854   0.8244   0.8522   0.8688   0.8933   0.9032   0.9264   0.9585
  1.0076   1.0423   1.0577   1.0638   1.0905   1.1022   1.1059   1.1152
  1.1280   1.1559   1.1742   1.1793   1.1930   1.2090   1.2129   1.2185
  1.2362   1.2494   1.2548   1.2607   1.2833   1.2868   1.3017   1.3638
  1.4172   1.4277   1.4823   1.5067   1.5209   1.5517   1.5710   1.5984
  1.6133   1.6312   1.6547   1.6860   1.6965   1.7205   1.7538   1.7808
  1.8354   1.8478   1.8544   1.9126   1.9287   1.9809   1.9875   2.0241
  2.0802   2.1076   2.1648   2.2136   2.2567   2.2757   2.3189   2.3563
  2.3692   2.3931   2.4265   2.4396   2.4816   2.4990   2.5502   2.5957
  2.6453   2.6760   2.7129   2.8210   2.8375   2.8823   2.9163   2.9713
  3.0325   3.1303   3.1571   3.2163   3.2779   3.2913   3.3522   3.3825
  3.4054   3.4499   3.4770   3.5205   3.5810   3.6053   3.6113   3.6362
  3.6859   3.6940   3.7319   3.7591   3.7933   3.8219   3.8561   3.8792
  3.9134   3.9340   4.0411   4.0814   4.1109   4.1329   4.2261   4.2748
  4.2840   4.3114   4.3466   4.4212   4.6026   4.7061   4.7305   4.7879
  4.8770   4.9684   5.1110   5.1155   5.1238   5.1464   5.1602   5.1640
  5.1644   5.1848   5.1935   5.2035   5.2275   5.2335   5.2425   5.2542
  5.2738   5.2795   5.2893   5.2958   5.3198   5.3367   5.3836   5.4122
  5.4377   5.4555   5.5034   5.5053   5.5682   5.5906   5.6004   5.6035
  5.6534   5.6603   5.6943   5.6992   5.7405   5.7670   5.8691   5.9528
  6.0602   6.1111   6.1263   6.2243   6.3562   6.4548   6.5534   6.5649
  6.6475   6.7298   6.8674   6.8776   6.9271   6.9736   6.9960   7.0182
  7.0314   7.0528   7.0876   7.1043   7.1286   7.1454   7.1953   7.2271
  7.2684   7.2739   7.2914   7.3151   7.3293   7.3784   7.4079   7.4239
  7.4429   7.4628   7.5215   7.5501   7.6064   7.6394   7.6832   7.7382
  7.7980   7.8444   7.8640   7.8914   7.9298   8.0767   8.1384  24.8296
 25.1273  50.4568  50.5075  50.5811  50.5980  50.6267  50.7305
 --------------------------------------------------------------
 
          Ground-State Mulliken Net Atomic Charges

     Atom                 Charge (a.u.)    Spin (a.u.)
  --------------------------------------------------------
      1 C                     0.339661      -0.001924
      2 O                    -0.438657       0.006225
      3 H                     0.344071      -0.004896
      4 C                     0.258261      -0.006578
      5 O                    -0.372493       0.008902
      6 O                    -0.400989      -0.000605
      7 O                    -0.293250       0.000006
      8 H                     0.344511      -0.000024
      9 O                    -0.007965       0.329492
     10 O                    -0.137299       0.669061
     11 H                     0.364149       0.000342
  --------------------------------------------------------
  Sum of atomic charges =     0.000000
  Sum of spin   charges =     1.000000

 -----------------------------------------------------------------
                    Cartesian Multipole Moments
 -----------------------------------------------------------------
    Charge (ESU x 10^10)
                 0.0000
    Dipole Moment (Debye)
         X      -5.6794      Y       2.9233      Z      -1.7748
       Tot       6.6296
    Quadrupole Moments (Debye-Ang)
        XX     -43.6302     XY       3.2286     YY     -42.1354
        XZ       0.0069     YZ       0.7671     ZZ     -50.8000
    Octopole Moments (Debye-Ang^2)
       XXX      38.4813    XXY     -12.8122    XYY       9.0282
       YYY      -2.2054    XXZ     -32.2750    XYZ       1.7418
       YYZ     -31.6686    XZZ      33.6579    YZZ      -7.9783
       ZZZ     -95.5162
    Hexadecapole Moments (Debye-Ang^3)
      XXXX    -477.9764   XXXY      39.7176   XXYY    -110.3750
      XYYY      20.7282   YYYY    -240.6270   XXXZ      90.1950
      XXYZ      -6.5314   XYYZ      31.7760   YYYZ     -22.3559
      XXZZ    -161.9200   XYZZ      16.3048   YYZZ    -103.6151
      XZZZ     115.3612   YZZZ     -30.9286   ZZZZ    -356.6134
 -----------------------------------------------------------------
 Calculating analytic gradient of the SCF energy
 Gradient of CDS energy
            1           2           3           4           5           6
    1   0.0026867  -0.0008738  -0.0003454  -0.0031438   0.0007013   0.0022285
    2   0.0024457   0.0009005   0.0002253  -0.0017100   0.0041251  -0.0025289
    3  -0.0006013  -0.0002270  -0.0000496  -0.0029786   0.0010130   0.0020478
            7           8           9          10          11
    1  -0.0008349  -0.0000073  -0.0001682   0.0000694  -0.0003125
    2  -0.0034247   0.0003269   0.0000475  -0.0001007  -0.0003067
    3   0.0008668  -0.0001339  -0.0000042   0.0001744  -0.0001074
 Gradient of SCF Energy
            1           2           3           4           5           6
    1   0.0009469  -0.0005470  -0.0073000  -0.0033701   0.0221287   0.0045933
    2   0.0005434   0.0003873   0.0114918  -0.0007344  -0.0037147  -0.0105655
    3   0.0019486  -0.0009466   0.0098486  -0.0027768   0.0047987  -0.0134778
            7           8           9          10          11
    1   0.0195503  -0.0163302   0.0030893  -0.0020564  -0.0207047
    2  -0.0106381   0.0138166  -0.0015996   0.0027175  -0.0017042
    3   0.0035834  -0.0028791   0.0025355   0.0019006  -0.0045351
 Max gradient component =       2.213E-02
 RMS gradient           =       8.892E-03
 Computing fast CPCM-SWIG gradient
 Updating gradient with PCM contributions...
 -- total gradient after adding PCM contribution --
---------------------------------------------------
  Atom         X              Y              Z     
---------------------------------------------------
   1      -0.000115      -0.000217      -0.000101
   2       0.000124      -0.000396      -0.000233
   3       0.000338      -0.000888       0.001425
   4      -0.000778      -0.000082      -0.000468
   5      -0.000178      -0.000027       0.000655
   6      -0.000235      -0.000316       0.000747
   7       0.000245       0.000228       0.000210
   8       0.000004       0.000006       0.000097
   9       0.000616       0.001267      -0.000149
  10      -0.000456       0.000397      -0.001179
  11       0.000435       0.000030      -0.001004
---------------------------------------------------
 Number of fixed atoms: 0
 Gradient time:  CPU 118.47 s  wall 9.72 s
rPathMan2.  file_steps = 952
 IRC --- Status = 4.  Checking bisector search.
 IRC --- Bisector search finished successfully.
 ------------------------------------------------------------------------
 Reaction path following.  The coordinates are cartesian              
 Step  11 E=    -529.309007 |G|=  0.003219 S_lin= 0.9408 S_tot= 0.9945
 ------------------------------------------------------------------------
  IRC -- convergence criterion reached.
 ----------------------------------------------------------------
             Standard Nuclear Orientation (Angstroms)
    I     Atom           X                Y                Z
 ----------------------------------------------------------------
    1      C       0.6072590000     0.0995536000     0.2712973000
    2      O       1.4192511000    -0.7394526000     0.5581471000
    3      H      -2.1260617000     1.1525979000     0.6669314000
    4      C      -0.8871969000    -0.2005200000     0.1817492000
    5      O      -1.1409735000    -1.4918036000     0.0903525000
    6      O      -1.6789620000     0.6859211000    -0.2986864000
    7      O       0.9279556000     1.3610303000     0.0358978000
    8      H       0.1400538000     1.8737466000    -0.2114864000
    9      O      -1.2145785000     0.1862517000     2.0046042000
   10      O      -2.1040941000     1.1019169000     1.9304935000
   11      H      -2.0845900000    -1.6251677000    -0.0954806000
 ----------------------------------------------------------------
 Nuclear Repulsion Energy =         412.38009275 hartrees
 There are       32 alpha and       31 beta electrons
 Here is where we should summarize the reaction path
 Total job time:  6117.78s(wall), 89376.22s(cpu) 
 Tue Feb 13 16:17:25 2024

        *************************************************************
        *                                                           *
        *  Thank you very much for using Q-Chem.  Have a nice day.  *
        *                                                           *
        *************************************************************


