
Running Job 1 of 1 Q_in.in
qchem Q_in.in_257576.0 /scratch/ari.fischer/qChem1854164.hpc-mn1/qchem257576/ 0
/usr/local/qchem-5.4.1/exe/qcprog.exe_s Q_in.in_257576.0 /scratch/ari.fischer/qChem1854164.hpc-mn1/qchem257576/
                  Welcome to Q-Chem
     A Quantum Leap Into The Future Of Chemistry


 Q-Chem 5.4, Q-Chem, Inc., Pleasanton, CA (2021)

 License issued to: Nanyang Technological University (site)

 E. Epifanovsky,  A. T. B. Gilbert,  Xintian Feng,  Joonho Lee,  Yuezhi Mao,  
 N. Mardirossian,  P. Pokhilko,  A. White,  M. Wormit,  M. P. Coons,  
 A. L. Dempwolff,  Zhengting Gan,  D. Hait,  P. R. Horn,  L. D. Jacobson,  
 I. Kaliman,  J. Kussmann,  A. W. Lange,  Ka Un Lao,  D. S. Levine,  Jie Liu,  
 S. C. McKenzie,  A. F. Morrison,  K. Nanda,  F. Plasser,  D. R. Rehn,  
 M. L. Vidal,  Zhi-Qiang You,  Ying Zhu,  B. Alam,  B. Albrecht,  
 A. Aldossary,  E. Alguire,  J. H. Andersen,  D. Barton,  K. Begam,  A. Behn,  
 Y. A. Bernard,  E. J. Berquist,  H. Burton,  A. Carreras,  K. Carter-Fenk,  
 R. Chakraborty,  A. D. Chien,  K. D. Closser,  V. Cofer-Shabica,  
 S. Dasgupta,  Jia Deng,  M. de Wergifosse,  M. Diedenhofen,  Hainam Do,  
 S. Ehlert,  Po-Tung Fang,  S. Fatehi,  Qingguo Feng,  T. Friedhoff,  
 J. Gayvert,  Qinghui Ge,  G. Gidofalvi,  M. Goldey,  J. Gomes,  
 C. Gonzalez-Espinoza,  S. Gulania,  A. Gunina,  M. W. D. Hanson-Heine,  
 P. H. P. Harbach,  A. W. Hauser,  M. F. Herbst,  M. Hernandez Vera,  
 M. Hodecker,  Z. C. Holden,  S. Houck,  Xunkun Huang,  Kerwin Hui,  
 B. C. Huynh,  M. Ivanov,  Hyunjun Ji,  Hanjie Jiang,  B. Kaduk,  S. Kaehler,  
 K. Khistyaev,  Jaehoon Kim,  P. Klunzinger,  Z. Koczor-Benda,  
 Joong Hoon Koh,  D. Kosenkov,  L. Koulias,  T. Kowalczyk,  C. M. Krauter,  
 K. Kue,  A. Kunitsa,  T. Kus,  A. Landau,  K. V. Lawler,  D. Lefrancois,  
 S. Lehtola,  Rain Li,  Yi-Pei Li,  Jiashu Liang,  M. Liebenthal,  
 Hung-Hsuan Lin,  You-Sheng Lin,  Fenglai Liu,  Kuan-Yu Liu,  
 M. Loipersberger,  A. Luenser,  A. Manjanath,  P. Manohar,  E. Mansoor,  
 S. F. Manzer,  Shan-Ping Mao,  A. V. Marenich,  T. Markovich,  S. Mason,  
 S. A. Maurer,  P. F. McLaughlin,  M. F. S. J. Menger,  J.-M. Mewes,  
 S. A. Mewes,  P. Morgante,  J. W. Mullinax,  K. J. Oosterbaan,  G. Paran,  
 Alexander C. Paul,  Suranjan K. Paul,  F. Pavosevic,  Zheng Pei,  S. Prager,  
 E. I. Proynov,  E. Ramos,  B. Rana,  A. E. Rask,  A. Rettig,  R. M. Richard,  
 F. Rob,  E. Rossomme,  T. Scheele,  M. Scheurer,  M. Schneider,  
 N. Sergueev,  S. M. Sharada,  W. Skomorowski,  D. W. Small,  C. J. Stein,  
 Yu-Chuan Su,  E. J. Sundstrom,  Zhen Tao,  J. Thirman,  T. Tsuchimochi,  
 N. M. Tubman,  S. P. Veccham,  O. Vydrov,  J. Wenzel,  J. Witte,  A. Yamada,  
 Kun Yao,  S. Yeganeh,  S. R. Yost,  A. Zech,  Igor Ying Zhang,  Xing Zhang,  
 Yu Zhang,  D. Zuev,  A. Aspuru-Guzik,  A. T. Bell,  N. A. Besley,  
 K. B. Bravaya,  B. R. Brooks,  D. Casanova,  Jeng-Da Chai,  S. Coriani,  
 C. J. Cramer,  A. E. DePrince, III,  R. A. DiStasio Jr.,  A. Dreuw,  
 B. D. Dunietz,  T. R. Furlani,  W. A. Goddard III,  S. Grimme,  
 S. Hammes-Schiffer,  T. Head-Gordon,  W. J. Hehre,  Chao-Ping Hsu,  
 T.-C. Jagau,  Yousung Jung,  A. Klamt,  Jing Kong,  D. S. Lambrecht,  
 WanZhen Liang,  N. J. Mayhall,  C. W. McCurdy,  J. B. Neaton,  
 C. Ochsenfeld,  J. A. Parkhill,  R. Peverati,  V. A. Rassolov,  Yihan Shao,  
 L. V. Slipchenko,  T. Stauch,  R. P. Steele,  J. E. Subotnik,  
 A. J. W. Thom,  A. Tkatchenko,  D. G. Truhlar,  T. Van Voorhis,  
 T. A. Wesolowski,  K. B. Whaley,  H. L. Woodcock III,  P. M. Zimmerman,  
 S. Faraji,  P. M. W. Gill,  M. Head-Gordon,  J. M. Herbert,  A. I. Krylov

 Additional authors for Version 5.4.1: 
 S. Kotaru,  Shaozhi Li,  Xiangyuan Li,  F. Matz,  A. Molle,  Haisheng Ren,  
 Yingli Su,  Hung-Yi Tsai,  C. Utku,  Fang Wang

 Contributors to earlier versions of Q-Chem not listed above: 
 R. D. Adamson,  B. Austin,  R. Baer,  J. Baker,  G. J. O. Beran,  
 K. Brandhorst,  S. T. Brown,  E. F. C. Byrd,  A. K. Chakraborty,  
 G. K. L. Chan,  Chun-Min Chang,  Yunqing Chen,  C.-L. Cheng,  
 Siu Hung Chien,  D. M. Chipman,  D. L. Crittenden,  H. Dachsel,  
 R. J. Doerksen,  A. D. Dutoi,  R. G. Edgar,  J. Fosso-Tande,  
 L. Fusti-Molnar,  D. Ghosh,  A. Ghysels,  A. Golubeva-Zadorozhnaya,  
 J. Gonthier,  M. S. Gordon,  S. R. Gwaltney,  G. Hawkins,  J. E. Herr,  
 A. Heyden,  S. Hirata,  E. G. Hohenstein,  G. Kedziora,  F. J. Keil,  
 C. Kelley,  Jihan Kim,  R. A. King,  R. Z. Khaliullin,  P. P. Korambath,  
 W. Kurlancheek,  A. Laurent,  A. M. Lee,  M. S. Lee,  S. V. Levchenko,  
 Ching Yeh Lin,  D. Liotard,  E. Livshits,  R. C. Lochan,  I. Lotan,  
 L. A. Martinez-Martinez,  P. E. Maslen,  N. Nair,  D. P. O'Neill,  
 D. Neuhauser,  E. Neuscamman,  C. M. Oana,  R. Olivares-Amaya,  R. Olson,  
 T. M. Perrine,  B. Peters,  P. A. Pieniazek,  A. Prociuk,  Y. M. Rhee,  
 J. Ritchie,  M. A. Rohrdanz,  E. Rosta,  N. J. Russ,  H. F. Schaefer III,  
 M. W. Schmidt,  N. E. Schultz,  S. Sharma,  N. Shenvi,  C. D. Sherrill,  
 A. C. Simmonett,  A. Sodt,  T. Stein,  D. Stuck,  K. S. Thanthiriwatte,  
 V. Vanovschi,  L. Vogt,  Tao Wang,  A. Warshel,  M. A. Watson,  
 C. F. Williams,  Q. Wu,  X. Xu,  Jun Yang,  W. Zhang,  Yan Zhao

 Please cite Q-Chem as follows:
 Y. Shao et al., Mol. Phys. 113, 184-215 (2015)
 DOI: 10.1080/00268976.2014.952696

 Q-Chem 5.4.1 for Intel X86 EM64T Linux

 Parts of Q-Chem use Armadillo 9.800.1 (Horizon Scraper).
 http://arma.sourceforge.net/

 Q-Chem begins on Thu Dec  7 15:54:02 2023  

 Host: 
0

     Scratch files written to /scratch/ari.fischer/qChem1854164.hpc-mn1/qchem257576//
 Aug1521 |scratch|qcdevops|jenkins|workspace|build_RNUM 8249   
 Processing $rem in /usr/local/qchem-5.4.1/config/preferences:
 Processing $rem in /home/ari.fischer/.qchemrc:
 Symmetry turned off for PCM/SM12/SMD calculation

 Checking the input file for inconsistencies... 	...done.

--------------------------------------------------------------
User input:
--------------------------------------------------------------
$molecule
0 2
O        -1.7005575682    1.7829465742    0.6678097587
H        -0.9876783031    2.4000545673    0.4231752626
$end

$rem
BASIS = def2-QZVP
JOB_TYPE = SP
METHOD = wB97M-V
SCF_ALGORITHM = DIIS_GDM
MAX_SCF_CYCLES = 400
SCF_CONVERGENCE = 7
THRESH = 12
Solvent_method = SMD
$end
--------------------------------------------------------------
 ----------------------------------------------------------------
             Standard Nuclear Orientation (Angstroms)
    I     Atom           X                Y                Z
 ----------------------------------------------------------------
    1      O      -1.7005575682     1.7829465742     0.6678097587
    2      H      -0.9876783031     2.4000545673     0.4231752626
 ----------------------------------------------------------------
 Nuclear Repulsion Energy =           4.34599147 hartrees
 There are        5 alpha and        4 beta electrons
 Requested basis set is def2-QZVP
 There are 27 shells and 87 basis functions

 Total QAlloc Memory Limit 288000 MB
 Mega-Array Size       188 MB
 MEM_STATIC part       192 MB
 
 Citation of the SMD model:
 Marenich, A.V.; Cramer, C.J.; Truhlar, D.G.
 J. Phys. Chem. B 2009, 113, 6378-6396.
 iSolventCode=           1
 Solvent: water                                                           
 
 vradii
            1           2
    1   1.5200000   1.2000000
 Changing PCM_VDW_RADII to SMD_RADIUS
 Discretize the solute cavity surface with Lebedev spheres
	Using 110 Lebedev grid points for each H atom
	Using 194 Lebedev grid points for other atoms
	Atomic van der Waals radii will be scaled by 1.20
 Remove points where switching function is < 1.0e-08
 Keep 245 surface tesserae and discard 59 interior tesserae
 Molecular Surface Area = 32.768 Angst**2

                       Distance Matrix (Angstroms)
             O (  1)
   H (  2)  0.974097
 
 A cutoff of  1.0D-12 yielded    378 shell pairs
 There are      3998 function pairs (      6114 Cartesian)
 Smallest overlap matrix eigenvalue = 5.08E-04

 Scale SEOQF with 1.000000e-01/1.000000e-01/1.000000e+00

 Standard Electronic Orientation quadrupole field applied
 Nucleus-field energy     =    -0.0000000009 hartrees
 Guess from superposition of atomic densities
 Warning:  Energy on first SCF cycle will be non-variational
 SAD guess density has 9.000000 electrons

 -----------------------------------------------------------------------
  General SCF calculation program by
  Eric Jon Sundstrom, Paul Horn, Yuezhi Mao, Dmitri Zuev, Alec White,
  David Stuck, Shaama M.S., Shane Yost, Joonho Lee, David Small,
  Daniel Levine, Susi Lehtola, Hugh Burton, Evgeny Epifanovsky,
  Bang C. Huynh
 -----------------------------------------------------------------------
 Exchange:     0.1500 Hartree-Fock + 1.0000 wB97M-V + LR-HF
 Correlation:  1.0000 wB97M-V
 Using SG-2 standard quadrature grid
 Nonlocal Correlation:  VV10 with C = 0.0100 and b = 6.00 and scale = 1.00000
 Grid used for NLC:  SG-1 standard quadrature
 
 Citation of the SMD model:
 Marenich, A.V.; Cramer, C.J.; Truhlar, D.G.
 J. Phys. Chem. B 2009, 113, 6378-6396.
 iSolventCode=           1
 Solvent: water                                                           
 
 vradii
            1           2
    1   1.5200000   1.2000000
 using 4 threads for integral computing
 -------------------------------------------------------
 OpenMP Integral computing Module                
 Release: version 1.0, May 2013, Q-Chem Inc. Pittsburgh 
 -------------------------------------------------------
 -------------------------------------------------------
 OpenMP BLAS3 based DFT computing Module                
 Release: version 1.0, May 2013, Q-Chem Inc. Pittsburgh 
 -------------------------------------------------------
 A unrestricted SCF calculation will be
 performed using DIIS, GDM
 SCF converges when RMS gradient is below 1.0e-07
 ---------------------------------------
  Cycle       Energy         DIIS error
 ---------------------------------------
    1     -75.5189240881      1.14e-02  
    2     -75.7433559532      1.86e-03  Done DIIS. Switching to GDM
 ---------------------------------------
  Cycle       Energy        RMS Gradient
 ---------------------------------------
    1     -75.7433559532      5.40e-02   Normal BFGS step
    2     -75.7513345159      3.21e-02   Normal BFGS step
    3     -75.7539878457      6.19e-03   Normal BFGS step
    4     -75.7541138781      1.67e-03   Normal BFGS step
    5     -75.7541251964      4.48e-04   Normal BFGS step
    6     -75.7541260957      1.21e-04   Normal BFGS step
    7     -75.7541261432      4.64e-05   Normal BFGS step
    8     -75.7541261487      6.37e-06   Normal BFGS step
    9     -75.7541261489      6.37e-06   Normal BFGS step
   10     -75.7541261490      6.37e-06   Normal BFGS step
   11     -75.7541261491      6.37e-06   Normal BFGS step
   12     -75.7541261494      6.37e-06   Normal BFGS step
   13     -75.7541261500      1.32e-05   Normal BFGS step
   14     -75.7541261514      2.59e-05   Normal BFGS step
   15     -75.7541261543      4.47e-05   Normal BFGS step
   16     -75.7541261608      7.15e-05   Normal BFGS step
   17     -75.7541261755      1.08e-04   Normal BFGS step
   18     -75.7541262101      1.56e-04   Normal BFGS step
   19     -75.7541262853      2.18e-04   Normal BFGS step
   20     -75.7541263564      2.18e-04   Normal BFGS step
   21     -75.7541265055      9.85e-05   Normal BFGS step
   22     -75.7541265461      2.07e-05   Normal BFGS step
   23     -75.7541265469      2.00e-05   Normal BFGS step
   24     -75.7541265491      6.99e-06   Normal BFGS step
   25     -75.7541265493      2.15e-06   Normal BFGS step
   26     -75.7541265493      1.27e-06   Normal BFGS step
   27     -75.7541265493      6.64e-07   Normal BFGS step
   28     -75.7541265493      2.71e-07   Normal BFGS step
   29     -75.7541265493      3.84e-08  Convergence criterion met
 ---------------------------------------
 SCF time:   CPU 78.60s  wall 21.00s 
<S^2> =          0.752662432
(3)  G-ENP(liq) elect-nuc-pol free energy of system      -75.754126549 a.u.
(4)  G-CDS(liq) cavity-dispersion-solvent structure 
     free energy                                                0.7386 kcal/mol
(6)  G-S(liq) free energy of system                      -75.752949562 a.u.
 SCF   energy in the final basis set =      -75.7529495618
 Total energy in the final basis set =      -75.7529495618
 
 --------------------------------------------------------------
 
                    Orbital Energies (a.u.)
 --------------------------------------------------------------
 
 Alpha MOs
 -- Occupied --
-19.3985  -1.1398  -0.5887  -0.5186  -0.4627
 -- Virtual --
  0.0910   0.2956   0.3127   0.3201   0.3693   0.6247   0.6268   0.6313
  0.9752   1.0537   1.0859   1.0885   1.3322   1.3542   1.3667   1.3737
  1.4046   1.8784   2.0861   2.0869   2.2444   2.2526   2.5102   2.6501
  2.6635   3.0189   3.1590   3.1592   3.1778   3.5017   3.5019   3.7786
  3.7791   3.8119   3.8522   4.2722   4.3368   4.3444   4.3821   5.1001
  5.1545   5.3390   5.8615   5.8615   6.5192   6.5194   7.1160   7.1385
  7.1525   7.2939   7.7359   7.7491   7.8448   7.8454   8.3804   8.5589
  8.5837   8.8918   8.8920   9.0697   9.0699  10.1279  10.1298  10.3724
 10.7746  10.8307  10.9430  10.9435  11.0478  11.1234  11.1266  11.6783
 11.7472  11.9688  12.0030  12.0091  13.6783  13.7356  13.7953  16.4483
 47.8795 255.2134
 
 Beta MOs
 -- Occupied --
-19.3742  -1.0685  -0.5590  -0.4306
 -- Virtual --
 -0.0668   0.0943   0.2995   0.3275   0.3375   0.3791   0.6282   0.6304
  0.6368   0.9737   1.0659   1.1136   1.1169   1.3603   1.3646   1.3796
  1.4175   1.4347   1.8935   2.0910   2.0913   2.2490   2.2523   2.5152
  2.6670   2.6681   3.0290   3.2061   3.2091   3.2227   3.5371   3.5412
  3.8460   3.8574   3.8696   3.8727   4.3002   4.3913   4.3997   4.4066
  5.1805   5.2002   5.3612   5.8645   5.8646   6.5382   6.5390   7.1420
  7.1729   7.1764   7.3098   7.7630   7.7661   7.8426   7.8436   8.4102
  8.5929   8.5985   8.9940   8.9949   9.1448   9.1480  10.1900  10.1904
 10.4210  10.8589  10.8719  11.0704  11.0817  11.1316  11.2151  11.2177
 11.7874  11.8028  12.0403  12.1430  12.1536  13.7859  13.8309  13.8517
 16.5302  47.9193 255.2272
 --------------------------------------------------------------
 
          Ground-State Mulliken Net Atomic Charges

     Atom                 Charge (a.u.)    Spin (a.u.)
  --------------------------------------------------------
      1 O                    -0.315080       1.029141
      2 H                     0.315080      -0.029141
  --------------------------------------------------------
  Sum of atomic charges =    -0.000000
  Sum of spin   charges =     1.000000

 -----------------------------------------------------------------
                    Cartesian Multipole Moments
 -----------------------------------------------------------------
    Charge (ESU x 10^10)
                -0.0000
    Dipole Moment (Debye)
         X       1.5504      Y       1.3422      Z      -0.5320
       Tot       2.1186
    Quadrupole Moments (Debye-Ang)
        XX     -10.6289     XY       1.8403     YY      -0.9972
        XZ       1.7099     YZ      -0.3387     ZZ      -6.2036
    Octopole Moments (Debye-Ang^2)
       XXX      40.8986    XXY     -19.1385    XYY      11.8804
       YYY     -18.2217    XXZ      -8.0568    XYZ       2.6648
       YYZ      -3.5124    XZZ      10.8086    YZZ     -10.9515
       ZZZ     -11.5212
    Hexadecapole Moments (Debye-Ang^3)
      XXXX    -130.2590   XXXY      75.8000   XXYY     -54.2636
      XYYY      55.2757   YYYY     -86.7909   XXXZ      29.0294
      XXYZ     -14.6057   XYYZ      11.0526   YYYZ     -18.5972
      XXZZ     -23.2386   XYZZ      19.3871   YYZZ     -23.8657
      XZZZ      19.7675   YZZZ     -20.5762   ZZZZ     -19.1746
 -----------------------------------------------------------------
 Total job time:  21.17s(wall), 80.24s(cpu) 
 Thu Dec  7 15:54:23 2023

        *************************************************************
        *                                                           *
        *  Thank you very much for using Q-Chem.  Have a nice day.  *
        *                                                           *
        *************************************************************


