
Running Job 1 of 1 Q_in.in
qchem Q_in.in_61524.0 /scratch/ari.fischer/qChem1913933.hpc-mn1/qchem61524/ 0
/usr/local/qchem-5.4.1/exe/qcprog.exe_s Q_in.in_61524.0 /scratch/ari.fischer/qChem1913933.hpc-mn1/qchem61524/
                  Welcome to Q-Chem
     A Quantum Leap Into The Future Of Chemistry


 Q-Chem 5.4, Q-Chem, Inc., Pleasanton, CA (2021)

 License issued to: Nanyang Technological University (site)

 E. Epifanovsky,  A. T. B. Gilbert,  Xintian Feng,  Joonho Lee,  Yuezhi Mao,  
 N. Mardirossian,  P. Pokhilko,  A. White,  M. Wormit,  M. P. Coons,  
 A. L. Dempwolff,  Zhengting Gan,  D. Hait,  P. R. Horn,  L. D. Jacobson,  
 I. Kaliman,  J. Kussmann,  A. W. Lange,  Ka Un Lao,  D. S. Levine,  Jie Liu,  
 S. C. McKenzie,  A. F. Morrison,  K. Nanda,  F. Plasser,  D. R. Rehn,  
 M. L. Vidal,  Zhi-Qiang You,  Ying Zhu,  B. Alam,  B. Albrecht,  
 A. Aldossary,  E. Alguire,  J. H. Andersen,  D. Barton,  K. Begam,  A. Behn,  
 Y. A. Bernard,  E. J. Berquist,  H. Burton,  A. Carreras,  K. Carter-Fenk,  
 R. Chakraborty,  A. D. Chien,  K. D. Closser,  V. Cofer-Shabica,  
 S. Dasgupta,  Jia Deng,  M. de Wergifosse,  M. Diedenhofen,  Hainam Do,  
 S. Ehlert,  Po-Tung Fang,  S. Fatehi,  Qingguo Feng,  T. Friedhoff,  
 J. Gayvert,  Qinghui Ge,  G. Gidofalvi,  M. Goldey,  J. Gomes,  
 C. Gonzalez-Espinoza,  S. Gulania,  A. Gunina,  M. W. D. Hanson-Heine,  
 P. H. P. Harbach,  A. W. Hauser,  M. F. Herbst,  M. Hernandez Vera,  
 M. Hodecker,  Z. C. Holden,  S. Houck,  Xunkun Huang,  Kerwin Hui,  
 B. C. Huynh,  M. Ivanov,  Hyunjun Ji,  Hanjie Jiang,  B. Kaduk,  S. Kaehler,  
 K. Khistyaev,  Jaehoon Kim,  P. Klunzinger,  Z. Koczor-Benda,  
 Joong Hoon Koh,  D. Kosenkov,  L. Koulias,  T. Kowalczyk,  C. M. Krauter,  
 K. Kue,  A. Kunitsa,  T. Kus,  A. Landau,  K. V. Lawler,  D. Lefrancois,  
 S. Lehtola,  Rain Li,  Yi-Pei Li,  Jiashu Liang,  M. Liebenthal,  
 Hung-Hsuan Lin,  You-Sheng Lin,  Fenglai Liu,  Kuan-Yu Liu,  
 M. Loipersberger,  A. Luenser,  A. Manjanath,  P. Manohar,  E. Mansoor,  
 S. F. Manzer,  Shan-Ping Mao,  A. V. Marenich,  T. Markovich,  S. Mason,  
 S. A. Maurer,  P. F. McLaughlin,  M. F. S. J. Menger,  J.-M. Mewes,  
 S. A. Mewes,  P. Morgante,  J. W. Mullinax,  K. J. Oosterbaan,  G. Paran,  
 Alexander C. Paul,  Suranjan K. Paul,  F. Pavosevic,  Zheng Pei,  S. Prager,  
 E. I. Proynov,  E. Ramos,  B. Rana,  A. E. Rask,  A. Rettig,  R. M. Richard,  
 F. Rob,  E. Rossomme,  T. Scheele,  M. Scheurer,  M. Schneider,  
 N. Sergueev,  S. M. Sharada,  W. Skomorowski,  D. W. Small,  C. J. Stein,  
 Yu-Chuan Su,  E. J. Sundstrom,  Zhen Tao,  J. Thirman,  T. Tsuchimochi,  
 N. M. Tubman,  S. P. Veccham,  O. Vydrov,  J. Wenzel,  J. Witte,  A. Yamada,  
 Kun Yao,  S. Yeganeh,  S. R. Yost,  A. Zech,  Igor Ying Zhang,  Xing Zhang,  
 Yu Zhang,  D. Zuev,  A. Aspuru-Guzik,  A. T. Bell,  N. A. Besley,  
 K. B. Bravaya,  B. R. Brooks,  D. Casanova,  Jeng-Da Chai,  S. Coriani,  
 C. J. Cramer,  A. E. DePrince, III,  R. A. DiStasio Jr.,  A. Dreuw,  
 B. D. Dunietz,  T. R. Furlani,  W. A. Goddard III,  S. Grimme,  
 S. Hammes-Schiffer,  T. Head-Gordon,  W. J. Hehre,  Chao-Ping Hsu,  
 T.-C. Jagau,  Yousung Jung,  A. Klamt,  Jing Kong,  D. S. Lambrecht,  
 WanZhen Liang,  N. J. Mayhall,  C. W. McCurdy,  J. B. Neaton,  
 C. Ochsenfeld,  J. A. Parkhill,  R. Peverati,  V. A. Rassolov,  Yihan Shao,  
 L. V. Slipchenko,  T. Stauch,  R. P. Steele,  J. E. Subotnik,  
 A. J. W. Thom,  A. Tkatchenko,  D. G. Truhlar,  T. Van Voorhis,  
 T. A. Wesolowski,  K. B. Whaley,  H. L. Woodcock III,  P. M. Zimmerman,  
 S. Faraji,  P. M. W. Gill,  M. Head-Gordon,  J. M. Herbert,  A. I. Krylov

 Additional authors for Version 5.4.1: 
 S. Kotaru,  Shaozhi Li,  Xiangyuan Li,  F. Matz,  A. Molle,  Haisheng Ren,  
 Yingli Su,  Hung-Yi Tsai,  C. Utku,  Fang Wang

 Contributors to earlier versions of Q-Chem not listed above: 
 R. D. Adamson,  B. Austin,  R. Baer,  J. Baker,  G. J. O. Beran,  
 K. Brandhorst,  S. T. Brown,  E. F. C. Byrd,  A. K. Chakraborty,  
 G. K. L. Chan,  Chun-Min Chang,  Yunqing Chen,  C.-L. Cheng,  
 Siu Hung Chien,  D. M. Chipman,  D. L. Crittenden,  H. Dachsel,  
 R. J. Doerksen,  A. D. Dutoi,  R. G. Edgar,  J. Fosso-Tande,  
 L. Fusti-Molnar,  D. Ghosh,  A. Ghysels,  A. Golubeva-Zadorozhnaya,  
 J. Gonthier,  M. S. Gordon,  S. R. Gwaltney,  G. Hawkins,  J. E. Herr,  
 A. Heyden,  S. Hirata,  E. G. Hohenstein,  G. Kedziora,  F. J. Keil,  
 C. Kelley,  Jihan Kim,  R. A. King,  R. Z. Khaliullin,  P. P. Korambath,  
 W. Kurlancheek,  A. Laurent,  A. M. Lee,  M. S. Lee,  S. V. Levchenko,  
 Ching Yeh Lin,  D. Liotard,  E. Livshits,  R. C. Lochan,  I. Lotan,  
 L. A. Martinez-Martinez,  P. E. Maslen,  N. Nair,  D. P. O'Neill,  
 D. Neuhauser,  E. Neuscamman,  C. M. Oana,  R. Olivares-Amaya,  R. Olson,  
 T. M. Perrine,  B. Peters,  P. A. Pieniazek,  A. Prociuk,  Y. M. Rhee,  
 J. Ritchie,  M. A. Rohrdanz,  E. Rosta,  N. J. Russ,  H. F. Schaefer III,  
 M. W. Schmidt,  N. E. Schultz,  S. Sharma,  N. Shenvi,  C. D. Sherrill,  
 A. C. Simmonett,  A. Sodt,  T. Stein,  D. Stuck,  K. S. Thanthiriwatte,  
 V. Vanovschi,  L. Vogt,  Tao Wang,  A. Warshel,  M. A. Watson,  
 C. F. Williams,  Q. Wu,  X. Xu,  Jun Yang,  W. Zhang,  Yan Zhao

 Please cite Q-Chem as follows:
 Y. Shao et al., Mol. Phys. 113, 184-215 (2015)
 DOI: 10.1080/00268976.2014.952696

 Q-Chem 5.4.1 for Intel X86 EM64T Linux

 Parts of Q-Chem use Armadillo 9.800.1 (Horizon Scraper).
 http://arma.sourceforge.net/

 Q-Chem begins on Mon Feb  5 17:25:00 2024  

 Host: 
0

     Scratch files written to /scratch/ari.fischer/qChem1913933.hpc-mn1/qchem61524//
 Aug1521 |scratch|qcdevops|jenkins|workspace|build_RNUM 8249   
 Processing $rem in /usr/local/qchem-5.4.1/config/preferences:
 Processing $rem in /home/ari.fischer/.qchemrc:
 Symmetry turned off for PCM/SM12/SMD calculation

 Checking the input file for inconsistencies... 	...done.

--------------------------------------------------------------
User input:
--------------------------------------------------------------
$molecule
0 2
O        -0.7265937369    0.9841477964    0.4577690803
C        -0.2402478792   -0.2480819922    0.2787714565
O        -1.0332743381   -1.2873550349    0.0253175921
C         1.1606206866   -0.4586142849    0.3412688524
O         1.9284314593    0.6167230263    0.6653942023
O         1.7012960441   -1.5446342061    0.1197841305
H        -1.6551020347    0.9778739983    0.7336224659
H        -1.9370777822   -1.0038659970   -0.1746886398
H         1.3743443810    1.3906540943    0.8401361600
$end

$rem
BASIS = 6-31G(d)
JOB_TYPE = SP
METHOD = wB97M-V
SCF_ALGORITHM = DIIS_GDM
MAX_SCF_CYCLES = 400
SCF_CONVERGENCE = 7
THRESH = 12
Solvent_method = SMD
$end
--------------------------------------------------------------
 ----------------------------------------------------------------
             Standard Nuclear Orientation (Angstroms)
    I     Atom           X                Y                Z
 ----------------------------------------------------------------
    1      O      -0.7265937369     0.9841477964     0.4577690803
    2      C      -0.2402478792    -0.2480819922     0.2787714565
    3      O      -1.0332743381    -1.2873550349     0.0253175921
    4      C       1.1606206866    -0.4586142849     0.3412688524
    5      O       1.9284314593     0.6167230263     0.6653942023
    6      O       1.7012960441    -1.5446342061     0.1197841305
    7      H      -1.6551020347     0.9778739983     0.7336224659
    8      H      -1.9370777822    -1.0038659970    -0.1746886398
    9      H       1.3743443810     1.3906540943     0.8401361600
 ----------------------------------------------------------------
 Nuclear Repulsion Energy =         241.63915279 hartrees
 There are       24 alpha and       23 beta electrons
 Requested basis set is 6-31G(d)
 There are 30 shells and 96 basis functions

 Total QAlloc Memory Limit 288000 MB
 Mega-Array Size       188 MB
 MEM_STATIC part       192 MB
 
 Citation of the SMD model:
 Marenich, A.V.; Cramer, C.J.; Truhlar, D.G.
 J. Phys. Chem. B 2009, 113, 6378-6396.
 iSolventCode=           1
 Solvent: water                                                           
 
 vradii
            1           2           3           4           5           6
    1   1.5200000   1.8500000   1.5200000   1.8500000   1.5200000   1.5200000
            7           8           9
    1   1.2000000   1.2000000   1.2000000
 Changing PCM_VDW_RADII to SMD_RADIUS
 Discretize the solute cavity surface with Lebedev spheres
	Using 110 Lebedev grid points for each H atom
	Using 194 Lebedev grid points for other atoms
	Atomic van der Waals radii will be scaled by 1.20
 Remove points where switching function is < 1.0e-08
 Keep 817 surface tesserae and discard 677 interior tesserae
 Molecular Surface Area = 98.014 Angst**2

                       Distance Matrix (Angstroms)
             O (  1)   C (  2)   O (  3)   C (  4)   O (  5)   O (  6)
   C (  2)  1.336773
   O (  3)  2.332551  1.331622
   C (  4)  2.378385  1.417978  2.366392
   O (  5)  2.688358  2.366545  3.578675  1.360493
   O (  6)  3.521877  2.340068  2.748271  1.233217  2.240702
   H (  7)  0.968639  1.926569  2.453493  3.185237  3.602332  4.243260
   H (  8)  2.411944  1.912085  0.968106  3.187357  4.274834  3.690110
   H (  9)  2.173797  2.368015  3.692193  1.927262  0.967738  3.040020
             H (  7)   H (  8)
   H (  8)  2.198143
   H (  9)  3.059294  4.210595
 
 A cutoff of  1.0D-12 yielded    442 shell pairs
 There are      4763 function pairs
 Smallest overlap matrix eigenvalue = 1.74E-03

 Scale SEOQF with 1.000000e-01/1.000000e-01/1.000000e+00

 Standard Electronic Orientation quadrupole field applied
 Nucleus-field energy     =    -0.0000000019 hartrees
 Guess from superposition of atomic densities
 Warning:  Energy on first SCF cycle will be non-variational
 SAD guess density has 47.000000 electrons

 -----------------------------------------------------------------------
  General SCF calculation program by
  Eric Jon Sundstrom, Paul Horn, Yuezhi Mao, Dmitri Zuev, Alec White,
  David Stuck, Shaama M.S., Shane Yost, Joonho Lee, David Small,
  Daniel Levine, Susi Lehtola, Hugh Burton, Evgeny Epifanovsky,
  Bang C. Huynh
 -----------------------------------------------------------------------
 Exchange:     0.1500 Hartree-Fock + 1.0000 wB97M-V + LR-HF
 Correlation:  1.0000 wB97M-V
 Using SG-2 standard quadrature grid
 Nonlocal Correlation:  VV10 with C = 0.0100 and b = 6.00 and scale = 1.00000
 Grid used for NLC:  SG-1 standard quadrature
 
 Citation of the SMD model:
 Marenich, A.V.; Cramer, C.J.; Truhlar, D.G.
 J. Phys. Chem. B 2009, 113, 6378-6396.
 iSolventCode=           1
 Solvent: water                                                           
 
 vradii
            1           2           3           4           5           6
    1   1.5200000   1.8500000   1.5200000   1.8500000   1.5200000   1.5200000
            7           8           9
    1   1.2000000   1.2000000   1.2000000
 using 4 threads for integral computing
 -------------------------------------------------------
 OpenMP Integral computing Module                
 Release: version 1.0, May 2013, Q-Chem Inc. Pittsburgh 
 -------------------------------------------------------
 -------------------------------------------------------
 OpenMP BLAS3 based DFT computing Module                
 Release: version 1.0, May 2013, Q-Chem Inc. Pittsburgh 
 -------------------------------------------------------
 A unrestricted SCF calculation will be
 performed using DIIS, GDM
 SCF converges when RMS gradient is below 1.0e-07
 ---------------------------------------
  Cycle       Energy         DIIS error
 ---------------------------------------
    1    -380.0553953210      4.14e-02  
    2    -378.6045848257      6.75e-03  Done DIIS. Switching to GDM
 ---------------------------------------
  Cycle       Energy        RMS Gradient
 ---------------------------------------
    1    -378.6045848257      1.84e-01   Descent step
    2    -378.7595504499      3.65e-02   Normal BFGS step
    3    -378.7735393738      1.47e-02   Normal BFGS step
    4    -378.7744013220      1.38e-02   Normal BFGS step
    5    -378.7749884608      4.27e-03   Normal BFGS step
    6    -378.7750463834      1.89e-03   Normal BFGS step
    7    -378.7750626043      6.34e-04   Normal BFGS step
    8    -378.7750638900      2.47e-04   Normal BFGS step
    9    -378.7750642601      1.42e-04   Normal BFGS step
   10    -378.7750642969      7.33e-05   Normal BFGS step
   11    -378.7750643119      2.00e-05   Normal BFGS step
   12    -378.7750643144      1.02e-05   Normal BFGS step
   13    -378.7750643147      2.47e-06   Normal BFGS step
   14    -378.7750643148      1.51e-06   Normal BFGS step
   15    -378.7750643148      4.66e-07   Normal BFGS step
   16    -378.7750643148      1.08e-07   Normal BFGS step
   17    -378.7750643148      3.56e-08  Convergence criterion met
 ---------------------------------------
 SCF time:   CPU 81.26s  wall 21.00s 
<S^2> =          0.754233841
(3)  G-ENP(liq) elect-nuc-pol free energy of system     -378.775064315 a.u.
(4)  G-CDS(liq) cavity-dispersion-solvent structure 
     free energy                                                5.2038 kcal/mol
(6)  G-S(liq) free energy of system                     -378.766771602 a.u.
 SCF   energy in the final basis set =     -378.7667716020
 Total energy in the final basis set =     -378.7667716020
 
 --------------------------------------------------------------
 
                    Orbital Energies (a.u.)
 --------------------------------------------------------------
 
 Alpha MOs
 -- Occupied --
-19.4102 -19.4080 -19.3838 -19.3290 -10.4871 -10.4802  -1.2598  -1.2115
 -1.1856  -1.1304  -0.8651  -0.7227  -0.7135  -0.6712  -0.5997  -0.5790
 -0.5515  -0.5270  -0.5056  -0.4819  -0.4734  -0.4232  -0.3881  -0.2603
 -- Virtual --
  0.1532   0.1638   0.1940   0.2217   0.3111   0.3422   0.3636   0.4820
  0.5809   0.6147   0.6536   0.6715   0.7055   0.7296   0.7373   0.7578
  0.8675   0.8873   0.9078   0.9754   0.9925   1.0130   1.0482   1.0571
  1.0700   1.1045   1.1387   1.1623   1.1694   1.2759   1.3454   1.3759
  1.3911   1.4215   1.5122   1.5599   1.6669   1.7017   1.7457   1.7704
  1.8322   1.8437   1.8847   1.9010   1.9070   1.9536   2.0195   2.0344
  2.0470   2.1610   2.1971   2.3120   2.3477   2.4804   2.5318   2.5730
  2.6205   2.6582   2.7423   2.7873   2.8048   2.8852   2.9280   3.0273
  3.2406   3.3000   3.8062   4.0744   4.1095   4.1842   4.6524   4.7714
 
 Beta MOs
 -- Occupied --
-19.4071 -19.4045 -19.3828 -19.3238 -10.4792 -10.4787  -1.2514  -1.2073
 -1.1778  -1.1227  -0.8473  -0.7180  -0.7074  -0.6648  -0.5769  -0.5696
 -0.5446  -0.5106  -0.4996  -0.4765  -0.4464  -0.3986  -0.3807
 -- Virtual --
  0.0186   0.1553   0.1964   0.2115   0.2249   0.3272   0.3501   0.3708
  0.4929   0.5890   0.6283   0.6593   0.6779   0.7102   0.7416   0.7450
  0.7644   0.8702   0.8912   0.9099   0.9874   0.9969   1.0171   1.0564
  1.0642   1.0821   1.1094   1.1424   1.1668   1.1806   1.2807   1.3494
  1.3963   1.3981   1.4351   1.5204   1.5710   1.6690   1.7045   1.7537
  1.7781   1.8378   1.8506   1.8885   1.9107   1.9167   1.9611   2.0378
  2.0473   2.0547   2.1708   2.2073   2.3266   2.3573   2.4971   2.5418
  2.5861   2.6315   2.6768   2.7487   2.8035   2.8122   2.8913   2.9369
  3.0354   3.2529   3.3136   3.8122   4.0794   4.1169   4.2087   4.6683
  4.7802
 --------------------------------------------------------------
 
          Ground-State Mulliken Net Atomic Charges

     Atom                 Charge (a.u.)    Spin (a.u.)
  --------------------------------------------------------
      1 O                    -0.619665       0.086083
      2 C                     0.465536       0.511171
      3 O                    -0.604048       0.101254
      4 C                     0.553405       0.074876
      5 O                    -0.650304       0.031293
      6 O                    -0.602263       0.198076
      7 H                     0.494789       0.001314
      8 H                     0.491263      -0.002504
      9 H                     0.471288      -0.001563
  --------------------------------------------------------
  Sum of atomic charges =     0.000000
  Sum of spin   charges =     1.000000

 -----------------------------------------------------------------
                    Cartesian Multipole Moments
 -----------------------------------------------------------------
    Charge (ESU x 10^10)
                -0.0000
    Dipole Moment (Debye)
         X      -8.9730      Y       5.0076      Z       0.9164
       Tot      10.3165
    Quadrupole Moments (Debye-Ang)
        XX     -33.0190     XY       6.2356     YY     -39.0156
        XZ      -2.0692     YZ       2.4020     ZZ     -31.9890
    Octopole Moments (Debye-Ang^2)
       XXX     -94.8443    XXY      20.0009    XYY     -23.7663
       YYY      49.5243    XXZ     -11.6063    XYZ      -1.2711
       YYZ      -8.1318    XZZ     -16.5467    YZZ      11.7681
       ZZZ     -30.9339
    Hexadecapole Moments (Debye-Ang^3)
      XXXX    -367.9612   XXXY      38.1459   XXYY    -103.4991
      XYYY      41.2066   YYYY    -240.0422   XXXZ     -38.9817
      XXYZ       4.5438   XYYZ      -6.2881   YYYZ      -2.4373
      XXZZ     -68.1742   XYZZ       5.8171   YYZZ     -43.9058
      XZZZ     -25.9561   YZZZ      -8.1382   ZZZZ     -56.1701
 -----------------------------------------------------------------
 Total job time:  21.60s(wall), 82.81s(cpu) 
 Mon Feb  5 17:25:22 2024

        *************************************************************
        *                                                           *
        *  Thank you very much for using Q-Chem.  Have a nice day.  *
        *                                                           *
        *************************************************************


