
Running Job 1 of 1 Q_in.in
qchem Q_in.in_256405.0 /scratch/ari.fischer/qChem1854154.hpc-mn1/qchem256405/ 0
/usr/local/qchem-5.4.1/exe/qcprog.exe_s Q_in.in_256405.0 /scratch/ari.fischer/qChem1854154.hpc-mn1/qchem256405/
                  Welcome to Q-Chem
     A Quantum Leap Into The Future Of Chemistry


 Q-Chem 5.4, Q-Chem, Inc., Pleasanton, CA (2021)

 License issued to: Nanyang Technological University (site)

 E. Epifanovsky,  A. T. B. Gilbert,  Xintian Feng,  Joonho Lee,  Yuezhi Mao,  
 N. Mardirossian,  P. Pokhilko,  A. White,  M. Wormit,  M. P. Coons,  
 A. L. Dempwolff,  Zhengting Gan,  D. Hait,  P. R. Horn,  L. D. Jacobson,  
 I. Kaliman,  J. Kussmann,  A. W. Lange,  Ka Un Lao,  D. S. Levine,  Jie Liu,  
 S. C. McKenzie,  A. F. Morrison,  K. Nanda,  F. Plasser,  D. R. Rehn,  
 M. L. Vidal,  Zhi-Qiang You,  Ying Zhu,  B. Alam,  B. Albrecht,  
 A. Aldossary,  E. Alguire,  J. H. Andersen,  D. Barton,  K. Begam,  A. Behn,  
 Y. A. Bernard,  E. J. Berquist,  H. Burton,  A. Carreras,  K. Carter-Fenk,  
 R. Chakraborty,  A. D. Chien,  K. D. Closser,  V. Cofer-Shabica,  
 S. Dasgupta,  Jia Deng,  M. de Wergifosse,  M. Diedenhofen,  Hainam Do,  
 S. Ehlert,  Po-Tung Fang,  S. Fatehi,  Qingguo Feng,  T. Friedhoff,  
 J. Gayvert,  Qinghui Ge,  G. Gidofalvi,  M. Goldey,  J. Gomes,  
 C. Gonzalez-Espinoza,  S. Gulania,  A. Gunina,  M. W. D. Hanson-Heine,  
 P. H. P. Harbach,  A. W. Hauser,  M. F. Herbst,  M. Hernandez Vera,  
 M. Hodecker,  Z. C. Holden,  S. Houck,  Xunkun Huang,  Kerwin Hui,  
 B. C. Huynh,  M. Ivanov,  Hyunjun Ji,  Hanjie Jiang,  B. Kaduk,  S. Kaehler,  
 K. Khistyaev,  Jaehoon Kim,  P. Klunzinger,  Z. Koczor-Benda,  
 Joong Hoon Koh,  D. Kosenkov,  L. Koulias,  T. Kowalczyk,  C. M. Krauter,  
 K. Kue,  A. Kunitsa,  T. Kus,  A. Landau,  K. V. Lawler,  D. Lefrancois,  
 S. Lehtola,  Rain Li,  Yi-Pei Li,  Jiashu Liang,  M. Liebenthal,  
 Hung-Hsuan Lin,  You-Sheng Lin,  Fenglai Liu,  Kuan-Yu Liu,  
 M. Loipersberger,  A. Luenser,  A. Manjanath,  P. Manohar,  E. Mansoor,  
 S. F. Manzer,  Shan-Ping Mao,  A. V. Marenich,  T. Markovich,  S. Mason,  
 S. A. Maurer,  P. F. McLaughlin,  M. F. S. J. Menger,  J.-M. Mewes,  
 S. A. Mewes,  P. Morgante,  J. W. Mullinax,  K. J. Oosterbaan,  G. Paran,  
 Alexander C. Paul,  Suranjan K. Paul,  F. Pavosevic,  Zheng Pei,  S. Prager,  
 E. I. Proynov,  E. Ramos,  B. Rana,  A. E. Rask,  A. Rettig,  R. M. Richard,  
 F. Rob,  E. Rossomme,  T. Scheele,  M. Scheurer,  M. Schneider,  
 N. Sergueev,  S. M. Sharada,  W. Skomorowski,  D. W. Small,  C. J. Stein,  
 Yu-Chuan Su,  E. J. Sundstrom,  Zhen Tao,  J. Thirman,  T. Tsuchimochi,  
 N. M. Tubman,  S. P. Veccham,  O. Vydrov,  J. Wenzel,  J. Witte,  A. Yamada,  
 Kun Yao,  S. Yeganeh,  S. R. Yost,  A. Zech,  Igor Ying Zhang,  Xing Zhang,  
 Yu Zhang,  D. Zuev,  A. Aspuru-Guzik,  A. T. Bell,  N. A. Besley,  
 K. B. Bravaya,  B. R. Brooks,  D. Casanova,  Jeng-Da Chai,  S. Coriani,  
 C. J. Cramer,  A. E. DePrince, III,  R. A. DiStasio Jr.,  A. Dreuw,  
 B. D. Dunietz,  T. R. Furlani,  W. A. Goddard III,  S. Grimme,  
 S. Hammes-Schiffer,  T. Head-Gordon,  W. J. Hehre,  Chao-Ping Hsu,  
 T.-C. Jagau,  Yousung Jung,  A. Klamt,  Jing Kong,  D. S. Lambrecht,  
 WanZhen Liang,  N. J. Mayhall,  C. W. McCurdy,  J. B. Neaton,  
 C. Ochsenfeld,  J. A. Parkhill,  R. Peverati,  V. A. Rassolov,  Yihan Shao,  
 L. V. Slipchenko,  T. Stauch,  R. P. Steele,  J. E. Subotnik,  
 A. J. W. Thom,  A. Tkatchenko,  D. G. Truhlar,  T. Van Voorhis,  
 T. A. Wesolowski,  K. B. Whaley,  H. L. Woodcock III,  P. M. Zimmerman,  
 S. Faraji,  P. M. W. Gill,  M. Head-Gordon,  J. M. Herbert,  A. I. Krylov

 Additional authors for Version 5.4.1: 
 S. Kotaru,  Shaozhi Li,  Xiangyuan Li,  F. Matz,  A. Molle,  Haisheng Ren,  
 Yingli Su,  Hung-Yi Tsai,  C. Utku,  Fang Wang

 Contributors to earlier versions of Q-Chem not listed above: 
 R. D. Adamson,  B. Austin,  R. Baer,  J. Baker,  G. J. O. Beran,  
 K. Brandhorst,  S. T. Brown,  E. F. C. Byrd,  A. K. Chakraborty,  
 G. K. L. Chan,  Chun-Min Chang,  Yunqing Chen,  C.-L. Cheng,  
 Siu Hung Chien,  D. M. Chipman,  D. L. Crittenden,  H. Dachsel,  
 R. J. Doerksen,  A. D. Dutoi,  R. G. Edgar,  J. Fosso-Tande,  
 L. Fusti-Molnar,  D. Ghosh,  A. Ghysels,  A. Golubeva-Zadorozhnaya,  
 J. Gonthier,  M. S. Gordon,  S. R. Gwaltney,  G. Hawkins,  J. E. Herr,  
 A. Heyden,  S. Hirata,  E. G. Hohenstein,  G. Kedziora,  F. J. Keil,  
 C. Kelley,  Jihan Kim,  R. A. King,  R. Z. Khaliullin,  P. P. Korambath,  
 W. Kurlancheek,  A. Laurent,  A. M. Lee,  M. S. Lee,  S. V. Levchenko,  
 Ching Yeh Lin,  D. Liotard,  E. Livshits,  R. C. Lochan,  I. Lotan,  
 L. A. Martinez-Martinez,  P. E. Maslen,  N. Nair,  D. P. O'Neill,  
 D. Neuhauser,  E. Neuscamman,  C. M. Oana,  R. Olivares-Amaya,  R. Olson,  
 T. M. Perrine,  B. Peters,  P. A. Pieniazek,  A. Prociuk,  Y. M. Rhee,  
 J. Ritchie,  M. A. Rohrdanz,  E. Rosta,  N. J. Russ,  H. F. Schaefer III,  
 M. W. Schmidt,  N. E. Schultz,  S. Sharma,  N. Shenvi,  C. D. Sherrill,  
 A. C. Simmonett,  A. Sodt,  T. Stein,  D. Stuck,  K. S. Thanthiriwatte,  
 V. Vanovschi,  L. Vogt,  Tao Wang,  A. Warshel,  M. A. Watson,  
 C. F. Williams,  Q. Wu,  X. Xu,  Jun Yang,  W. Zhang,  Yan Zhao

 Please cite Q-Chem as follows:
 Y. Shao et al., Mol. Phys. 113, 184-215 (2015)
 DOI: 10.1080/00268976.2014.952696

 Q-Chem 5.4.1 for Intel X86 EM64T Linux

 Parts of Q-Chem use Armadillo 9.800.1 (Horizon Scraper).
 http://arma.sourceforge.net/

 Q-Chem begins on Thu Dec  7 15:47:32 2023  

 Host: 
0

     Scratch files written to /scratch/ari.fischer/qChem1854154.hpc-mn1/qchem256405//
 Aug1521 |scratch|qcdevops|jenkins|workspace|build_RNUM 8249   
 Processing $rem in /usr/local/qchem-5.4.1/config/preferences:
 Processing $rem in /home/ari.fischer/.qchemrc:
 Symmetry turned off for PCM/SM12/SMD calculation

 Checking the input file for inconsistencies... 	...done.

--------------------------------------------------------------
User input:
--------------------------------------------------------------
$molecule
-1 2
C         0.0335825890    0.2156391192    0.2364698461
O         1.2001413651    0.0826017418    0.8943481755
H        -1.1277621868    1.3766541534   -0.6298194523
C        -0.8393693190   -0.8929137460   -0.0274891381
O        -0.5062190370   -2.0526716429    0.3744233366
O        -1.9104150558   -0.6008046154   -0.6669935653
O        -0.2722929998    1.4647120681   -0.1745756269
H         1.6345905442    0.9437645218    0.9577898244
$end

$rem
BASIS = 6-311++G(3df,2p)
JOB_TYPE = SP
METHOD = wB97M-V
SCF_ALGORITHM = DIIS_GDM
MAX_SCF_CYCLES = 400
SCF_CONVERGENCE = 7
THRESH = 12
Solvent_method = SMD
$end
--------------------------------------------------------------
 ----------------------------------------------------------------
             Standard Nuclear Orientation (Angstroms)
    I     Atom           X                Y                Z
 ----------------------------------------------------------------
    1      C       0.0335825890     0.2156391192     0.2364698461
    2      O       1.2001413651     0.0826017418     0.8943481755
    3      H      -1.1277621868     1.3766541534    -0.6298194523
    4      C      -0.8393693190    -0.8929137460    -0.0274891381
    5      O      -0.5062190370    -2.0526716429     0.3744233366
    6      O      -1.9104150558    -0.6008046154    -0.6669935653
    7      O      -0.2722929998     1.4647120681    -0.1745756269
    8      H       1.6345905442     0.9437645218     0.9577898244
 ----------------------------------------------------------------
 Nuclear Repulsion Energy =         230.26877983 hartrees
 There are       24 alpha and       23 beta electrons
 Requested basis set is 6-311++G(3df,2p)
 There are 66 shells and 254 basis functions

 Total QAlloc Memory Limit 288000 MB
 Mega-Array Size       188 MB
 MEM_STATIC part       192 MB
 
 Citation of the SMD model:
 Marenich, A.V.; Cramer, C.J.; Truhlar, D.G.
 J. Phys. Chem. B 2009, 113, 6378-6396.
 iSolventCode=           1
 Solvent: water                                                           
 
 vradii
            1           2           3           4           5           6
    1   1.8500000   1.5200000   1.2000000   1.8500000   1.5200000   1.5200000
            7           8
    1   1.5200000   1.2000000
 Changing PCM_VDW_RADII to SMD_RADIUS
 Discretize the solute cavity surface with Lebedev spheres
	Using 110 Lebedev grid points for each H atom
	Using 194 Lebedev grid points for other atoms
	Atomic van der Waals radii will be scaled by 1.20
 Remove points where switching function is < 1.0e-08
 Keep 774 surface tesserae and discard 610 interior tesserae
 Molecular Surface Area = 94.678 Angst**2

                       Distance Matrix (Angstroms)
             C (  1)   O (  2)   H (  3)   C (  4)   O (  5)   O (  6)
   O (  2)  1.345869
   H (  3)  1.856646  3.068679
   C (  4)  1.435482  2.441520  2.365779
   O (  5)  2.335733  2.782334  3.626995  1.271834
   O (  6)  2.293895  3.546885  2.127033  1.281184  2.272495
   O (  7)  1.350075  2.284927  0.973051  2.429323  3.567648  2.681842
   H (  8)  1.900972  0.966629  3.215352  3.234909  3.728540  4.194363
             O (  7)
   H (  8)  2.278123
 
 A cutoff of  1.0D-12 yielded   2067 shell pairs
 There are     30980 function pairs (     40357 Cartesian)
 Smallest overlap matrix eigenvalue = 2.32E-05

 Scale SEOQF with 1.000000e-01/1.000000e-01/1.000000e-01

 Standard Electronic Orientation quadrupole field applied
 Nucleus-field energy     =     0.0000000049 hartrees
 Guess from superposition of atomic densities
 Warning:  Energy on first SCF cycle will be non-variational
 SAD guess density has 46.000000 electrons

 -----------------------------------------------------------------------
  General SCF calculation program by
  Eric Jon Sundstrom, Paul Horn, Yuezhi Mao, Dmitri Zuev, Alec White,
  David Stuck, Shaama M.S., Shane Yost, Joonho Lee, David Small,
  Daniel Levine, Susi Lehtola, Hugh Burton, Evgeny Epifanovsky,
  Bang C. Huynh
 -----------------------------------------------------------------------
 Exchange:     0.1500 Hartree-Fock + 1.0000 wB97M-V + LR-HF
 Correlation:  1.0000 wB97M-V
 Using SG-2 standard quadrature grid
 Nonlocal Correlation:  VV10 with C = 0.0100 and b = 6.00 and scale = 1.00000
 Grid used for NLC:  SG-1 standard quadrature
 
 Citation of the SMD model:
 Marenich, A.V.; Cramer, C.J.; Truhlar, D.G.
 J. Phys. Chem. B 2009, 113, 6378-6396.
 iSolventCode=           1
 Solvent: water                                                           
 
 vradii
            1           2           3           4           5           6
    1   1.8500000   1.5200000   1.2000000   1.8500000   1.5200000   1.5200000
            7           8
    1   1.5200000   1.2000000
 using 4 threads for integral computing
 -------------------------------------------------------
 OpenMP Integral computing Module                
 Release: version 1.0, May 2013, Q-Chem Inc. Pittsburgh 
 -------------------------------------------------------
 -------------------------------------------------------
 OpenMP BLAS3 based DFT computing Module                
 Release: version 1.0, May 2013, Q-Chem Inc. Pittsburgh 
 -------------------------------------------------------
 A unrestricted SCF calculation will be
 performed using DIIS, GDM
 SCF converges when RMS gradient is below 1.0e-07
 ---------------------------------------
  Cycle       Energy         DIIS error
 ---------------------------------------
    1    -379.3468316398      1.52e-02  
    2    -378.2723568938      2.93e-03  Done DIIS. Switching to GDM
 ---------------------------------------
  Cycle       Energy        RMS Gradient
 ---------------------------------------
    1    -378.2723568938      1.97e-01   Descent step
    2    -378.4673688651      5.82e-02   Normal BFGS step
    3    -378.4914419857      1.44e-02   Normal BFGS step
    4    -378.4927457466      7.35e-03   Normal BFGS step
    5    -378.4930690366      6.23e-03   Normal BFGS step
    6    -378.4931426469      2.29e-03   Normal BFGS step
    7    -378.4931620840      4.59e-04   Normal BFGS step
    8    -378.4931634744      1.84e-04   Normal BFGS step
    9    -378.4931637110      1.14e-04   Normal BFGS step
   10    -378.4931638069      4.90e-05   Normal BFGS step
   11    -378.4931638135      1.54e-05   Normal BFGS step
   12    -378.4931638160      8.09e-06   Normal BFGS step
   13    -378.4931638163      4.05e-06   Normal BFGS step
   14    -378.4931638164      1.15e-06   Normal BFGS step
   15    -378.4931638164      4.69e-07   Normal BFGS step
   16    -378.4931638164      1.28e-07   Normal BFGS step
   17    -378.4931638164      3.36e-08  Convergence criterion met
 ---------------------------------------
 SCF time:   CPU 449.89s  wall 114.00s 
<S^2> =          0.753043556
(3)  G-ENP(liq) elect-nuc-pol free energy of system     -378.493163816 a.u.
(4)  G-CDS(liq) cavity-dispersion-solvent structure 
     free energy                                                4.9896 kcal/mol
(6)  G-S(liq) free energy of system                     -378.485212433 a.u.
 SCF   energy in the final basis set =     -378.4852124333
 Total energy in the final basis set =     -378.4852124333
 
 --------------------------------------------------------------
 
                    Orbital Energies (a.u.)
 --------------------------------------------------------------
 
 Alpha MOs
 -- Occupied --
-19.3751 -19.3717 -19.2790 -19.2777 -10.4450 -10.4339  -1.2399  -1.1715
 -1.1520  -1.0661  -0.8207  -0.7052  -0.6677  -0.5847  -0.5812  -0.5297
 -0.5189  -0.5105  -0.4992  -0.4654  -0.3769  -0.3766  -0.3556  -0.2427
 -- Virtual --
  0.0348   0.0547   0.0729   0.0948   0.1030   0.1128   0.1157   0.1216
  0.1593   0.1698   0.1831   0.2083   0.2178   0.2325   0.2376   0.2636
  0.2721   0.2930   0.3007   0.3025   0.3098   0.3223   0.3276   0.3343
  0.3403   0.3600   0.3768   0.3985   0.4045   0.4182   0.4230   0.4495
  0.4804   0.5104   0.5354   0.5602   0.5832   0.5915   0.5988   0.6060
  0.6677   0.7046   0.7423   0.7482   0.7536   0.7724   0.7914   0.8181
  0.8419   0.8689   0.8719   0.9099   0.9390   0.9451   0.9648   1.0246
  1.0300   1.0565   1.0600   1.0768   1.1024   1.1062   1.1497   1.1689
  1.1713   1.1859   1.2014   1.2131   1.2160   1.2302   1.2519   1.2825
  1.3080   1.3209   1.3225   1.3371   1.3490   1.3875   1.4020   1.4399
  1.4599   1.4874   1.5224   1.5577   1.5845   1.6031   1.6054   1.6756
  1.7059   1.7266   1.7921   1.8028   1.8422   1.8893   1.9344   1.9888
  2.1248   2.1873   2.1994   2.2184   2.2333   2.3063   2.3585   2.4537
  2.5834   2.6602   2.7899   2.8002   2.8467   2.9015   2.9086   2.9641
  3.0001   3.0593   3.0659   3.1578   3.2144   3.2188   3.2974   3.3353
  3.3395   3.3862   3.3901   3.4244   3.5087   3.5327   3.5991   3.6206
  3.6283   3.6706   3.6861   3.6883   3.7415   3.8306   3.8562   3.8782
  3.9093   3.9185   4.0169   4.0531   4.0846   4.1595   4.1817   4.2393
  4.2601   4.3053   4.4214   4.4408   4.4842   4.5996   4.7736   4.8209
  4.9493   5.0181   5.1388   5.1867   5.2029   5.2148   5.2297   5.2693
  5.3053   5.3345   5.3478   5.3831   5.4259   5.4699   5.4882   5.5386
  5.5672   5.5849   5.5854   5.6210   5.6327   5.6337   5.6535   5.7031
  5.7146   5.7713   5.8038   5.8838   5.9708   5.9811   6.0428   6.1452
  6.2623   6.3233   6.3619   6.5653   6.8148   6.9840   7.1348   7.1517
  7.2187   7.2220   7.3389   7.4124   7.5407   7.5712   7.6652   7.7055
  8.0354   8.2238   8.5611   8.5800  14.5139  14.5278  14.5524  14.5884
 14.5933  14.6132  14.6194  14.6343  14.6852  14.6975  14.7542  14.8034
 14.8315  14.9206  15.0031  15.0984  15.1899  15.3101  15.3598  15.4176
 25.0173  25.6287  50.7015  50.8087  50.8602  51.0195
 
 Beta MOs
 -- Occupied --
-19.3719 -19.3685 -19.2765 -19.2751 -10.4352 -10.4333  -1.2313  -1.1645
 -1.1473  -1.0608  -0.8014  -0.6988  -0.6607  -0.5800  -0.5517  -0.5254
 -0.5146  -0.5064  -0.4817  -0.4395  -0.3707  -0.3558  -0.3523
 -- Virtual --
  0.0349   0.0370   0.0548   0.0731   0.0953   0.1032   0.1129   0.1158
  0.1225   0.1596   0.1701   0.2098   0.2192   0.2240   0.2343   0.2386
  0.2644   0.2720   0.2950   0.3018   0.3045   0.3123   0.3242   0.3316
  0.3357   0.3429   0.3627   0.3801   0.4037   0.4065   0.4213   0.4317
  0.4572   0.4831   0.5174   0.5367   0.5616   0.5877   0.6006   0.6012
  0.6108   0.6700   0.7128   0.7486   0.7528   0.7560   0.7743   0.7954
  0.8191   0.8425   0.8693   0.8757   0.9118   0.9433   0.9449   0.9651
  1.0290   1.0357   1.0598   1.0614   1.0787   1.1083   1.1096   1.1519
  1.1710   1.1769   1.1876   1.2048   1.2155   1.2215   1.2318   1.2538
  1.2838   1.3110   1.3239   1.3254   1.3394   1.3561   1.3976   1.4077
  1.4446   1.4662   1.4890   1.5303   1.5623   1.5878   1.6065   1.6230
  1.6780   1.7107   1.7283   1.7962   1.8072   1.8647   1.8956   1.9459
  2.0001   2.1439   2.1930   2.2105   2.2217   2.2379   2.3193   2.3611
  2.4625   2.5892   2.6744   2.8082   2.8382   2.8516   2.9071   2.9357
  2.9894   3.0330   3.0681   3.0800   3.1797   3.2274   3.2326   3.3120
  3.3428   3.3453   3.3986   3.4147   3.4476   3.5136   3.5391   3.6064
  3.6284   3.6390   3.6798   3.6940   3.6958   3.7524   3.8398   3.8735
  3.8898   3.9226   3.9271   4.0238   4.0587   4.0950   4.1703   4.1932
  4.2465   4.2967   4.3099   4.4283   4.4511   4.4921   4.6023   4.7782
  4.8241   4.9567   5.0328   5.1467   5.1947   5.2150   5.2279   5.2375
  5.2767   5.3181   5.3464   5.3593   5.3891   5.4362   5.4765   5.4941
  5.5466   5.5744   5.5897   5.5963   5.6298   5.6376   5.6417   5.6623
  5.7096   5.7239   5.7770   5.8091   5.8882   5.9753   5.9956   6.0579
  6.1492   6.2676   6.3309   6.3704   6.5729   6.8279   6.9910   7.1421
  7.1565   7.2221   7.2674   7.3453   7.4576   7.5665   7.6579   7.7170
  7.7254   8.0416   8.2578   8.5725   8.5918  14.5332  14.5461  14.5684
 14.6050  14.6095  14.6286  14.6297  14.6505  14.7022  14.7119  14.7602
 14.8184  14.8466  14.9276  15.0170  15.1035  15.1961  15.3139  15.3640
 15.4241  25.0237  25.6339  50.7042  50.8114  50.8623  51.0216
 --------------------------------------------------------------
 
          Ground-State Mulliken Net Atomic Charges

     Atom                 Charge (a.u.)    Spin (a.u.)
  --------------------------------------------------------
      1 C                     0.528065       0.602444
      2 O                    -0.643901       0.074775
      3 H                     0.349136      -0.001543
      4 C                     0.912094       0.072318
      5 O                    -0.917383       0.091761
      6 O                    -0.911084       0.087933
      7 O                    -0.657162       0.075006
      8 H                     0.340234      -0.002695
  --------------------------------------------------------
  Sum of atomic charges =    -1.000000
  Sum of spin   charges =     1.000000

 -----------------------------------------------------------------
                    Cartesian Multipole Moments
 -----------------------------------------------------------------
    Charge (ESU x 10^10)
                -4.8032
    Dipole Moment (Debye)
         X       6.3506      Y       9.6240      Z       0.3486
       Tot      11.5357
    Quadrupole Moments (Debye-Ang)
        XX     -45.8749     XY      -5.4928     YY     -52.7330
        XZ      -2.4422     YZ       2.5625     ZZ     -38.1894
    Octopole Moments (Debye-Ang^2)
       XXX      75.0432    XXY      31.5289    XYY      25.7327
       YYY      68.5868    XXZ       6.9522    XYZ       7.6009
       YYZ      -8.4721    XZZ      18.2288    YZZ      16.8262
       ZZZ     -10.1709
    Hexadecapole Moments (Debye-Ang^3)
      XXXX    -324.1417   XXXY     -64.2829   XXYY    -103.1997
      XYYY     -73.3506   YYYY    -415.6340   XXXZ     -56.7084
      XXYZ       0.5663   XYYZ      -7.5758   YYYZ      21.1856
      XXZZ     -65.9297   XYZZ     -17.9462   YYZZ     -71.9184
      XZZZ     -47.3499   YZZZ      11.2615   ZZZZ     -97.3462
 -----------------------------------------------------------------
 Total job time:  114.24s(wall), 452.02s(cpu) 
 Thu Dec  7 15:49:26 2023

        *************************************************************
        *                                                           *
        *  Thank you very much for using Q-Chem.  Have a nice day.  *
        *                                                           *
        *************************************************************


