
Running Job 1 of 2 Q_in.in
qchem Q_in.in_454528.0 /scratch/ari.fischer/qChem1541461.hpc-mn1/qchem454528/ 0
/usr/local/qchem-5.4.1/exe/qcprog.exe_s Q_in.in_454528.0 /scratch/ari.fischer/qChem1541461.hpc-mn1/qchem454528/
                  Welcome to Q-Chem
     A Quantum Leap Into The Future Of Chemistry


 Q-Chem 5.4, Q-Chem, Inc., Pleasanton, CA (2021)

 License issued to: Nanyang Technological University (site)

 E. Epifanovsky,  A. T. B. Gilbert,  Xintian Feng,  Joonho Lee,  Yuezhi Mao,  
 N. Mardirossian,  P. Pokhilko,  A. White,  M. Wormit,  M. P. Coons,  
 A. L. Dempwolff,  Zhengting Gan,  D. Hait,  P. R. Horn,  L. D. Jacobson,  
 I. Kaliman,  J. Kussmann,  A. W. Lange,  Ka Un Lao,  D. S. Levine,  Jie Liu,  
 S. C. McKenzie,  A. F. Morrison,  K. Nanda,  F. Plasser,  D. R. Rehn,  
 M. L. Vidal,  Zhi-Qiang You,  Ying Zhu,  B. Alam,  B. Albrecht,  
 A. Aldossary,  E. Alguire,  J. H. Andersen,  D. Barton,  K. Begam,  A. Behn,  
 Y. A. Bernard,  E. J. Berquist,  H. Burton,  A. Carreras,  K. Carter-Fenk,  
 R. Chakraborty,  A. D. Chien,  K. D. Closser,  V. Cofer-Shabica,  
 S. Dasgupta,  Jia Deng,  M. de Wergifosse,  M. Diedenhofen,  Hainam Do,  
 S. Ehlert,  Po-Tung Fang,  S. Fatehi,  Qingguo Feng,  T. Friedhoff,  
 J. Gayvert,  Qinghui Ge,  G. Gidofalvi,  M. Goldey,  J. Gomes,  
 C. Gonzalez-Espinoza,  S. Gulania,  A. Gunina,  M. W. D. Hanson-Heine,  
 P. H. P. Harbach,  A. W. Hauser,  M. F. Herbst,  M. Hernandez Vera,  
 M. Hodecker,  Z. C. Holden,  S. Houck,  Xunkun Huang,  Kerwin Hui,  
 B. C. Huynh,  M. Ivanov,  Hyunjun Ji,  Hanjie Jiang,  B. Kaduk,  S. Kaehler,  
 K. Khistyaev,  Jaehoon Kim,  P. Klunzinger,  Z. Koczor-Benda,  
 Joong Hoon Koh,  D. Kosenkov,  L. Koulias,  T. Kowalczyk,  C. M. Krauter,  
 K. Kue,  A. Kunitsa,  T. Kus,  A. Landau,  K. V. Lawler,  D. Lefrancois,  
 S. Lehtola,  Rain Li,  Yi-Pei Li,  Jiashu Liang,  M. Liebenthal,  
 Hung-Hsuan Lin,  You-Sheng Lin,  Fenglai Liu,  Kuan-Yu Liu,  
 M. Loipersberger,  A. Luenser,  A. Manjanath,  P. Manohar,  E. Mansoor,  
 S. F. Manzer,  Shan-Ping Mao,  A. V. Marenich,  T. Markovich,  S. Mason,  
 S. A. Maurer,  P. F. McLaughlin,  M. F. S. J. Menger,  J.-M. Mewes,  
 S. A. Mewes,  P. Morgante,  J. W. Mullinax,  K. J. Oosterbaan,  G. Paran,  
 Alexander C. Paul,  Suranjan K. Paul,  F. Pavosevic,  Zheng Pei,  S. Prager,  
 E. I. Proynov,  E. Ramos,  B. Rana,  A. E. Rask,  A. Rettig,  R. M. Richard,  
 F. Rob,  E. Rossomme,  T. Scheele,  M. Scheurer,  M. Schneider,  
 N. Sergueev,  S. M. Sharada,  W. Skomorowski,  D. W. Small,  C. J. Stein,  
 Yu-Chuan Su,  E. J. Sundstrom,  Zhen Tao,  J. Thirman,  T. Tsuchimochi,  
 N. M. Tubman,  S. P. Veccham,  O. Vydrov,  J. Wenzel,  J. Witte,  A. Yamada,  
 Kun Yao,  S. Yeganeh,  S. R. Yost,  A. Zech,  Igor Ying Zhang,  Xing Zhang,  
 Yu Zhang,  D. Zuev,  A. Aspuru-Guzik,  A. T. Bell,  N. A. Besley,  
 K. B. Bravaya,  B. R. Brooks,  D. Casanova,  Jeng-Da Chai,  S. Coriani,  
 C. J. Cramer,  A. E. DePrince, III,  R. A. DiStasio Jr.,  A. Dreuw,  
 B. D. Dunietz,  T. R. Furlani,  W. A. Goddard III,  S. Grimme,  
 S. Hammes-Schiffer,  T. Head-Gordon,  W. J. Hehre,  Chao-Ping Hsu,  
 T.-C. Jagau,  Yousung Jung,  A. Klamt,  Jing Kong,  D. S. Lambrecht,  
 WanZhen Liang,  N. J. Mayhall,  C. W. McCurdy,  J. B. Neaton,  
 C. Ochsenfeld,  J. A. Parkhill,  R. Peverati,  V. A. Rassolov,  Yihan Shao,  
 L. V. Slipchenko,  T. Stauch,  R. P. Steele,  J. E. Subotnik,  
 A. J. W. Thom,  A. Tkatchenko,  D. G. Truhlar,  T. Van Voorhis,  
 T. A. Wesolowski,  K. B. Whaley,  H. L. Woodcock III,  P. M. Zimmerman,  
 S. Faraji,  P. M. W. Gill,  M. Head-Gordon,  J. M. Herbert,  A. I. Krylov

 Additional authors for Version 5.4.1: 
 S. Kotaru,  Shaozhi Li,  Xiangyuan Li,  F. Matz,  A. Molle,  Haisheng Ren,  
 Yingli Su,  Hung-Yi Tsai,  C. Utku,  Fang Wang

 Contributors to earlier versions of Q-Chem not listed above: 
 R. D. Adamson,  B. Austin,  R. Baer,  J. Baker,  G. J. O. Beran,  
 K. Brandhorst,  S. T. Brown,  E. F. C. Byrd,  A. K. Chakraborty,  
 G. K. L. Chan,  Chun-Min Chang,  Yunqing Chen,  C.-L. Cheng,  
 Siu Hung Chien,  D. M. Chipman,  D. L. Crittenden,  H. Dachsel,  
 R. J. Doerksen,  A. D. Dutoi,  R. G. Edgar,  J. Fosso-Tande,  
 L. Fusti-Molnar,  D. Ghosh,  A. Ghysels,  A. Golubeva-Zadorozhnaya,  
 J. Gonthier,  M. S. Gordon,  S. R. Gwaltney,  G. Hawkins,  J. E. Herr,  
 A. Heyden,  S. Hirata,  E. G. Hohenstein,  G. Kedziora,  F. J. Keil,  
 C. Kelley,  Jihan Kim,  R. A. King,  R. Z. Khaliullin,  P. P. Korambath,  
 W. Kurlancheek,  A. Laurent,  A. M. Lee,  M. S. Lee,  S. V. Levchenko,  
 Ching Yeh Lin,  D. Liotard,  E. Livshits,  R. C. Lochan,  I. Lotan,  
 L. A. Martinez-Martinez,  P. E. Maslen,  N. Nair,  D. P. O'Neill,  
 D. Neuhauser,  E. Neuscamman,  C. M. Oana,  R. Olivares-Amaya,  R. Olson,  
 T. M. Perrine,  B. Peters,  P. A. Pieniazek,  A. Prociuk,  Y. M. Rhee,  
 J. Ritchie,  M. A. Rohrdanz,  E. Rosta,  N. J. Russ,  H. F. Schaefer III,  
 M. W. Schmidt,  N. E. Schultz,  S. Sharma,  N. Shenvi,  C. D. Sherrill,  
 A. C. Simmonett,  A. Sodt,  T. Stein,  D. Stuck,  K. S. Thanthiriwatte,  
 V. Vanovschi,  L. Vogt,  Tao Wang,  A. Warshel,  M. A. Watson,  
 C. F. Williams,  Q. Wu,  X. Xu,  Jun Yang,  W. Zhang,  Yan Zhao

 Please cite Q-Chem as follows:
 Y. Shao et al., Mol. Phys. 113, 184-215 (2015)
 DOI: 10.1080/00268976.2014.952696

 Q-Chem 5.4.1 for Intel X86 EM64T Linux

 Parts of Q-Chem use Armadillo 9.800.1 (Horizon Scraper).
 http://arma.sourceforge.net/

 Q-Chem begins on Sun May 14 09:36:40 2023  

 Host: 
0

     Scratch files written to /scratch/ari.fischer/qChem1541461.hpc-mn1/qchem454528//
 Aug1521 |scratch|qcdevops|jenkins|workspace|build_RNUM 8249   
 Processing $rem in /usr/local/qchem-5.4.1/config/preferences:
 Processing $rem in /home/ari.fischer/.qchemrc:
 Symmetry turned off for PCM/SM12/SMD calculation


!!********************************************.
!!******************Warning*******************.
!!Desired Analytical derivatives not available.
!!Finite difference job might take a long time.
!!********************************************.
!!********************************************.


 2-order derivative to be evaluated numerically with 1-order analytical derivatives

 Checking the input file for inconsistencies... 	...done.

--------------------------------------------------------------
User input:
--------------------------------------------------------------
$molecule
0 2
C    0.5872603    0.0451744    0.6353025
O    1.4848503   -0.2339721    1.4176279
H   -1.5462678    0.0297673   -0.9093011
C   -0.6026559   -0.7780323    0.5800644
O   -0.6520186   -1.8666470    1.3422188
O   -1.5930165   -0.7107512   -0.2901049
O    0.7269977    1.1380600   -0.1367250
H   -0.0414875    1.3560126   -0.6793301
O   -1.5543136    0.6656948    2.0892506
O   -2.5640060    1.0305818    1.5221739
H   -1.4792600   -2.3860348    1.4067059
$end

$rem
BASIS = 6-311++G(2df,2p)
GUI = 2
JOB_TYPE = Frequency
METHOD = wB97M-V
SCF_ALGORITHM = DIIS_GDM
MAX_SCF_CYCLES = 400
SCF_CONVERGENCE = 6
THRESH = 11
SYMMETRY_IGNORE = 1
solvent_method = SMD
$end

--------------------------------------------------------------
 ----------------------------------------------------------------
             Standard Nuclear Orientation (Angstroms)
    I     Atom           X                Y                Z
 ----------------------------------------------------------------
    1      C       0.5872603000     0.0451744000     0.6353025000
    2      O       1.4848503000    -0.2339721000     1.4176279000
    3      H      -1.5462678000     0.0297673000    -0.9093011000
    4      C      -0.6026559000    -0.7780323000     0.5800644000
    5      O      -0.6520186000    -1.8666470000     1.3422188000
    6      O      -1.5930165000    -0.7107512000    -0.2901049000
    7      O       0.7269977000     1.1380600000    -0.1367250000
    8      H      -0.0414875000     1.3560126000    -0.6793301000
    9      O      -1.5543136000     0.6656948000     2.0892506000
   10      O      -2.5640060000     1.0305818000     1.5221739000
   11      H      -1.4792600000    -2.3860348000     1.4067059000
 ----------------------------------------------------------------
 Nuclear Repulsion Energy =         398.69991548 hartrees
 There are       32 alpha and       31 beta electrons
 Requested basis set is 6-311++G(2df,2p)
 There are 82 shells and 302 basis functions

 Total QAlloc Memory Limit 288000 MB
 Mega-Array Size       188 MB
 MEM_STATIC part       192 MB
 
 Citation of the SMD model:
 Marenich, A.V.; Cramer, C.J.; Truhlar, D.G.
 J. Phys. Chem. B 2009, 113, 6378-6396.
 iSolventCode=           1
 Solvent: water                                                           
 
 vradii
            1           2           3           4           5           6
    1   1.8500000   1.5200000   1.2000000   1.8500000   1.5200000   1.5200000
            7           8           9          10          11
    1   1.5200000   1.2000000   1.5200000   1.5200000   1.2000000
 Changing PCM_VDW_RADII to SMD_RADIUS
 Discretize the solute cavity surface with Lebedev spheres
	Using 110 Lebedev grid points for each H atom
	Using 194 Lebedev grid points for other atoms
	Atomic van der Waals radii will be scaled by 1.20
 Remove points where switching function is < 1.0e-08
 Keep 1061 surface tesserae and discard 821 interior tesserae
 Molecular Surface Area = 124.561 Angst**2

                       Distance Matrix (Angstroms)
             C (  1)   O (  2)   H (  3)   C (  4)   O (  5)   O (  6)
   O (  2)  1.222957
   H (  3)  2.634005  3.830383
   C (  4)  1.447971  2.314130  1.939369
   O (  5)  2.385499  2.690264  3.076591  1.329811
   O (  6)  2.486244  3.552032  0.966415  1.320051  2.210442
   O (  7)  1.345345  2.207448  2.644413  2.439913  3.621771  2.970538
   H (  8)  1.960071  3.042202  2.018954  2.540695  3.852914  2.613475
   O (  9)  2.661832  3.239907  3.065254  2.295135  2.790152  2.749079
   O ( 10)  3.418779  4.243025  2.819484  2.829408  3.475919  2.694330
   H ( 11)  3.282735  3.662983  3.347309  2.009339  0.978903  2.387191
             O (  7)   H (  8)   O (  9)   O ( 10)
   H (  8)  0.965657
   O (  9)  3.222185  3.229585
   O ( 10)  3.687032  3.363870  1.214165
   H ( 11)  4.434974  4.519032  3.128027  3.586541
 
 A cutoff of  1.0D-11 yielded   3053 shell pairs
 There are     42065 function pairs (     53783 Cartesian)
 Smallest overlap matrix eigenvalue = 3.14E-05
 Guess from superposition of atomic densities
 Warning:  Energy on first SCF cycle will be non-variational
 SAD guess density has 63.000000 electrons

 -----------------------------------------------------------------------
  General SCF calculation program by
  Eric Jon Sundstrom, Paul Horn, Yuezhi Mao, Dmitri Zuev, Alec White,
  David Stuck, Shaama M.S., Shane Yost, Joonho Lee, David Small,
  Daniel Levine, Susi Lehtola, Hugh Burton, Evgeny Epifanovsky,
  Bang C. Huynh
 -----------------------------------------------------------------------
 Exchange:     0.1500 Hartree-Fock + 1.0000 wB97M-V + LR-HF
 Correlation:  1.0000 wB97M-V
 Using SG-2 standard quadrature grid
 Nonlocal Correlation:  VV10 with C = 0.0100 and b = 6.00 and scale = 1.00000
 Grid used for NLC:  SG-1 standard quadrature
 using 16 threads for integral computing
 -------------------------------------------------------
 OpenMP Integral computing Module                
 Release: version 1.0, May 2013, Q-Chem Inc. Pittsburgh 
 -------------------------------------------------------
 
 Citation of the SMD model:
 Marenich, A.V.; Cramer, C.J.; Truhlar, D.G.
 J. Phys. Chem. B 2009, 113, 6378-6396.
 iSolventCode=           1
 Solvent: water                                                           
 
 vradii
            1           2           3           4           5           6
    1   1.8500000   1.5200000   1.2000000   1.8500000   1.5200000   1.5200000
            7           8           9          10          11
    1   1.5200000   1.2000000   1.5200000   1.5200000   1.2000000
 -------------------------------------------------------
 OpenMP BLAS3 based DFT computing Module                
 Release: version 1.0, May 2013, Q-Chem Inc. Pittsburgh 
 -------------------------------------------------------
 A unrestricted SCF calculation will be
 performed using DIIS, GDM
 SCF converges when RMS gradient is below 1.0e-06
 ---------------------------------------
  Cycle       Energy         DIIS error
 ---------------------------------------
    1    -530.5966424361      1.48e-02  
    2    -529.0472258248      2.43e-03  Done DIIS. Switching to GDM
 ---------------------------------------
  Cycle       Energy        RMS Gradient
 ---------------------------------------
    1    -529.0472258248      1.88e-01   Descent step
    2    -529.2394235015      3.81e-02   Normal BFGS step
    3    -529.2650601417      1.32e-02   Normal BFGS step
    4    -529.2665300564      1.65e-02   Normal BFGS step
    5    -529.2675713001      1.35e-02   Normal BFGS step
    6    -529.2679750619      1.43e-02   Normal BFGS step
    7    -529.2695294019      2.04e-02   Normal BFGS step
    8    -529.2704048340      2.62e-02   Normal BFGS step
    9    -529.2720795819      2.50e-02   Normal BFGS step
   10    -529.2734755130      5.04e-03   Normal BFGS step
   11    -529.2738254534      3.26e-03   Normal BFGS step
   12    -529.2739491676      1.47e-03   Normal BFGS step
   13    -529.2739626258      1.23e-03   Normal BFGS step
   14    -529.2739704597      9.28e-04   Normal BFGS step
   15    -529.2739731658      7.29e-04   Normal BFGS step
   16    -529.2739743285      4.78e-04   Normal BFGS step
   17    -529.2739748679      1.54e-04   Normal BFGS step
   18    -529.2739750257      7.73e-05   Normal BFGS step
   19    -529.2739750910      2.49e-05   Normal BFGS step
   20    -529.2739750986      1.00e-05   Normal BFGS step
   21    -529.2739751000      6.49e-06   Normal BFGS step
   22    -529.2739751003      3.18e-06   Normal BFGS step
   23    -529.2739751004      1.28e-06   Normal BFGS step
   24    -529.2739751004      5.66e-07  Convergence criterion met
 ---------------------------------------
 SCF time:   CPU 1002.10s  wall 68.00s 
<S^2> =          1.329432410
(3)  G-ENP(liq) elect-nuc-pol free energy of system     -529.273975100 a.u.
(4)  G-CDS(liq) cavity-dispersion-solvent structure 
     free energy                                                4.5738 kcal/mol
(6)  G-S(liq) free energy of system                     -529.266686296 a.u.
 SCF   energy in the final basis set =     -529.2666862956
 Total energy in the final basis set =     -529.2666862956
 
 --------------------------------------------------------------
 
                    Orbital Energies (a.u.)
 --------------------------------------------------------------
 
 Alpha MOs
 -- Occupied --
-19.4635 -19.4459 -19.4066 -19.3918 -19.3907 -19.3306 -10.5078 -10.5019
 -1.3989  -1.2743  -1.2410  -1.1934  -1.1561  -0.9385  -0.8607  -0.7622
 -0.7460  -0.6954  -0.6612  -0.6468  -0.6355  -0.5898  -0.5791  -0.5523
 -0.5387  -0.5259  -0.5089  -0.4667  -0.4343  -0.4121  -0.3868  -0.3772
 -- Virtual --
 -0.0019   0.0292   0.0432   0.0587   0.0771   0.0882   0.1048   0.1074
  0.1217   0.1320   0.1509   0.1573   0.1637   0.1715   0.1842   0.2021
  0.2225   0.2390   0.2500   0.2545   0.2599   0.2856   0.2876   0.2955
  0.3068   0.3139   0.3147   0.3174   0.3273   0.3339   0.3414   0.3500
  0.3571   0.3594   0.3704   0.3772   0.3869   0.3966   0.4089   0.4251
  0.4398   0.4455   0.4810   0.4993   0.5395   0.5841   0.6010   0.6360
  0.6524   0.6613   0.6861   0.7062   0.7233   0.7458   0.7728   0.7808
  0.8198   0.8334   0.8565   0.8670   0.8889   0.9013   0.9080   0.9501
  0.9946   1.0355   1.0515   1.0721   1.0763   1.0837   1.1061   1.1296
  1.1355   1.1476   1.1623   1.1674   1.1830   1.1907   1.2046   1.2327
  1.2476   1.2547   1.2611   1.2822   1.2926   1.3388   1.3636   1.3953
  1.4319   1.4525   1.4569   1.4927   1.5221   1.5455   1.5486   1.5606
  1.5909   1.6167   1.6417   1.6749   1.6935   1.7400   1.7556   1.7653
  1.8041   1.8259   1.8626   1.8833   1.9442   1.9530   1.9919   2.0005
  2.0629   2.1493   2.2220   2.2596   2.3038   2.3222   2.3443   2.3544
  2.3746   2.4183   2.4460   2.4627   2.4695   2.5366   2.5835   2.6251
  2.6395   2.6893   2.7726   2.8308   2.8445   2.8773   2.9145   2.9699
  2.9992   3.1618   3.1787   3.2267   3.2881   3.3004   3.3361   3.3581
  3.3896   3.4120   3.4429   3.4603   3.5294   3.5594   3.6003   3.6539
  3.6892   3.7247   3.7354   3.7762   3.8195   3.8267   3.8580   3.8891
  3.9885   4.1124   4.1442   4.1694   4.2246   4.2559   4.2823   4.3498
  4.3672   4.4285   4.5685   4.5814   4.6208   4.6272   4.6436   4.9503
  4.9562   4.9704   4.9812   5.0272   5.0692   5.1123   5.1301   5.1359
  5.1470   5.1531   5.1756   5.1802   5.1902   5.2018   5.2070   5.2254
  5.2359   5.2444   5.2531   5.2719   5.2921   5.2971   5.3186   5.3425
  5.3597   5.4015   5.4531   5.4812   5.5143   5.5220   5.5950   5.6611
  5.6859   5.7244   5.7492   5.7553   5.7825   5.8262   5.9136   5.9762
  6.0860   6.1411   6.1728   6.3788   6.4355   6.5243   6.7139   6.7898
  6.7977   6.8127   6.8273   6.8860   6.9252   6.9407   6.9682   6.9871
  6.9927   7.0019   7.0171   7.0349   7.0725   7.0996   7.1196   7.2286
  7.2504   7.2575   7.3015   7.3230   7.3259   7.3644   7.3863   7.3954
  7.4094   7.4466   7.4858   7.5050   7.5528   7.6952   7.7317   7.7706
  7.7988   7.8944   7.9021   8.0150   8.1264   8.1597  24.9162  25.2008
 50.4743  50.5298  50.5462  50.6121  50.6575  50.7480
 
 Beta MOs
 -- Occupied --
-19.4372 -19.4207 -19.4085 -19.3929 -19.3924 -19.3340 -10.5140 -10.5024
 -1.3511  -1.2795  -1.2437  -1.1983  -1.1606  -0.8836  -0.8569  -0.7662
 -0.7483  -0.6990  -0.6422  -0.5942  -0.5915  -0.5678  -0.5553  -0.5479
 -0.5321  -0.5266  -0.5128  -0.4802  -0.4492  -0.4161  -0.2752
 -- Virtual --
 -0.0170  -0.0011   0.0297   0.0437   0.0591   0.0778   0.0892   0.1058
  0.1071   0.1229   0.1321   0.1420   0.1527   0.1610   0.1647   0.1850
  0.2007   0.2250   0.2414   0.2524   0.2556   0.2623   0.2860   0.2875
  0.2945   0.3070   0.3124   0.3150   0.3220   0.3286   0.3337   0.3413
  0.3494   0.3586   0.3598   0.3710   0.3862   0.3905   0.3993   0.4118
  0.4332   0.4401   0.4476   0.4791   0.5013   0.5370   0.5827   0.6010
  0.6327   0.6480   0.6556   0.6830   0.7029   0.7185   0.7402   0.7685
  0.7789   0.8196   0.8329   0.8568   0.8664   0.8889   0.8989   0.9062
  0.9482   0.9971   1.0355   1.0564   1.0728   1.0821   1.0895   1.1139
  1.1336   1.1431   1.1530   1.1669   1.1732   1.1861   1.1982   1.2107
  1.2350   1.2516   1.2608   1.2696   1.2905   1.2923   1.3442   1.3712
  1.4016   1.4308   1.4588   1.4748   1.5074   1.5217   1.5583   1.5636
  1.5744   1.6010   1.6274   1.6461   1.6741   1.6997   1.7409   1.7548
  1.7948   1.8090   1.8281   1.8596   1.8924   1.9487   1.9576   1.9906
  1.9992   2.0592   2.1503   2.2200   2.2606   2.3086   2.3277   2.3542
  2.3663   2.3872   2.4228   2.4475   2.4628   2.4703   2.5354   2.5806
  2.6263   2.6443   2.6869   2.7539   2.8211   2.8279   2.8686   2.9055
  2.9464   2.9742   3.1493   3.1653   3.2142   3.2782   3.2871   3.3159
  3.3465   3.3762   3.3972   3.4281   3.4481   3.5099   3.5429   3.5852
  3.6471   3.6791   3.7156   3.7299   3.7726   3.7975   3.8226   3.8510
  3.8837   3.9835   4.1075   4.1403   4.1657   4.2200   4.2369   4.2642
  4.3449   4.3634   4.4250   4.5616   4.6288   4.6600   4.6695   4.6849
  4.9536   4.9996   5.0199   5.0252   5.0963   5.1114   5.1259   5.1291
  5.1530   5.1706   5.1770   5.1852   5.1974   5.2124   5.2178   5.2270
  5.2351   5.2536   5.2684   5.2723   5.2879   5.2935   5.3097   5.3275
  5.3622   5.3858   5.4024   5.4500   5.4786   5.5119   5.5173   5.5900
  5.6550   5.6816   5.7185   5.7763   5.7986   5.8043   5.8218   5.9082
  5.9667   6.0833   6.1343   6.1699   6.3696   6.4317   6.5205   6.7889
  6.8588   6.8654   6.8694   6.8984   6.9263   6.9472   6.9794   6.9832
  7.0037   7.0160   7.0287   7.0384   7.0779   7.0956   7.1115   7.1647
  7.2294   7.2489   7.2530   7.2986   7.3203   7.3279   7.3794   7.3834
  7.3977   7.4243   7.4482   7.4998   7.5190   7.5495   7.6912   7.7292
  7.7670   7.7947   7.8916   7.8999   8.0116   8.1585   8.1957  24.9127
 25.1980  50.4940  50.5390  50.5538  50.6133  50.6564  50.7456
 --------------------------------------------------------------
 
          Ground-State Mulliken Net Atomic Charges

     Atom                 Charge (a.u.)    Spin (a.u.)
  --------------------------------------------------------
      1 C                     0.324237      -0.055387
      2 O                    -0.494121      -0.121187
      3 H                     0.354365       0.001647
      4 C                     0.191847      -0.378408
      5 O                    -0.341626      -0.065219
      6 O                    -0.289324      -0.060016
      7 O                    -0.332785      -0.018903
      8 H                     0.339331       0.001210
      9 O                    -0.056269       0.849796
     10 O                    -0.085159       0.846554
     11 H                     0.389504      -0.000087
  --------------------------------------------------------
  Sum of atomic charges =    -0.000000
  Sum of spin   charges =     1.000000

 -----------------------------------------------------------------
                    Cartesian Multipole Moments
 -----------------------------------------------------------------
    Charge (ESU x 10^10)
                -0.0000
    Dipole Moment (Debye)
         X      -5.4268      Y      -0.8434      Z      -5.9288
       Tot       8.0816
    Quadrupole Moments (Debye-Ang)
        XX     -52.7025     XY       4.9304     YY     -40.3376
        XZ      -2.6656     YZ      -5.2388     ZZ     -49.9884
    Octopole Moments (Debye-Ang^2)
       XXX      66.5403    XXY      -9.6655    XYY       7.2886
       YYY      -1.8613    XXZ     -52.5952    XYZ      16.1742
       YYZ     -35.5752    XZZ      13.1958    YZZ       2.5335
       ZZZ    -136.0079
    Hexadecapole Moments (Debye-Ang^3)
      XXXX    -611.2483   XXXY      28.5704   XXYY    -129.0885
      XYYY      39.4532   YYYY    -257.4764   XXXZ      88.3483
      XXYZ     -22.5636   XYYZ       8.1218   YYYZ     -18.8892
      XXZZ    -176.5949   XYZZ      20.3920   YYZZ    -112.1732
      XZZZ      82.9775   YZZZ       3.9041   ZZZZ    -451.6535
 -----------------------------------------------------------------
 Calculating analytic gradient of the SCF energy
 Gradient of CDS energy
            1           2           3           4           5           6
    1   0.0024676  -0.0011521  -0.0001878  -0.0022770   0.0001382   0.0018705
    2   0.0034142   0.0004246   0.0000042  -0.0029175   0.0027177  -0.0000936
    3  -0.0014462  -0.0009886  -0.0002937  -0.0001989  -0.0017132   0.0018920
            7           8           9          10          11
    1  -0.0004355   0.0000250  -0.0001761  -0.0000349  -0.0002378
    2  -0.0035818   0.0002973   0.0000310   0.0000240  -0.0003203
    3   0.0026769  -0.0002231  -0.0000133   0.0001530   0.0001549
 Gradient of SCF Energy
            1           2           3           4           5           6
    1  -0.0081633  -0.0005984  -0.0010963   0.0318741   0.0011444  -0.0069193
    2   0.0009799   0.0009756   0.0239324   0.0118243   0.0112395  -0.0251205
    3  -0.0080680   0.0004713  -0.0235190  -0.0001771  -0.0070738   0.0208552
            7           8           9          10          11
    1   0.0318104  -0.0240671  -0.0140229   0.0118136  -0.0217752
    2  -0.0012197   0.0062033   0.0053708  -0.0055036  -0.0286819
    3   0.0188973  -0.0191563  -0.0004698   0.0059052   0.0123349
 Max gradient component =       3.187E-02
 RMS gradient           =       1.551E-02
 Computing fast CPCM-SWIG gradient
 Updating gradient with PCM contributions...
 -- total gradient after adding PCM contribution --
---------------------------------------------------
  Atom         X              Y              Z     
---------------------------------------------------
   1      -0.009831       0.001244      -0.008658
   2       0.000685       0.000295       0.000674
   3       0.000561       0.000404      -0.000309
   4       0.030455       0.017596      -0.001907
   5      -0.018832       0.000062      -0.008773
   6      -0.002237      -0.005341       0.002603
   7       0.005116       0.002949       0.000326
   8      -0.000422      -0.001144       0.000505
   9      -0.016696       0.005916      -0.002438
  10       0.014874      -0.005841       0.006321
  11      -0.003672      -0.016140       0.011655
---------------------------------------------------
 Number of fixed atoms: 0
 Gradient time:  CPU 98.70 s  wall 9.16 s
 ######################################################
 ######################################################
 # Starting finite difference calculation for IDERIV  #
 Finite diff step size:  1.88973e-03 a.u.
 ----------------------------------------------------------------
             Standard Nuclear Orientation (Angstroms)
    I     Atom           X                Y                Z
 ----------------------------------------------------------------
    1      C       0.5882603000     0.0451744000     0.6353025000
    2      O       1.4848503000    -0.2339721000     1.4176279000
    3      H      -1.5462678000     0.0297673000    -0.9093011000
    4      C      -0.6026559000    -0.7780323000     0.5800644000
    5      O      -0.6520186000    -1.8666470000     1.3422188000
    6      O      -1.5930165000    -0.7107512000    -0.2901049000
    7      O       0.7269977000     1.1380600000    -0.1367250000
    8      H      -0.0414875000     1.3560126000    -0.6793301000
    9      O      -1.5543136000     0.6656948000     2.0892506000
   10      O      -2.5640060000     1.0305818000     1.5221739000
   11      H      -1.4792600000    -2.3860348000     1.4067059000
 ----------------------------------------------------------------
 Nuclear Repulsion Energy =         398.69474449 hartrees
 There are       32 alpha and       31 beta electrons
 Discretize the solute cavity surface with Lebedev spheres
	Using 110 Lebedev grid points for each H atom
	Using 194 Lebedev grid points for other atoms
	Atomic van der Waals radii will be scaled by 1.20
 Remove points where switching function is < 1.0e-08
 Keep 1062 surface tesserae and discard 820 interior tesserae
 Molecular Surface Area = 124.563 Angst**2

                       Distance Matrix (Angstroms)
             C (  1)   O (  2)   H (  3)   C (  4)   O (  5)   O (  6)
   O (  2)  1.222223
   H (  3)  2.634815  3.830383
   C (  4)  1.448793  2.314130  1.939369
   O (  5)  2.386018  2.690264  3.076591  1.329811
   O (  6)  2.487121  3.552032  0.966415  1.320051  2.210442
   O (  7)  1.345241  2.207448  2.644413  2.439913  3.621771  2.970538
   H (  8)  1.960392  3.042202  2.018954  2.540695  3.852914  2.613475
   O (  9)  2.662637  3.239907  3.065254  2.295135  2.790152  2.749079
   O ( 10)  3.419700  4.243025  2.819484  2.829408  3.475919  2.694330
   H ( 11)  3.283364  3.662983  3.347309  2.009339  0.978903  2.387191
             O (  7)   H (  8)   O (  9)   O ( 10)
   H (  8)  0.965657
   O (  9)  3.222185  3.229585
   O ( 10)  3.687032  3.363870  1.214165
   H ( 11)  4.434974  4.519032  3.128027  3.586541
 
 Requested basis set is 6-311++G(2df,2p)
 There are 82 shells and 302 basis functions
 A cutoff of  1.0D-11 yielded   3053 shell pairs
 There are     42065 function pairs (     53783 Cartesian)
 Smallest overlap matrix eigenvalue = 3.15E-05
 Guess MOs from SCF MO coefficient file

 -----------------------------------------------------------------------
  General SCF calculation program by
  Eric Jon Sundstrom, Paul Horn, Yuezhi Mao, Dmitri Zuev, Alec White,
  David Stuck, Shaama M.S., Shane Yost, Joonho Lee, David Small,
  Daniel Levine, Susi Lehtola, Hugh Burton, Evgeny Epifanovsky,
  Bang C. Huynh
 -----------------------------------------------------------------------
 Exchange:     0.1500 Hartree-Fock + 1.0000 wB97M-V + LR-HF
 Correlation:  1.0000 wB97M-V
 Using SG-2 standard quadrature grid
 Nonlocal Correlation:  VV10 with C = 0.0100 and b = 6.00 and scale = 1.00000
 Grid used for NLC:  SG-1 standard quadrature
 
 Citation of the SMD model:
 Marenich, A.V.; Cramer, C.J.; Truhlar, D.G.
 J. Phys. Chem. B 2009, 113, 6378-6396.
 iSolventCode=           1
 Solvent: water                                                           
 
 vradii
            1           2           3           4           5           6
    1   1.8500000   1.5200000   1.2000000   1.8500000   1.5200000   1.5200000
            7           8           9          10          11
    1   1.5200000   1.2000000   1.5200000   1.5200000   1.2000000
 -------------------------------------------------------
 OpenMP BLAS3 based DFT computing Module                
 Release: version 1.0, May 2013, Q-Chem Inc. Pittsburgh 
 -------------------------------------------------------
 A unrestricted SCF calculation will be
 performed using Roothaan-Hall, DIIS, GDM
 SCF converges when RMS gradient is below 1.0e-06
 ---------------------------------------
  Cycle       Energy         DIIS error
 ---------------------------------------
    1    -529.2108986720      4.20e-04  Roothaan Step
 ---------------------------------------
  Cycle       Energy         DIIS error
 ---------------------------------------
    1    -529.2561492893      5.24e-04  
    2    -529.2647877082      5.51e-04  Done DIIS. Switching to GDM
 ---------------------------------------
  Cycle       Energy        RMS Gradient
 ---------------------------------------
    1    -529.2647877082      3.02e-02   Normal BFGS step
    2    -529.2602181329      5.35e-02  Line search: overstep
    3    -529.2735361382      7.19e-03   Normal BFGS step
    4    -529.2739126766      3.08e-03   Normal BFGS step
    5    -529.2739724103      1.66e-03   Normal BFGS step
    6    -529.2739922437      6.32e-04   Normal BFGS step
    7    -529.2739950039      3.93e-04   Normal BFGS step
    8    -529.2739961761      3.34e-04   Normal BFGS step
    9    -529.2739967682      3.50e-04   Normal BFGS step
   10    -529.2739970142      2.20e-04   Normal BFGS step
   11    -529.2739971913      1.36e-04   Normal BFGS step
   12    -529.2739972841      4.91e-05   Normal BFGS step
   13    -529.2739973084      3.70e-05   Normal BFGS step
   14    -529.2739973164      1.60e-05   Normal BFGS step
   15    -529.2739973181      8.44e-06   Normal BFGS step
   16    -529.2739973187      5.10e-06   Normal BFGS step
   17    -529.2739973189      3.73e-06   Normal BFGS step
   18    -529.2739973188      2.50e-06   Normal BFGS step
   19    -529.2739973187      1.48e-06   Normal BFGS step
   20    -529.2739973185      7.65e-07  Convergence criterion met
 ---------------------------------------
 SCF time:   CPU 871.33s  wall 59.00s 
<S^2> =          1.326965913
(3)  G-ENP(liq) elect-nuc-pol free energy of system     -529.273997319 a.u.
(4)  G-CDS(liq) cavity-dispersion-solvent structure 
     free energy                                                4.5767 kcal/mol
(6)  G-S(liq) free energy of system                     -529.266703862 a.u.
 SCF   energy in the final basis set =     -529.2667038619
 Total energy in the final basis set =     -529.2667038619
 
 --------------------------------------------------------------
 
                    Orbital Energies (a.u.)
 --------------------------------------------------------------
 
 Alpha MOs
 -- Occupied --
-19.4632 -19.4456 -19.4067 -19.3918 -19.3908 -19.3308 -10.5079 -10.5020
 -1.3986  -1.2743  -1.2412  -1.1935  -1.1565  -0.9382  -0.8606  -0.7623
 -0.7461  -0.6954  -0.6610  -0.6466  -0.6353  -0.5901  -0.5792  -0.5524
 -0.5388  -0.5259  -0.5089  -0.4668  -0.4345  -0.4122  -0.3866  -0.3769
 -- Virtual --
 -0.0018   0.0292   0.0432   0.0587   0.0771   0.0882   0.1048   0.1074
  0.1217   0.1320   0.1509   0.1573   0.1637   0.1714   0.1842   0.2022
  0.2225   0.2390   0.2500   0.2545   0.2599   0.2856   0.2876   0.2955
  0.3068   0.3138   0.3147   0.3174   0.3273   0.3338   0.3414   0.3499
  0.3571   0.3594   0.3704   0.3773   0.3869   0.3967   0.4089   0.4251
  0.4398   0.4455   0.4809   0.4993   0.5394   0.5842   0.6010   0.6360
  0.6523   0.6613   0.6861   0.7061   0.7234   0.7459   0.7728   0.7806
  0.8198   0.8334   0.8565   0.8670   0.8890   0.9013   0.9080   0.9501
  0.9946   1.0354   1.0515   1.0720   1.0763   1.0836   1.1062   1.1295
  1.1355   1.1476   1.1624   1.1674   1.1830   1.1907   1.2046   1.2326
  1.2476   1.2547   1.2611   1.2821   1.2925   1.3387   1.3635   1.3953
  1.4318   1.4526   1.4571   1.4927   1.5220   1.5456   1.5487   1.5607
  1.5909   1.6166   1.6417   1.6748   1.6936   1.7400   1.7556   1.7654
  1.8040   1.8259   1.8624   1.8832   1.9441   1.9531   1.9920   2.0004
  2.0629   2.1493   2.2219   2.2597   2.3039   2.3222   2.3445   2.3544
  2.3747   2.4182   2.4459   2.4627   2.4695   2.5364   2.5835   2.6251
  2.6395   2.6890   2.7724   2.8305   2.8448   2.8774   2.9145   2.9698
  2.9991   3.1617   3.1788   3.2264   3.2878   3.3003   3.3359   3.3581
  3.3896   3.4121   3.4428   3.4606   3.5287   3.5595   3.6001   3.6536
  3.6893   3.7243   3.7353   3.7762   3.8194   3.8267   3.8578   3.8888
  3.9886   4.1122   4.1443   4.1691   4.2243   4.2550   4.2813   4.3494
  4.3674   4.4283   4.5679   4.5815   4.6211   4.6274   4.6439   4.9502
  4.9565   4.9704   4.9809   5.0273   5.0695   5.1123   5.1302   5.1359
  5.1471   5.1532   5.1758   5.1803   5.1901   5.2018   5.2070   5.2254
  5.2360   5.2445   5.2531   5.2719   5.2920   5.2970   5.3185   5.3427
  5.3598   5.4013   5.4532   5.4815   5.5141   5.5220   5.5951   5.6610
  5.6859   5.7245   5.7495   5.7555   5.7823   5.8262   5.9143   5.9764
  6.0858   6.1412   6.1728   6.3806   6.4364   6.5249   6.7140   6.7901
  6.7979   6.8129   6.8269   6.8862   6.9254   6.9405   6.9684   6.9871
  6.9928   7.0020   7.0173   7.0349   7.0724   7.1000   7.1201   7.2287
  7.2504   7.2574   7.3016   7.3231   7.3260   7.3646   7.3862   7.3960
  7.4095   7.4464   7.4859   7.5049   7.5527   7.6952   7.7318   7.7703
  7.7991   7.8946   7.9019   8.0147   8.1267   8.1600  24.9164  25.2004
 50.4746  50.5301  50.5463  50.6121  50.6574  50.7486
 
 Beta MOs
 -- Occupied --
-19.4369 -19.4204 -19.4086 -19.3930 -19.3924 -19.3341 -10.5141 -10.5025
 -1.3509  -1.2795  -1.2439  -1.1983  -1.1610  -0.8834  -0.8567  -0.7662
 -0.7484  -0.6990  -0.6421  -0.5944  -0.5913  -0.5679  -0.5553  -0.5478
 -0.5321  -0.5266  -0.5128  -0.4802  -0.4493  -0.4162  -0.2750
 -- Virtual --
 -0.0170  -0.0009   0.0297   0.0437   0.0591   0.0778   0.0892   0.1058
  0.1071   0.1229   0.1321   0.1420   0.1527   0.1610   0.1647   0.1850
  0.2008   0.2249   0.2414   0.2524   0.2556   0.2623   0.2860   0.2875
  0.2945   0.3070   0.3123   0.3150   0.3220   0.3286   0.3337   0.3413
  0.3494   0.3586   0.3598   0.3710   0.3862   0.3905   0.3993   0.4118
  0.4333   0.4400   0.4476   0.4790   0.5013   0.5368   0.5828   0.6010
  0.6326   0.6480   0.6557   0.6831   0.7028   0.7186   0.7403   0.7684
  0.7788   0.8196   0.8329   0.8568   0.8664   0.8890   0.8989   0.9063
  0.9482   0.9971   1.0354   1.0564   1.0728   1.0821   1.0894   1.1139
  1.1336   1.1430   1.1530   1.1669   1.1732   1.1861   1.1982   1.2107
  1.2349   1.2516   1.2607   1.2695   1.2905   1.2922   1.3441   1.3712
  1.4016   1.4307   1.4588   1.4749   1.5074   1.5216   1.5582   1.5637
  1.5744   1.6010   1.6273   1.6461   1.6740   1.6997   1.7409   1.7547
  1.7948   1.8090   1.8281   1.8595   1.8922   1.9486   1.9577   1.9908
  1.9991   2.0593   2.1503   2.2199   2.2606   2.3087   2.3277   2.3544
  2.3663   2.3873   2.4227   2.4475   2.4628   2.4702   2.5351   2.5806
  2.6263   2.6443   2.6867   2.7538   2.8207   2.8283   2.8688   2.9057
  2.9463   2.9741   3.1492   3.1654   3.2139   3.2780   3.2870   3.3158
  3.3465   3.3762   3.3974   3.4280   3.4484   3.5093   3.5430   3.5852
  3.6468   3.6791   3.7150   3.7300   3.7726   3.7975   3.8226   3.8509
  3.8834   3.9836   4.1072   4.1403   4.1654   4.2197   4.2355   4.2637
  4.3446   4.3637   4.4248   4.5609   4.6290   4.6602   4.6696   4.6851
  4.9526   4.9998   5.0200   5.0254   5.0964   5.1115   5.1259   5.1291
  5.1529   5.1707   5.1771   5.1851   5.1974   5.2124   5.2178   5.2271
  5.2352   5.2537   5.2684   5.2724   5.2880   5.2934   5.3097   5.3275
  5.3623   5.3859   5.4023   5.4501   5.4790   5.5116   5.5174   5.5901
  5.6550   5.6817   5.7186   5.7761   5.7988   5.8045   5.8218   5.9088
  5.9669   6.0831   6.1345   6.1698   6.3715   6.4326   6.5211   6.7884
  6.8587   6.8657   6.8696   6.8986   6.9263   6.9474   6.9795   6.9832
  7.0038   7.0159   7.0289   7.0384   7.0781   7.0957   7.1121   7.1648
  7.2295   7.2490   7.2530   7.2987   7.3205   7.3278   7.3798   7.3834
  7.3981   7.4243   7.4481   7.4997   7.5191   7.5494   7.6913   7.7293
  7.7667   7.7950   7.8919   7.8997   8.0113   8.1587   8.1959  24.9130
 25.1976  50.4943  50.5390  50.5540  50.6133  50.6563  50.7462
 --------------------------------------------------------------
 
          Ground-State Mulliken Net Atomic Charges

     Atom                 Charge (a.u.)    Spin (a.u.)
  --------------------------------------------------------
      1 C                     0.324623      -0.054957
      2 O                    -0.493102      -0.120411
      3 H                     0.354357       0.001642
      4 C                     0.191783      -0.377992
      5 O                    -0.341449      -0.065129
      6 O                    -0.289175      -0.059835
      7 O                    -0.332708      -0.018795
      8 H                     0.339421       0.001204
      9 O                    -0.057056       0.848890
     10 O                    -0.086221       0.845465
     11 H                     0.389528      -0.000083
  --------------------------------------------------------
  Sum of atomic charges =    -0.000000
  Sum of spin   charges =     1.000000

 -----------------------------------------------------------------
                    Cartesian Multipole Moments
 -----------------------------------------------------------------
    Charge (ESU x 10^10)
                 0.0000
    Dipole Moment (Debye)
         X      -5.4000      Y      -0.8534      Z      -5.9360
       Tot       8.0700
    Quadrupole Moments (Debye-Ang)
        XX     -52.7280     XY       4.9479     YY     -40.3401
        XZ      -2.6231     YZ      -5.2554     ZZ     -50.0045
    Octopole Moments (Debye-Ang^2)
       XXX      66.6875    XXY      -9.7201    XYY       7.3142
       YYY      -1.8853    XXZ     -52.6515    XYZ      16.2043
       YYZ     -35.5873    XZZ      13.2764    YZZ       2.4985
       ZZZ    -136.0564
    Hexadecapole Moments (Debye-Ang^3)
      XXXX    -611.5883   XXXY      28.7082   XXYY    -129.1507
      XYYY      39.4961   YYYY    -257.4844   XXXZ      88.5924
      XXYZ     -22.6493   XYYZ       8.1741   YYYZ     -18.9320
      XXZZ    -176.7204   XYZZ      20.4555   YYZZ    -112.1992
      XZZZ      83.1695   YZZZ       3.8188   ZZZZ    -451.7899
 -----------------------------------------------------------------
 Calculating analytic gradient of the SCF energy
 Gradient of CDS energy
            1           2           3           4           5           6
    1   0.0024557  -0.0011428  -0.0001878  -0.0022776   0.0001379   0.0018704
    2   0.0034130   0.0004220   0.0000042  -0.0029179   0.0027177  -0.0000936
    3  -0.0014503  -0.0009815  -0.0002937  -0.0001990  -0.0017132   0.0018921
            7           8           9          10          11
    1  -0.0004320   0.0000249  -0.0001761  -0.0000349  -0.0002377
    2  -0.0035775   0.0002972   0.0000310   0.0000240  -0.0003203
    3   0.0026739  -0.0002230  -0.0000133   0.0001530   0.0001549
 Gradient of SCF Energy
            1           2           3           4           5           6
    1  -0.0070987  -0.0012101  -0.0010803   0.0318022   0.0010939  -0.0070283
    2   0.0009844   0.0010949   0.0239144   0.0116554   0.0112127  -0.0251093
    3  -0.0076167   0.0000841  -0.0235228  -0.0003171  -0.0070230   0.0208127
            7           8           9          10          11
    1   0.0316079  -0.0240479  -0.0144054   0.0121268  -0.0217601
    2  -0.0012848   0.0062665   0.0055592  -0.0056106  -0.0286828
    3   0.0188944  -0.0191977  -0.0005453   0.0061018   0.0123296
 Max gradient component =       3.180E-02
 RMS gradient           =       1.549E-02
 Computing fast CPCM-SWIG gradient
 Updating gradient with PCM contributions...
 -- total gradient after adding PCM contribution --
---------------------------------------------------
  Atom         X              Y              Z     
---------------------------------------------------
   1      -0.008760       0.001260      -0.008196
   2       0.000067       0.000409       0.000277
   3       0.000561       0.000400      -0.000306
   4       0.030361       0.017435      -0.002034
   5      -0.018859       0.000030      -0.008730
   6      -0.002325      -0.005346       0.002565
   7       0.004924       0.002881       0.000313
   8      -0.000409      -0.001087       0.000478
   9      -0.017039       0.006089      -0.002499
  10       0.015149      -0.005937       0.006479
  11      -0.003670      -0.016134       0.011654
---------------------------------------------------
 Number of fixed atoms: 0
 Gradient time:  CPU 98.35 s  wall 8.55 s
 ----------------------------------------------------------------
             Standard Nuclear Orientation (Angstroms)
    I     Atom           X                Y                Z
 ----------------------------------------------------------------
    1      C       0.5862603000     0.0451744000     0.6353025000
    2      O       1.4848503000    -0.2339721000     1.4176279000
    3      H      -1.5462678000     0.0297673000    -0.9093011000
    4      C      -0.6026559000    -0.7780323000     0.5800644000
    5      O      -0.6520186000    -1.8666470000     1.3422188000
    6      O      -1.5930165000    -0.7107512000    -0.2901049000
    7      O       0.7269977000     1.1380600000    -0.1367250000
    8      H      -0.0414875000     1.3560126000    -0.6793301000
    9      O      -1.5543136000     0.6656948000     2.0892506000
   10      O      -2.5640060000     1.0305818000     1.5221739000
   11      H      -1.4792600000    -2.3860348000     1.4067059000
 ----------------------------------------------------------------
 Nuclear Repulsion Energy =         398.70509531 hartrees
 There are       32 alpha and       31 beta electrons
 Discretize the solute cavity surface with Lebedev spheres
	Using 110 Lebedev grid points for each H atom
	Using 194 Lebedev grid points for other atoms
	Atomic van der Waals radii will be scaled by 1.20
 Remove points where switching function is < 1.0e-08
 Keep 1061 surface tesserae and discard 821 interior tesserae
 Molecular Surface Area = 124.558 Angst**2

                       Distance Matrix (Angstroms)
             C (  1)   O (  2)   H (  3)   C (  4)   O (  5)   O (  6)
   O (  2)  1.223691
   H (  3)  2.633195  3.830383
   C (  4)  1.447150  2.314130  1.939369
   O (  5)  2.384979  2.690264  3.076591  1.329811
   O (  6)  2.485367  3.552032  0.966415  1.320051  2.210442
   O (  7)  1.345449  2.207448  2.644413  2.439913  3.621771  2.970538
   H (  8)  1.959751  3.042202  2.018954  2.540695  3.852914  2.613475
   O (  9)  2.661027  3.239907  3.065254  2.295135  2.790152  2.749079
   O ( 10)  3.417857  4.243025  2.819484  2.829408  3.475919  2.694330
   H ( 11)  3.282105  3.662983  3.347309  2.009339  0.978903  2.387191
             O (  7)   H (  8)   O (  9)   O ( 10)
   H (  8)  0.965657
   O (  9)  3.222185  3.229585
   O ( 10)  3.687032  3.363870  1.214165
   H ( 11)  4.434974  4.519032  3.128027  3.586541
 
 Requested basis set is 6-311++G(2df,2p)
 There are 82 shells and 302 basis functions
 A cutoff of  1.0D-11 yielded   3053 shell pairs
 There are     42065 function pairs (     53783 Cartesian)
 Smallest overlap matrix eigenvalue = 3.13E-05
 Guess MOs from SCF MO coefficient file

 -----------------------------------------------------------------------
  General SCF calculation program by
  Eric Jon Sundstrom, Paul Horn, Yuezhi Mao, Dmitri Zuev, Alec White,
  David Stuck, Shaama M.S., Shane Yost, Joonho Lee, David Small,
  Daniel Levine, Susi Lehtola, Hugh Burton, Evgeny Epifanovsky,
  Bang C. Huynh
 -----------------------------------------------------------------------
 Exchange:     0.1500 Hartree-Fock + 1.0000 wB97M-V + LR-HF
 Correlation:  1.0000 wB97M-V
 Using SG-2 standard quadrature grid
 Nonlocal Correlation:  VV10 with C = 0.0100 and b = 6.00 and scale = 1.00000
 Grid used for NLC:  SG-1 standard quadrature
 
 Citation of the SMD model:
 Marenich, A.V.; Cramer, C.J.; Truhlar, D.G.
 J. Phys. Chem. B 2009, 113, 6378-6396.
 iSolventCode=           1
 Solvent: water                                                           
 
 vradii
            1           2           3           4           5           6
    1   1.8500000   1.5200000   1.2000000   1.8500000   1.5200000   1.5200000
            7           8           9          10          11
    1   1.5200000   1.2000000   1.5200000   1.5200000   1.2000000
 -------------------------------------------------------
 OpenMP BLAS3 based DFT computing Module                
 Release: version 1.0, May 2013, Q-Chem Inc. Pittsburgh 
 -------------------------------------------------------
 A unrestricted SCF calculation will be
 performed using Roothaan-Hall, DIIS, GDM
 SCF converges when RMS gradient is below 1.0e-06
 ---------------------------------------
  Cycle       Energy         DIIS error
 ---------------------------------------
    1    -529.2108021880      4.20e-04  Roothaan Step
 ---------------------------------------
  Cycle       Energy         DIIS error
 ---------------------------------------
    1    -529.2559588087      5.27e-04  
    2    -529.2645433413      5.57e-04  Done DIIS. Switching to GDM
 ---------------------------------------
  Cycle       Energy        RMS Gradient
 ---------------------------------------
    1    -529.2645433413      3.09e-02   Normal BFGS step
    2    -529.2598111198      5.44e-02  Line search: overstep
    3    -529.2734873573      7.20e-03   Normal BFGS step
    4    -529.2738668291      3.19e-03   Normal BFGS step
    5    -529.2739271165      1.67e-03   Normal BFGS step
    6    -529.2739468341      4.18e-04   Normal BFGS step
    7    -529.2739493478      4.06e-04   Normal BFGS step
    8    -529.2739502445      2.53e-04   Normal BFGS step
    9    -529.2739506226      2.01e-04   Normal BFGS step
   10    -529.2739507215      1.26e-04   Normal BFGS step
   11    -529.2739507737      1.02e-04   Normal BFGS step
   12    -529.2739508128      4.40e-05   Normal BFGS step
   13    -529.2739508268      3.34e-05   Normal BFGS step
   14    -529.2739508328      1.31e-05   Normal BFGS step
   15    -529.2739508344      8.96e-06   Normal BFGS step
   16    -529.2739508348      5.30e-06   Normal BFGS step
   17    -529.2739508350      3.72e-06   Normal BFGS step
   18    -529.2739508350      2.44e-06   Normal BFGS step
   19    -529.2739508349      1.50e-06   Normal BFGS step
   20    -529.2739508348      7.18e-07  Convergence criterion met
 ---------------------------------------
 SCF time:   CPU 918.04s  wall 62.00s 
<S^2> =          1.331880106
(3)  G-ENP(liq) elect-nuc-pol free energy of system     -529.273950835 a.u.
(4)  G-CDS(liq) cavity-dispersion-solvent structure 
     free energy                                                4.5709 kcal/mol
(6)  G-S(liq) free energy of system                     -529.266666704 a.u.
 SCF   energy in the final basis set =     -529.2666667044
 Total energy in the final basis set =     -529.2666667044
 
 --------------------------------------------------------------
 
                    Orbital Energies (a.u.)
 --------------------------------------------------------------
 
 Alpha MOs
 -- Occupied --
-19.4638 -19.4463 -19.4066 -19.3918 -19.3907 -19.3304 -10.5077 -10.5017
 -1.3992  -1.2742  -1.2408  -1.1934  -1.1557  -0.9388  -0.8608  -0.7622
 -0.7459  -0.6954  -0.6614  -0.6471  -0.6358  -0.5896  -0.5791  -0.5523
 -0.5386  -0.5258  -0.5089  -0.4667  -0.4341  -0.4119  -0.3870  -0.3775
 -- Virtual --
 -0.0021   0.0292   0.0432   0.0587   0.0771   0.0882   0.1048   0.1074
  0.1217   0.1320   0.1509   0.1573   0.1637   0.1715   0.1842   0.2021
  0.2225   0.2390   0.2500   0.2545   0.2599   0.2856   0.2876   0.2955
  0.3067   0.3139   0.3147   0.3174   0.3274   0.3339   0.3414   0.3500
  0.3571   0.3594   0.3704   0.3772   0.3869   0.3966   0.4089   0.4250
  0.4399   0.4455   0.4812   0.4994   0.5397   0.5841   0.6010   0.6361
  0.6525   0.6613   0.6861   0.7063   0.7233   0.7457   0.7729   0.7809
  0.8198   0.8335   0.8566   0.8669   0.8888   0.9013   0.9080   0.9501
  0.9947   1.0356   1.0515   1.0721   1.0763   1.0837   1.1061   1.1297
  1.1354   1.1476   1.1623   1.1675   1.1831   1.1908   1.2045   1.2327
  1.2477   1.2548   1.2611   1.2822   1.2927   1.3389   1.3638   1.3952
  1.4320   1.4525   1.4568   1.4927   1.5222   1.5453   1.5486   1.5606
  1.5909   1.6168   1.6417   1.6750   1.6935   1.7400   1.7556   1.7652
  1.8042   1.8259   1.8627   1.8834   1.9443   1.9530   1.9918   2.0006
  2.0629   2.1493   2.2221   2.2595   2.3036   2.3221   2.3441   2.3544
  2.3746   2.4184   2.4460   2.4627   2.4696   2.5369   2.5835   2.6250
  2.6396   2.6895   2.7728   2.8311   2.8443   2.8773   2.9144   2.9700
  2.9992   3.1619   3.1787   3.2270   3.2883   3.3004   3.3362   3.3581
  3.3896   3.4118   3.4430   3.4601   3.5300   3.5592   3.6005   3.6542
  3.6892   3.7251   3.7355   3.7762   3.8196   3.8268   3.8581   3.8894
  3.9884   4.1127   4.1442   4.1696   4.2250   4.2569   4.2834   4.3502
  4.3669   4.4287   4.5692   4.5812   4.6206   4.6270   4.6434   4.9504
  4.9560   4.9705   4.9816   5.0271   5.0690   5.1123   5.1301   5.1358
  5.1469   5.1531   5.1754   5.1802   5.1902   5.2018   5.2071   5.2254
  5.2359   5.2444   5.2530   5.2720   5.2921   5.2972   5.3187   5.3424
  5.3597   5.4016   5.4531   5.4809   5.5145   5.5220   5.5949   5.6612
  5.6858   5.7243   5.7490   5.7550   5.7827   5.8263   5.9129   5.9760
  6.0861   6.1410   6.1728   6.3769   6.4346   6.5237   6.7137   6.7896
  6.7974   6.8125   6.8278   6.8859   6.9249   6.9408   6.9680   6.9871
  6.9925   7.0019   7.0170   7.0349   7.0726   7.0992   7.1190   7.2286
  7.2504   7.2576   7.3015   7.3229   7.3259   7.3641   7.3864   7.3947
  7.4093   7.4468   7.4857   7.5051   7.5530   7.6951   7.7317   7.7709
  7.7985   7.8941   7.9024   8.0153   8.1262   8.1595  24.9159  25.2013
 50.4740  50.5296  50.5462  50.6120  50.6576  50.7474
 
 Beta MOs
 -- Occupied --
-19.4374 -19.4210 -19.4085 -19.3929 -19.3923 -19.3338 -10.5139 -10.5023
 -1.3513  -1.2795  -1.2436  -1.1982  -1.1603  -0.8837  -0.8570  -0.7662
 -0.7482  -0.6990  -0.6422  -0.5941  -0.5916  -0.5677  -0.5552  -0.5481
 -0.5321  -0.5266  -0.5128  -0.4802  -0.4491  -0.4159  -0.2753
 -- Virtual --
 -0.0171  -0.0013   0.0297   0.0437   0.0592   0.0778   0.0892   0.1058
  0.1071   0.1229   0.1321   0.1420   0.1527   0.1610   0.1647   0.1850
  0.2007   0.2250   0.2414   0.2524   0.2556   0.2623   0.2860   0.2874
  0.2945   0.3070   0.3125   0.3150   0.3220   0.3287   0.3338   0.3413
  0.3494   0.3586   0.3598   0.3710   0.3861   0.3905   0.3993   0.4117
  0.4332   0.4401   0.4476   0.4792   0.5014   0.5371   0.5827   0.6010
  0.6327   0.6481   0.6556   0.6830   0.7030   0.7185   0.7400   0.7685
  0.7791   0.8196   0.8330   0.8569   0.8664   0.8888   0.8989   0.9062
  0.9482   0.9972   1.0356   1.0564   1.0729   1.0821   1.0896   1.1139
  1.1336   1.1431   1.1531   1.1669   1.1731   1.1862   1.1982   1.2107
  1.2350   1.2516   1.2609   1.2696   1.2905   1.2924   1.3443   1.3713
  1.4016   1.4309   1.4587   1.4747   1.5075   1.5218   1.5583   1.5636
  1.5743   1.6011   1.6274   1.6461   1.6741   1.6997   1.7409   1.7548
  1.7947   1.8090   1.8280   1.8598   1.8925   1.9487   1.9576   1.9905
  1.9993   2.0592   2.1502   2.2201   2.2605   2.3084   2.3276   2.3541
  2.3663   2.3871   2.4229   2.4476   2.4627   2.4703   2.5356   2.5806
  2.6262   2.6444   2.6871   2.7541   2.8214   2.8276   2.8685   2.9054
  2.9464   2.9743   3.1493   3.1651   3.2144   3.2784   3.2872   3.3161
  3.3465   3.3761   3.3970   3.4282   3.4477   3.5106   3.5428   3.5852
  3.6474   3.6790   3.7162   3.7299   3.7726   3.7976   3.8227   3.8511
  3.8840   3.9834   4.1078   4.1402   4.1659   4.2203   4.2383   4.2648
  4.3452   4.3632   4.4251   4.5622   4.6286   4.6599   4.6693   4.6847
  4.9546   4.9994   5.0197   5.0251   5.0962   5.1113   5.1258   5.1291
  5.1530   5.1705   5.1770   5.1852   5.1974   5.2125   5.2178   5.2269
  5.2350   5.2536   5.2683   5.2722   5.2878   5.2936   5.3097   5.3275
  5.3622   5.3857   5.4025   5.4500   5.4783   5.5121   5.5172   5.5899
  5.6551   5.6816   5.7183   5.7764   5.7984   5.8041   5.8219   5.9075
  5.9665   6.0835   6.1342   6.1699   6.3677   6.4308   6.5199   6.7894
  6.8589   6.8652   6.8693   6.8983   6.9263   6.9470   6.9794   6.9832
  7.0036   7.0160   7.0285   7.0384   7.0777   7.0954   7.1110   7.1645
  7.2294   7.2488   7.2531   7.2986   7.3201   7.3279   7.3790   7.3835
  7.3972   7.4242   7.4483   7.4999   7.5189   7.5496   7.6912   7.7291
  7.7673   7.7943   7.8914   7.9001   8.0119   8.1583   8.1955  24.9125
 25.1984  50.4938  50.5389  50.5536  50.6132  50.6565  50.7450
 --------------------------------------------------------------
 
          Ground-State Mulliken Net Atomic Charges

     Atom                 Charge (a.u.)    Spin (a.u.)
  --------------------------------------------------------
      1 C                     0.323855      -0.055815
      2 O                    -0.495137      -0.121966
      3 H                     0.354374       0.001653
      4 C                     0.191915      -0.378808
      5 O                    -0.341801      -0.065308
      6 O                    -0.289471      -0.060197
      7 O                    -0.332861      -0.019011
      8 H                     0.339240       0.001216
      9 O                    -0.055489       0.850691
     10 O                    -0.084103       0.847636
     11 H                     0.389480      -0.000090
  --------------------------------------------------------
  Sum of atomic charges =    -0.000000
  Sum of spin   charges =     1.000000

 -----------------------------------------------------------------
                    Cartesian Multipole Moments
 -----------------------------------------------------------------
    Charge (ESU x 10^10)
                 0.0000
    Dipole Moment (Debye)
         X      -5.4535      Y      -0.8336      Z      -5.9216
       Tot       8.0933
    Quadrupole Moments (Debye-Ang)
        XX     -52.6773     XY       4.9131     YY     -40.3351
        XZ      -2.7079     YZ      -5.2223     ZZ     -49.9724
    Octopole Moments (Debye-Ang^2)
       XXX      66.3940    XXY      -9.6112    XYY       7.2632
       YYY      -1.8376    XXZ     -52.5394    XYZ      16.1443
       YYZ     -35.5632    XZZ      13.1157    YZZ       2.5681
       ZZZ    -135.9599
    Hexadecapole Moments (Debye-Ang^3)
      XXXX    -610.9106   XXXY      28.4337   XXYY    -129.0266
      XYYY      39.4107   YYYY    -257.4681   XXXZ      88.1058
      XXYZ     -22.4785   XYYZ       8.0698   YYYZ     -18.8469
      XXZZ    -176.4704   XYZZ      20.3291   YYZZ    -112.1474
      XZZZ      82.7868   YZZZ       3.9887   ZZZZ    -451.5186
 -----------------------------------------------------------------
 Calculating analytic gradient of the SCF energy
 Gradient of CDS energy
            1           2           3           4           5           6
    1   0.0024795  -0.0011615  -0.0001878  -0.0022764   0.0001384   0.0018706
    2   0.0034155   0.0004272   0.0000042  -0.0029172   0.0027177  -0.0000937
    3  -0.0014420  -0.0009958  -0.0002937  -0.0001988  -0.0017132   0.0018920
            7           8           9          10          11
    1  -0.0004390   0.0000251  -0.0001760  -0.0000349  -0.0002378
    2  -0.0035860   0.0002974   0.0000310   0.0000240  -0.0003202
    3   0.0026799  -0.0002231  -0.0000133   0.0001530   0.0001549
 Gradient of SCF Energy
            1           2           3           4           5           6
    1  -0.0092279   0.0000111  -0.0011122   0.0319496   0.0011946  -0.0068114
    2   0.0009719   0.0008574   0.0239503   0.0119956   0.0112653  -0.0251314
    3  -0.0085167   0.0008560  -0.0235153  -0.0000373  -0.0071238   0.0208968
            7           8           9          10          11
    1   0.0320128  -0.0240862  -0.0136427   0.0115025  -0.0217902
    2  -0.0011541   0.0061400   0.0051835  -0.0053974  -0.0286810
    3   0.0189000  -0.0191149  -0.0003950   0.0057099   0.0123403
 Max gradient component =       3.201E-02
 RMS gradient           =       1.554E-02
 Computing fast CPCM-SWIG gradient
 Updating gradient with PCM contributions...
 -- total gradient after adding PCM contribution --
---------------------------------------------------
  Atom         X              Y              Z     
---------------------------------------------------
   1      -0.010903       0.001225      -0.009116
   2       0.001301       0.000182       0.001068
   3       0.000562       0.000408      -0.000312
   4       0.030552       0.017759      -0.001781
   5      -0.018806       0.000092      -0.008816
   6      -0.002150      -0.005336       0.002641
   7       0.005308       0.003017       0.000339
   8      -0.000436      -0.001200       0.000533
   9      -0.016356       0.005744      -0.002378
  10       0.014601      -0.005746       0.006163
  11      -0.003673      -0.016146       0.011657
---------------------------------------------------
 Number of fixed atoms: 0
 Gradient time:  CPU 111.35 s  wall 9.87 s
 ----------------------------------------------------------------
             Standard Nuclear Orientation (Angstroms)
    I     Atom           X                Y                Z
 ----------------------------------------------------------------
    1      C       0.5872603000     0.0461744000     0.6353025000
    2      O       1.4848503000    -0.2339721000     1.4176279000
    3      H      -1.5462678000     0.0297673000    -0.9093011000
    4      C      -0.6026559000    -0.7780323000     0.5800644000
    5      O      -0.6520186000    -1.8666470000     1.3422188000
    6      O      -1.5930165000    -0.7107512000    -0.2901049000
    7      O       0.7269977000     1.1380600000    -0.1367250000
    8      H      -0.0414875000     1.3560126000    -0.6793301000
    9      O      -1.5543136000     0.6656948000     2.0892506000
   10      O      -2.5640060000     1.0305818000     1.5221739000
   11      H      -1.4792600000    -2.3860348000     1.4067059000
 ----------------------------------------------------------------
 Nuclear Repulsion Energy =         398.69923945 hartrees
 There are       32 alpha and       31 beta electrons
 Discretize the solute cavity surface with Lebedev spheres
	Using 110 Lebedev grid points for each H atom
	Using 194 Lebedev grid points for other atoms
	Atomic van der Waals radii will be scaled by 1.20
 Remove points where switching function is < 1.0e-08
 Keep 1061 surface tesserae and discard 821 interior tesserae
 Molecular Surface Area = 124.561 Angst**2

                       Distance Matrix (Angstroms)
             C (  1)   O (  2)   H (  3)   C (  4)   O (  5)   O (  6)
   O (  2)  1.223186
   H (  3)  2.634011  3.830383
   C (  4)  1.448540  2.314130  1.939369
   O (  5)  2.386300  2.690264  3.076591  1.329811
   O (  6)  2.486548  3.552032  0.966415  1.320051  2.210442
   O (  7)  1.344532  2.207448  2.644413  2.439913  3.621771  2.970538
   H (  8)  1.959403  3.042202  2.018954  2.540695  3.852914  2.613475
   O (  9)  2.661599  3.239907  3.065254  2.295135  2.790152  2.749079
   O ( 10)  3.418491  4.243025  2.819484  2.829408  3.475919  2.694330
   H ( 11)  3.283475  3.662983  3.347309  2.009339  0.978903  2.387191
             O (  7)   H (  8)   O (  9)   O ( 10)
   H (  8)  0.965657
   O (  9)  3.222185  3.229585
   O ( 10)  3.687032  3.363870  1.214165
   H ( 11)  4.434974  4.519032  3.128027  3.586541
 
 Requested basis set is 6-311++G(2df,2p)
 There are 82 shells and 302 basis functions
 A cutoff of  1.0D-11 yielded   3053 shell pairs
 There are     42065 function pairs (     53783 Cartesian)
 Smallest overlap matrix eigenvalue = 3.15E-05
 Guess MOs from SCF MO coefficient file

 -----------------------------------------------------------------------
  General SCF calculation program by
  Eric Jon Sundstrom, Paul Horn, Yuezhi Mao, Dmitri Zuev, Alec White,
  David Stuck, Shaama M.S., Shane Yost, Joonho Lee, David Small,
  Daniel Levine, Susi Lehtola, Hugh Burton, Evgeny Epifanovsky,
  Bang C. Huynh
 -----------------------------------------------------------------------
 Exchange:     0.1500 Hartree-Fock + 1.0000 wB97M-V + LR-HF
 Correlation:  1.0000 wB97M-V
 Using SG-2 standard quadrature grid
 Nonlocal Correlation:  VV10 with C = 0.0100 and b = 6.00 and scale = 1.00000
 Grid used for NLC:  SG-1 standard quadrature
 
 Citation of the SMD model:
 Marenich, A.V.; Cramer, C.J.; Truhlar, D.G.
 J. Phys. Chem. B 2009, 113, 6378-6396.
 iSolventCode=           1
 Solvent: water                                                           
 
 vradii
            1           2           3           4           5           6
    1   1.8500000   1.5200000   1.2000000   1.8500000   1.5200000   1.5200000
            7           8           9          10          11
    1   1.5200000   1.2000000   1.5200000   1.5200000   1.2000000
 -------------------------------------------------------
 OpenMP BLAS3 based DFT computing Module                
 Release: version 1.0, May 2013, Q-Chem Inc. Pittsburgh 
 -------------------------------------------------------
 A unrestricted SCF calculation will be
 performed using Roothaan-Hall, DIIS, GDM
 SCF converges when RMS gradient is below 1.0e-06
 ---------------------------------------
  Cycle       Energy         DIIS error
 ---------------------------------------
    1    -529.2108104676      4.20e-04  Roothaan Step
 ---------------------------------------
  Cycle       Energy         DIIS error
 ---------------------------------------
    1    -529.2560683183      5.25e-04  
    2    -529.2647085255      5.53e-04  Done DIIS. Switching to GDM
 ---------------------------------------
  Cycle       Energy        RMS Gradient
 ---------------------------------------
    1    -529.2647085255      3.04e-02   Normal BFGS step
    2    -529.2600835760      5.39e-02  Line search: overstep
    3    -529.2735142388      7.26e-03   Normal BFGS step
    4    -529.2738927941      3.09e-03   Normal BFGS step
    5    -529.2739530969      1.66e-03   Normal BFGS step
    6    -529.2739730900      6.70e-04   Normal BFGS step
    7    -529.2739759352      3.96e-04   Normal BFGS step
    8    -529.2739771737      3.55e-04   Normal BFGS step
    9    -529.2739778117      3.69e-04   Normal BFGS step
   10    -529.2739780850      2.28e-04   Normal BFGS step
   11    -529.2739782809      1.37e-04   Normal BFGS step
   12    -529.2739783790      5.05e-05   Normal BFGS step
   13    -529.2739784039      3.70e-05   Normal BFGS step
   14    -529.2739784121      1.65e-05   Normal BFGS step
   15    -529.2739784139      8.11e-06   Normal BFGS step
   16    -529.2739784144      5.24e-06   Normal BFGS step
   17    -529.2739784146      3.82e-06   Normal BFGS step
   18    -529.2739784146      2.54e-06   Normal BFGS step
   19    -529.2739784144      1.47e-06   Normal BFGS step
   20    -529.2739784142      7.79e-07  Convergence criterion met
 ---------------------------------------
 SCF time:   CPU 1005.78s  wall 68.00s 
<S^2> =          1.327855958
(3)  G-ENP(liq) elect-nuc-pol free energy of system     -529.273978414 a.u.
(4)  G-CDS(liq) cavity-dispersion-solvent structure 
     free energy                                                4.5778 kcal/mol
(6)  G-S(liq) free energy of system                     -529.266683188 a.u.
 SCF   energy in the final basis set =     -529.2666831879
 Total energy in the final basis set =     -529.2666831879
 
 --------------------------------------------------------------
 
                    Orbital Energies (a.u.)
 --------------------------------------------------------------
 
 Alpha MOs
 -- Occupied --
-19.4633 -19.4457 -19.4067 -19.3920 -19.3908 -19.3306 -10.5079 -10.5020
 -1.3987  -1.2744  -1.2413  -1.1935  -1.1561  -0.9383  -0.8606  -0.7623
 -0.7462  -0.6955  -0.6611  -0.6467  -0.6354  -0.5899  -0.5792  -0.5524
 -0.5388  -0.5259  -0.5089  -0.4668  -0.4343  -0.4120  -0.3867  -0.3770
 -- Virtual --
 -0.0019   0.0292   0.0432   0.0587   0.0771   0.0882   0.1048   0.1074
  0.1217   0.1320   0.1509   0.1573   0.1637   0.1713   0.1842   0.2022
  0.2225   0.2390   0.2500   0.2545   0.2599   0.2856   0.2876   0.2955
  0.3068   0.3138   0.3147   0.3174   0.3273   0.3338   0.3414   0.3499
  0.3571   0.3594   0.3704   0.3773   0.3870   0.3967   0.4089   0.4250
  0.4399   0.4454   0.4810   0.4994   0.5394   0.5841   0.6009   0.6361
  0.6524   0.6614   0.6860   0.7061   0.7233   0.7457   0.7729   0.7806
  0.8197   0.8334   0.8565   0.8670   0.8888   0.9012   0.9079   0.9502
  0.9947   1.0355   1.0515   1.0721   1.0763   1.0837   1.1060   1.1296
  1.1355   1.1476   1.1623   1.1674   1.1831   1.1907   1.2045   1.2327
  1.2477   1.2548   1.2611   1.2822   1.2926   1.3388   1.3636   1.3951
  1.4318   1.4526   1.4569   1.4927   1.5220   1.5455   1.5487   1.5606
  1.5909   1.6167   1.6416   1.6750   1.6934   1.7401   1.7556   1.7654
  1.8040   1.8259   1.8627   1.8833   1.9442   1.9528   1.9919   2.0005
  2.0628   2.1493   2.2219   2.2597   2.3039   2.3222   2.3444   2.3545
  2.3746   2.4180   2.4461   2.4627   2.4697   2.5365   2.5834   2.6250
  2.6396   2.6893   2.7723   2.8306   2.8443   2.8774   2.9144   2.9702
  2.9993   3.1616   3.1786   3.2270   3.2882   3.3003   3.3362   3.3582
  3.3896   3.4119   3.4429   3.4606   3.5291   3.5590   3.6001   3.6541
  3.6892   3.7244   3.7348   3.7762   3.8194   3.8267   3.8577   3.8890
  3.9888   4.1123   4.1440   4.1691   4.2245   4.2554   4.2815   4.3495
  4.3672   4.4284   4.5678   4.5815   4.6210   4.6274   4.6438   4.9504
  4.9564   4.9705   4.9811   5.0273   5.0694   5.1123   5.1302   5.1360
  5.1471   5.1532   5.1757   5.1803   5.1902   5.2018   5.2071   5.2254
  5.2359   5.2445   5.2531   5.2719   5.2921   5.2970   5.3186   5.3427
  5.3597   5.4015   5.4529   5.4811   5.5144   5.5220   5.5949   5.6609
  5.6858   5.7246   5.7494   5.7554   5.7827   5.8261   5.9141   5.9761
  6.0857   6.1419   6.1730   6.3780   6.4361   6.5243   6.7141   6.7901
  6.7978   6.8129   6.8274   6.8863   6.9252   6.9406   6.9683   6.9871
  6.9927   7.0019   7.0171   7.0350   7.0725   7.0997   7.1196   7.2287
  7.2502   7.2575   7.3016   7.3233   7.3259   7.3645   7.3863   7.3958
  7.4094   7.4467   7.4859   7.5049   7.5525   7.6951   7.7317   7.7704
  7.7989   7.8945   7.9021   8.0150   8.1266   8.1599  24.9162  25.2004
 50.4745  50.5300  50.5463  50.6120  50.6576  50.7476
 
 Beta MOs
 -- Occupied --
-19.4370 -19.4205 -19.4086 -19.3930 -19.3926 -19.3339 -10.5141 -10.5025
 -1.3509  -1.2796  -1.2440  -1.1983  -1.1607  -0.8834  -0.8567  -0.7662
 -0.7484  -0.6991  -0.6421  -0.5942  -0.5914  -0.5679  -0.5554  -0.5479
 -0.5321  -0.5266  -0.5128  -0.4802  -0.4492  -0.4161  -0.2751
 -- Virtual --
 -0.0170  -0.0010   0.0297   0.0437   0.0591   0.0778   0.0892   0.1058
  0.1071   0.1229   0.1321   0.1420   0.1526   0.1610   0.1647   0.1850
  0.2008   0.2250   0.2414   0.2524   0.2556   0.2623   0.2860   0.2875
  0.2945   0.3070   0.3123   0.3150   0.3220   0.3286   0.3337   0.3413
  0.3494   0.3586   0.3598   0.3710   0.3862   0.3905   0.3994   0.4118
  0.4332   0.4401   0.4476   0.4791   0.5014   0.5369   0.5827   0.6009
  0.6327   0.6481   0.6557   0.6830   0.7028   0.7186   0.7401   0.7685
  0.7788   0.8195   0.8329   0.8568   0.8664   0.8888   0.8988   0.9061
  0.9482   0.9972   1.0355   1.0564   1.0728   1.0821   1.0895   1.1137
  1.1336   1.1431   1.1531   1.1669   1.1732   1.1861   1.1981   1.2106
  1.2350   1.2516   1.2608   1.2696   1.2905   1.2923   1.3442   1.3712
  1.4014   1.4307   1.4588   1.4748   1.5075   1.5216   1.5584   1.5636
  1.5743   1.6010   1.6273   1.6461   1.6742   1.6996   1.7410   1.7547
  1.7948   1.8089   1.8280   1.8597   1.8925   1.9486   1.9575   1.9906
  1.9992   2.0592   2.1503   2.2199   2.2607   2.3086   2.3277   2.3543
  2.3663   2.3873   2.4225   2.4476   2.4628   2.4705   2.5353   2.5805
  2.6262   2.6444   2.6870   2.7537   2.8208   2.8278   2.8686   2.9055
  2.9464   2.9746   3.1491   3.1651   3.2145   3.2783   3.2870   3.3161
  3.3466   3.3761   3.3972   3.4282   3.4483   3.5097   3.5425   3.5851
  3.6473   3.6791   3.7152   3.7295   3.7725   3.7974   3.8226   3.8508
  3.8837   3.9838   4.1073   4.1400   4.1655   4.2199   4.2361   4.2637
  4.3446   4.3635   4.4248   4.5608   4.6289   4.6601   4.6696   4.6850
  4.9534   4.9997   5.0200   5.0253   5.0964   5.1114   5.1259   5.1291
  5.1529   5.1707   5.1770   5.1852   5.1974   5.2125   5.2178   5.2271
  5.2352   5.2536   5.2684   5.2723   5.2880   5.2934   5.3097   5.3275
  5.3623   5.3859   5.4025   5.4498   5.4787   5.5120   5.5173   5.5900
  5.6549   5.6815   5.7187   5.7764   5.7987   5.8044   5.8218   5.9087
  5.9666   6.0830   6.1352   6.1700   6.3689   6.4323   6.5205   6.7891
  6.8589   6.8656   6.8695   6.8985   6.9262   6.9471   6.9795   6.9832
  7.0038   7.0160   7.0288   7.0384   7.0779   7.0957   7.1117   7.1647
  7.2295   7.2488   7.2530   7.2987   7.3204   7.3279   7.3797   7.3835
  7.3979   7.4244   7.4483   7.4998   7.5190   7.5492   7.6912   7.7292
  7.7668   7.7948   7.8918   7.8999   8.0115   8.1586   8.1958  24.9128
 25.1976  50.4942  50.5391  50.5539  50.6133  50.6566  50.7452
 --------------------------------------------------------------
 
          Ground-State Mulliken Net Atomic Charges

     Atom                 Charge (a.u.)    Spin (a.u.)
  --------------------------------------------------------
      1 C                     0.323978      -0.055105
      2 O                    -0.494237      -0.120797
      3 H                     0.354358       0.001646
      4 C                     0.192313      -0.378036
      5 O                    -0.341606      -0.065101
      6 O                    -0.289183      -0.059896
      7 O                    -0.332055      -0.018890
      8 H                     0.339480       0.001209
      9 O                    -0.056711       0.849192
     10 O                    -0.085868       0.845871
     11 H                     0.389530      -0.000093
  --------------------------------------------------------
  Sum of atomic charges =    -0.000000
  Sum of spin   charges =     1.000000

 -----------------------------------------------------------------
                    Cartesian Multipole Moments
 -----------------------------------------------------------------
    Charge (ESU x 10^10)
                -0.0000
    Dipole Moment (Debye)
         X      -5.4156      Y      -0.8428      Z      -5.9396
       Tot       8.0819
    Quadrupole Moments (Debye-Ang)
        XX     -52.7286     XY       4.9478     YY     -40.3320
        XZ      -2.6497     YZ      -5.2490     ZZ     -50.0068
    Octopole Moments (Debye-Ang^2)
       XXX      66.6179    XXY      -9.6976    XYY       7.3063
       YYY      -1.8786    XXZ     -52.6486    XYZ      16.1948
       YYZ     -35.5847    XZZ      13.2341    YZZ       2.5105
       ZZZ    -136.0669
    Hexadecapole Moments (Debye-Ang^3)
      XXXX    -611.4984   XXXY      28.6605   XXYY    -129.1214
      XYYY      39.4897   YYYY    -257.4471   XXXZ      88.4681
      XXYZ     -22.6230   XYYZ       8.1461   YYYZ     -18.9297
      XXZZ    -176.6971   XYZZ      20.4344   YYZZ    -112.1873
      XZZZ      83.0658   YZZZ       3.8386   ZZZZ    -451.7991
 -----------------------------------------------------------------
 Calculating analytic gradient of the SCF energy
 Gradient of CDS energy
            1           2           3           4           5           6
    1   0.0024663  -0.0011548  -0.0001878  -0.0022770   0.0001382   0.0018705
    2   0.0033820   0.0004261   0.0000042  -0.0029181   0.0027178  -0.0000936
    3  -0.0014239  -0.0009906  -0.0002937  -0.0001990  -0.0017131   0.0018921
            7           8           9          10          11
    1  -0.0004309   0.0000246  -0.0001763  -0.0000349  -0.0002377
    2  -0.0035494   0.0002964   0.0000307   0.0000240  -0.0003203
    3   0.0026559  -0.0002225  -0.0000131   0.0001530   0.0001549
 Gradient of SCF Energy
            1           2           3           4           5           6
    1  -0.0081317  -0.0004208  -0.0010824   0.0318294   0.0010743  -0.0069606
    2   0.0017653   0.0007824   0.0239404   0.0115800   0.0111635  -0.0251082
    3  -0.0084332   0.0006589  -0.0235289  -0.0002222  -0.0070279   0.0208341
            7           8           9          10          11
    1   0.0317775  -0.0240791  -0.0142518   0.0120097  -0.0217645
    2  -0.0015479   0.0062013   0.0054746  -0.0055685  -0.0286829
    3   0.0190676  -0.0191818  -0.0005336   0.0060312   0.0123358
 Max gradient component =       3.183E-02
 RMS gradient           =       1.553E-02
 Computing fast CPCM-SWIG gradient
 Updating gradient with PCM contributions...
 -- total gradient after adding PCM contribution --
---------------------------------------------------
  Atom         X              Y              Z     
---------------------------------------------------
   1      -0.009814       0.002045      -0.009020
   2       0.000864       0.000094       0.000849
   3       0.000566       0.000405      -0.000307
   4       0.030416       0.017355      -0.001941
   5      -0.018898      -0.000017      -0.008732
   6      -0.002267      -0.005323       0.002574
   7       0.005072       0.002632       0.000473
   8      -0.000420      -0.001166       0.000515
   9      -0.016904       0.006015      -0.002495
  10       0.015051      -0.005902       0.006424
  11      -0.003666      -0.016138       0.011660
---------------------------------------------------
 Number of fixed atoms: 0
 Gradient time:  CPU 111.68 s  wall 9.90 s
 ----------------------------------------------------------------
             Standard Nuclear Orientation (Angstroms)
    I     Atom           X                Y                Z
 ----------------------------------------------------------------
    1      C       0.5872603000     0.0441744000     0.6353025000
    2      O       1.4848503000    -0.2339721000     1.4176279000
    3      H      -1.5462678000     0.0297673000    -0.9093011000
    4      C      -0.6026559000    -0.7780323000     0.5800644000
    5      O      -0.6520186000    -1.8666470000     1.3422188000
    6      O      -1.5930165000    -0.7107512000    -0.2901049000
    7      O       0.7269977000     1.1380600000    -0.1367250000
    8      H      -0.0414875000     1.3560126000    -0.6793301000
    9      O      -1.5543136000     0.6656948000     2.0892506000
   10      O      -2.5640060000     1.0305818000     1.5221739000
   11      H      -1.4792600000    -2.3860348000     1.4067059000
 ----------------------------------------------------------------
 Nuclear Repulsion Energy =         398.70058878 hartrees
 There are       32 alpha and       31 beta electrons
 Discretize the solute cavity surface with Lebedev spheres
	Using 110 Lebedev grid points for each H atom
	Using 194 Lebedev grid points for other atoms
	Atomic van der Waals radii will be scaled by 1.20
 Remove points where switching function is < 1.0e-08
 Keep 1061 surface tesserae and discard 821 interior tesserae
 Molecular Surface Area = 124.561 Angst**2

                       Distance Matrix (Angstroms)
             C (  1)   O (  2)   H (  3)   C (  4)   O (  5)   O (  6)
   O (  2)  1.222729
   H (  3)  2.633999  3.830383
   C (  4)  1.447403  2.314130  1.939369
   O (  5)  2.384697  2.690264  3.076591  1.329811
   O (  6)  2.485940  3.552032  0.966415  1.320051  2.210442
   O (  7)  1.346157  2.207448  2.644413  2.439913  3.621771  2.970538
   H (  8)  1.960740  3.042202  2.018954  2.540695  3.852914  2.613475
   O (  9)  2.662065  3.239907  3.065254  2.295135  2.790152  2.749079
   O ( 10)  3.419067  4.243025  2.819484  2.829408  3.475919  2.694330
   H ( 11)  3.281994  3.662983  3.347309  2.009339  0.978903  2.387191
             O (  7)   H (  8)   O (  9)   O ( 10)
   H (  8)  0.965657
   O (  9)  3.222185  3.229585
   O ( 10)  3.687032  3.363870  1.214165
   H ( 11)  4.434974  4.519032  3.128027  3.586541
 
 Requested basis set is 6-311++G(2df,2p)
 There are 82 shells and 302 basis functions
 A cutoff of  1.0D-11 yielded   3053 shell pairs
 There are     42065 function pairs (     53783 Cartesian)
 Smallest overlap matrix eigenvalue = 3.14E-05
 Guess MOs from SCF MO coefficient file

 -----------------------------------------------------------------------
  General SCF calculation program by
  Eric Jon Sundstrom, Paul Horn, Yuezhi Mao, Dmitri Zuev, Alec White,
  David Stuck, Shaama M.S., Shane Yost, Joonho Lee, David Small,
  Daniel Levine, Susi Lehtola, Hugh Burton, Evgeny Epifanovsky,
  Bang C. Huynh
 -----------------------------------------------------------------------
 Exchange:     0.1500 Hartree-Fock + 1.0000 wB97M-V + LR-HF
 Correlation:  1.0000 wB97M-V
 Using SG-2 standard quadrature grid
 Nonlocal Correlation:  VV10 with C = 0.0100 and b = 6.00 and scale = 1.00000
 Grid used for NLC:  SG-1 standard quadrature
 
 Citation of the SMD model:
 Marenich, A.V.; Cramer, C.J.; Truhlar, D.G.
 J. Phys. Chem. B 2009, 113, 6378-6396.
 iSolventCode=           1
 Solvent: water                                                           
 
 vradii
            1           2           3           4           5           6
    1   1.8500000   1.5200000   1.2000000   1.8500000   1.5200000   1.5200000
            7           8           9          10          11
    1   1.5200000   1.2000000   1.5200000   1.5200000   1.2000000
 -------------------------------------------------------
 OpenMP BLAS3 based DFT computing Module                
 Release: version 1.0, May 2013, Q-Chem Inc. Pittsburgh 
 -------------------------------------------------------
 A unrestricted SCF calculation will be
 performed using Roothaan-Hall, DIIS, GDM
 SCF converges when RMS gradient is below 1.0e-06
 ---------------------------------------
  Cycle       Energy         DIIS error
 ---------------------------------------
    1    -529.2108037084      4.21e-04  Roothaan Step
 ---------------------------------------
  Cycle       Energy         DIIS error
 ---------------------------------------
    1    -529.2560679086      5.25e-04  
    2    -529.2646901773      5.54e-04  Done DIIS. Switching to GDM
 ---------------------------------------
  Cycle       Energy        RMS Gradient
 ---------------------------------------
    1    -529.2646901773      3.04e-02   Normal BFGS step
    2    -529.2600695506      5.37e-02  Line search: overstep
    3    -529.2735101711      7.16e-03   Normal BFGS step
    4    -529.2738867072      3.13e-03   Normal BFGS step
    5    -529.2739463151      1.66e-03   Normal BFGS step
    6    -529.2739660349      4.38e-04   Normal BFGS step
    7    -529.2739685649      4.00e-04   Normal BFGS step
    8    -529.2739695221      2.54e-04   Normal BFGS step
    9    -529.2739699352      2.41e-04   Normal BFGS step
   10    -529.2739700595      1.55e-04   Normal BFGS step
   11    -529.2739701353      1.15e-04   Normal BFGS step
   12    -529.2739701883      4.03e-05   Normal BFGS step
   13    -529.2739702061      3.58e-05   Normal BFGS step
[...]
 -0.7453  -0.6870  -0.6389  -0.5998  -0.5898  -0.5648  -0.5544  -0.5541
 -0.5395  -0.5378  -0.5115  -0.4851  -0.4459  -0.4117  -0.2725
 -- Virtual --
 -0.0171  -0.0083   0.0297   0.0448   0.0594   0.0785   0.0887   0.1069
  0.1083   0.1219   0.1343   0.1426   0.1519   0.1616   0.1646   0.1844
  0.2079   0.2200   0.2438   0.2483   0.2570   0.2682   0.2869   0.2910
  0.2970   0.3072   0.3131   0.3159   0.3199   0.3258   0.3324   0.3382
  0.3416   0.3557   0.3592   0.3703   0.3796   0.3938   0.4033   0.4099
  0.4320   0.4381   0.4406   0.4815   0.5141   0.5359   0.5880   0.6139
  0.6250   0.6537   0.6627   0.6888   0.7059   0.7187   0.7364   0.7531
  0.7874   0.8204   0.8264   0.8457   0.8726   0.8869   0.9025   0.9135
  0.9459   0.9977   1.0365   1.0518   1.0746   1.0885   1.0969   1.1081
  1.1311   1.1414   1.1484   1.1589   1.1731   1.1822   1.2083   1.2135
  1.2299   1.2402   1.2429   1.2663   1.2758   1.2920   1.3464   1.3739
  1.4146   1.4280   1.4459   1.4553   1.5142   1.5434   1.5463   1.5596
  1.5642   1.5972   1.6266   1.6468   1.6838   1.6976   1.7455   1.7523
  1.7890   1.8040   1.8053   1.8462   1.8939   1.9332   1.9735   1.9919
  2.0123   2.0689   2.1146   2.2116   2.2352   2.3067   2.3340   2.3525
  2.3750   2.3893   2.4322   2.4443   2.4633   2.4846   2.5422   2.5842
  2.6385   2.6479   2.6877   2.7400   2.8253   2.8368   2.8829   2.9143
  2.9315   2.9331   3.1530   3.1799   3.2398   3.2792   3.2896   3.3126
  3.3441   3.3804   3.4036   3.4229   3.4404   3.5221   3.5534   3.5836
  3.6422   3.6690   3.6991   3.7295   3.7747   3.7767   3.7989   3.8634
  3.9030   3.9879   4.1084   4.1356   4.1817   4.2424   4.2633   4.2808
  4.3381   4.3653   4.3723   4.5693   4.6158   4.6442   4.6602   4.6632
  4.9599   4.9832   5.0051   5.0135   5.0826   5.1053   5.1153   5.1335
  5.1539   5.1661   5.1839   5.1918   5.1996   5.2161   5.2199   5.2250
  5.2445   5.2499   5.2529   5.2747   5.2927   5.3081   5.3201   5.3321
  5.3588   5.3765   5.4058   5.4572   5.5085   5.5204   5.5294   5.5803
  5.6621   5.6753   5.7567   5.7698   5.7937   5.7964   5.8574   5.8973
  5.9677   6.0410   6.1337   6.1437   6.3685   6.4511   6.5621   6.7865
  6.8454   6.8599   6.8636   6.8780   6.9296   6.9401   6.9724   6.9785
  6.9938   7.0032   7.0200   7.0286   7.0599   7.1149   7.1317   7.1444
  7.2169   7.2367   7.2653   7.2796   7.3183   7.3237   7.3794   7.3951
  7.4061   7.4206   7.4691   7.4878   7.5068   7.5551   7.6754   7.7320
  7.7888   7.7993   7.8830   7.9058   7.9915   8.1459   8.1758  24.9235
 25.2122  50.4733  50.5332  50.5500  50.6135  50.6563  50.7512
 --------------------------------------------------------------
 
          Ground-State Mulliken Net Atomic Charges

     Atom                 Charge (a.u.)    Spin (a.u.)
  --------------------------------------------------------
      1 C                     0.272660      -0.086936
      2 O                    -0.520003      -0.145982
      3 H                     0.357548       0.002227
      4 C                     0.198983      -0.425998
      5 O                    -0.315912      -0.077704
      6 O                    -0.297526      -0.067886
      7 O                    -0.346583      -0.024520
      8 H                     0.336749       0.001206
      9 O                    -0.021177       0.913982
     10 O                    -0.040077       0.910389
     11 H                     0.375339       0.001222
  --------------------------------------------------------
  Sum of atomic charges =     0.000000
  Sum of spin   charges =     1.000000

 -----------------------------------------------------------------
                    Cartesian Multipole Moments
 -----------------------------------------------------------------
    Charge (ESU x 10^10)
                 0.0000
    Dipole Moment (Debye)
         X      -6.5042      Y      -0.6486      Z      -5.7944
       Tot       8.7350
    Quadrupole Moments (Debye-Ang)
        XX     -51.0595     XY       3.6293     YY     -40.4714
        XZ      -3.7161     YZ      -3.3399     ZZ     -50.4089
    Octopole Moments (Debye-Ang^2)
       XXX      59.8055    XXY      -6.0714    XYY       6.7051
       YYY      -3.5501    XXZ     -51.7134    XYZ      12.5812
       YYZ     -38.2395    XZZ      10.8861    YZZ       6.1177
       ZZZ    -136.3577
    Hexadecapole Moments (Debye-Ang^3)
      XXXX    -585.2832   XXXY      29.3603   XXYY    -132.7930
      XYYY      46.9049   YYYY    -283.2840   XXXZ      74.3222
      XXYZ     -16.4763   XYYZ       9.6166   YYYZ     -17.7835
      XXZZ    -171.5236   XYZZ      15.8102   YYZZ    -123.5947
      XZZZ      70.8231   YZZZ       6.3258   ZZZZ    -445.7732
 -----------------------------------------------------------------
 Calculating analytic gradient of the SCF energy
 Gradient of CDS energy
            1           2           3           4           5           6
    1   0.0024330  -0.0012081  -0.0001888  -0.0022836   0.0000413   0.0019715
    2   0.0036158   0.0004140   0.0000054  -0.0029945   0.0027745  -0.0000994
    3  -0.0014971  -0.0010376  -0.0002893  -0.0000197  -0.0018118   0.0018565
            7           8           9          10          11
    1  -0.0003688   0.0000285  -0.0001730  -0.0000266  -0.0002254
    2  -0.0037724   0.0002937   0.0000642   0.0000354  -0.0003365
    3   0.0028080  -0.0002323  -0.0000199   0.0001474   0.0000959
 Gradient of SCF Energy
            1           2           3           4           5           6
    1   0.0023289  -0.0011207  -0.0033500   0.0002257   0.0203971  -0.0026070
    2  -0.0000785   0.0006807   0.0250588  -0.0061829   0.0099826  -0.0201789
    3   0.0010888  -0.0009539  -0.0225275   0.0024450   0.0067866   0.0175303
            7           8           9          10          11
    1   0.0266033  -0.0238866   0.0052706  -0.0058546  -0.0180067
    2  -0.0043584   0.0062767  -0.0011694   0.0010982  -0.0111288
    3   0.0182170  -0.0186710   0.0027597  -0.0023146  -0.0043604
 Max gradient component =       2.660E-02
 RMS gradient           =       1.236E-02
 Computing fast CPCM-SWIG gradient
 Updating gradient with PCM contributions...
 -- total gradient after adding PCM contribution --
---------------------------------------------------
  Atom         X              Y              Z     
---------------------------------------------------
   1      -0.000061      -0.000022      -0.000024
   2       0.000022       0.000025       0.000021
   3       0.000008      -0.000017      -0.000000
   4       0.000038       0.000013      -0.000059
   5       0.000065      -0.000034       0.000114
   6      -0.000037      -0.000012      -0.000001
   7      -0.000000       0.000021      -0.000021
   8      -0.000013      -0.000005      -0.000005
   9      -0.000116       0.000048       0.000001
  10       0.000099      -0.000069       0.000022
  11      -0.000005       0.000052      -0.000049
---------------------------------------------------
 Number of fixed atoms: 0
 Gradient time:  CPU 108.48 s  wall 9.25 s
 Geometry Optimization Parameters
   NAtoms,    NIC,     NZ,  NCons,   NDum,   NFix, NCnnct, MaxDiis
       11      62       0       0       0       0       0       0

 Cartesian Hessian Update
 Hessian updated using Powell/Murtagh-Sargent update
  Mixing factors:     0.996471 Powell                      0.003529 Murtagh-Sargent


** GEOMETRY OPTIMIZATION IN DELOCALIZED INTERNAL COORDINATES **
   Searching for a Transition State

   Optimization Cycle:  12

                       Coordinates (Angstroms)
     ATOM                X               Y               Z
      1  C         0.5695364666    0.0119301795    0.6700025330
      2  O         1.4789047047   -0.2444354264    1.4529369886
      3  H        -1.5874791836   -0.0042416406   -0.8607253565
      4  C        -0.5883875990   -0.8391455004    0.5767346309
      5  O        -0.5918967654   -1.9098741433    1.3586140692
      6  O        -1.6065446707   -0.7618225066   -0.2626693904
      7  O         0.6742482200    1.1189624247   -0.0988121464
      8  H        -0.1018849591    1.3272414999   -0.6326109051
      9  O        -1.5183944077    0.8592388770    2.0550452789
     10  O        -2.5615200239    1.1545408207    1.5113733859
     11  H        -1.4004993818   -2.4225410845    1.2079938120
   Point Group: c1    Number of degrees of freedom:    27


   Energy is   -529.270601317

 Hessian updated using Powell/Murtagh-Sargent update
  Mixing factors:     0.992983 Powell                      0.007017 Murtagh-Sargent

 27 Hessian modes will be used to form the next step
  Hessian Eigenvalues:
    -0.078232    0.001256    0.002131    0.004095    0.006635    0.007648
     0.018967    0.032863    0.050702    0.062977    0.094081    0.137850
     0.147331    0.155979    0.167672    0.182027    0.218096    0.282174
     0.374950    0.406822    0.413764    0.477195    0.494589    0.518536
     0.535694    0.639446    0.788936

 Transition state search - taking P-RFO step
 Searching for Lamda that Maximizes Along the Lowest mode
 Value Taken    Lamda =   0.00000008
 Searching for Lamda that Minimizes Along All other modes
 Value Taken    Lamda =  -0.00000046
 Step Taken.  Stepsize is  0.007363

                             Maximum     Tolerance    Cnvgd?
         Gradient           0.000116      0.000300     YES
         Displacement       0.003240      0.001200      NO
         Energy change     -0.000001      0.000001     YES


                       Distance Matrix (Angstroms)
             C (  1)   O (  2)   H (  3)   C (  4)   O (  5)   O (  6)
   O (  2)  1.227053
   H (  3)  2.645015  3.848823
   C (  4)  1.440075  2.322737  1.939469
   O (  5)  2.348711  2.659098  3.089998  1.325823
   O (  6)  2.490763  3.568052  0.965382  1.321825  2.230716
   O (  7)  1.351873  2.216811  2.637709  2.425861  3.591805  2.960780
   H (  8)  1.969176  3.052634  2.007953  2.528326  3.831972  2.600970
   O (  9)  2.644944  3.250297  3.041725  2.436150  3.001900  2.829737
   O ( 10)  3.437583  4.276164  2.813962  2.956617  3.646010  2.780585
   H ( 11)  3.177598  3.618717  3.187904  1.888162  0.969202  2.227844
             O (  7)   H (  8)   O (  9)   O ( 10)
   H (  8)  0.964730
   O (  9)  3.084516  3.073926
   O ( 10)  3.614438  3.267461  1.212804
   H ( 11)  4.307501  4.374368  3.391382  3.772999
 
 Final energy is   -529.270601317280     


 ******************************
 **  OPTIMIZATION CONVERGED  **
 ******************************

                       Coordinates (Angstroms)
     ATOM                X               Y               Z
      1  C         0.5695364666    0.0119301795    0.6700025330
      2  O         1.4789047047   -0.2444354264    1.4529369886
      3  H        -1.5874791836   -0.0042416406   -0.8607253565
      4  C        -0.5883875990   -0.8391455004    0.5767346309
      5  O        -0.5918967654   -1.9098741433    1.3586140692
      6  O        -1.6065446707   -0.7618225066   -0.2626693904
      7  O         0.6742482200    1.1189624247   -0.0988121464
      8  H        -0.1018849591    1.3272414999   -0.6326109051
      9  O        -1.5183944077    0.8592388770    2.0550452789
     10  O        -2.5615200239    1.1545408207    1.5113733859
     11  H        -1.4004993818   -2.4225410845    1.2079938120

Z-matrix Print:
$molecule
0 2
O 
H  1 0.965382
C  1 1.321825 2 115.093582
O  3 1.325823 1 114.815820 2 -177.411594 0
H  4 0.969202 3 109.739488 1 -4.109523 0
C  3 1.440075 1 128.748749 2 -3.483649 0
O  6 1.227053 3 120.913707 1 -175.136333 0
O  6 1.351873 3 120.624258 1 5.325013 0
H  8 0.964730 6 115.413603 3 5.453730 0
O  3 2.436150 1 92.895816 2 78.193936 0
O  10 1.212804 3 103.065689 1 0.457124 0
$end

 
 --------------------------------------------------------------
 
                    Orbital Energies (a.u.)
 --------------------------------------------------------------
 
 Alpha MOs
 -- Occupied --
-19.4761 -19.4651 -19.4051 -19.3942 -19.3841 -19.3235 -10.4948 -10.4915
 -1.4128  -1.2747  -1.2329  -1.1973  -1.1483  -0.9498  -0.8544  -0.7563
 -0.7428  -0.6837  -0.6656  -0.6581  -0.6484  -0.5847  -0.5813  -0.5511
 -0.5356  -0.5342  -0.5083  -0.4670  -0.4274  -0.4073  -0.3986  -0.3922
 -- Virtual --
  0.0015   0.0293   0.0444   0.0589   0.0778   0.0877   0.1058   0.1085
  0.1206   0.1340   0.1504   0.1584   0.1635   0.1793   0.1830   0.2081
  0.2188   0.2412   0.2458   0.2569   0.2647   0.2865   0.2908   0.2973
  0.3072   0.3124   0.3137   0.3165   0.3279   0.3352   0.3374   0.3420
  0.3552   0.3586   0.3702   0.3715   0.3837   0.4028   0.4092   0.4259
  0.4351   0.4411   0.4837   0.5132   0.5393   0.5888   0.6142   0.6295
  0.6597   0.6676   0.6930   0.7110   0.7246   0.7451   0.7566   0.7894
  0.8215   0.8270   0.8456   0.8748   0.8869   0.9058   0.9160   0.9475
  0.9960   1.0351   1.0474   1.0679   1.0833   1.0878   1.1020   1.1277
  1.1360   1.1393   1.1550   1.1673   1.1795   1.1949   1.2074   1.2300
  1.2383   1.2442   1.2537   1.2718   1.2867   1.3406   1.3689   1.4060
  1.4150   1.4377   1.4414   1.5077   1.5263   1.5361   1.5392   1.5578
  1.5956   1.6124   1.6426   1.6838   1.6944   1.7435   1.7529   1.7647
  1.8000   1.8078   1.8423   1.8868   1.9308   1.9689   1.9948   2.0099
  2.0734   2.1108   2.2144   2.2366   2.3058   2.3153   2.3482   2.3602
  2.3707   2.4285   2.4470   2.4664   2.4832   2.5439   2.5884   2.6244
  2.6527   2.6948   2.7650   2.8368   2.8607   2.8925   2.9320   2.9416
  2.9703   3.1662   3.1958   3.2557   3.2960   3.3017   3.3328   3.3575
  3.3954   3.4228   3.4387   3.4548   3.5451   3.5710   3.6035   3.6529
  3.6780   3.7113   3.7351   3.7787   3.7990   3.8040   3.8724   3.9084
  3.9936   4.1114   4.1414   4.1851   4.2489   4.2863   4.3044   4.3424
  4.3690   4.3768   4.5608   4.5811   4.6025   4.6146   4.6167   4.9320
  4.9335   4.9520   4.9887   5.0135   5.0488   5.1046   5.1227   5.1357
  5.1433   5.1537   5.1677   5.1835   5.1880   5.2036   5.2081   5.2228
  5.2284   5.2416   5.2518   5.2827   5.3067   5.3209   5.3290   5.3391
  5.3584   5.4066   5.4626   5.5112   5.5244   5.5369   5.5864   5.6696
  5.6807   5.7389   5.7405   5.7643   5.7771   5.8651   5.9045   5.9787
  6.0444   6.1360   6.1533   6.3797   6.4540   6.5667   6.6888   6.7559
  6.7891   6.8001   6.8205   6.8705   6.9069   6.9393   6.9525   6.9673
  6.9875   6.9953   7.0089   7.0380   7.0778   7.0911   7.1405   7.2211
  7.2375   7.2705   7.2871   7.3176   7.3270   7.3567   7.3891   7.4069
  7.4169   7.4539   7.4758   7.5089   7.5597   7.6803   7.7350   7.7947
  7.8030   7.8863   7.9093   7.9949   8.1124   8.1355  24.9271  25.2158
 50.4518  50.5159  50.5482  50.6140  50.6578  50.7540
 
 Beta MOs
 -- Occupied --
-19.4480 -19.4377 -19.4074 -19.3969 -19.3848 -19.3276 -10.5017 -10.4924
 -1.3612  -1.2811  -1.2362  -1.2029  -1.1539  -0.8812  -0.8604  -0.7612
 -0.7453  -0.6870  -0.6389  -0.5998  -0.5898  -0.5648  -0.5544  -0.5541
 -0.5395  -0.5378  -0.5115  -0.4851  -0.4459  -0.4117  -0.2725
 -- Virtual --
 -0.0171  -0.0083   0.0297   0.0448   0.0594   0.0785   0.0887   0.1069
  0.1083   0.1219   0.1343   0.1426   0.1519   0.1616   0.1646   0.1844
  0.2079   0.2200   0.2438   0.2483   0.2570   0.2682   0.2869   0.2910
  0.2970   0.3072   0.3131   0.3159   0.3199   0.3258   0.3324   0.3382
  0.3416   0.3557   0.3592   0.3703   0.3796   0.3938   0.4033   0.4099
  0.4320   0.4381   0.4406   0.4815   0.5141   0.5359   0.5880   0.6139
  0.6250   0.6537   0.6627   0.6888   0.7059   0.7187   0.7364   0.7531
  0.7874   0.8204   0.8264   0.8457   0.8726   0.8869   0.9025   0.9135
  0.9459   0.9977   1.0365   1.0518   1.0746   1.0885   1.0969   1.1081
  1.1311   1.1414   1.1484   1.1589   1.1731   1.1822   1.2083   1.2135
  1.2299   1.2402   1.2429   1.2663   1.2758   1.2920   1.3464   1.3739
  1.4146   1.4280   1.4459   1.4553   1.5142   1.5434   1.5463   1.5596
  1.5642   1.5972   1.6266   1.6468   1.6838   1.6976   1.7455   1.7523
  1.7890   1.8040   1.8053   1.8462   1.8939   1.9332   1.9735   1.9919
  2.0123   2.0689   2.1146   2.2116   2.2352   2.3067   2.3340   2.3525
  2.3750   2.3893   2.4322   2.4443   2.4633   2.4846   2.5422   2.5842
  2.6385   2.6479   2.6877   2.7400   2.8253   2.8368   2.8829   2.9143
  2.9315   2.9331   3.1530   3.1799   3.2398   3.2792   3.2896   3.3126
  3.3441   3.3804   3.4036   3.4229   3.4404   3.5221   3.5534   3.5836
  3.6422   3.6690   3.6991   3.7295   3.7747   3.7767   3.7989   3.8634
  3.9030   3.9879   4.1084   4.1356   4.1817   4.2424   4.2633   4.2808
  4.3381   4.3653   4.3723   4.5693   4.6158   4.6442   4.6602   4.6632
  4.9599   4.9832   5.0051   5.0135   5.0826   5.1053   5.1153   5.1335
  5.1539   5.1661   5.1839   5.1918   5.1996   5.2161   5.2199   5.2250
  5.2445   5.2499   5.2529   5.2747   5.2927   5.3081   5.3201   5.3321
  5.3588   5.3765   5.4058   5.4572   5.5085   5.5204   5.5294   5.5803
  5.6621   5.6753   5.7567   5.7698   5.7937   5.7964   5.8574   5.8973
  5.9677   6.0410   6.1337   6.1437   6.3685   6.4511   6.5621   6.7865
  6.8454   6.8599   6.8636   6.8780   6.9296   6.9401   6.9724   6.9785
  6.9938   7.0032   7.0200   7.0286   7.0599   7.1149   7.1317   7.1444
  7.2169   7.2367   7.2653   7.2796   7.3183   7.3237   7.3794   7.3951
  7.4061   7.4206   7.4691   7.4878   7.5068   7.5551   7.6754   7.7320
  7.7888   7.7993   7.8830   7.9058   7.9915   8.1459   8.1758  24.9235
 25.2122  50.4733  50.5332  50.5500  50.6135  50.6563  50.7512
 --------------------------------------------------------------
 
          Ground-State Mulliken Net Atomic Charges

     Atom                 Charge (a.u.)    Spin (a.u.)
  --------------------------------------------------------
      1 C                     0.272660      -0.086936
      2 O                    -0.520003      -0.145982
      3 H                     0.357548       0.002227
      4 C                     0.198983      -0.425998
      5 O                    -0.315912      -0.077704
      6 O                    -0.297526      -0.067886
      7 O                    -0.346583      -0.024520
      8 H                     0.336749       0.001206
      9 O                    -0.021177       0.913982
     10 O                    -0.040077       0.910389
     11 H                     0.375339       0.001222
  --------------------------------------------------------
  Sum of atomic charges =     0.000000
  Sum of spin   charges =     1.000000

 -----------------------------------------------------------------
                    Cartesian Multipole Moments
 -----------------------------------------------------------------
    Charge (ESU x 10^10)
                 0.0000
    Dipole Moment (Debye)
         X      -6.5042      Y      -0.6486      Z      -5.7944
       Tot       8.7350
    Quadrupole Moments (Debye-Ang)
        XX     -51.0595     XY       3.6293     YY     -40.4714
        XZ      -3.7161     YZ      -3.3399     ZZ     -50.4089
    Octopole Moments (Debye-Ang^2)
       XXX      59.8055    XXY      -6.0714    XYY       6.7051
       YYY      -3.5501    XXZ     -51.7134    XYZ      12.5812
       YYZ     -38.2395    XZZ      10.8861    YZZ       6.1177
       ZZZ    -136.3577
    Hexadecapole Moments (Debye-Ang^3)
      XXXX    -585.2832   XXXY      29.3603   XXYY    -132.7930
      XYYY      46.9049   YYYY    -283.2840   XXXZ      74.3222
      XXYZ     -16.4763   XYYZ       9.6166   YYYZ     -17.7835
      XXZZ    -171.5236   XYZZ      15.8102   YYZZ    -123.5947
      XZZZ      70.8231   YZZZ       6.3258   ZZZZ    -445.7732
 -----------------------------------------------------------------
 Total job time:  919.59s(wall), 13270.22s(cpu) 
 Sun May 14 11:14:52 2023

        *************************************************************
        *                                                           *
        *  Thank you very much for using Q-Chem.  Have a nice day.  *
        *                                                           *
        *************************************************************


