
Running Job 1 of 2 Q_in.in
qchem Q_in.in_368164.0 /scratch/ari.fischer/qChem1937727.hpc-mn1/qchem368164/ 0
/usr/local/qchem-5.4.1/exe/qcprog.exe_s Q_in.in_368164.0 /scratch/ari.fischer/qChem1937727.hpc-mn1/qchem368164/
                  Welcome to Q-Chem
     A Quantum Leap Into The Future Of Chemistry


 Q-Chem 5.4, Q-Chem, Inc., Pleasanton, CA (2021)

 License issued to: Nanyang Technological University (site)

 E. Epifanovsky,  A. T. B. Gilbert,  Xintian Feng,  Joonho Lee,  Yuezhi Mao,  
 N. Mardirossian,  P. Pokhilko,  A. White,  M. Wormit,  M. P. Coons,  
 A. L. Dempwolff,  Zhengting Gan,  D. Hait,  P. R. Horn,  L. D. Jacobson,  
 I. Kaliman,  J. Kussmann,  A. W. Lange,  Ka Un Lao,  D. S. Levine,  Jie Liu,  
 S. C. McKenzie,  A. F. Morrison,  K. Nanda,  F. Plasser,  D. R. Rehn,  
 M. L. Vidal,  Zhi-Qiang You,  Ying Zhu,  B. Alam,  B. Albrecht,  
 A. Aldossary,  E. Alguire,  J. H. Andersen,  D. Barton,  K. Begam,  A. Behn,  
 Y. A. Bernard,  E. J. Berquist,  H. Burton,  A. Carreras,  K. Carter-Fenk,  
 R. Chakraborty,  A. D. Chien,  K. D. Closser,  V. Cofer-Shabica,  
 S. Dasgupta,  Jia Deng,  M. de Wergifosse,  M. Diedenhofen,  Hainam Do,  
 S. Ehlert,  Po-Tung Fang,  S. Fatehi,  Qingguo Feng,  T. Friedhoff,  
 J. Gayvert,  Qinghui Ge,  G. Gidofalvi,  M. Goldey,  J. Gomes,  
 C. Gonzalez-Espinoza,  S. Gulania,  A. Gunina,  M. W. D. Hanson-Heine,  
 P. H. P. Harbach,  A. W. Hauser,  M. F. Herbst,  M. Hernandez Vera,  
 M. Hodecker,  Z. C. Holden,  S. Houck,  Xunkun Huang,  Kerwin Hui,  
 B. C. Huynh,  M. Ivanov,  Hyunjun Ji,  Hanjie Jiang,  B. Kaduk,  S. Kaehler,  
 K. Khistyaev,  Jaehoon Kim,  P. Klunzinger,  Z. Koczor-Benda,  
 Joong Hoon Koh,  D. Kosenkov,  L. Koulias,  T. Kowalczyk,  C. M. Krauter,  
 K. Kue,  A. Kunitsa,  T. Kus,  A. Landau,  K. V. Lawler,  D. Lefrancois,  
 S. Lehtola,  Rain Li,  Yi-Pei Li,  Jiashu Liang,  M. Liebenthal,  
 Hung-Hsuan Lin,  You-Sheng Lin,  Fenglai Liu,  Kuan-Yu Liu,  
 M. Loipersberger,  A. Luenser,  A. Manjanath,  P. Manohar,  E. Mansoor,  
 S. F. Manzer,  Shan-Ping Mao,  A. V. Marenich,  T. Markovich,  S. Mason,  
 S. A. Maurer,  P. F. McLaughlin,  M. F. S. J. Menger,  J.-M. Mewes,  
 S. A. Mewes,  P. Morgante,  J. W. Mullinax,  K. J. Oosterbaan,  G. Paran,  
 Alexander C. Paul,  Suranjan K. Paul,  F. Pavosevic,  Zheng Pei,  S. Prager,  
 E. I. Proynov,  E. Ramos,  B. Rana,  A. E. Rask,  A. Rettig,  R. M. Richard,  
 F. Rob,  E. Rossomme,  T. Scheele,  M. Scheurer,  M. Schneider,  
 N. Sergueev,  S. M. Sharada,  W. Skomorowski,  D. W. Small,  C. J. Stein,  
 Yu-Chuan Su,  E. J. Sundstrom,  Zhen Tao,  J. Thirman,  T. Tsuchimochi,  
 N. M. Tubman,  S. P. Veccham,  O. Vydrov,  J. Wenzel,  J. Witte,  A. Yamada,  
 Kun Yao,  S. Yeganeh,  S. R. Yost,  A. Zech,  Igor Ying Zhang,  Xing Zhang,  
 Yu Zhang,  D. Zuev,  A. Aspuru-Guzik,  A. T. Bell,  N. A. Besley,  
 K. B. Bravaya,  B. R. Brooks,  D. Casanova,  Jeng-Da Chai,  S. Coriani,  
 C. J. Cramer,  A. E. DePrince, III,  R. A. DiStasio Jr.,  A. Dreuw,  
 B. D. Dunietz,  T. R. Furlani,  W. A. Goddard III,  S. Grimme,  
 S. Hammes-Schiffer,  T. Head-Gordon,  W. J. Hehre,  Chao-Ping Hsu,  
 T.-C. Jagau,  Yousung Jung,  A. Klamt,  Jing Kong,  D. S. Lambrecht,  
 WanZhen Liang,  N. J. Mayhall,  C. W. McCurdy,  J. B. Neaton,  
 C. Ochsenfeld,  J. A. Parkhill,  R. Peverati,  V. A. Rassolov,  Yihan Shao,  
 L. V. Slipchenko,  T. Stauch,  R. P. Steele,  J. E. Subotnik,  
 A. J. W. Thom,  A. Tkatchenko,  D. G. Truhlar,  T. Van Voorhis,  
 T. A. Wesolowski,  K. B. Whaley,  H. L. Woodcock III,  P. M. Zimmerman,  
 S. Faraji,  P. M. W. Gill,  M. Head-Gordon,  J. M. Herbert,  A. I. Krylov

 Additional authors for Version 5.4.1: 
 S. Kotaru,  Shaozhi Li,  Xiangyuan Li,  F. Matz,  A. Molle,  Haisheng Ren,  
 Yingli Su,  Hung-Yi Tsai,  C. Utku,  Fang Wang

 Contributors to earlier versions of Q-Chem not listed above: 
 R. D. Adamson,  B. Austin,  R. Baer,  J. Baker,  G. J. O. Beran,  
 K. Brandhorst,  S. T. Brown,  E. F. C. Byrd,  A. K. Chakraborty,  
 G. K. L. Chan,  Chun-Min Chang,  Yunqing Chen,  C.-L. Cheng,  
 Siu Hung Chien,  D. M. Chipman,  D. L. Crittenden,  H. Dachsel,  
 R. J. Doerksen,  A. D. Dutoi,  R. G. Edgar,  J. Fosso-Tande,  
 L. Fusti-Molnar,  D. Ghosh,  A. Ghysels,  A. Golubeva-Zadorozhnaya,  
 J. Gonthier,  M. S. Gordon,  S. R. Gwaltney,  G. Hawkins,  J. E. Herr,  
 A. Heyden,  S. Hirata,  E. G. Hohenstein,  G. Kedziora,  F. J. Keil,  
 C. Kelley,  Jihan Kim,  R. A. King,  R. Z. Khaliullin,  P. P. Korambath,  
 W. Kurlancheek,  A. Laurent,  A. M. Lee,  M. S. Lee,  S. V. Levchenko,  
 Ching Yeh Lin,  D. Liotard,  E. Livshits,  R. C. Lochan,  I. Lotan,  
 L. A. Martinez-Martinez,  P. E. Maslen,  N. Nair,  D. P. O'Neill,  
 D. Neuhauser,  E. Neuscamman,  C. M. Oana,  R. Olivares-Amaya,  R. Olson,  
 T. M. Perrine,  B. Peters,  P. A. Pieniazek,  A. Prociuk,  Y. M. Rhee,  
 J. Ritchie,  M. A. Rohrdanz,  E. Rosta,  N. J. Russ,  H. F. Schaefer III,  
 M. W. Schmidt,  N. E. Schultz,  S. Sharma,  N. Shenvi,  C. D. Sherrill,  
 A. C. Simmonett,  A. Sodt,  T. Stein,  D. Stuck,  K. S. Thanthiriwatte,  
 V. Vanovschi,  L. Vogt,  Tao Wang,  A. Warshel,  M. A. Watson,  
 C. F. Williams,  Q. Wu,  X. Xu,  Jun Yang,  W. Zhang,  Yan Zhao

 Please cite Q-Chem as follows:
 Y. Shao et al., Mol. Phys. 113, 184-215 (2015)
 DOI: 10.1080/00268976.2014.952696

 Q-Chem 5.4.1 for Intel X86 EM64T Linux

 Parts of Q-Chem use Armadillo 9.800.1 (Horizon Scraper).
 http://arma.sourceforge.net/

 Q-Chem begins on Tue Feb 13 13:17:26 2024  

 Host: 
0

     Scratch files written to /scratch/ari.fischer/qChem1937727.hpc-mn1/qchem368164//
 Aug1521 |scratch|qcdevops|jenkins|workspace|build_RNUM 8249   
 Processing $rem in /usr/local/qchem-5.4.1/config/preferences:
 Processing $rem in /home/ari.fischer/.qchemrc:
 Symmetry turned off for PCM/SM12/SMD calculation


!!********************************************.
!!******************Warning*******************.
!!Desired Analytical derivatives not available.
!!Finite difference job might take a long time.
!!********************************************.
!!********************************************.


 2-order derivative to be evaluated numerically with 1-order analytical derivatives

 Checking the input file for inconsistencies... 	...done.

--------------------------------------------------------------
User input:
--------------------------------------------------------------
$molecule
0 3
O   -0.4101617   -1.3341321    2.2650579
O   -1.3141883   -0.5993390    2.8570517
H    0.8572054   -0.2059478    1.9271268
H   -2.0541441   -1.1995919    3.0727755
O    1.5562534    0.4990987    1.8994690
O    1.6915472    0.9010091    3.1402095
$end

$rem
BASIS = 6-311++G(2df,2p)
GUI = 2
JOB_TYPE = Frequency
METHOD = wB97M-V
SOLVENT_METHOD = SMD
SCF_ALGORITHM = DIIS_GDM
MAX_SCF_CYCLES = 400
SCF_CONVERGENCE = 7
THRESH = 12
SYMMETRY_IGNORE = 1
$end

--------------------------------------------------------------
 ----------------------------------------------------------------
             Standard Nuclear Orientation (Angstroms)
    I     Atom           X                Y                Z
 ----------------------------------------------------------------
    1      O      -0.4101617000    -1.3341321000     2.2650579000
    2      O      -1.3141883000    -0.5993390000     2.8570517000
    3      H       0.8572054000    -0.2059478000     1.9271268000
    4      H      -2.0541441000    -1.1995919000     3.0727755000
    5      O       1.5562534000     0.4990987000     1.8994690000
    6      O       1.6915472000     0.9010091000     3.1402095000
 ----------------------------------------------------------------
 Nuclear Repulsion Energy =         114.98864469 hartrees
 There are       18 alpha and       16 beta electrons
 Requested basis set is 6-311++G(2df,2p)
 There are 44 shells and 156 basis functions

 Total QAlloc Memory Limit 288000 MB
 Mega-Array Size       188 MB
 MEM_STATIC part       192 MB
 
 Citation of the SMD model:
 Marenich, A.V.; Cramer, C.J.; Truhlar, D.G.
 J. Phys. Chem. B 2009, 113, 6378-6396.
 iSolventCode=           1
 Solvent: water                                                           
 
 vradii
            1           2           3           4           5           6
    1   1.5200000   1.5200000   1.2000000   1.2000000   1.5200000   1.5200000
 Changing PCM_VDW_RADII to SMD_RADIUS
 Discretize the solute cavity surface with Lebedev spheres
	Using 110 Lebedev grid points for each H atom
	Using 194 Lebedev grid points for other atoms
	Atomic van der Waals radii will be scaled by 1.20
 Remove points where switching function is < 1.0e-08
 Keep 658 surface tesserae and discard 338 interior tesserae
 Molecular Surface Area = 81.962 Angst**2

                       Distance Matrix (Angstroms)
             O (  1)   O (  2)   H (  3)   H (  4)   O (  5)
   O (  2)  1.306768
   H (  3)  1.730092  2.394675
   H (  4)  1.836624  0.976921  3.282651
   O (  5)  2.713149  3.219156  0.993239  4.158986
   O (  6)  3.190443  3.371301  1.842023  4.295029  1.311211
 
 A cutoff of  1.0D-12 yielded    912 shell pairs
 There are     11502 function pairs (     14608 Cartesian)
 Smallest overlap matrix eigenvalue = 5.99E-04
 Guess from superposition of atomic densities
 Warning:  Energy on first SCF cycle will be non-variational
 SAD guess density has 34.000000 electrons

 -----------------------------------------------------------------------
  General SCF calculation program by
  Eric Jon Sundstrom, Paul Horn, Yuezhi Mao, Dmitri Zuev, Alec White,
  David Stuck, Shaama M.S., Shane Yost, Joonho Lee, David Small,
  Daniel Levine, Susi Lehtola, Hugh Burton, Evgeny Epifanovsky,
  Bang C. Huynh
 -----------------------------------------------------------------------
 Exchange:     0.1500 Hartree-Fock + 1.0000 wB97M-V + LR-HF
 Correlation:  1.0000 wB97M-V
 Using SG-2 standard quadrature grid
 Nonlocal Correlation:  VV10 with C = 0.0100 and b = 6.00 and scale = 1.00000
 Grid used for NLC:  SG-1 standard quadrature
 using 16 threads for integral computing
 -------------------------------------------------------
 OpenMP Integral computing Module                
 Release: version 1.0, May 2013, Q-Chem Inc. Pittsburgh 
 -------------------------------------------------------
 
 Citation of the SMD model:
 Marenich, A.V.; Cramer, C.J.; Truhlar, D.G.
 J. Phys. Chem. B 2009, 113, 6378-6396.
 iSolventCode=           1
 Solvent: water                                                           
 
 vradii
            1           2           3           4           5           6
    1   1.5200000   1.5200000   1.2000000   1.2000000   1.5200000   1.5200000
 -------------------------------------------------------
 OpenMP BLAS3 based DFT computing Module                
 Release: version 1.0, May 2013, Q-Chem Inc. Pittsburgh 
 -------------------------------------------------------
 A unrestricted SCF calculation will be
 performed using DIIS, GDM
 SCF converges when RMS gradient is below 1.0e-07
 ---------------------------------------
  Cycle       Energy         DIIS error
 ---------------------------------------
    1    -301.9237111039      1.69e-02  
    2    -301.8147306287      2.26e-03  Done DIIS. Switching to GDM
 ---------------------------------------
  Cycle       Energy        RMS Gradient
 ---------------------------------------
    1    -301.8147306287      9.01e-02   Descent step
    2    -301.8475657365      5.93e-02   Normal BFGS step
    3    -301.8618772118      3.30e-02   Normal BFGS step
    4    -301.8649584769      1.00e-02   Normal BFGS step
    5    -301.8653403500      5.11e-03   Normal BFGS step
    6    -301.8654678668      2.35e-03   Normal BFGS step
    7    -301.8655113465      5.62e-04   Normal BFGS step
    8    -301.8655144765      2.01e-04   Normal BFGS step
    9    -301.8655147362      3.12e-04   Normal BFGS step
   10    -301.8655149659      1.13e-04   Normal BFGS step
   11    -301.8655150016      1.02e-04   Normal BFGS step
   12    -301.8655150477      7.59e-05   Normal BFGS step
   13    -301.8655150890      3.23e-05   Normal BFGS step
   14    -301.8655150995      1.27e-05   Normal BFGS step
   15    -301.8655151021      9.75e-06   Normal BFGS step
   16    -301.8655151025      6.88e-06   Normal BFGS step
   17    -301.8655151027      4.48e-06   Normal BFGS step
   18    -301.8655151029      2.63e-06   Normal BFGS step
   19    -301.8655151030      1.20e-06   Normal BFGS step
   20    -301.8655151030      4.95e-07   Normal BFGS step
   21    -301.8655151030      1.78e-07   Normal BFGS step
   22    -301.8655151030      7.03e-08  Convergence criterion met
 ---------------------------------------
 SCF time:   CPU 223.86s  wall 14.00s 
<S^2> =          2.007463618
(3)  G-ENP(liq) elect-nuc-pol free energy of system     -301.865515103 a.u.
(4)  G-CDS(liq) cavity-dispersion-solvent structure 
     free energy                                                0.8774 kcal/mol
(6)  G-S(liq) free energy of system                     -301.864116828 a.u.
 SCF   energy in the final basis set =     -301.8641168278
 Total energy in the final basis set =     -301.8641168278
 
 --------------------------------------------------------------
 
                    Orbital Energies (a.u.)
 --------------------------------------------------------------
 
 Alpha MOs
 -- Occupied --
-19.4687 -19.4421 -19.4382 -19.4138  -1.3554  -1.3279  -1.0136  -0.9834
 -0.6933  -0.6783  -0.6268  -0.6119  -0.6050  -0.5921  -0.4408  -0.4203
 -0.4004  -0.3993
 -- Virtual --
  0.0358   0.0563   0.1171   0.1347   0.1814   0.1851   0.2016   0.2062
  0.2281   0.2303   0.2354   0.2534   0.2644   0.2777   0.2827   0.2917
  0.2982   0.3169   0.3681   0.3782   0.3883   0.4388   0.5846   0.6750
  0.7648   0.7804   0.8022   0.8361   0.9645   1.0120   1.0271   1.0377
  1.0500   1.0636   1.1107   1.1186   1.1287   1.1318   1.1721   1.2185
  1.3324   1.3551   1.3744   1.4021   1.4259   1.4821   1.5111   1.5516
  1.5775   1.6023   1.6334   1.6399   1.7604   1.8741   1.9521   2.0968
  2.1275   2.2265   2.2448   2.2571   2.2689   2.3135   2.4510   2.5033
  2.5895   2.6091   2.7433   2.9094   3.6785   3.7394   3.8398   3.8990
  4.1555   4.3031   4.4907   4.5097   4.6524   4.6954   4.7062   4.7221
  4.7565   4.7584   4.8655   4.8879   5.0029   5.0194   5.0569   5.0627
  5.0736   5.0875   5.1099   5.1206   5.1261   5.1813   5.1987   5.2135
  5.2499   5.2638   5.2870   5.4044   5.4418   5.4497   5.6212   5.6257
  5.7394   5.7505   6.4254   6.4300   6.4363   6.4484   6.7355   6.7724
  6.8291   6.8711   6.8890   6.9301   6.9471   7.0071   7.0264   7.0496
  7.0616   7.0885   7.1065   7.1785   7.3359   7.3496   7.3549   7.3927
  7.6298   7.6587   7.9198   7.9420   7.9726   7.9985  50.3692  50.3871
 50.4176  50.4445
 
 Beta MOs
 -- Occupied --
-19.4584 -19.4322 -19.4190 -19.3946  -1.3279  -1.3007  -0.9737  -0.9424
 -0.6761  -0.6619  -0.5919  -0.5740  -0.5409  -0.5207  -0.4193  -0.3773
 -- Virtual --
 -0.0421  -0.0238   0.0370   0.0572   0.1221   0.1409   0.1860   0.1903
  0.2073   0.2130   0.2325   0.2367   0.2428   0.2576   0.2756   0.2829
  0.2871   0.2981   0.3108   0.3247   0.3714   0.3803   0.3893   0.4388
  0.5880   0.6764   0.7687   0.7852   0.8068   0.8387   0.9690   1.0187
  1.0329   1.0453   1.0784   1.0994   1.1178   1.1389   1.1569   1.1624
  1.1804   1.2280   1.3450   1.3823   1.4011   1.4169   1.4436   1.5032
  1.5269   1.5693   1.5946   1.6191   1.6643   1.6762   1.7767   1.8940
  1.9713   2.1164   2.1439   2.2353   2.2710   2.2826   2.2861   2.3238
  2.4584   2.5126   2.6041   2.6208   2.7513   2.9170   3.6877   3.7468
  3.8452   3.9033   4.1617   4.3099   4.5317   4.5505   4.6654   4.7077
  4.7325   4.7485   4.7715   4.7745   4.8885   4.9121   5.0709   5.0968
  5.1090   5.1306   5.1330   5.1486   5.1530   5.1628   5.1823   5.2127
  5.2311   5.2504   5.2852   5.2959   5.3105   5.4345   5.4729   5.4792
  5.6490   5.6535   5.7617   5.7729   6.4498   6.4610   6.4735   6.4777
  6.8129   6.8536   6.9158   6.9355   6.9523   6.9701   6.9952   7.0444
  7.0751   7.0977   7.0994   7.1203   7.1412   7.2165   7.3785   7.3911
  7.4103   7.4185   7.6481   7.6789   7.9303   7.9547   7.9967   8.0214
 50.3811  50.3970  50.4298  50.4555
 --------------------------------------------------------------
 
          Ground-State Mulliken Net Atomic Charges

     Atom                 Charge (a.u.)    Spin (a.u.)
  --------------------------------------------------------
      1 O                    -0.204068       0.689173
      2 O                    -0.121215       0.322391
      3 H                     0.399183      -0.009202
      4 H                     0.373633      -0.007618
      5 O                    -0.203878       0.316573
      6 O                    -0.243655       0.688683
  --------------------------------------------------------
  Sum of atomic charges =    -0.000000
  Sum of spin   charges =     2.000000

 -----------------------------------------------------------------
                    Cartesian Multipole Moments
 -----------------------------------------------------------------
    Charge (ESU x 10^10)
                -0.0000
    Dipole Moment (Debye)
         X      -5.1084      Y      -3.0755      Z      -0.0959
       Tot       5.9636
    Quadrupole Moments (Debye-Ang)
        XX     -20.1465     XY       0.9320     YY     -23.3297
        XZ     -15.9546     YZ      -9.5790     ZZ     -23.4695
    Octopole Moments (Debye-Ang^2)
       XXX     -53.5937    XXY     -13.9617    XYY     -16.7593
       YYY       8.1793    XXZ     -47.0581    XYZ       5.0867
       YYZ     -57.2546    XZZ     -59.6308    YZZ     -27.7304
       ZZZ    -177.1776
    Hexadecapole Moments (Debye-Ang^3)
      XXXX    -246.1593   XXXY     -50.7950   XXYY     -58.1687
      XYYY     -60.7185   YYYY    -133.0158   XXXZ    -141.4821
      XXYZ     -45.0552   XYYZ     -46.2676   YYYZ       9.9053
      XXZZ    -162.8469   XYZZ      -1.4352   YYZZ    -169.8330
      XZZZ    -223.4929   YZZZ     -81.9624   ZZZZ    -948.8783
 -----------------------------------------------------------------
 Calculating analytic gradient of the SCF energy
 Gradient of CDS energy
            1           2           3           4           5           6
    1  -0.0000698   0.0003101   0.0000163  -0.0004204   0.0001597   0.0000042
    2   0.0000364   0.0000431  -0.0002064  -0.0001494   0.0002510   0.0000253
    3   0.0000850  -0.0001173  -0.0003027   0.0001655   0.0001705  -0.0000010
 Gradient of SCF Energy
            1           2           3           4           5           6
    1   0.0013839   0.0174457  -0.0055621  -0.0186223   0.0049700   0.0003849
    2  -0.0034954   0.0163141  -0.0054705  -0.0131459   0.0046932   0.0011046
    3  -0.0003796  -0.0041025  -0.0023895   0.0052004  -0.0005757   0.0022468
 Max gradient component =       1.862E-02
 RMS gradient           =       8.394E-03
 Computing fast CPCM-SWIG gradient
 Updating gradient with PCM contributions...
 -- total gradient after adding PCM contribution --
---------------------------------------------------
  Atom         X              Y              Z     
---------------------------------------------------
   1       0.000218       0.000416       0.000102
   2       0.000494       0.000084      -0.000143
   3      -0.000289      -0.000082       0.000139
   4       0.000191       0.000060      -0.000060
   5      -0.000278      -0.000177       0.000226
   6      -0.000336      -0.000300      -0.000264
---------------------------------------------------
 Number of fixed atoms: 0
 Gradient time:  CPU 22.48 s  wall 1.82 s
 ######################################################
 ######################################################
 # Starting finite difference calculation for IDERIV  #
 Finite diff step size:  1.88973e-03 a.u.
 ----------------------------------------------------------------
             Standard Nuclear Orientation (Angstroms)
    I     Atom           X                Y                Z
 ----------------------------------------------------------------
    1      O      -0.4091617000    -1.3341321000     2.2650579000
    2      O      -1.3141883000    -0.5993390000     2.8570517000
    3      H       0.8572054000    -0.2059478000     1.9271268000
    4      H      -2.0541441000    -1.1995919000     3.0727755000
    5      O       1.5562534000     0.4990987000     1.8994690000
    6      O       1.6915472000     0.9010091000     3.1402095000
 ----------------------------------------------------------------
 Nuclear Repulsion Energy =         114.98036798 hartrees
 There are       18 alpha and       16 beta electrons
 Discretize the solute cavity surface with Lebedev spheres
	Using 110 Lebedev grid points for each H atom
	Using 194 Lebedev grid points for other atoms
	Atomic van der Waals radii will be scaled by 1.20
 Remove points where switching function is < 1.0e-08
 Keep 658 surface tesserae and discard 338 interior tesserae
 Molecular Surface Area = 81.963 Angst**2

                       Distance Matrix (Angstroms)
             O (  1)   O (  2)   H (  3)   H (  4)   O (  5)
   O (  2)  1.307460
   H (  3)  1.729359  2.394675
   H (  4)  1.837519  0.976921  3.282651
   O (  5)  2.712425  3.219156  0.993239  4.158986
   O (  6)  3.189784  3.371301  1.842023  4.295029  1.311211
 
 Requested basis set is 6-311++G(2df,2p)
 There are 44 shells and 156 basis functions
 A cutoff of  1.0D-12 yielded    912 shell pairs
 There are     11502 function pairs (     14608 Cartesian)
 Smallest overlap matrix eigenvalue = 5.99E-04
 Guess MOs from SCF MO coefficient file

 -----------------------------------------------------------------------
  General SCF calculation program by
  Eric Jon Sundstrom, Paul Horn, Yuezhi Mao, Dmitri Zuev, Alec White,
  David Stuck, Shaama M.S., Shane Yost, Joonho Lee, David Small,
  Daniel Levine, Susi Lehtola, Hugh Burton, Evgeny Epifanovsky,
  Bang C. Huynh
 -----------------------------------------------------------------------
 Exchange:     0.1500 Hartree-Fock + 1.0000 wB97M-V + LR-HF
 Correlation:  1.0000 wB97M-V
 Using SG-2 standard quadrature grid
 Nonlocal Correlation:  VV10 with C = 0.0100 and b = 6.00 and scale = 1.00000
 Grid used for NLC:  SG-1 standard quadrature
 
 Citation of the SMD model:
 Marenich, A.V.; Cramer, C.J.; Truhlar, D.G.
 J. Phys. Chem. B 2009, 113, 6378-6396.
 iSolventCode=           1
 Solvent: water                                                           
 
 vradii
            1           2           3           4           5           6
    1   1.5200000   1.5200000   1.2000000   1.2000000   1.5200000   1.5200000
 -------------------------------------------------------
 OpenMP BLAS3 based DFT computing Module                
 Release: version 1.0, May 2013, Q-Chem Inc. Pittsburgh 
 -------------------------------------------------------
 A unrestricted SCF calculation will be
 performed using Roothaan-Hall, DIIS, GDM
 SCF converges when RMS gradient is below 1.0e-07
 ---------------------------------------
  Cycle       Energy         DIIS error
 ---------------------------------------
    1    -301.8394925793      3.88e-04  Roothaan Step
 ---------------------------------------
  Cycle       Energy         DIIS error
 ---------------------------------------
    1    -301.8624133075      4.12e-04  
    2    -301.8645585093      3.34e-04  Done DIIS. Switching to GDM
 ---------------------------------------
  Cycle       Energy        RMS Gradient
 ---------------------------------------
    1    -301.8645585093      1.90e-02   Normal BFGS step
    2    -301.8640683263      3.23e-02  Line search: overstep
    3    -301.8654193262      3.73e-03   Normal BFGS step
    4    -301.8654957816      1.33e-03   Normal BFGS step
    5    -301.8655106760      7.53e-04   Normal BFGS step
    6    -301.8655129575      5.25e-04   Normal BFGS step
    7    -301.8655136738      3.91e-04   Normal BFGS step
    8    -301.8655139469      1.28e-04   Normal BFGS step
    9    -301.8655140029      1.82e-05   Normal BFGS step
   10    -301.8655140064      1.55e-05   Normal BFGS step
   11    -301.8655140072      1.39e-05   Normal BFGS step
   12    -301.8655140076      1.14e-05   Normal BFGS step
   13    -301.8655140082      5.10e-06   Normal BFGS step
   14    -301.8655140084      1.70e-06   Normal BFGS step
   15    -301.8655140085      5.72e-07   Normal BFGS step
   16    -301.8655140085      1.91e-07   Normal BFGS step
   17    -301.8655140085      6.20e-08  Convergence criterion met
 ---------------------------------------
 SCF time:   CPU 181.84s  wall 12.00s 
<S^2> =          2.007466806
(3)  G-ENP(liq) elect-nuc-pol free energy of system     -301.865514008 a.u.
(4)  G-CDS(liq) cavity-dispersion-solvent structure 
     free energy                                                0.8773 kcal/mol
(6)  G-S(liq) free energy of system                     -301.864115865 a.u.
 SCF   energy in the final basis set =     -301.8641158652
 Total energy in the final basis set =     -301.8641158652
 
 --------------------------------------------------------------
 
                    Orbital Energies (a.u.)
 --------------------------------------------------------------
 
 Alpha MOs
 -- Occupied --
-19.4687 -19.4421 -19.4384 -19.4138  -1.3549  -1.3279  -1.0138  -0.9834
 -0.6932  -0.6783  -0.6266  -0.6118  -0.6050  -0.5920  -0.4409  -0.4205
 -0.4004  -0.3993
 -- Virtual --
  0.0358   0.0563   0.1171   0.1346   0.1814   0.1851   0.2016   0.2061
  0.2281   0.2303   0.2353   0.2534   0.2643   0.2777   0.2827   0.2916
  0.2981   0.3169   0.3681   0.3782   0.3883   0.4388   0.5846   0.6750
  0.7648   0.7804   0.8022   0.8361   0.9646   1.0121   1.0271   1.0377
  1.0500   1.0636   1.1108   1.1187   1.1287   1.1319   1.1721   1.2185
  1.3326   1.3549   1.3745   1.4021   1.4259   1.4821   1.5111   1.5516
  1.5776   1.6022   1.6335   1.6399   1.7605   1.8740   1.9522   2.0962
  2.1274   2.2265   2.2442   2.2571   2.2688   2.3137   2.4507   2.5035
  2.5898   2.6092   2.7432   2.9095   3.6785   3.7395   3.8395   3.8990
  4.1555   4.3032   4.4905   4.5097   4.6525   4.6955   4.7068   4.7221
  4.7555   4.7581   4.8656   4.8881   5.0029   5.0194   5.0570   5.0627
  5.0737   5.0874   5.1100   5.1206   5.1261   5.1811   5.1985   5.2135
  5.2496   5.2636   5.2870   5.4046   5.4411   5.4497   5.6212   5.6252
  5.7394   5.7491   6.4227   6.4300   6.4358   6.4467   6.7354   6.7724
  6.8291   6.8704   6.8890   6.9299   6.9470   7.0066   7.0265   7.0497
  7.0615   7.0885   7.1063   7.1785   7.3357   7.3496   7.3549   7.3926
  7.6297   7.6588   7.9197   7.9411   7.9726   7.9969  50.3690  50.3866
 50.4173  50.4443
 
 Beta MOs
 -- Occupied --
-19.4584 -19.4322 -19.4192 -19.3946  -1.3275  -1.3007  -0.9738  -0.9424
 -0.6760  -0.6619  -0.5918  -0.5740  -0.5407  -0.5207  -0.4194  -0.3773
 -- Virtual --
 -0.0423  -0.0238   0.0370   0.0572   0.1221   0.1409   0.1860   0.1904
  0.2073   0.2130   0.2325   0.2367   0.2427   0.2576   0.2755   0.2828
  0.2871   0.2980   0.3106   0.3246   0.3715   0.3803   0.3893   0.4388
  0.5880   0.6764   0.7686   0.7852   0.8068   0.8387   0.9690   1.0188
  1.0329   1.0453   1.0784   1.0994   1.1179   1.1389   1.1569   1.1624
  1.1804   1.2280   1.3453   1.3821   1.4011   1.4169   1.4436   1.5033
  1.5269   1.5692   1.5947   1.6190   1.6643   1.6762   1.7768   1.8939
  1.9713   2.1158   2.1437   2.2353   2.2706   2.2823   2.2861   2.3240
  2.4581   2.5128   2.6044   2.6208   2.7512   2.9172   3.6877   3.7468
  3.8450   3.9034   4.1617   4.3101   4.5315   4.5505   4.6655   4.7078
  4.7331   4.7485   4.7707   4.7739   4.8886   4.9123   5.0710   5.0968
  5.1090   5.1306   5.1330   5.1487   5.1531   5.1627   5.1824   5.2125
  5.2311   5.2504   5.2846   5.2958   5.3106   5.4346   5.4723   5.4791
  5.6490   5.6530   5.7617   5.7715   6.4492   6.4593   6.4708   6.4777
  6.8128   6.8536   6.9159   6.9349   6.9523   6.9698   6.9950   7.0442
  7.0752   7.0978   7.0994   7.1205   7.1407   7.2164   7.3785   7.3910
  7.4103   7.4184   7.6480   7.6789   7.9303   7.9538   7.9968   8.0198
 50.3809  50.3966  50.4295  50.4553
 --------------------------------------------------------------
 
          Ground-State Mulliken Net Atomic Charges

     Atom                 Charge (a.u.)    Spin (a.u.)
  --------------------------------------------------------
      1 O                    -0.203715       0.689423
      2 O                    -0.121572       0.322135
      3 H                     0.399290      -0.009201
      4 H                     0.373680      -0.007609
      5 O                    -0.203988       0.316595
      6 O                    -0.243695       0.688658
  --------------------------------------------------------
  Sum of atomic charges =    -0.000000
  Sum of spin   charges =     2.000000

 -----------------------------------------------------------------
                    Cartesian Multipole Moments
 -----------------------------------------------------------------
    Charge (ESU x 10^10)
                -0.0000
    Dipole Moment (Debye)
         X      -5.1091      Y      -3.0774      Z      -0.0967
       Tot       5.9651
    Quadrupole Moments (Debye-Ang)
        XX     -20.1476     XY       0.9323     YY     -23.3276
        XZ     -15.9565     YZ      -9.5822     ZZ     -23.4739
    Octopole Moments (Debye-Ang^2)
       XXX     -53.6128    XXY     -13.9640    XYY     -16.7668
       YYY       8.1745    XXZ     -47.0595    XYZ       5.0870
       YYZ     -57.2516    XZZ     -59.6413    YZZ     -27.7357
       ZZZ    -177.1981
    Hexadecapole Moments (Debye-Ang^3)
      XXXX    -246.1363   XXXY     -50.7755   XXYY     -58.1634
      XYYY     -60.6950   YYYY    -133.0097   XXXZ    -141.5301
      XXYZ     -45.0611   XYYZ     -46.2836   YYYZ       9.8972
      XXZZ    -162.8442   XYZZ      -1.4292   YYZZ    -169.8313
      XZZZ    -223.5430   YZZZ     -81.9685   ZZZZ    -948.9659
 -----------------------------------------------------------------
 Calculating analytic gradient of the SCF energy
 Gradient of CDS energy
            1           2           3           4           5           6
    1  -0.0000698   0.0003102   0.0000163  -0.0004204   0.0001597   0.0000041
    2   0.0000363   0.0000433  -0.0002063  -0.0001494   0.0002510   0.0000252
    3   0.0000851  -0.0001172  -0.0003028   0.0001654   0.0001705  -0.0000010
 Gradient of SCF Energy
            1           2           3           4           5           6
    1   0.0019835   0.0169463  -0.0055573  -0.0187015   0.0049423   0.0003866
    2  -0.0038060   0.0165655  -0.0054720  -0.0130603   0.0046654   0.0011074
    3  -0.0007256  -0.0038093  -0.0024013   0.0052546  -0.0005660   0.0022476
 Max gradient component =       1.870E-02
 RMS gradient           =       8.375E-03
 Computing fast CPCM-SWIG gradient
 Updating gradient with PCM contributions...
 -- total gradient after adding PCM contribution --
---------------------------------------------------
  Atom         X              Y              Z     
---------------------------------------------------
   1       0.000801       0.000105      -0.000240
   2       0.000000       0.000335       0.000148
   3      -0.000286      -0.000080       0.000132
   4       0.000123       0.000143      -0.000011
   5      -0.000305      -0.000206       0.000234
   6      -0.000334      -0.000297      -0.000263
---------------------------------------------------
 Number of fixed atoms: 0
 Gradient time:  CPU 21.92 s  wall 1.67 s
 ----------------------------------------------------------------
             Standard Nuclear Orientation (Angstroms)
    I     Atom           X                Y                Z
 ----------------------------------------------------------------
    1      O      -0.4111617000    -1.3341321000     2.2650579000
    2      O      -1.3141883000    -0.5993390000     2.8570517000
    3      H       0.8572054000    -0.2059478000     1.9271268000
    4      H      -2.0541441000    -1.1995919000     3.0727755000
    5      O       1.5562534000     0.4990987000     1.8994690000
    6      O       1.6915472000     0.9010091000     3.1402095000
 ----------------------------------------------------------------
 Nuclear Repulsion Energy =         114.99693077 hartrees
 There are       18 alpha and       16 beta electrons
 Discretize the solute cavity surface with Lebedev spheres
	Using 110 Lebedev grid points for each H atom
	Using 194 Lebedev grid points for other atoms
	Atomic van der Waals radii will be scaled by 1.20
 Remove points where switching function is < 1.0e-08
 Keep 659 surface tesserae and discard 337 interior tesserae
 Molecular Surface Area = 81.961 Angst**2

                       Distance Matrix (Angstroms)
             O (  1)   O (  2)   H (  3)   H (  4)   O (  5)
   O (  2)  1.306076
   H (  3)  1.730824  2.394675
   H (  4)  1.835729  0.976921  3.282651
   O (  5)  2.713874  3.219156  0.993239  4.158986
   O (  6)  3.191102  3.371301  1.842023  4.295029  1.311211
 
 Requested basis set is 6-311++G(2df,2p)
 There are 44 shells and 156 basis functions
 A cutoff of  1.0D-12 yielded    912 shell pairs
 There are     11502 function pairs (     14608 Cartesian)
 Smallest overlap matrix eigenvalue = 5.98E-04
 Guess MOs from SCF MO coefficient file

 -----------------------------------------------------------------------
  General SCF calculation program by
  Eric Jon Sundstrom, Paul Horn, Yuezhi Mao, Dmitri Zuev, Alec White,
  David Stuck, Shaama M.S., Shane Yost, Joonho Lee, David Small,
  Daniel Levine, Susi Lehtola, Hugh Burton, Evgeny Epifanovsky,
  Bang C. Huynh
 -----------------------------------------------------------------------
 Exchange:     0.1500 Hartree-Fock + 1.0000 wB97M-V + LR-HF
 Correlation:  1.0000 wB97M-V
 Using SG-2 standard quadrature grid
 Nonlocal Correlation:  VV10 with C = 0.0100 and b = 6.00 and scale = 1.00000
 Grid used for NLC:  SG-1 standard quadrature
 
 Citation of the SMD model:
 Marenich, A.V.; Cramer, C.J.; Truhlar, D.G.
 J. Phys. Chem. B 2009, 113, 6378-6396.
 iSolventCode=           1
 Solvent: water                                                           
 
 vradii
            1           2           3           4           5           6
    1   1.5200000   1.5200000   1.2000000   1.2000000   1.5200000   1.5200000
 -------------------------------------------------------
 OpenMP BLAS3 based DFT computing Module                
 Release: version 1.0, May 2013, Q-Chem Inc. Pittsburgh 
 -------------------------------------------------------
 A unrestricted SCF calculation will be
 performed using Roothaan-Hall, DIIS, GDM
 SCF converges when RMS gradient is below 1.0e-07
 ---------------------------------------
  Cycle       Energy         DIIS error
 ---------------------------------------
    1    -301.8394959832      3.89e-04  Roothaan Step
 ---------------------------------------
  Cycle       Energy         DIIS error
 ---------------------------------------
    1    -301.8624161019      4.12e-04  
    2    -301.8645595282      3.34e-04  Done DIIS. Switching to GDM
 ---------------------------------------
  Cycle       Energy        RMS Gradient
 ---------------------------------------
    1    -301.8645595282      1.91e-02   Normal BFGS step
    2    -301.8640690283      3.24e-02  Line search: overstep
    3    -301.8654201239      3.72e-03   Normal BFGS step
    4    -301.8654967536      1.33e-03   Normal BFGS step
    5    -301.8655117039      7.61e-04   Normal BFGS step
    6    -301.8655140227      5.16e-04   Normal BFGS step
    7    -301.8655147606      3.90e-04   Normal BFGS step
    8    -301.8655150224      1.46e-04   Normal BFGS step
    9    -301.8655150850      2.58e-05   Normal BFGS step
   10    -301.8655150893      2.41e-05   Normal BFGS step
   11    -301.8655150909      2.06e-05   Normal BFGS step
   12    -301.8655150921      1.52e-05   Normal BFGS step
   13    -301.8655150933      5.33e-06   Normal BFGS step
   14    -301.8655150936      1.60e-06   Normal BFGS step
   15    -301.8655150936      5.98e-07   Normal BFGS step
   16    -301.8655150936      2.36e-07   Normal BFGS step
   17    -301.8655150936      8.09e-08  Convergence criterion met
 ---------------------------------------
 SCF time:   CPU 183.04s  wall 12.00s 
<S^2> =          2.007460433
(3)  G-ENP(liq) elect-nuc-pol free energy of system     -301.865515094 a.u.
(4)  G-CDS(liq) cavity-dispersion-solvent structure 
     free energy                                                0.8775 kcal/mol
(6)  G-S(liq) free energy of system                     -301.864116687 a.u.
 SCF   energy in the final basis set =     -301.8641166867
 Total energy in the final basis set =     -301.8641166867
 
 --------------------------------------------------------------
 
                    Orbital Energies (a.u.)
 --------------------------------------------------------------
 
 Alpha MOs
 -- Occupied --
-19.4687 -19.4422 -19.4381 -19.4138  -1.3558  -1.3280  -1.0134  -0.9834
 -0.6934  -0.6783  -0.6269  -0.6120  -0.6050  -0.5921  -0.4407  -0.4201
 -0.4004  -0.3993
 -- Virtual --
  0.0358   0.0563   0.1172   0.1348   0.1814   0.1851   0.2015   0.2062
  0.2281   0.2303   0.2355   0.2534   0.2645   0.2778   0.2827   0.2918
  0.2982   0.3170   0.3680   0.3782   0.3883   0.4388   0.5846   0.6749
  0.7648   0.7804   0.8022   0.8361   0.9645   1.0119   1.0271   1.0377
  1.0500   1.0636   1.1106   1.1186   1.1287   1.1318   1.1721   1.2185
  1.3322   1.3553   1.3744   1.4022   1.4259   1.4821   1.5112   1.5517
  1.5775   1.6024   1.6334   1.6400   1.7602   1.8741   1.9521   2.0975
  2.1277   2.2266   2.2454   2.2571   2.2690   2.3133   2.4512   2.5031
  2.5893   2.6091   2.7433   2.9093   3.6785   3.7394   3.8400   3.8989
  4.1555   4.3029   4.4908   4.5097   4.6523   4.6954   4.7056   4.7221
  4.7571   4.7593   4.8654   4.8878   5.0028   5.0194   5.0569   5.0627
  5.0736   5.0877   5.1098   5.1206   5.1261   5.1814   5.1988   5.2136
  5.2502   5.2640   5.2869   5.4042   5.4424   5.4497   5.6212   5.6263
  5.7394   5.7519   6.4281   6.4300   6.4367   6.4503   6.7355   6.7724
  6.8291   6.8717   6.8890   6.9303   6.9472   7.0076   7.0264   7.0495
  7.0616   7.0884   7.1067   7.1785   7.3360   7.3496   7.3549   7.3929
  7.6299   7.6587   7.9198   7.9429   7.9726   8.0001  50.3693  50.3876
 50.4180  50.4446
 
 Beta MOs
 -- Occupied --
-19.4584 -19.4323 -19.4189 -19.3946  -1.3283  -1.3007  -0.9735  -0.9424
 -0.6762  -0.6619  -0.5920  -0.5740  -0.5411  -0.5207  -0.4192  -0.3773
 -- Virtual --
 -0.0419  -0.0238   0.0370   0.0572   0.1221   0.1410   0.1860   0.1903
  0.2073   0.2131   0.2325   0.2367   0.2429   0.2576   0.2756   0.2829
  0.2871   0.2982   0.3111   0.3247   0.3714   0.3803   0.3893   0.4388
  0.5880   0.6763   0.7687   0.7852   0.8068   0.8387   0.9690   1.0186
  1.0329   1.0453   1.0784   1.0994   1.1176   1.1388   1.1568   1.1624
  1.1803   1.2280   1.3448   1.3825   1.4011   1.4170   1.4436   1.5032
  1.5269   1.5694   1.5946   1.6191   1.6642   1.6762   1.7766   1.8940
  1.9713   2.1171   2.1441   2.2353   2.2715   2.2829   2.2861   2.3236
  2.4587   2.5124   2.6038   2.6207   2.7514   2.9169   3.6877   3.7467
  3.8454   3.9033   4.1617   4.3098   4.5319   4.5505   4.6653   4.7077
  4.7319   4.7485   4.7719   4.7755   4.8884   4.9119   5.0708   5.0968
  5.1089   5.1305   5.1330   5.1486   5.1529   5.1629   5.1823   5.2128
  5.2310   5.2505   5.2859   5.2959   5.3104   5.4344   5.4735   5.4792
  5.6490   5.6541   5.7618   5.7743   6.4502   6.4628   6.4763   6.4777
  6.8129   6.8536   6.9158   6.9362   6.9523   6.9704   6.9953   7.0446
  7.0750   7.0976   7.0994   7.1200   7.1417   7.2166   7.3785   7.3912
  7.4103   7.4186   7.6482   7.6788   7.9304   7.9555   7.9967   8.0231
 50.3812  50.3975  50.4302  50.4556
 --------------------------------------------------------------
 
          Ground-State Mulliken Net Atomic Charges

     Atom                 Charge (a.u.)    Spin (a.u.)
  --------------------------------------------------------
      1 O                    -0.204421       0.688923
      2 O                    -0.120858       0.322648
      3 H                     0.399077      -0.009203
      4 H                     0.373586      -0.007627
      5 O                    -0.203768       0.316550
      6 O                    -0.243615       0.688708
  --------------------------------------------------------
  Sum of atomic charges =    -0.000000
  Sum of spin   charges =     2.000000

 -----------------------------------------------------------------
                    Cartesian Multipole Moments
 -----------------------------------------------------------------
    Charge (ESU x 10^10)
                -0.0000
    Dipole Moment (Debye)
         X      -5.1077      Y      -3.0736      Z      -0.0951
       Tot       5.9620
    Quadrupole Moments (Debye-Ang)
        XX     -20.1454     XY       0.9317     YY     -23.3318
        XZ     -15.9527     YZ      -9.5758     ZZ     -23.4650
    Octopole Moments (Debye-Ang^2)
       XXX     -53.5746    XXY     -13.9593    XYY     -16.7518
       YYY       8.1841    XXZ     -47.0568    XYZ       5.0863
       YYZ     -57.2575    XZZ     -59.6202    YZZ     -27.7251
       ZZZ    -177.1571
    Hexadecapole Moments (Debye-Ang^3)
      XXXX    -246.1823   XXXY     -50.8145   XXYY     -58.1739
      XYYY     -60.7420   YYYY    -133.0219   XXXZ    -141.4340
      XXYZ     -45.0494   XYYZ     -46.2516   YYYZ       9.9135
      XXZZ    -162.8497   XYZZ      -1.4412   YYZZ    -169.8347
      XZZZ    -223.4428   YZZZ     -81.9563   ZZZZ    -948.7906
 -----------------------------------------------------------------
 Calculating analytic gradient of the SCF energy
 Gradient of CDS energy
            1           2           3           4           5           6
    1  -0.0000697   0.0003101   0.0000163  -0.0004205   0.0001597   0.0000042
    2   0.0000365   0.0000430  -0.0002065  -0.0001493   0.0002510   0.0000254
    3   0.0000848  -0.0001174  -0.0003026   0.0001656   0.0001705  -0.0000010
 Gradient of SCF Energy
            1           2           3           4           5           6
    1   0.0007826   0.0179465  -0.0055669  -0.0185429   0.0049976   0.0003831
    2  -0.0031830   0.0160610  -0.0054690  -0.0132317   0.0047209   0.0011018
    3  -0.0000319  -0.0043972  -0.0023776   0.0051460  -0.0005854   0.0022461
 Max gradient component =       1.854E-02
 RMS gradient           =       8.420E-03
 Computing fast CPCM-SWIG gradient
 Updating gradient with PCM contributions...
 -- total gradient after adding PCM contribution --
---------------------------------------------------
  Atom         X              Y              Z     
---------------------------------------------------
   1      -0.000367       0.000729       0.000444
   2       0.000988      -0.000168      -0.000434
   3      -0.000292      -0.000084       0.000146
   4       0.000259      -0.000024      -0.000110
   5      -0.000250      -0.000149       0.000218
   6      -0.000338      -0.000303      -0.000265
---------------------------------------------------
 Number of fixed atoms: 0
 Gradient time:  CPU 21.58 s  wall 1.66 s
 ----------------------------------------------------------------
             Standard Nuclear Orientation (Angstroms)
    I     Atom           X                Y                Z
 ----------------------------------------------------------------
    1      O      -0.4101617000    -1.3331321000     2.2650579000
    2      O      -1.3141883000    -0.5993390000     2.8570517000
    3      H       0.8572054000    -0.2059478000     1.9271268000
    4      H      -2.0541441000    -1.1995919000     3.0727755000
    5      O       1.5562534000     0.4990987000     1.8994690000
    6      O       1.6915472000     0.9010091000     3.1402095000
 ----------------------------------------------------------------
 Nuclear Repulsion Energy =         115.00625045 hartrees
 There are       18 alpha and       16 beta electrons
 Discretize the solute cavity surface with Lebedev spheres
	Using 110 Lebedev grid points for each H atom
	Using 194 Lebedev grid points for other atoms
	Atomic van der Waals radii will be scaled by 1.20
 Remove points where switching function is < 1.0e-08
 Keep 658 surface tesserae and discard 338 interior tesserae
 Molecular Surface Area = 81.951 Angst**2

                       Distance Matrix (Angstroms)
             O (  1)   O (  2)   H (  3)   H (  4)   O (  5)
   O (  2)  1.306206
   H (  3)  1.729440  2.394675
   H (  4)  1.836551  0.976921  3.282651
   O (  5)  2.712474  3.219156  0.993239  4.158986
   O (  6)  3.189743  3.371301  1.842023  4.295029  1.311211
 
 Requested basis set is 6-311++G(2df,2p)
 There are 44 shells and 156 basis functions
 A cutoff of  1.0D-12 yielded    912 shell pairs
 There are     11502 function pairs (     14608 Cartesian)
 Smallest overlap matrix eigenvalue = 5.98E-04
 Guess MOs from SCF MO coefficient file

 -----------------------------------------------------------------------
  General SCF calculation program by
  Eric Jon Sundstrom, Paul Horn, Yuezhi Mao, Dmitri Zuev, Alec White,
  David Stuck, Shaama M.S., Shane Yost, Joonho Lee, David Small,
  Daniel Levine, Susi Lehtola, Hugh Burton, Evgeny Epifanovsky,
  Bang C. Huynh
 -----------------------------------------------------------------------
 Exchange:     0.1500 Hartree-Fock + 1.0000 wB97M-V + LR-HF
 Correlation:  1.0000 wB97M-V
 Using SG-2 standard quadrature grid
 Nonlocal Correlation:  VV10 with C = 0.0100 and b = 6.00 and scale = 1.00000
 Grid used for NLC:  SG-1 standard quadrature
 
 Citation of the SMD model:
 Marenich, A.V.; Cramer, C.J.; Truhlar, D.G.
 J. Phys. Chem. B 2009, 113, 6378-6396.
 iSolventCode=           1
 Solvent: water                                                           
 
 vradii
            1           2           3           4           5           6
    1   1.5200000   1.5200000   1.2000000   1.2000000   1.5200000   1.5200000
 -------------------------------------------------------
 OpenMP BLAS3 based DFT computing Module                
 Release: version 1.0, May 2013, Q-Chem Inc. Pittsburgh 
 -------------------------------------------------------
 A unrestricted SCF calculation will be
 performed using Roothaan-Hall, DIIS, GDM
 SCF converges when RMS gradient is below 1.0e-07
 ---------------------------------------
  Cycle       Energy         DIIS error
 ---------------------------------------
    1    -301.8394964834      3.87e-04  Roothaan Step
 ---------------------------------------
  Cycle       Energy         DIIS error
 ---------------------------------------
    1    -301.8624146661      4.12e-04  
    2    -301.8645613687      3.34e-04  Done DIIS. Switching to GDM
 ---------------------------------------
  Cycle       Energy        RMS Gradient
 ---------------------------------------
    1    -301.8645613687      1.90e-02   Normal BFGS step
    2    -301.8640743419      3.23e-02  Line search: overstep
    3    -301.8654192353      3.74e-03   Normal BFGS step
    4    -301.8654957904      1.33e-03   Normal BFGS step
    5    -301.8655107149      7.52e-04   Normal BFGS step
    6    -301.8655130163      5.21e-04   Normal BFGS step
    7    -301.8655137454      3.88e-04   Normal BFGS step
    8    -301.8655140065      1.43e-04   Normal BFGS step
    9    -301.8655140671      1.88e-05   Normal BFGS step
   10    -301.8655140707      1.70e-05   Normal BFGS step
   11    -301.8655140716      1.51e-05   Normal BFGS step
   12    -301.8655140722      1.22e-05   Normal BFGS step
   13    -301.8655140729      5.14e-06   Normal BFGS step
   14    -301.8655140731      1.57e-06   Normal BFGS step
   15    -301.8655140731      5.80e-07   Normal BFGS step
   16    -301.8655140731      2.38e-07   Normal BFGS step
   17    -301.8655140731      7.74e-08  Convergence criterion met
 ---------------------------------------
 SCF time:   CPU 181.64s  wall 11.00s 
<S^2> =          2.007461063
(3)  G-ENP(liq) elect-nuc-pol free energy of system     -301.865514073 a.u.
(4)  G-CDS(liq) cavity-dispersion-solvent structure 
     free energy                                                0.8775 kcal/mol
(6)  G-S(liq) free energy of system                     -301.864115729 a.u.
 SCF   energy in the final basis set =     -301.8641157292
 Total energy in the final basis set =     -301.8641157292
 
 --------------------------------------------------------------
 
                    Orbital Energies (a.u.)
 --------------------------------------------------------------
 
 Alpha MOs
 -- Occupied --
-19.4687 -19.4421 -19.4382 -19.4138  -1.3557  -1.3279  -1.0136  -0.9834
 -0.6934  -0.6784  -0.6269  -0.6120  -0.6050  -0.5921  -0.4407  -0.4202
 -0.4004  -0.3992
 -- Virtual --
  0.0358   0.0563   0.1172   0.1348   0.1814   0.1851   0.2016   0.2062
  0.2281   0.2303   0.2355   0.2534   0.2645   0.2778   0.2827   0.2918
  0.2982   0.3170   0.3681   0.3782   0.3883   0.4388   0.5846   0.6750
  0.7649   0.7804   0.8022   0.8361   0.9646   1.0120   1.0270   1.0377
  1.0500   1.0636   1.1107   1.1187   1.1287   1.1318   1.1721   1.2185
  1.3327   1.3553   1.3744   1.4021   1.4259   1.4820   1.5112   1.5517
  1.5776   1.6024   1.6335   1.6400   1.7604   1.8742   1.9523   2.0974
  2.1277   2.2264   2.2452   2.2571   2.2689   2.3142   2.4512   2.5035
  2.5895   2.6092   2.7434   2.9096   3.6785   3.7395   3.8400   3.8990
  4.1555   4.3031   4.4907   4.5097   4.6525   4.6957   4.7059   4.7221
  4.7571   4.7592   4.8656   4.8879   5.0028   5.0194   5.0569   5.0627
  5.0737   5.0876   5.1097   5.1206   5.1261   5.1813   5.1987   5.2136
  5.2502   5.2639   5.2869   5.4045   5.4419   5.4497   5.6213   5.6266
  5.7394   5.7512   6.4276   6.4300   6.4367   6.4504   6.7355   6.7724
  6.8291   6.8716   6.8890   6.9301   6.9472   7.0077   7.0267   7.0495
  7.0616   7.0888   7.1066   7.1781   7.3360   7.3497   7.3549   7.3930
  7.6304   7.6589   7.9198   7.9427   7.9726   7.9997  50.3693  50.3875
 50.4178  50.4447
 
 Beta MOs
 -- Occupied --
-19.4584 -19.4322 -19.4190 -19.3946  -1.3283  -1.3007  -0.9736  -0.9424
 -0.6762  -0.6619  -0.5920  -0.5740  -0.5411  -0.5207  -0.4192  -0.3773
 -- Virtual --
 -0.0420  -0.0238   0.0370   0.0572   0.1221   0.1410   0.1860   0.1903
  0.2073   0.2130   0.2325   0.2367   0.2429   0.2576   0.2756   0.2829
  0.2871   0.2982   0.3110   0.3247   0.3715   0.3803   0.3893   0.4388
  0.5880   0.6764   0.7688   0.7853   0.8068   0.8387   0.9690   1.0187
  1.0329   1.0453   1.0784   1.0994   1.1177   1.1389   1.1569   1.1624
  1.1803   1.2280   1.3453   1.3825   1.4011   1.4170   1.4436   1.5032
  1.5269   1.5694   1.5947   1.6192   1.6643   1.6763   1.7768   1.8941
  1.9715   2.1169   2.1440   2.2351   2.2714   2.2827   2.2861   2.3245
  2.4587   2.5128   2.6041   2.6208   2.7514   2.9172   3.6877   3.7469
  3.8454   3.9034   4.1617   4.3100   4.5318   4.5505   4.6656   4.7079
  4.7322   4.7485   4.7719   4.7754   4.8885   4.9120   5.0708   5.0968
  5.1089   5.1305   5.1330   5.1486   5.1528   5.1629   5.1824   5.2127
  5.2310   5.2505   5.2856   5.2959   5.3105   5.4346   5.4730   5.4792
  5.6491   5.6544   5.7618   5.7736   6.4502   6.4629   6.4757   6.4778
  6.8129   6.8536   6.9159   6.9360   6.9523   6.9703   6.9953   7.0447
  7.0754   7.0974   7.0993   7.1205   7.1416   7.2163   7.3786   7.3911
  7.4103   7.4188   7.6487   7.6790   7.9304   7.9554   7.9968   8.0227
 50.3812  50.3974  50.4300  50.4557
 --------------------------------------------------------------
 
          Ground-State Mulliken Net Atomic Charges

     Atom                 Charge (a.u.)    Spin (a.u.)
  --------------------------------------------------------
      1 O                    -0.204296       0.688896
      2 O                    -0.120932       0.322672
      3 H                     0.399277      -0.009203
      4 H                     0.373617      -0.007621
      5 O                    -0.203951       0.316603
      6 O                    -0.243714       0.688653
  --------------------------------------------------------
  Sum of atomic charges =    -0.000000
  Sum of spin   charges =     2.000000

 -----------------------------------------------------------------
                    Cartesian Multipole Moments
 -----------------------------------------------------------------
    Charge (ESU x 10^10)
                 0.0000
    Dipole Moment (Debye)
         X      -5.1103      Y      -3.0766      Z      -0.0954
       Tot       5.9657
    Quadrupole Moments (Debye-Ang)
        XX     -20.1460     XY       0.9333     YY     -23.3283
        XZ     -15.9591     YZ      -9.5827     ZZ     -23.4667
    Octopole Moments (Debye-Ang^2)
       XXX     -53.5998    XXY     -13.9712    XYY     -16.7639
       YYY       8.1575    XXZ     -47.0576    XYZ       5.0905
       YYZ     -57.2497    XZZ     -59.6430    YZZ     -27.7484
       ZZZ    -177.1655
    Hexadecapole Moments (Debye-Ang^3)
      XXXX    -246.1616   XXXY     -50.7871   XXYY     -58.1520
      XYYY     -60.7039   YYYY    -132.9191   XXXZ    -141.4951
      XXYZ     -45.0777   XYYZ     -46.2794   YYYZ       9.8516
      XXZZ    -162.8480   XYZZ      -1.4217   YYZZ    -169.8039
      XZZZ    -223.5308   YZZZ     -82.0423   ZZZZ    -948.8284
 -----------------------------------------------------------------
 Calculating analytic gradient of the SCF energy
 Gradient of CDS energy
            1           2           3           4           5           6
    1  -0.0000699   0.0003102   0.0000163  -0.0004204   0.0001597   0.0000042
    2   0.0000364   0.0000433  -0.0002065  -0.0001495   0.0002510   0.0000253
    3   0.0000851  -0.0001174  -0.0003027   0.0001654   0.0001705  -0.0000010
 Gradient of SCF Energy
            1           2           3           4           5           6
    1   0.0010681   0.0177831  -0.0055355  -0.0186361   0.0049316   0.0003888
    2  -0.0031610   0.0159589  -0.0054668  -0.0131042   0.0046656   0.0011076
    3  -0.0001557  -0.0043431  -0.0023986   0.0052175  -0.0005676   0.0022476
 Max gradient component =       1.864E-02
 RMS gradient           =       8.388E-03
 Computing fast CPCM-SWIG gradient
 Updating gradient with PCM contributions...
 -- total gradient after adding PCM contribution --
---------------------------------------------------
  Atom         X              Y              Z     
---------------------------------------------------
   1      -0.000095       0.000747       0.000321
   2       0.000821      -0.000265      -0.000376
   3      -0.000262      -0.000080       0.000130
   4       0.000183       0.000099      -0.000046
   5      -0.000314      -0.000203       0.000235
   6      -0.000333      -0.000297      -0.000263
---------------------------------------------------
 Number of fixed atoms: 0
 Gradient time:  CPU 21.63 s  wall 1.67 s
 ----------------------------------------------------------------
             Standard Nuclear Orientation (Angstroms)
    I     Atom           X                Y                Z
 ----------------------------------------------------------------
    1      O      -0.4101617000    -1.3351321000     2.2650579000
    2      O      -1.3141883000    -0.5993390000     2.8570517000
    3      H       0.8572054000    -0.2059478000     1.9271268000
    4      H      -2.0541441000    -1.1995919000     3.0727755000
    5      O       1.5562534000     0.4990987000     1.8994690000
    6      O       1.6915472000     0.9010091000     3.1402095000
 ----------------------------------------------------------------
 Nuclear Repulsion Energy =         114.97103883 hartrees
 There are       18 alpha and       16 beta electrons
 Discretize the solute cavity surface with Lebedev spheres
	Using 110 Lebedev grid points for each H atom
	Using 194 Lebedev grid points for other atoms
	Atomic van der Waals radii will be scaled by 1.20
 Remove points where switching function is < 1.0e-08
 Keep 658 surface tesserae and discard 338 interior tesserae
 Molecular Surface Area = 81.972 Angst**2

                       Distance Matrix (Angstroms)
             O (  1)   O (  2)   H (  3)   H (  4)   O (  5)
   O (  2)  1.307330
   H (  3)  1.730744  2.394675
   H (  4)  1.836697  0.976921  3.282651
   O (  5)  2.713825  3.219156  0.993239  4.158986
   O (  6)  3.191144  3.371301  1.842023  4.295029  1.311211
 
 Requested basis set is 6-311++G(2df,2p)
 There are 44 shells and 156 basis functions
 A cutoff of  1.0D-12 yielded    912 shell pairs
 There are     11502 function pairs (     14608 Cartesian)
 Smallest overlap matrix eigenvalue = 5.99E-04
 Guess MOs from SCF MO coefficient file

 -----------------------------------------------------------------------
  General SCF calculation program by
  Eric Jon Sundstrom, Paul Horn, Yuezhi Mao, Dmitri Zuev, Alec White,
  David Stuck, Shaama M.S., Shane Yost, Joonho Lee, David Small,
  Daniel Levine, Susi Lehtola, Hugh Burton, Evgeny Epifanovsky,
  Bang C. Huynh
 -----------------------------------------------------------------------
 Exchange:     0.1500 Hartree-Fock + 1.0000 wB97M-V + LR-HF
 Correlation:  1.0000 wB97M-V
 Using SG-2 standard quadrature grid
 Nonlocal Correlation:  VV10 with C = 0.0100 and b = 6.00 and scale = 1.00000
 Grid used for NLC:  SG-1 standard quadrature
 
 Citation of the SMD model:
 Marenich, A.V.; Cramer, C.J.; Truhlar, D.G.
 J. Phys. Chem. B 2009, 113, 6378-6396.
 iSolventCode=           1
 Solvent: water                                                           
 
 vradii
            1           2           3           4           5           6
    1   1.5200000   1.5200000   1.2000000   1.2000000   1.5200000   1.5200000
 -------------------------------------------------------
 OpenMP BLAS3 based DFT computing Module                
 Release: version 1.0, May 2013, Q-Chem Inc. Pittsburgh 
 -------------------------------------------------------
 A unrestricted SCF calculation will be
 performed using Roothaan-Hall, DIIS, GDM
 SCF converges when RMS gradient is below 1.0e-07
 ---------------------------------------
  Cycle       Energy         DIIS error
 ---------------------------------------
    1    -301.8394870465      3.89e-04  Roothaan Step
 ---------------------------------------
  Cycle       Energy         DIIS error
 ---------------------------------------
    1    -301.8624139252      4.13e-04  
    2    -301.8645555771      3.35e-04  Done DIIS. Switching to GDM
 ---------------------------------------
  Cycle       Energy        RMS Gradient
 ---------------------------------------
    1    -301.8645555771      1.91e-02   Normal BFGS step
    2    -301.8640607321      3.24e-02  Line search: overstep
    3    -301.8654210402      3.71e-03   Normal BFGS step
    4    -301.8654973650      1.32e-03   Normal BFGS step
    5    -301.8655122206      7.41e-04   Normal BFGS step
    6    -301.8655144750      5.24e-04   Normal BFGS step
    7    -301.8655151772      3.88e-04   Normal BFGS step
    8    -301.8655154471      1.25e-04   Normal BFGS step
    9    -301.8655155025      1.85e-05   Normal BFGS step
   10    -301.8655155060      1.54e-05   Normal BFGS step
   11    -301.8655155068      1.39e-05   Normal BFGS step
   12    -301.8655155072      1.14e-05   Normal BFGS step
   13    -301.8655155078      5.11e-06   Normal BFGS step
   14    -301.8655155080      1.69e-06   Normal BFGS step
   15    -301.8655155081      5.73e-07   Normal BFGS step
   16    -301.8655155081      1.92e-07   Normal BFGS step
   17    -301.8655155081      1.23e-07   Normal BFGS step
   18    -301.8655155081      1.07e-07   Normal BFGS step
   19    -301.8655155081      8.93e-08  Convergence criterion met
 ---------------------------------------
 SCF time:   CPU 198.82s  wall 13.00s 
<S^2> =          2.007466175
(3)  G-ENP(liq) elect-nuc-pol free energy of system     -301.865515508 a.u.
(4)  G-CDS(liq) cavity-dispersion-solvent structure 
     free energy                                                0.8774 kcal/mol
(6)  G-S(liq) free energy of system                     -301.864117302 a.u.
 SCF   energy in the final basis set =     -301.8641173016
 Total energy in the final basis set =     -301.8641173016
 
 --------------------------------------------------------------
 
                    Orbital Energies (a.u.)
 --------------------------------------------------------------
 
 Alpha MOs
 -- Occupied --
-19.4687 -19.4422 -19.4383 -19.4138  -1.3550  -1.3280  -1.0137  -0.9834
 -0.6932  -0.6783  -0.6266  -0.6118  -0.6050  -0.5921  -0.4409  -0.4204
 -0.4004  -0.3993
 -- Virtual --
  0.0358   0.0563   0.1171   0.1346   0.1814   0.1851   0.2015   0.2061
  0.2281   0.2303   0.2353   0.2534   0.2643   0.2777   0.2827   0.2915
  0.2981   0.3169   0.3680   0.3781   0.3883   0.4389   0.5846   0.6750
  0.7647   0.7804   0.8022   0.8361   0.9645   1.0120   1.0271   1.0377
  1.0500   1.0636   1.1108   1.1186   1.1287   1.1318   1.1721   1.2184
  1.3322   1.3550   1.3744   1.4021   1.4260   1.4821   1.5111   1.5516
  1.5775   1.6022   1.6334   1.6398   1.7603   1.8739   1.9519   2.0963
  2.1274   2.2267   2.2443   2.2570   2.2689   2.3128   2.4507   2.5031
  2.5896   2.6091   2.7432   2.9092   3.6785   3.7393   3.8395   3.8989
  4.1555   4.3030   4.4906   4.5097   4.6522   4.6952   4.7065   4.7221
  4.7556   4.7581   4.8655   4.8880   5.0029   5.0194   5.0570   5.0627
  5.0736   5.0875   5.1101   5.1206   5.1261   5.1812   5.1986   5.2135
  5.2496   5.2637   5.2870   5.4043   5.4417   5.4497   5.6212   5.6249
  5.7394   5.7498   6.4233   6.4299   6.4358   6.4466   6.7355   6.7723
  6.8291   6.8706   6.8890   6.9301   6.9470   7.0065   7.0262   7.0497
  7.0615   7.0881   7.1064   7.1788   7.3358   7.3495   7.3549   7.3924
  7.6293   7.6585   7.9197   7.9413   7.9725   7.9972  50.3691  50.3867
 50.4174  50.4442
 
 Beta MOs
 -- Occupied --
-19.4584 -19.4323 -19.4191 -19.3946  -1.3276  -1.3007  -0.9737  -0.9424
 -0.6760  -0.6619  -0.5918  -0.5740  -0.5407  -0.5207  -0.4194  -0.3773
 -- Virtual --
 -0.0422  -0.0238   0.0370   0.0572   0.1220   0.1409   0.1860   0.1903
  0.2073   0.2130   0.2325   0.2367   0.2427   0.2576   0.2755   0.2828
  0.2871   0.2980   0.3106   0.3246   0.3714   0.3802   0.3893   0.4388
  0.5880   0.6763   0.7685   0.7852   0.8068   0.8387   0.9689   1.0187
  1.0329   1.0453   1.0784   1.0994   1.1178   1.1389   1.1568   1.1624
  1.1804   1.2280   1.3447   1.3822   1.4011   1.4169   1.4437   1.5033
  1.5269   1.5693   1.5945   1.6190   1.6642   1.6761   1.7767   1.8938
  1.9711   2.1159   2.1437   2.2355   2.2707   2.2825   2.2860   2.3231
  2.4581   2.5124   2.6042   2.6207   2.7512   2.9168   3.6877   3.7466
  3.8450   3.9033   4.1618   4.3099   4.5316   4.5505   4.6652   4.7075
  4.7328   4.7485   4.7708   4.7739   4.8884   4.9122   5.0710   5.0968
  5.1090   5.1306   5.1330   5.1487   5.1532   5.1627   5.1823   5.2127
  5.2312   5.2504   5.2849   5.2958   5.3105   5.4344   5.4728   5.4791
  5.6489   5.6527   5.7617   5.7722   6.4492   6.4592   6.4713   6.4777
  6.8128   6.8535   6.9158   6.9351   6.9523   6.9699   6.9950   7.0441
  7.0748   7.0979   7.0994   7.1200   7.1408   7.2168   7.3784   7.3910
  7.4103   7.4182   7.6475   7.6787   7.9303   7.9540   7.9967   8.0201
 50.3809  50.3967  50.4296  50.4552
 --------------------------------------------------------------
 
          Ground-State Mulliken Net Atomic Charges

     Atom                 Charge (a.u.)    Spin (a.u.)
  --------------------------------------------------------
      1 O                    -0.203839       0.689450
      2 O                    -0.121498       0.322110
      3 H                     0.399089      -0.009201
      4 H                     0.373649      -0.007615
      5 O                    -0.203805       0.316543
      6 O                    -0.243596       0.688713
  --------------------------------------------------------
  Sum of atomic charges =    -0.000000
  Sum of spin   charges =     2.000000

 -----------------------------------------------------------------
                    Cartesian Multipole Moments
 -----------------------------------------------------------------
    Charge (ESU x 10^10)
                 0.0000
    Dipole Moment (Debye)
         X      -5.1066      Y      -3.0744      Z      -0.0964
       Tot       5.9614
    Quadrupole Moments (Debye-Ang)
        XX     -20.1471     XY       0.9307     YY     -23.3311
        XZ     -15.9502     YZ      -9.5753     ZZ     -23.4722
    Octopole Moments (Debye-Ang^2)
       XXX     -53.5876    XXY     -13.9521    XYY     -16.7547
       YYY       8.2011    XXZ     -47.0587    XYZ       5.0828
       YYZ     -57.2594    XZZ     -59.6186    YZZ     -27.7124
       ZZZ    -177.1897
    Hexadecapole Moments (Debye-Ang^3)
      XXXX    -246.1569   XXXY     -50.8030   XXYY     -58.1854
      XYYY     -60.7332   YYYY    -133.1125   XXXZ    -141.4690
      XXYZ     -45.0327   XYYZ     -46.2558   YYYZ       9.9591
      XXZZ    -162.8459   XYZZ      -1.4487   YYZZ    -169.8621
      XZZZ    -223.4550   YZZZ     -81.8825   ZZZZ    -948.9282
 -----------------------------------------------------------------
 Calculating analytic gradient of the SCF energy
 Gradient of CDS energy
            1           2           3           4           5           6
    1  -0.0000696   0.0003101   0.0000163  -0.0004205   0.0001597   0.0000042
    2   0.0000363   0.0000430  -0.0002064  -0.0001493   0.0002510   0.0000253
    3   0.0000848  -0.0001172  -0.0003026   0.0001655   0.0001705  -0.0000010
 Gradient of SCF Energy
            1           2           3           4           5           6
    1   0.0016986   0.0171094  -0.0055887  -0.0186086   0.0050083   0.0003809
    2  -0.0038294   0.0166687  -0.0054742  -0.0131875   0.0047207   0.0011017
    3  -0.0006026  -0.0038627  -0.0023803   0.0051834  -0.0005838   0.0022461
 Max gradient component =       1.861E-02
 RMS gradient           =       8.405E-03
 Computing fast CPCM-SWIG gradient
 Updating gradient with PCM contributions...
 -- total gradient after adding PCM contribution --
---------------------------------------------------
  Atom         X              Y              Z     
---------------------------------------------------
   1       0.000529       0.000086      -0.000117
   2       0.000168       0.000433       0.000090
   3      -0.000315      -0.000085       0.000148
   4       0.000199       0.000021      -0.000074
   5      -0.000241      -0.000152       0.000217
   6      -0.000339      -0.000303      -0.000264
---------------------------------------------------
 Number of fixed atoms: 0
 Gradient time:  CPU 21.43 s  wall 1.66 s
 ----------------------------------------------------------------
             Standard Nuclear Orientation (Angstroms)
    I     Atom           X                Y                Z
 ----------------------------------------------------------------
    1      O      -0.4101617000    -1.3341321000     2.2660579000
    2      O      -1.3141883000    -0.5993390000     2.8570517000
    3      H       0.8572054000    -0.2059478000     1.9271268000
    4      H      -2.0541441000    -1.1995919000     3.0727755000
    5      O       1.5562534000     0.4990987000     1.8994690000
    6      O       1.6915472000     0.9010091000     3.1402095000
 ----------------------------------------------------------------
 Nuclear Repulsion Energy =         114.99819315 hartrees
 There are       18 alpha and       16 beta electrons
 Discretize the solute cavity surface with Lebedev spheres
	Using 110 Lebedev grid points for each H atom
	Using 194 Lebedev grid points for other atoms
	Atomic van der Waals radii will be scaled by 1.20
 Remove points where switching function is < 1.0e-08
 Keep 658 surface tesserae and discard 338 interior tesserae
 Molecular Surface Area = 81.961 Angst**2

                       Distance Matrix (Angstroms)
             O (  1)   O (  2)   H (  3)   H (  4)   O (  5)
   O (  2)  1.306315
   H (  3)  1.730287  2.394675
   H (  4)  1.836184  0.976921  3.282651
   O (  5)  2.713284  3.219156  0.993239  4.158986
   O (  6)  3.190169  3.371301  1.842023  4.295029  1.311211
 
 Requested basis set is 6-311++G(2df,2p)
 There are 44 shells and 156 basis functions
 A cutoff of  1.0D-12 yielded    912 shell pairs
 There are     11502 function pairs (     14608 Cartesian)
 Smallest overlap matrix eigenvalue = 5.98E-04
 Guess MOs from SCF MO coefficient file

 -----------------------------------------------------------------------
  General SCF calculation program by
  Eric Jon Sundstrom, Paul Horn, Yuezhi Mao, Dmitri Zuev, Alec White,
  David Stuck, Shaama M.S., Shane Yost, Joonho Lee, David Small,
  Daniel Levine, Susi Lehtola, Hugh Burton, Evgeny Epifanovsky,
  Bang C. Huynh
 -----------------------------------------------------------------------
 Exchange:     0.1500 Hartree-Fock + 1.0000 wB97M-V + LR-HF
 Correlation:  1.0000 wB97M-V
 Using SG-2 standard quadrature grid
 Nonlocal Correlation:  VV10 with C = 0.0100 and b = 6.00 and scale = 1.00000
 Grid used for NLC:  SG-1 standard quadrature
 
 Citation of the SMD model:
 Marenich, A.V.; Cramer, C.J.; Truhlar, D.G.
 J. Phys. Chem. B 2009, 113, 6378-6396.
 iSolventCode=           1
 Solvent: water                                                           
 
 vradii
            1           2           3           4           5           6
    1   1.5200000   1.5200000   1.2000000   1.2000000   1.5200000   1.5200000
 -------------------------------------------------------
 OpenMP BLAS3 based DFT computing Module                
 Release: version 1.0, May 2013, Q-Chem Inc. Pittsburgh 
 -------------------------------------------------------
 A unrestricted SCF calculation will be
 performed using Roothaan-Hall, DIIS, GDM
 SCF converges when RMS gradient is below 1.0e-07
 ---------------------------------------
  Cycle       Energy         DIIS error
 ---------------------------------------
    1    -301.8395057349      3.88e-04  Roothaan Step
 ---------------------------------------
  Cycle       Energy         DIIS error
 ---------------------------------------
    1    -301.8624163831      4.12e-04  
    2    -301.8645622514      3.34e-04  Done DIIS. Switching to GDM
 ---------------------------------------
  Cycle       Energy        RMS Gradient
 ---------------------------------------
    1    -301.8645622514      1.90e-02   Normal BFGS step
    2    -301.8640749101      3.23e-02  Line search: overstep
    3    -301.8654198891      3.73e-03   Normal BFGS step
    4    -301.8654965280      1.33e-03   Normal BFGS step
    5    -301.8655114805      7.64e-04   Normal BFGS step
    6    -301.8655138020      5.19e-04   Normal BFGS step
    7    -301.8655145395      3.92e-04   Normal BFGS step
    8    -301.8655148019      1.44e-04   Normal BFGS step
    9    -301.8655148626      1.83e-05   Normal BFGS step
   10    -301.8655148660      1.36e-05   Normal BFGS step
   11    -301.8655148667      1.24e-05   Normal BFGS step
   12    -301.8655148671      1.04e-05   Normal BFGS step
   13    -301.8655148675      5.08e-06   Normal BFGS step
   14    -301.8655148677      1.86e-06   Normal BFGS step
   15    -301.8655148677      5.98e-07   Normal BFGS step
   16    -301.8655148677      2.36e-07   Normal BFGS step
   17    -301.8655148677      8.37e-08  Convergence criterion met
 ---------------------------------------
 SCF time:   CPU 180.78s  wall 11.00s 
<S^2> =          2.007461531
(3)  G-ENP(liq) elect-nuc-pol free energy of system     -301.865514868 a.u.
(4)  G-CDS(liq) cavity-dispersion-solvent structure 
     free energy                                                0.8775 kcal/mol
(6)  G-S(liq) free energy of system                     -301.864116432 a.u.
 SCF   energy in the final basis set =     -301.8641164320
 Total energy in the final basis set =     -301.8641164320
 
 --------------------------------------------------------------
 
                    Orbital Energies (a.u.)
 --------------------------------------------------------------
 
 Alpha MOs
 -- Occupied --
-19.4687 -19.4421 -19.4381 -19.4138  -1.3556  -1.3279  -1.0135  -0.9834
 -0.6934  -0.6784  -0.6269  -0.6120  -0.6050  -0.5921  -0.4407  -0.4202
 -0.4004  -0.3993
 -- Virtual --
  0.0358   0.0563   0.1172   0.1348   0.1815   0.1851   0.2015   0.2062
  0.2281   0.2303   0.2355   0.2535   0.2645   0.2778   0.2827   0.2917
  0.2982   0.3169   0.3680   0.3782   0.3883   0.4389   0.5846   0.6750
  0.7649   0.7804   0.8021   0.8361   0.9645   1.0120   1.0270   1.0377
  1.0500   1.0636   1.1107   1.1186   1.1287   1.1318   1.1721   1.2185
  1.3324   1.3552   1.3744   1.4021   1.4259   1.4821   1.5112   1.5517
  1.5775   1.6024   1.6334   1.6400   1.7603   1.8742   1.9521   2.0972
  2.1276   2.2265   2.2452   2.2571   2.2689   2.3135   2.4511   2.5033
  2.5894   2.6091   2.7433   2.9094   3.6785   3.7394   3.8399   3.8990
  4.1555   4.3030   4.4907   4.5097   4.6523   4.6955   4.7058   4.7221
  4.7569   4.7589   4.8655   4.8878   5.0028   5.0194   5.0569   5.0627
  5.0736   5.0876   5.1098   5.1206   5.1261   5.1813   5.1987   5.2136
  5.2501   5.2639   5.2869   5.4042   5.4422   5.4497   5.6213   5.6262
  5.7394   5.7513   6.4272   6.4300   6.4366   6.4497   6.7356   6.7724
  6.8291   6.8715   6.8890   6.9302   6.9472   7.0075   7.0264   7.0495
  7.0616   7.0885   7.1066   7.1784   7.3360   7.3497   7.3549   7.3928
  7.6300   7.6588   7.9198   7.9426   7.9726   7.9995  50.3692  50.3874
 50.4178  50.4446
 
 Beta MOs
 -- Occupied --
-19.4584 -19.4323 -19.4190 -19.3946  -1.3282  -1.3007  -0.9736  -0.9424
 -0.6762  -0.6619  -0.5920  -0.5740  -0.5410  -0.5207  -0.4192  -0.3773
 -- Virtual --
 -0.0420  -0.0238   0.0370   0.0572   0.1221   0.1410   0.1860   0.1904
  0.2073   0.2130   0.2325   0.2367   0.2428   0.2576   0.2756   0.2829
  0.2871   0.2982   0.3110   0.3247   0.3714   0.3803   0.3893   0.4389
  0.5880   0.6763   0.7687   0.7852   0.8068   0.8388   0.9690   1.0187
  1.0328   1.0453   1.0784   1.0994   1.1177   1.1389   1.1569   1.1624
  1.1803   1.2280   1.3449   1.3824   1.4011   1.4169   1.4436   1.5033
  1.5269   1.5694   1.5946   1.6191   1.6642   1.6763   1.7767   1.8941
  1.9713   2.1168   2.1440   2.2353   2.2713   2.2828   2.2861   2.3239
  2.4585   2.5126   2.6039   2.6208   2.7514   2.9170   3.6877   3.7468
  3.8453   3.9034   4.1617   4.3098   4.5318   4.5505   4.6654   4.7077
  4.7322   4.7485   4.7718   4.7752   4.8884   4.9119   5.0708   5.0968
  5.1089   5.1305   5.1330   5.1486   5.1529   5.1629   5.1823   5.2127
  5.2310   5.2505   5.2856   5.2959   5.3105   5.4343   5.4733   5.4792
  5.6490   5.6540   5.7618   5.7737   6.4501   6.4623   6.4753   6.4777
  6.8129   6.8536   6.9158   6.9359   6.9523   6.9703   6.9952   7.0446
  7.0751   7.0976   7.0994   7.1202   7.1415   7.2164   7.3786   7.3912
  7.4103   7.4185   7.6483   7.6789   7.9304   7.9552   7.9968   8.0225
 50.3811  50.3973  50.4300  50.4556
 --------------------------------------------------------------
 
          Ground-State Mulliken Net Atomic Charges

     Atom                 Charge (a.u.)    Spin (a.u.)
  --------------------------------------------------------
      1 O                    -0.204251       0.688994
      2 O                    -0.121012       0.322573
      3 H                     0.399141      -0.009204
      4 H                     0.373608      -0.007623
      5 O                    -0.203866       0.316571
      6 O                    -0.243620       0.688689
  --------------------------------------------------------
  Sum of atomic charges =    -0.000000
  Sum of spin   charges =     2.000000

 -----------------------------------------------------------------
                    Cartesian Multipole Moments
 -----------------------------------------------------------------
    Charge (ESU x 10^10)
                -0.0000
    Dipole Moment (Debye)
         X      -5.1089      Y      -3.0746      Z      -0.0963
       Tot       5.9635
    Quadrupole Moments (Debye-Ang)
        XX     -20.1457     XY       0.9330     YY     -23.3312
        XZ     -15.9552     YZ      -9.5760     ZZ     -23.4704
    Octopole Moments (Debye-Ang^2)
       XXX     -53.5937    XXY     -13.9622    XYY     -16.7605
       YYY       8.1826    XXZ     -47.0625    XYZ       5.0884
       YYZ     -57.2653    XZZ     -59.6314    YZZ     -27.7219
       ZZZ    -177.1918
    Hexadecapole Moments (Debye-Ang^3)
      XXXX    -246.1572   XXXY     -50.7936   XXYY     -58.1664
      XYYY     -60.7157   YYYY    -133.0223   XXXZ    -141.4729
      XXYZ     -45.0485   XYYZ     -46.2666   YYYZ       9.9392
      XXZZ    -162.8711   XYZZ      -1.4313   YYZZ    -169.8735
      XZZZ    -223.4866   YZZZ     -81.9208   ZZZZ    -948.9965
 -----------------------------------------------------------------
 Calculating analytic gradient of the SCF energy
 Gradient of CDS energy
            1           2           3           4           5           6
    1  -0.0000696   0.0003101   0.0000162  -0.0004205   0.0001597   0.0000041
    2   0.0000365   0.0000430  -0.0002065  -0.0001493   0.0002510   0.0000253
    3   0.0000850  -0.0001172  -0.0003028   0.0001654   0.0001705  -0.0000010
 Gradient of SCF Energy
            1           2           3           4           5           6
    1   0.0010372   0.0177570  -0.0055646  -0.0185899   0.0049734   0.0003868
    2  -0.0032743   0.0161148  -0.0054652  -0.0131758   0.0046941   0.0011064
    3  -0.0001535  -0.0042950  -0.0024028   0.0051732  -0.0005709   0.0022488
 Max gradient component =       1.859E-02
 RMS gradient           =       8.404E-03
 Computing fast CPCM-SWIG gradient
 Updating gradient with PCM contributions...
 -- total gradient after adding PCM contribution --
---------------------------------------------------
  Atom         X              Y              Z     
---------------------------------------------------
   1      -0.000125       0.000635       0.000317
   2       0.000802      -0.000113      -0.000330
   3      -0.000289      -0.000079       0.000128
   4       0.000219       0.000030      -0.000084
   5      -0.000274      -0.000176       0.000229
   6      -0.000334      -0.000297      -0.000261
---------------------------------------------------
 Number of fixed atoms: 0
 Gradient time:  CPU 22.26 s  wall 1.78 s
 ----------------------------------------------------------------
             Standard Nuclear Orientation (Angstroms)
    I     Atom           X                Y                Z
 ----------------------------------------------------------------
    1      O      -0.4101617000    -1.3341321000     2.2640579000
    2      O      -1.3141883000    -0.5993390000     2.8570517000
    3      H       0.8572054000    -0.2059478000     1.9271268000
    4      H      -2.0541441000    -1.1995919000     3.0727755000
    5      O       1.5562534000     0.4990987000     1.8994690000
    6      O       1.6915472000     0.9010091000     3.1402095000
 ----------------------------------------------------------------
 Nuclear Repulsion Energy =         114.97908698 hartrees
 There are       18 alpha and       16 beta electrons
 Discretize the solute cavity surface with Lebedev spheres
	Using 110 Lebedev grid points for each H atom
	Using 194 Lebedev grid points for other atoms
	Atomic van der Waals radii will be scaled by 1.20
 Remove points where switching function is < 1.0e-08
 Keep 658 surface tesserae and discard 338 interior tesserae
 Molecular Surface Area = 81.963 Angst**2

                       Distance Matrix (Angstroms)
             O (  1)   O (  2)   H (  3)   H (  4)   O (  5)
   O (  2)  1.307221
   H (  3)  1.729896  2.394675
   H (  4)  1.837064  0.976921  3.282651
   O (  5)  2.713015  3.219156  0.993239  4.158986
   O (  6)  3.190717  3.371301  1.842023  4.295029  1.311211
 
 Requested basis set is 6-311++G(2df,2p)
 There are 44 shells and 156 basis functions
 A cutoff of  1.0D-12 yielded    912 shell pairs
 There are     11502 function pairs (     14608 Cartesian)
 Smallest overlap matrix eigenvalue = 5.99E-04
[...]
        *                                                           *
        *************************************************************



Running Job 2 of 2 Q_in.in
qchem Q_in.in_368164.1 /scratch/ari.fischer/qChem1937727.hpc-mn1/qchem368164/ 0
/usr/local/qchem-5.4.1/exe/qcprog.exe_s Q_in.in_368164.1 /scratch/ari.fischer/qChem1937727.hpc-mn1/qchem368164/
                  Welcome to Q-Chem
     A Quantum Leap Into The Future Of Chemistry


 Q-Chem 5.4, Q-Chem, Inc., Pleasanton, CA (2021)

 License issued to: Nanyang Technological University (site)

 E. Epifanovsky,  A. T. B. Gilbert,  Xintian Feng,  Joonho Lee,  Yuezhi Mao,  
 N. Mardirossian,  P. Pokhilko,  A. White,  M. Wormit,  M. P. Coons,  
 A. L. Dempwolff,  Zhengting Gan,  D. Hait,  P. R. Horn,  L. D. Jacobson,  
 I. Kaliman,  J. Kussmann,  A. W. Lange,  Ka Un Lao,  D. S. Levine,  Jie Liu,  
 S. C. McKenzie,  A. F. Morrison,  K. Nanda,  F. Plasser,  D. R. Rehn,  
 M. L. Vidal,  Zhi-Qiang You,  Ying Zhu,  B. Alam,  B. Albrecht,  
 A. Aldossary,  E. Alguire,  J. H. Andersen,  D. Barton,  K. Begam,  A. Behn,  
 Y. A. Bernard,  E. J. Berquist,  H. Burton,  A. Carreras,  K. Carter-Fenk,  
 R. Chakraborty,  A. D. Chien,  K. D. Closser,  V. Cofer-Shabica,  
 S. Dasgupta,  Jia Deng,  M. de Wergifosse,  M. Diedenhofen,  Hainam Do,  
 S. Ehlert,  Po-Tung Fang,  S. Fatehi,  Qingguo Feng,  T. Friedhoff,  
 J. Gayvert,  Qinghui Ge,  G. Gidofalvi,  M. Goldey,  J. Gomes,  
 C. Gonzalez-Espinoza,  S. Gulania,  A. Gunina,  M. W. D. Hanson-Heine,  
 P. H. P. Harbach,  A. W. Hauser,  M. F. Herbst,  M. Hernandez Vera,  
 M. Hodecker,  Z. C. Holden,  S. Houck,  Xunkun Huang,  Kerwin Hui,  
 B. C. Huynh,  M. Ivanov,  Hyunjun Ji,  Hanjie Jiang,  B. Kaduk,  S. Kaehler,  
 K. Khistyaev,  Jaehoon Kim,  P. Klunzinger,  Z. Koczor-Benda,  
 Joong Hoon Koh,  D. Kosenkov,  L. Koulias,  T. Kowalczyk,  C. M. Krauter,  
 K. Kue,  A. Kunitsa,  T. Kus,  A. Landau,  K. V. Lawler,  D. Lefrancois,  
 S. Lehtola,  Rain Li,  Yi-Pei Li,  Jiashu Liang,  M. Liebenthal,  
 Hung-Hsuan Lin,  You-Sheng Lin,  Fenglai Liu,  Kuan-Yu Liu,  
 M. Loipersberger,  A. Luenser,  A. Manjanath,  P. Manohar,  E. Mansoor,  
 S. F. Manzer,  Shan-Ping Mao,  A. V. Marenich,  T. Markovich,  S. Mason,  
 S. A. Maurer,  P. F. McLaughlin,  M. F. S. J. Menger,  J.-M. Mewes,  
 S. A. Mewes,  P. Morgante,  J. W. Mullinax,  K. J. Oosterbaan,  G. Paran,  
 Alexander C. Paul,  Suranjan K. Paul,  F. Pavosevic,  Zheng Pei,  S. Prager,  
 E. I. Proynov,  E. Ramos,  B. Rana,  A. E. Rask,  A. Rettig,  R. M. Richard,  
 F. Rob,  E. Rossomme,  T. Scheele,  M. Scheurer,  M. Schneider,  
 N. Sergueev,  S. M. Sharada,  W. Skomorowski,  D. W. Small,  C. J. Stein,  
 Yu-Chuan Su,  E. J. Sundstrom,  Zhen Tao,  J. Thirman,  T. Tsuchimochi,  
 N. M. Tubman,  S. P. Veccham,  O. Vydrov,  J. Wenzel,  J. Witte,  A. Yamada,  
 Kun Yao,  S. Yeganeh,  S. R. Yost,  A. Zech,  Igor Ying Zhang,  Xing Zhang,  
 Yu Zhang,  D. Zuev,  A. Aspuru-Guzik,  A. T. Bell,  N. A. Besley,  
 K. B. Bravaya,  B. R. Brooks,  D. Casanova,  Jeng-Da Chai,  S. Coriani,  
 C. J. Cramer,  A. E. DePrince, III,  R. A. DiStasio Jr.,  A. Dreuw,  
 B. D. Dunietz,  T. R. Furlani,  W. A. Goddard III,  S. Grimme,  
 S. Hammes-Schiffer,  T. Head-Gordon,  W. J. Hehre,  Chao-Ping Hsu,  
 T.-C. Jagau,  Yousung Jung,  A. Klamt,  Jing Kong,  D. S. Lambrecht,  
 WanZhen Liang,  N. J. Mayhall,  C. W. McCurdy,  J. B. Neaton,  
 C. Ochsenfeld,  J. A. Parkhill,  R. Peverati,  V. A. Rassolov,  Yihan Shao,  
 L. V. Slipchenko,  T. Stauch,  R. P. Steele,  J. E. Subotnik,  
 A. J. W. Thom,  A. Tkatchenko,  D. G. Truhlar,  T. Van Voorhis,  
 T. A. Wesolowski,  K. B. Whaley,  H. L. Woodcock III,  P. M. Zimmerman,  
 S. Faraji,  P. M. W. Gill,  M. Head-Gordon,  J. M. Herbert,  A. I. Krylov

 Additional authors for Version 5.4.1: 
 S. Kotaru,  Shaozhi Li,  Xiangyuan Li,  F. Matz,  A. Molle,  Haisheng Ren,  
 Yingli Su,  Hung-Yi Tsai,  C. Utku,  Fang Wang

 Contributors to earlier versions of Q-Chem not listed above: 
 R. D. Adamson,  B. Austin,  R. Baer,  J. Baker,  G. J. O. Beran,  
 K. Brandhorst,  S. T. Brown,  E. F. C. Byrd,  A. K. Chakraborty,  
 G. K. L. Chan,  Chun-Min Chang,  Yunqing Chen,  C.-L. Cheng,  
 Siu Hung Chien,  D. M. Chipman,  D. L. Crittenden,  H. Dachsel,  
 R. J. Doerksen,  A. D. Dutoi,  R. G. Edgar,  J. Fosso-Tande,  
 L. Fusti-Molnar,  D. Ghosh,  A. Ghysels,  A. Golubeva-Zadorozhnaya,  
 J. Gonthier,  M. S. Gordon,  S. R. Gwaltney,  G. Hawkins,  J. E. Herr,  
 A. Heyden,  S. Hirata,  E. G. Hohenstein,  G. Kedziora,  F. J. Keil,  
 C. Kelley,  Jihan Kim,  R. A. King,  R. Z. Khaliullin,  P. P. Korambath,  
 W. Kurlancheek,  A. Laurent,  A. M. Lee,  M. S. Lee,  S. V. Levchenko,  
 Ching Yeh Lin,  D. Liotard,  E. Livshits,  R. C. Lochan,  I. Lotan,  
 L. A. Martinez-Martinez,  P. E. Maslen,  N. Nair,  D. P. O'Neill,  
 D. Neuhauser,  E. Neuscamman,  C. M. Oana,  R. Olivares-Amaya,  R. Olson,  
 T. M. Perrine,  B. Peters,  P. A. Pieniazek,  A. Prociuk,  Y. M. Rhee,  
 J. Ritchie,  M. A. Rohrdanz,  E. Rosta,  N. J. Russ,  H. F. Schaefer III,  
 M. W. Schmidt,  N. E. Schultz,  S. Sharma,  N. Shenvi,  C. D. Sherrill,  
 A. C. Simmonett,  A. Sodt,  T. Stein,  D. Stuck,  K. S. Thanthiriwatte,  
 V. Vanovschi,  L. Vogt,  Tao Wang,  A. Warshel,  M. A. Watson,  
 C. F. Williams,  Q. Wu,  X. Xu,  Jun Yang,  W. Zhang,  Yan Zhao

 Please cite Q-Chem as follows:
 Y. Shao et al., Mol. Phys. 113, 184-215 (2015)
 DOI: 10.1080/00268976.2014.952696

 Q-Chem 5.4.1 for Intel X86 EM64T Linux

 Parts of Q-Chem use Armadillo 9.800.1 (Horizon Scraper).
 http://arma.sourceforge.net/

 Q-Chem begins on Tue Feb 13 13:26:25 2024  

 Host: 
0

     Scratch files written to /scratch/ari.fischer/qChem1937727.hpc-mn1/qchem368164//
 Aug1521 |scratch|qcdevops|jenkins|workspace|build_RNUM 8249   
 Processing $rem in /usr/local/qchem-5.4.1/config/preferences:
 Processing $rem in /home/ari.fischer/.qchemrc:
The previous job contains 0 fragments, simply inherited here
 Symmetry turned off for PCM/SM12/SMD calculation

 Checking the input file for inconsistencies... 	...done.

--------------------------------------------------------------
User input:
--------------------------------------------------------------

$molecule
read
$end

$rem
JOBTYPE            rpath
SCF_GUESS          read
RPATH_MAX_CYCLES   30
BASIS = 6-311++G(2df,2p)
METHOD = wB97M-V
SOLVENT_METHOD = SMD
SCF_ALGORITHM = DIIS_GDM
SCF_CONVERGENCE = 7
THRESH = 12
$end
--------------------------------------------------------------
 ----------------------------------------------------------------
             Standard Nuclear Orientation (Angstroms)
    I     Atom           X                Y                Z
 ----------------------------------------------------------------
    1      O      -0.4101617000    -1.3341321000     2.2650579000
    2      O      -1.3141883000    -0.5993390000     2.8570517000
    3      H       0.8572054000    -0.2059478000     1.9271268000
    4      H      -2.0541441000    -1.1995919000     3.0727755000
    5      O       1.5562534000     0.4990987000     1.8994690000
    6      O       1.6915472000     0.9010091000     3.1402095000
 ----------------------------------------------------------------
 Nuclear Repulsion Energy =         114.98864469 hartrees
 There are       18 alpha and       16 beta electrons
 Requested basis set is 6-311++G(2df,2p)
 There are 44 shells and 156 basis functions

 Total QAlloc Memory Limit 288000 MB
 Mega-Array Size       188 MB
 MEM_STATIC part       192 MB
 Starting direction for rxn path = 1
 
 Citation of the SMD model:
 Marenich, A.V.; Cramer, C.J.; Truhlar, D.G.
 J. Phys. Chem. B 2009, 113, 6378-6396.
 iSolventCode=           1
 Solvent: water                                                           
 
 vradii
            1           2           3           4           5           6
    1   1.5200000   1.5200000   1.2000000   1.2000000   1.5200000   1.5200000
 Changing PCM_VDW_RADII to SMD_RADIUS
 Discretize the solute cavity surface with Lebedev spheres
	Using 110 Lebedev grid points for each H atom
	Using 194 Lebedev grid points for other atoms
	Atomic van der Waals radii will be scaled by 1.20
 Remove points where switching function is < 1.0e-08
 Keep 658 surface tesserae and discard 338 interior tesserae
 Molecular Surface Area = 81.962 Angst**2

                       Distance Matrix (Angstroms)
             O (  1)   O (  2)   H (  3)   H (  4)   O (  5)
   O (  2)  1.306768
   H (  3)  1.730092  2.394675
   H (  4)  1.836624  0.976921  3.282651
   O (  5)  2.713149  3.219156  0.993239  4.158986
   O (  6)  3.190443  3.371301  1.842023  4.295029  1.311211
 
 A cutoff of  1.0D-12 yielded    912 shell pairs
 There are     11502 function pairs (     14608 Cartesian)
 Smallest overlap matrix eigenvalue = 5.99E-04

 Scale SEOQF with 1.000000e-01/1.000000e-01/1.000000e-01

 Standard Electronic Orientation quadrupole field applied
 Nucleus-field energy     =    -0.0000000202 hartrees
 Guess MOs from SCF MO coefficient file

 -----------------------------------------------------------------------
  General SCF calculation program by
  Eric Jon Sundstrom, Paul Horn, Yuezhi Mao, Dmitri Zuev, Alec White,
  David Stuck, Shaama M.S., Shane Yost, Joonho Lee, David Small,
  Daniel Levine, Susi Lehtola, Hugh Burton, Evgeny Epifanovsky,
  Bang C. Huynh
 -----------------------------------------------------------------------
 Exchange:     0.1500 Hartree-Fock + 1.0000 wB97M-V + LR-HF
 Correlation:  1.0000 wB97M-V
 Using SG-2 standard quadrature grid
 Nonlocal Correlation:  VV10 with C = 0.0100 and b = 6.00 and scale = 1.00000
 Grid used for NLC:  SG-1 standard quadrature
 
 Citation of the SMD model:
 Marenich, A.V.; Cramer, C.J.; Truhlar, D.G.
 J. Phys. Chem. B 2009, 113, 6378-6396.
 iSolventCode=           1
 Solvent: water                                                           
 
 vradii
            1           2           3           4           5           6
    1   1.5200000   1.5200000   1.2000000   1.2000000   1.5200000   1.5200000
 using 16 threads for integral computing
 -------------------------------------------------------
 OpenMP Integral computing Module                
 Release: version 1.0, May 2013, Q-Chem Inc. Pittsburgh 
 -------------------------------------------------------
 -------------------------------------------------------
 OpenMP BLAS3 based DFT computing Module                
 Release: version 1.0, May 2013, Q-Chem Inc. Pittsburgh 
 -------------------------------------------------------
 A unrestricted SCF calculation will be
 performed using Roothaan-Hall, DIIS, GDM
 SCF converges when RMS gradient is below 1.0e-07
 ---------------------------------------
  Cycle       Energy         DIIS error
 ---------------------------------------
    1    -301.8394880106      3.88e-04  Roothaan Step
 ---------------------------------------
  Cycle       Energy         DIIS error
 ---------------------------------------
    1    -301.8624125468      4.13e-04  
    2    -301.8645557950      3.35e-04  Done DIIS. Switching to GDM
 ---------------------------------------
  Cycle       Energy        RMS Gradient
 ---------------------------------------
    1    -301.8645557950      1.91e-02   Normal BFGS step
    2    -301.8640623274      3.24e-02  Line search: overstep
    3    -301.8654205873      3.69e-03   Normal BFGS step
    4    -301.8654969290      1.30e-03   Normal BFGS step
    5    -301.8655118005      7.55e-04   Normal BFGS step
    6    -301.8655140640      5.16e-04   Normal BFGS step
    7    -301.8655147731      3.91e-04   Normal BFGS step
    8    -301.8655150394      1.32e-04   Normal BFGS step
    9    -301.8655150966      1.96e-05   Normal BFGS step
   10    -301.8655151003      1.80e-05   Normal BFGS step
   11    -301.8655151013      1.60e-05   Normal BFGS step
   12    -301.8655151020      1.27e-05   Normal BFGS step
   13    -301.8655151027      5.14e-06   Normal BFGS step
   14    -301.8655151029      1.51e-06   Normal BFGS step
   15    -301.8655151030      5.70e-07   Normal BFGS step
   16    -301.8655151030      2.21e-07   Normal BFGS step
   17    -301.8655151030      1.09e-07   Normal BFGS step
   18    -301.8655151030      9.71e-08  Convergence criterion met
 ---------------------------------------
 SCF time:   CPU 195.71s  wall 13.00s 
<S^2> =          2.007463617
(3)  G-ENP(liq) elect-nuc-pol free energy of system     -301.865515103 a.u.
(4)  G-CDS(liq) cavity-dispersion-solvent structure 
     free energy                                                0.8774 kcal/mol
(6)  G-S(liq) free energy of system                     -301.864116828 a.u.
 SCF   energy in the final basis set =     -301.8641168278
 Total energy in the final basis set =     -301.8641168278
 
 --------------------------------------------------------------
 
                    Orbital Energies (a.u.)
 --------------------------------------------------------------
 
 Alpha MOs
 -- Occupied --
-19.4687 -19.4421 -19.4382 -19.4138  -1.3554  -1.3279  -1.0136  -0.9834
 -0.6933  -0.6783  -0.6268  -0.6119  -0.6050  -0.5921  -0.4408  -0.4203
 -0.4004  -0.3993
 -- Virtual --
  0.0358   0.0563   0.1171   0.1347   0.1814   0.1851   0.2016   0.2062
  0.2281   0.2303   0.2354   0.2534   0.2644   0.2777   0.2827   0.2917
  0.2982   0.3169   0.3681   0.3782   0.3883   0.4388   0.5846   0.6750
  0.7648   0.7804   0.8022   0.8361   0.9645   1.0120   1.0271   1.0377
  1.0500   1.0636   1.1107   1.1186   1.1287   1.1318   1.1721   1.2185
  1.3324   1.3551   1.3744   1.4021   1.4259   1.4821   1.5111   1.5516
  1.5775   1.6023   1.6334   1.6399   1.7604   1.8741   1.9521   2.0968
  2.1275   2.2265   2.2448   2.2571   2.2689   2.3135   2.4510   2.5033
  2.5895   2.6091   2.7433   2.9094   3.6785   3.7394   3.8398   3.8990
  4.1555   4.3031   4.4907   4.5097   4.6524   4.6954   4.7062   4.7221
  4.7565   4.7584   4.8655   4.8879   5.0029   5.0194   5.0569   5.0627
  5.0736   5.0875   5.1099   5.1206   5.1261   5.1813   5.1987   5.2135
  5.2499   5.2638   5.2870   5.4044   5.4418   5.4497   5.6212   5.6257
  5.7394   5.7505   6.4254   6.4300   6.4363   6.4484   6.7355   6.7724
  6.8291   6.8711   6.8890   6.9301   6.9471   7.0071   7.0264   7.0496
  7.0616   7.0885   7.1065   7.1785   7.3359   7.3496   7.3549   7.3927
  7.6298   7.6587   7.9198   7.9420   7.9726   7.9985  50.3692  50.3871
 50.4176  50.4445
 
 Beta MOs
 -- Occupied --
-19.4584 -19.4322 -19.4190 -19.3946  -1.3279  -1.3007  -0.9737  -0.9424
 -0.6761  -0.6619  -0.5919  -0.5740  -0.5409  -0.5207  -0.4193  -0.3773
 -- Virtual --
 -0.0421  -0.0238   0.0370   0.0572   0.1221   0.1409   0.1860   0.1903
  0.2073   0.2130   0.2325   0.2367   0.2428   0.2576   0.2756   0.2829
  0.2871   0.2981   0.3108   0.3247   0.3714   0.3803   0.3893   0.4388
  0.5880   0.6764   0.7687   0.7852   0.8068   0.8387   0.9690   1.0187
  1.0329   1.0453   1.0784   1.0994   1.1178   1.1389   1.1569   1.1624
  1.1804   1.2280   1.3450   1.3823   1.4011   1.4169   1.4436   1.5032
  1.5269   1.5693   1.5946   1.6191   1.6643   1.6762   1.7767   1.8940
  1.9713   2.1164   2.1439   2.2353   2.2710   2.2826   2.2861   2.3238
  2.4584   2.5126   2.6041   2.6208   2.7513   2.9170   3.6877   3.7468
  3.8452   3.9033   4.1617   4.3099   4.5317   4.5505   4.6654   4.7077
  4.7325   4.7485   4.7715   4.7745   4.8885   4.9121   5.0709   5.0968
  5.1090   5.1306   5.1330   5.1486   5.1530   5.1628   5.1823   5.2127
  5.2311   5.2504   5.2852   5.2959   5.3105   5.4345   5.4729   5.4792
  5.6490   5.6535   5.7617   5.7729   6.4498   6.4610   6.4735   6.4777
  6.8129   6.8536   6.9158   6.9355   6.9523   6.9701   6.9952   7.0444
  7.0751   7.0977   7.0994   7.1203   7.1412   7.2165   7.3785   7.3911
  7.4103   7.4185   7.6481   7.6789   7.9303   7.9547   7.9967   8.0214
 50.3811  50.3970  50.4298  50.4555
 --------------------------------------------------------------
 
          Ground-State Mulliken Net Atomic Charges

     Atom                 Charge (a.u.)    Spin (a.u.)
  --------------------------------------------------------
      1 O                    -0.204068       0.689173
      2 O                    -0.121215       0.322392
      3 H                     0.399183      -0.009202
      4 H                     0.373633      -0.007618
      5 O                    -0.203878       0.316573
      6 O                    -0.243655       0.688683
  --------------------------------------------------------
  Sum of atomic charges =    -0.000000
  Sum of spin   charges =     2.000000

 -----------------------------------------------------------------
                    Cartesian Multipole Moments
 -----------------------------------------------------------------
    Charge (ESU x 10^10)
                -0.0000
    Dipole Moment (Debye)
         X      -5.1084      Y      -3.0755      Z      -0.0959
       Tot       5.9636
    Quadrupole Moments (Debye-Ang)
        XX     -20.1465     XY       0.9320     YY     -23.3297
        XZ     -15.9546     YZ      -9.5790     ZZ     -23.4695
    Octopole Moments (Debye-Ang^2)
       XXX     -53.5937    XXY     -13.9617    XYY     -16.7593
       YYY       8.1793    XXZ     -47.0581    XYZ       5.0867
       YYZ     -57.2545    XZZ     -59.6308    YZZ     -27.7304
       ZZZ    -177.1776
    Hexadecapole Moments (Debye-Ang^3)
      XXXX    -246.1593   XXXY     -50.7950   XXYY     -58.1687
      XYYY     -60.7185   YYYY    -133.0158   XXXZ    -141.4821
      XXYZ     -45.0552   XYYZ     -46.2676   YYYZ       9.9054
      XXZZ    -162.8469   XYZZ      -1.4352   YYZZ    -169.8330
      XZZZ    -223.4929   YZZZ     -81.9624   ZZZZ    -948.8782
 -----------------------------------------------------------------
 Calculating analytic gradient of the SCF energy
 Gradient of CDS energy
            1           2           3           4           5           6
    1  -0.0000698   0.0003101   0.0000163  -0.0004204   0.0001597   0.0000042
    2   0.0000364   0.0000431  -0.0002064  -0.0001494   0.0002510   0.0000253
    3   0.0000850  -0.0001173  -0.0003027   0.0001655   0.0001705  -0.0000010
 Gradient of SCF Energy
            1           2           3           4           5           6
    1   0.0013839   0.0174457  -0.0055621  -0.0186223   0.0049699   0.0003849
    2  -0.0034955   0.0163141  -0.0054705  -0.0131459   0.0046932   0.0011046
    3  -0.0003796  -0.0041025  -0.0023895   0.0052004  -0.0005757   0.0022468
 Max gradient component =       1.862E-02
 RMS gradient           =       8.394E-03
 Computing fast CPCM-SWIG gradient
 Updating gradient with PCM contributions...
 -- total gradient after adding PCM contribution --
---------------------------------------------------
  Atom         X              Y              Z     
---------------------------------------------------
   1       0.000218       0.000416       0.000102
   2       0.000494       0.000084      -0.000143
   3      -0.000289      -0.000082       0.000139
   4       0.000191       0.000060      -0.000060
   5      -0.000278      -0.000177       0.000226
   6      -0.000336      -0.000300      -0.000264
---------------------------------------------------
 Number of fixed atoms: 0
 Gradient time:  CPU 21.79 s  wall 1.67 s
rPathMan2.  file_steps = 951
 ------------------------------------------------------------------------
 Reaction path following.  The coordinates are cartesian              
 Step   1 E=    -301.864117 |G|=  0.001042 S_lin= 0.0000 S_tot= 0.0000
 ------------------------------------------------------------------------
 IRC -- neg. force constant =  -9.517153917611198E-006
 IRC -- max trans/rot const =   1.113387635407835E-003
 IRC -- Hessian does not have correct character
 IRC -- Negative curvature direction is not
 IRC -- separated from translations/rotations
 IRC -- Did you run a force constant job first?

 Q-Chem fatal error occurred in module 0, line   83:

 Bad Hessian -- imaginary mode too soft

