
Running Job 1 of 1 Q_in.in
qchem Q_in.in_38625.0 /scratch/ari.fischer/qChem1854147.hpc-mn1/qchem38625/ 0
/usr/local/qchem-5.4.1/exe/qcprog.exe_s Q_in.in_38625.0 /scratch/ari.fischer/qChem1854147.hpc-mn1/qchem38625/
                  Welcome to Q-Chem
     A Quantum Leap Into The Future Of Chemistry


 Q-Chem 5.4, Q-Chem, Inc., Pleasanton, CA (2021)

 License issued to: Nanyang Technological University (site)

 E. Epifanovsky,  A. T. B. Gilbert,  Xintian Feng,  Joonho Lee,  Yuezhi Mao,  
 N. Mardirossian,  P. Pokhilko,  A. White,  M. Wormit,  M. P. Coons,  
 A. L. Dempwolff,  Zhengting Gan,  D. Hait,  P. R. Horn,  L. D. Jacobson,  
 I. Kaliman,  J. Kussmann,  A. W. Lange,  Ka Un Lao,  D. S. Levine,  Jie Liu,  
 S. C. McKenzie,  A. F. Morrison,  K. Nanda,  F. Plasser,  D. R. Rehn,  
 M. L. Vidal,  Zhi-Qiang You,  Ying Zhu,  B. Alam,  B. Albrecht,  
 A. Aldossary,  E. Alguire,  J. H. Andersen,  D. Barton,  K. Begam,  A. Behn,  
 Y. A. Bernard,  E. J. Berquist,  H. Burton,  A. Carreras,  K. Carter-Fenk,  
 R. Chakraborty,  A. D. Chien,  K. D. Closser,  V. Cofer-Shabica,  
 S. Dasgupta,  Jia Deng,  M. de Wergifosse,  M. Diedenhofen,  Hainam Do,  
 S. Ehlert,  Po-Tung Fang,  S. Fatehi,  Qingguo Feng,  T. Friedhoff,  
 J. Gayvert,  Qinghui Ge,  G. Gidofalvi,  M. Goldey,  J. Gomes,  
 C. Gonzalez-Espinoza,  S. Gulania,  A. Gunina,  M. W. D. Hanson-Heine,  
 P. H. P. Harbach,  A. W. Hauser,  M. F. Herbst,  M. Hernandez Vera,  
 M. Hodecker,  Z. C. Holden,  S. Houck,  Xunkun Huang,  Kerwin Hui,  
 B. C. Huynh,  M. Ivanov,  Hyunjun Ji,  Hanjie Jiang,  B. Kaduk,  S. Kaehler,  
 K. Khistyaev,  Jaehoon Kim,  P. Klunzinger,  Z. Koczor-Benda,  
 Joong Hoon Koh,  D. Kosenkov,  L. Koulias,  T. Kowalczyk,  C. M. Krauter,  
 K. Kue,  A. Kunitsa,  T. Kus,  A. Landau,  K. V. Lawler,  D. Lefrancois,  
 S. Lehtola,  Rain Li,  Yi-Pei Li,  Jiashu Liang,  M. Liebenthal,  
 Hung-Hsuan Lin,  You-Sheng Lin,  Fenglai Liu,  Kuan-Yu Liu,  
 M. Loipersberger,  A. Luenser,  A. Manjanath,  P. Manohar,  E. Mansoor,  
 S. F. Manzer,  Shan-Ping Mao,  A. V. Marenich,  T. Markovich,  S. Mason,  
 S. A. Maurer,  P. F. McLaughlin,  M. F. S. J. Menger,  J.-M. Mewes,  
 S. A. Mewes,  P. Morgante,  J. W. Mullinax,  K. J. Oosterbaan,  G. Paran,  
 Alexander C. Paul,  Suranjan K. Paul,  F. Pavosevic,  Zheng Pei,  S. Prager,  
 E. I. Proynov,  E. Ramos,  B. Rana,  A. E. Rask,  A. Rettig,  R. M. Richard,  
 F. Rob,  E. Rossomme,  T. Scheele,  M. Scheurer,  M. Schneider,  
 N. Sergueev,  S. M. Sharada,  W. Skomorowski,  D. W. Small,  C. J. Stein,  
 Yu-Chuan Su,  E. J. Sundstrom,  Zhen Tao,  J. Thirman,  T. Tsuchimochi,  
 N. M. Tubman,  S. P. Veccham,  O. Vydrov,  J. Wenzel,  J. Witte,  A. Yamada,  
 Kun Yao,  S. Yeganeh,  S. R. Yost,  A. Zech,  Igor Ying Zhang,  Xing Zhang,  
 Yu Zhang,  D. Zuev,  A. Aspuru-Guzik,  A. T. Bell,  N. A. Besley,  
 K. B. Bravaya,  B. R. Brooks,  D. Casanova,  Jeng-Da Chai,  S. Coriani,  
 C. J. Cramer,  A. E. DePrince, III,  R. A. DiStasio Jr.,  A. Dreuw,  
 B. D. Dunietz,  T. R. Furlani,  W. A. Goddard III,  S. Grimme,  
 S. Hammes-Schiffer,  T. Head-Gordon,  W. J. Hehre,  Chao-Ping Hsu,  
 T.-C. Jagau,  Yousung Jung,  A. Klamt,  Jing Kong,  D. S. Lambrecht,  
 WanZhen Liang,  N. J. Mayhall,  C. W. McCurdy,  J. B. Neaton,  
 C. Ochsenfeld,  J. A. Parkhill,  R. Peverati,  V. A. Rassolov,  Yihan Shao,  
 L. V. Slipchenko,  T. Stauch,  R. P. Steele,  J. E. Subotnik,  
 A. J. W. Thom,  A. Tkatchenko,  D. G. Truhlar,  T. Van Voorhis,  
 T. A. Wesolowski,  K. B. Whaley,  H. L. Woodcock III,  P. M. Zimmerman,  
 S. Faraji,  P. M. W. Gill,  M. Head-Gordon,  J. M. Herbert,  A. I. Krylov

 Additional authors for Version 5.4.1: 
 S. Kotaru,  Shaozhi Li,  Xiangyuan Li,  F. Matz,  A. Molle,  Haisheng Ren,  
 Yingli Su,  Hung-Yi Tsai,  C. Utku,  Fang Wang

 Contributors to earlier versions of Q-Chem not listed above: 
 R. D. Adamson,  B. Austin,  R. Baer,  J. Baker,  G. J. O. Beran,  
 K. Brandhorst,  S. T. Brown,  E. F. C. Byrd,  A. K. Chakraborty,  
 G. K. L. Chan,  Chun-Min Chang,  Yunqing Chen,  C.-L. Cheng,  
 Siu Hung Chien,  D. M. Chipman,  D. L. Crittenden,  H. Dachsel,  
 R. J. Doerksen,  A. D. Dutoi,  R. G. Edgar,  J. Fosso-Tande,  
 L. Fusti-Molnar,  D. Ghosh,  A. Ghysels,  A. Golubeva-Zadorozhnaya,  
 J. Gonthier,  M. S. Gordon,  S. R. Gwaltney,  G. Hawkins,  J. E. Herr,  
 A. Heyden,  S. Hirata,  E. G. Hohenstein,  G. Kedziora,  F. J. Keil,  
 C. Kelley,  Jihan Kim,  R. A. King,  R. Z. Khaliullin,  P. P. Korambath,  
 W. Kurlancheek,  A. Laurent,  A. M. Lee,  M. S. Lee,  S. V. Levchenko,  
 Ching Yeh Lin,  D. Liotard,  E. Livshits,  R. C. Lochan,  I. Lotan,  
 L. A. Martinez-Martinez,  P. E. Maslen,  N. Nair,  D. P. O'Neill,  
 D. Neuhauser,  E. Neuscamman,  C. M. Oana,  R. Olivares-Amaya,  R. Olson,  
 T. M. Perrine,  B. Peters,  P. A. Pieniazek,  A. Prociuk,  Y. M. Rhee,  
 J. Ritchie,  M. A. Rohrdanz,  E. Rosta,  N. J. Russ,  H. F. Schaefer III,  
 M. W. Schmidt,  N. E. Schultz,  S. Sharma,  N. Shenvi,  C. D. Sherrill,  
 A. C. Simmonett,  A. Sodt,  T. Stein,  D. Stuck,  K. S. Thanthiriwatte,  
 V. Vanovschi,  L. Vogt,  Tao Wang,  A. Warshel,  M. A. Watson,  
 C. F. Williams,  Q. Wu,  X. Xu,  Jun Yang,  W. Zhang,  Yan Zhao

 Please cite Q-Chem as follows:
 Y. Shao et al., Mol. Phys. 113, 184-215 (2015)
 DOI: 10.1080/00268976.2014.952696

 Q-Chem 5.4.1 for Intel X86 EM64T Linux

 Parts of Q-Chem use Armadillo 9.800.1 (Horizon Scraper).
 http://arma.sourceforge.net/

 Q-Chem begins on Thu Dec  7 15:41:10 2023  

 Host: 
0

     Scratch files written to /scratch/ari.fischer/qChem1854147.hpc-mn1/qchem38625//
 Aug1521 |scratch|qcdevops|jenkins|workspace|build_RNUM 8249   
 Processing $rem in /usr/local/qchem-5.4.1/config/preferences:
 Processing $rem in /home/ari.fischer/.qchemrc:
 Symmetry turned off for PCM/SM12/SMD calculation

 Checking the input file for inconsistencies... 	...done.

--------------------------------------------------------------
User input:
--------------------------------------------------------------
$molecule
-1 1
C         0.5976906250    0.1829920034    0.0003836046
O        -0.2116925879    1.0809780819    0.0002834213
C         2.1394850490    0.4145355110    0.0005056157
O         2.4827968949    1.6120878250    0.0005925006
O         2.8556453186   -0.6050976549    0.0004820653
O         0.2596265223   -1.1065494245    0.0003349708
H        -0.7087105219   -1.1729699418    0.0002458218
$end

$rem
BASIS = def2-TZVPPD
JOB_TYPE = SP
METHOD = wB97M-V
SCF_ALGORITHM = DIIS_GDM
MAX_SCF_CYCLES = 400
SCF_CONVERGENCE = 7
THRESH = 12
Solvent_method = SMD
$end
--------------------------------------------------------------
 ----------------------------------------------------------------
             Standard Nuclear Orientation (Angstroms)
    I     Atom           X                Y                Z
 ----------------------------------------------------------------
    1      C       0.5976906250     0.1829920034     0.0003836046
    2      O      -0.2116925879     1.0809780819     0.0002834213
    3      C       2.1394850490     0.4145355110     0.0005056157
    4      O       2.4827968949     1.6120878250     0.0005925006
    5      O       2.8556453186    -0.6050976549     0.0004820653
    6      O       0.2596265223    -1.1065494245     0.0003349708
    7      H      -0.7087105219    -1.1729699418     0.0002458218
 ----------------------------------------------------------------
 Nuclear Repulsion Energy =         221.00090303 hartrees
 There are       23 alpha and       23 beta electrons
 Requested basis set is def2-TZVPPD
 There are 89 shells and 251 basis functions

 Total QAlloc Memory Limit 288000 MB
 Mega-Array Size       188 MB
 MEM_STATIC part       192 MB
 
 Citation of the SMD model:
 Marenich, A.V.; Cramer, C.J.; Truhlar, D.G.
 J. Phys. Chem. B 2009, 113, 6378-6396.
 iSolventCode=           1
 Solvent: water                                                           
 
 vradii
            1           2           3           4           5           6
    1   1.8500000   1.5200000   1.8500000   1.5200000   1.5200000   1.5200000
            7
    1   1.2000000
 Changing PCM_VDW_RADII to SMD_RADIUS
 Discretize the solute cavity surface with Lebedev spheres
	Using 110 Lebedev grid points for each H atom
	Using 194 Lebedev grid points for other atoms
	Atomic van der Waals radii will be scaled by 1.20
 Remove points where switching function is < 1.0e-08
 Keep 748 surface tesserae and discard 526 interior tesserae
 Molecular Surface Area = 92.634 Angst**2

                       Distance Matrix (Angstroms)
             C (  1)   O (  2)   C (  3)   O (  4)   O (  5)   O (  6)
   O (  2)  1.208917
   C (  3)  1.559084  2.443805
   O (  4)  2.365574  2.746334  1.245791
   O (  5)  2.391536  3.500202  1.246009  2.248317
   O (  6)  1.333118  2.237726  2.418174  3.511905  2.644006
   H (  7)  1.882901  2.308096  3.260735  4.235831  3.609309  0.970612

 
 A cutoff of  1.0D-12 yielded   3828 shell pairs
 There are     30894 function pairs (     40686 Cartesian)
 Smallest overlap matrix eigenvalue = 8.61E-06

 Scale SEOQF with 1.000000e-01/1.000000e-01/1.000000e-01

 Standard Electronic Orientation quadrupole field applied
 Nucleus-field energy     =     0.0000000084 hartrees
 Guess from superposition of atomic densities
 Warning:  Energy on first SCF cycle will be non-variational
 SAD guess density has 45.000000 electrons

 -----------------------------------------------------------------------
  General SCF calculation program by
  Eric Jon Sundstrom, Paul Horn, Yuezhi Mao, Dmitri Zuev, Alec White,
  David Stuck, Shaama M.S., Shane Yost, Joonho Lee, David Small,
  Daniel Levine, Susi Lehtola, Hugh Burton, Evgeny Epifanovsky,
  Bang C. Huynh
 -----------------------------------------------------------------------
 Exchange:     0.1500 Hartree-Fock + 1.0000 wB97M-V + LR-HF
 Correlation:  1.0000 wB97M-V
 Using SG-2 standard quadrature grid
 Nonlocal Correlation:  VV10 with C = 0.0100 and b = 6.00 and scale = 1.00000
 Grid used for NLC:  SG-1 standard quadrature
 
 Citation of the SMD model:
 Marenich, A.V.; Cramer, C.J.; Truhlar, D.G.
 J. Phys. Chem. B 2009, 113, 6378-6396.
 iSolventCode=           1
 Solvent: water                                                           
 
 vradii
            1           2           3           4           5           6
    1   1.8500000   1.5200000   1.8500000   1.5200000   1.5200000   1.5200000
            7
    1   1.2000000
 using 4 threads for integral computing
 -------------------------------------------------------
 OpenMP Integral computing Module                
 Release: version 1.0, May 2013, Q-Chem Inc. Pittsburgh 
 -------------------------------------------------------
 -------------------------------------------------------
 OpenMP BLAS3 based DFT computing Module                
 Release: version 1.0, May 2013, Q-Chem Inc. Pittsburgh 
 -------------------------------------------------------
 A restricted SCF calculation will be
 performed using DIIS, GDM
 SCF converges when RMS gradient is below 1.0e-07
 ---------------------------------------
  Cycle       Energy         DIIS error
 ---------------------------------------
    1    -378.7726407840      3.10e-02  
    2    -377.7273701669      6.47e-03  Done DIIS. Switching to GDM
 ---------------------------------------
  Cycle       Energy        RMS Gradient
 ---------------------------------------
    1    -377.7273701669      1.98e-01   Descent step
    2    -377.9642449538      1.48e-02   Normal BFGS step
    3    -377.9731254503      1.49e-02   Normal BFGS step
    4    -377.9739202103      9.08e-03   Normal BFGS step
    5    -377.9744212751      1.26e-03   Normal BFGS step
    6    -377.9744397472      5.47e-04   Normal BFGS step
    7    -377.9744445182      1.61e-04   Normal BFGS step
    8    -377.9744446735      7.80e-05   Normal BFGS step
    9    -377.9744448012      3.23e-05   Normal BFGS step
   10    -377.9744448051      1.88e-05   Normal BFGS step
   11    -377.9744448075      3.66e-06   Normal BFGS step
   12    -377.9744448077      1.34e-06   Normal BFGS step
   13    -377.9744448077      4.11e-07   Normal BFGS step
   14    -377.9744448077      9.63e-08  Convergence criterion met
 ---------------------------------------
 SCF time:   CPU 432.99s  wall 126.00s 
(3)  G-ENP(liq) elect-nuc-pol free energy of system     -377.974444808 a.u.
(4)  G-CDS(liq) cavity-dispersion-solvent structure 
     free energy                                                5.6630 kcal/mol
(6)  G-S(liq) free energy of system                     -377.965420261 a.u.
 SCF   energy in the final basis set =     -377.9654202613
 Total energy in the final basis set =     -377.9654202613
 
 --------------------------------------------------------------
 
                    Orbital Energies (a.u.)
 --------------------------------------------------------------
 
 Alpha MOs
 -- Occupied --
-19.3822 -19.3339 -19.2939 -19.2935 -10.4835 -10.4546  -1.2481  -1.1779
 -1.1571  -1.0913  -0.7955  -0.6714  -0.6158  -0.5925  -0.5824  -0.5406
 -0.5238  -0.5129  -0.4388  -0.4340  -0.3788  -0.3722  -0.3574
 -- Virtual --
  0.0406   0.0454   0.0602   0.0721   0.0863   0.0945   0.1097   0.1131
  0.1148   0.1220   0.1459   0.1521   0.1600   0.1645   0.1953   0.2040
  0.2052   0.2320   0.2394   0.2727   0.2761   0.2898   0.3123   0.3361
  0.3397   0.3441   0.3538   0.3626   0.3693   0.3895   0.3948   0.4041
  0.4164   0.4190   0.4402   0.4488   0.4519   0.4713   0.4752   0.4888
  0.4902   0.4988   0.5178   0.5357   0.5435   0.5448   0.5783   0.5825
  0.5906   0.6016   0.6164   0.6226   0.6373   0.6549   0.6637   0.6669
  0.6791   0.6943   0.7010   0.7114   0.7265   0.7542   0.7774   0.7921
  0.8143   0.8221   0.8471   0.8568   0.8808   0.8983   0.9236   0.9342
  0.9564   0.9652   0.9746   1.0077   1.0429   1.0480   1.0801   1.1259
  1.1362   1.1705   1.1875   1.1991   1.2266   1.2682   1.2803   1.2922
  1.3189   1.3203   1.3405   1.3999   1.4713   1.4906   1.5774   1.6718
  1.7078   1.7521   1.7839   1.8263   1.8344   1.8540   1.8551   1.9113
  1.9205   2.0027   2.0317   2.0510   2.0635   2.1143   2.1642   2.1817
  2.2069   2.2581   2.3032   2.3437   2.3998   2.4250   2.4279   2.4573
  2.4869   2.5641   2.6661   2.6789   2.7424   2.7857   2.8172   2.8513
  2.9344   2.9895   3.0631   3.0842   3.1186   3.1386   3.1849   3.2418
  3.2457   3.2605   3.3090   3.3326   3.3481   3.3483   3.4008   3.4029
  3.4590   3.4723   3.5203   3.5369   3.5427   3.5934   3.6086   3.6345
  3.6570   3.6886   3.6957   3.7019   3.7957   3.8239   3.8476   3.9211
  3.9979   4.1539   4.1701   4.1913   4.3247   4.3910   4.4499   4.6317
  4.7126   4.7898   4.8380   4.9818   5.0547   5.1630   5.2608   5.2760
  5.2994   5.3158   5.3496   5.3615   5.4187   5.5327   5.5692   5.6251
  5.6713   5.7140   5.7694   5.8004   6.0346   6.0512   6.1136   6.1726
  6.2995   6.3227   6.3351   6.4515   6.5505   6.5577   6.5953   6.6095
  6.6300   6.6640   6.6861   6.6915   6.7354   6.7414   6.8505   6.8708
  6.9260   6.9461   6.9525   7.0617   7.0668   7.1341   7.2691   7.3133
  7.3557   7.4165   7.4616   7.5198   7.6846   7.8535  23.7144  23.9663
 44.5227  44.5376  44.6433  44.9421
 --------------------------------------------------------------
 
          Ground-State Mulliken Net Atomic Charges

     Atom                 Charge (a.u.)
  ----------------------------------------
      1 C                     0.666979
      2 O                    -0.652034
      3 C                     0.632336
      4 O                    -0.785953
      5 O                    -0.788260
      6 O                    -0.311498
      7 H                     0.238430
  ----------------------------------------
  Sum of atomic charges =    -1.000000

 -----------------------------------------------------------------
                    Cartesian Multipole Moments
 -----------------------------------------------------------------
    Charge (ESU x 10^10)
                -4.8032
    Dipole Moment (Debye)
         X     -13.1770      Y      -4.7831      Z      -0.0025
       Tot      14.0183
    Quadrupole Moments (Debye-Ang)
        XX     -71.6899     XY      -2.0028     YY     -49.1977
        XZ      -0.0071     YZ      -0.0022     ZZ     -33.8325
    Octopole Moments (Debye-Ang^2)
       XXX    -258.5966    XXY     -23.5845    XYY     -77.8073
       YYY     -46.0206    XXZ      -0.0356    XYZ      -0.0034
       YYZ      -0.0227    XZZ     -46.7173    YZZ      -8.5925
       ZZZ      -0.0438
    Hexadecapole Moments (Debye-Ang^3)
      XXXX   -1087.1785   XXXY     -79.6205   XXYY    -231.9381
      XYYY     -81.4323   YYYY    -278.2741   XXXZ      -0.1374
      XXYZ      -0.0162   XYYZ      -0.0414   YYYZ      -0.0254
      XXZZ    -127.6159   XYZZ     -16.3137   YYZZ     -47.1486
      XZZZ      -0.0734   YZZZ      -0.0153   ZZZZ     -31.9010
 -----------------------------------------------------------------
 Total job time:  127.58s(wall), 434.97s(cpu) 
 Thu Dec  7 15:43:18 2023

        *************************************************************
        *                                                           *
        *  Thank you very much for using Q-Chem.  Have a nice day.  *
        *                                                           *
        *************************************************************


