
Running Job 1 of 1 Q_in.in
qchem Q_in.in_125245.0 /scratch/ari.fischer/qChem1647379.hpc-mn1/qchem125245/ 0
/usr/local/qchem-5.4.1/exe/qcprog.exe_s Q_in.in_125245.0 /scratch/ari.fischer/qChem1647379.hpc-mn1/qchem125245/
                  Welcome to Q-Chem
     A Quantum Leap Into The Future Of Chemistry


 Q-Chem 5.4, Q-Chem, Inc., Pleasanton, CA (2021)

 License issued to: Nanyang Technological University (site)

 E. Epifanovsky,  A. T. B. Gilbert,  Xintian Feng,  Joonho Lee,  Yuezhi Mao,  
 N. Mardirossian,  P. Pokhilko,  A. White,  M. Wormit,  M. P. Coons,  
 A. L. Dempwolff,  Zhengting Gan,  D. Hait,  P. R. Horn,  L. D. Jacobson,  
 I. Kaliman,  J. Kussmann,  A. W. Lange,  Ka Un Lao,  D. S. Levine,  Jie Liu,  
 S. C. McKenzie,  A. F. Morrison,  K. Nanda,  F. Plasser,  D. R. Rehn,  
 M. L. Vidal,  Zhi-Qiang You,  Ying Zhu,  B. Alam,  B. Albrecht,  
 A. Aldossary,  E. Alguire,  J. H. Andersen,  D. Barton,  K. Begam,  A. Behn,  
 Y. A. Bernard,  E. J. Berquist,  H. Burton,  A. Carreras,  K. Carter-Fenk,  
 R. Chakraborty,  A. D. Chien,  K. D. Closser,  V. Cofer-Shabica,  
 S. Dasgupta,  Jia Deng,  M. de Wergifosse,  M. Diedenhofen,  Hainam Do,  
 S. Ehlert,  Po-Tung Fang,  S. Fatehi,  Qingguo Feng,  T. Friedhoff,  
 J. Gayvert,  Qinghui Ge,  G. Gidofalvi,  M. Goldey,  J. Gomes,  
 C. Gonzalez-Espinoza,  S. Gulania,  A. Gunina,  M. W. D. Hanson-Heine,  
 P. H. P. Harbach,  A. W. Hauser,  M. F. Herbst,  M. Hernandez Vera,  
 M. Hodecker,  Z. C. Holden,  S. Houck,  Xunkun Huang,  Kerwin Hui,  
 B. C. Huynh,  M. Ivanov,  Hyunjun Ji,  Hanjie Jiang,  B. Kaduk,  S. Kaehler,  
 K. Khistyaev,  Jaehoon Kim,  P. Klunzinger,  Z. Koczor-Benda,  
 Joong Hoon Koh,  D. Kosenkov,  L. Koulias,  T. Kowalczyk,  C. M. Krauter,  
 K. Kue,  A. Kunitsa,  T. Kus,  A. Landau,  K. V. Lawler,  D. Lefrancois,  
 S. Lehtola,  Rain Li,  Yi-Pei Li,  Jiashu Liang,  M. Liebenthal,  
 Hung-Hsuan Lin,  You-Sheng Lin,  Fenglai Liu,  Kuan-Yu Liu,  
 M. Loipersberger,  A. Luenser,  A. Manjanath,  P. Manohar,  E. Mansoor,  
 S. F. Manzer,  Shan-Ping Mao,  A. V. Marenich,  T. Markovich,  S. Mason,  
 S. A. Maurer,  P. F. McLaughlin,  M. F. S. J. Menger,  J.-M. Mewes,  
 S. A. Mewes,  P. Morgante,  J. W. Mullinax,  K. J. Oosterbaan,  G. Paran,  
 Alexander C. Paul,  Suranjan K. Paul,  F. Pavosevic,  Zheng Pei,  S. Prager,  
 E. I. Proynov,  E. Ramos,  B. Rana,  A. E. Rask,  A. Rettig,  R. M. Richard,  
 F. Rob,  E. Rossomme,  T. Scheele,  M. Scheurer,  M. Schneider,  
 N. Sergueev,  S. M. Sharada,  W. Skomorowski,  D. W. Small,  C. J. Stein,  
 Yu-Chuan Su,  E. J. Sundstrom,  Zhen Tao,  J. Thirman,  T. Tsuchimochi,  
 N. M. Tubman,  S. P. Veccham,  O. Vydrov,  J. Wenzel,  J. Witte,  A. Yamada,  
 Kun Yao,  S. Yeganeh,  S. R. Yost,  A. Zech,  Igor Ying Zhang,  Xing Zhang,  
 Yu Zhang,  D. Zuev,  A. Aspuru-Guzik,  A. T. Bell,  N. A. Besley,  
 K. B. Bravaya,  B. R. Brooks,  D. Casanova,  Jeng-Da Chai,  S. Coriani,  
 C. J. Cramer,  A. E. DePrince, III,  R. A. DiStasio Jr.,  A. Dreuw,  
 B. D. Dunietz,  T. R. Furlani,  W. A. Goddard III,  S. Grimme,  
 S. Hammes-Schiffer,  T. Head-Gordon,  W. J. Hehre,  Chao-Ping Hsu,  
 T.-C. Jagau,  Yousung Jung,  A. Klamt,  Jing Kong,  D. S. Lambrecht,  
 WanZhen Liang,  N. J. Mayhall,  C. W. McCurdy,  J. B. Neaton,  
 C. Ochsenfeld,  J. A. Parkhill,  R. Peverati,  V. A. Rassolov,  Yihan Shao,  
 L. V. Slipchenko,  T. Stauch,  R. P. Steele,  J. E. Subotnik,  
 A. J. W. Thom,  A. Tkatchenko,  D. G. Truhlar,  T. Van Voorhis,  
 T. A. Wesolowski,  K. B. Whaley,  H. L. Woodcock III,  P. M. Zimmerman,  
 S. Faraji,  P. M. W. Gill,  M. Head-Gordon,  J. M. Herbert,  A. I. Krylov

 Additional authors for Version 5.4.1: 
 S. Kotaru,  Shaozhi Li,  Xiangyuan Li,  F. Matz,  A. Molle,  Haisheng Ren,  
 Yingli Su,  Hung-Yi Tsai,  C. Utku,  Fang Wang

 Contributors to earlier versions of Q-Chem not listed above: 
 R. D. Adamson,  B. Austin,  R. Baer,  J. Baker,  G. J. O. Beran,  
 K. Brandhorst,  S. T. Brown,  E. F. C. Byrd,  A. K. Chakraborty,  
 G. K. L. Chan,  Chun-Min Chang,  Yunqing Chen,  C.-L. Cheng,  
 Siu Hung Chien,  D. M. Chipman,  D. L. Crittenden,  H. Dachsel,  
 R. J. Doerksen,  A. D. Dutoi,  R. G. Edgar,  J. Fosso-Tande,  
 L. Fusti-Molnar,  D. Ghosh,  A. Ghysels,  A. Golubeva-Zadorozhnaya,  
 J. Gonthier,  M. S. Gordon,  S. R. Gwaltney,  G. Hawkins,  J. E. Herr,  
 A. Heyden,  S. Hirata,  E. G. Hohenstein,  G. Kedziora,  F. J. Keil,  
 C. Kelley,  Jihan Kim,  R. A. King,  R. Z. Khaliullin,  P. P. Korambath,  
 W. Kurlancheek,  A. Laurent,  A. M. Lee,  M. S. Lee,  S. V. Levchenko,  
 Ching Yeh Lin,  D. Liotard,  E. Livshits,  R. C. Lochan,  I. Lotan,  
 L. A. Martinez-Martinez,  P. E. Maslen,  N. Nair,  D. P. O'Neill,  
 D. Neuhauser,  E. Neuscamman,  C. M. Oana,  R. Olivares-Amaya,  R. Olson,  
 T. M. Perrine,  B. Peters,  P. A. Pieniazek,  A. Prociuk,  Y. M. Rhee,  
 J. Ritchie,  M. A. Rohrdanz,  E. Rosta,  N. J. Russ,  H. F. Schaefer III,  
 M. W. Schmidt,  N. E. Schultz,  S. Sharma,  N. Shenvi,  C. D. Sherrill,  
 A. C. Simmonett,  A. Sodt,  T. Stein,  D. Stuck,  K. S. Thanthiriwatte,  
 V. Vanovschi,  L. Vogt,  Tao Wang,  A. Warshel,  M. A. Watson,  
 C. F. Williams,  Q. Wu,  X. Xu,  Jun Yang,  W. Zhang,  Yan Zhao

 Please cite Q-Chem as follows:
 Y. Shao et al., Mol. Phys. 113, 184-215 (2015)
 DOI: 10.1080/00268976.2014.952696

 Q-Chem 5.4.1 for Intel X86 EM64T Linux

 Parts of Q-Chem use Armadillo 9.800.1 (Horizon Scraper).
 http://arma.sourceforge.net/

 Q-Chem begins on Tue Jul 25 21:06:30 2023  

 Host: 
0

     Scratch files written to /scratch/ari.fischer/qChem1647379.hpc-mn1/qchem125245//
 Aug1521 |scratch|qcdevops|jenkins|workspace|build_RNUM 8249   
 Processing $rem in /usr/local/qchem-5.4.1/config/preferences:
 Processing $rem in /home/ari.fischer/.qchemrc:
 Symmetry turned off for PCM/SM12/SMD calculation


!!********************************************.
!!******************Warning*******************.
!!Desired Analytical derivatives not available.
!!Finite difference job might take a long time.
!!********************************************.
!!********************************************.


 2-order derivative to be evaluated numerically with 1-order analytical derivatives

 Checking the input file for inconsistencies... 	...done.

--------------------------------------------------------------
User input:
--------------------------------------------------------------
$molecule
0 2
C        -0.7815818513   -0.8621260838    0.2169192630
O        -0.5677313100   -1.8388176903    1.1426543543
O        -1.9177326486   -1.1046415258   -0.5122751814
O        -1.0492303607    0.4294279566    0.9158763606
O         0.0279106599    0.8641850188    1.5019380736
H        -1.3980157501   -2.0228529546    1.6064418571
H        -1.9185720505   -0.5486092031   -1.3022780715
H         0.1189209115   -0.7025546179   -0.3693780555
$end

$rem
BASIS = 6-311++G(2df,2p)
GUI = 2
JOB_TYPE = Frequency
METHOD = wB97M-V
SOLVENT_METHOD = SMD
SCF_ALGORITHM = DIIS_GDM
MAX_SCF_CYCLES = 400
SCF_CONVERGENCE = 7
THRESH = 12
UNRESTRICTED = 1
SYMMETRY_IGNORE = 1
$end
--------------------------------------------------------------
 ----------------------------------------------------------------
             Standard Nuclear Orientation (Angstroms)
    I     Atom           X                Y                Z
 ----------------------------------------------------------------
    1      C      -0.7815818513    -0.8621260838     0.2169192630
    2      O      -0.5677313100    -1.8388176903     1.1426543543
    3      O      -1.9177326486    -1.1046415258    -0.5122751814
    4      O      -1.0492303607     0.4294279566     0.9158763606
    5      O       0.0279106599     0.8641850188     1.5019380736
    6      H      -1.3980157501    -2.0228529546     1.6064418571
    7      H      -1.9185720505    -0.5486092031    -1.3022780715
    8      H       0.1189209115    -0.7025546179    -0.3693780555
 ----------------------------------------------------------------
 Nuclear Repulsion Energy =         190.13942424 hartrees
 There are       21 alpha and       20 beta electrons
 Requested basis set is 6-311++G(2df,2p)
 There are 58 shells and 200 basis functions

 Total QAlloc Memory Limit 288000 MB
 Mega-Array Size       188 MB
 MEM_STATIC part       192 MB
 
 Citation of the SMD model:
 Marenich, A.V.; Cramer, C.J.; Truhlar, D.G.
 J. Phys. Chem. B 2009, 113, 6378-6396.
 iSolventCode=           1
 Solvent: water                                                           
 
 vradii
            1           2           3           4           5           6
    1   1.8500000   1.5200000   1.5200000   1.5200000   1.5200000   1.2000000
            7           8
    1   1.2000000   1.2000000
 Changing PCM_VDW_RADII to SMD_RADIUS
 Discretize the solute cavity surface with Lebedev spheres
	Using 110 Lebedev grid points for each H atom
	Using 194 Lebedev grid points for other atoms
	Atomic van der Waals radii will be scaled by 1.20
 Remove points where switching function is < 1.0e-08
 Keep 738 surface tesserae and discard 562 interior tesserae
 Molecular Surface Area = 88.063 Angst**2

                       Distance Matrix (Angstroms)
             C (  1)   O (  2)   O (  3)   O (  4)   O (  5)   H (  6)
   O (  2)  1.362587
   O (  3)  1.371633  2.258387
   O (  4)  1.492745  2.329851  2.268762
   O (  5)  2.299283  2.791075  3.423282  1.301044
   H (  6)  1.912603  0.968680  2.366892  2.571422  3.221673
   H (  7)  1.923278  3.076866  0.966063  2.575368  3.694376  3.302276
   H (  8)  1.086330  2.012170  2.080878  2.073123  2.442290  2.819246
             H (  7)
   H (  8)  2.246192
 
 A cutoff of  1.0D-12 yielded   1654 shell pairs
 There are     19905 function pairs (     25247 Cartesian)
 Smallest overlap matrix eigenvalue = 3.66E-04
 Guess from superposition of atomic densities
 Warning:  Energy on first SCF cycle will be non-variational
 SAD guess density has 41.000000 electrons

 -----------------------------------------------------------------------
  General SCF calculation program by
  Eric Jon Sundstrom, Paul Horn, Yuezhi Mao, Dmitri Zuev, Alec White,
  David Stuck, Shaama M.S., Shane Yost, Joonho Lee, David Small,
  Daniel Levine, Susi Lehtola, Hugh Burton, Evgeny Epifanovsky,
  Bang C. Huynh
 -----------------------------------------------------------------------
 Exchange:     0.1500 Hartree-Fock + 1.0000 wB97M-V + LR-HF
 Correlation:  1.0000 wB97M-V
 Using SG-2 standard quadrature grid
 Nonlocal Correlation:  VV10 with C = 0.0100 and b = 6.00 and scale = 1.00000
 Grid used for NLC:  SG-1 standard quadrature
 using 8 threads for integral computing
 -------------------------------------------------------
 OpenMP Integral computing Module                
 Release: version 1.0, May 2013, Q-Chem Inc. Pittsburgh 
 -------------------------------------------------------
 
 Citation of the SMD model:
 Marenich, A.V.; Cramer, C.J.; Truhlar, D.G.
 J. Phys. Chem. B 2009, 113, 6378-6396.
 iSolventCode=           1
 Solvent: water                                                           
 
 vradii
            1           2           3           4           5           6
    1   1.8500000   1.5200000   1.5200000   1.5200000   1.5200000   1.2000000
            7           8
    1   1.2000000   1.2000000
 -------------------------------------------------------
 OpenMP BLAS3 based DFT computing Module                
 Release: version 1.0, May 2013, Q-Chem Inc. Pittsburgh 
 -------------------------------------------------------
 A unrestricted SCF calculation will be
 performed using DIIS, GDM
 SCF converges when RMS gradient is below 1.0e-07
 ---------------------------------------
  Cycle       Energy         DIIS error
 ---------------------------------------
    1    -341.3700489531      1.71e-02  
    2    -340.6031874352      2.72e-03  Done DIIS. Switching to GDM
 ---------------------------------------
  Cycle       Energy        RMS Gradient
 ---------------------------------------
    1    -340.6031874352      1.31e-01   Descent step
    2    -340.7062970853      1.73e-02   Normal BFGS step
    3    -340.7154028062      3.09e-02   Normal BFGS step
    4    -340.7176434105      5.53e-03   Normal BFGS step
    5    -340.7184110487      4.50e-03   Normal BFGS step
    6    -340.7185332777      3.45e-03   Normal BFGS step
    7    -340.7185877341      1.49e-03   Normal BFGS step
    8    -340.7185960666      3.26e-04   Normal BFGS step
    9    -340.7185970336      1.42e-04   Normal BFGS step
   10    -340.7185972149      1.08e-04   Normal BFGS step
   11    -340.7185972525      9.96e-05   Normal BFGS step
   12    -340.7185972744      8.24e-05   Normal BFGS step
   13    -340.7185972924      5.86e-05   Normal BFGS step
   14    -340.7185973100      1.89e-05   Normal BFGS step
   15    -340.7185973147      8.55e-06   Normal BFGS step
   16    -340.7185973159      1.87e-06   Normal BFGS step
   17    -340.7185973160      7.78e-07   Normal BFGS step
   18    -340.7185973160      2.22e-07   Normal BFGS step
   19    -340.7185973160      7.47e-08  Convergence criterion met
 ---------------------------------------
 SCF time:   CPU 298.36s  wall 38.00s 
<S^2> =          0.753865385
(3)  G-ENP(liq) elect-nuc-pol free energy of system     -340.718597316 a.u.
(4)  G-CDS(liq) cavity-dispersion-solvent structure 
     free energy                                                2.2387 kcal/mol
(6)  G-S(liq) free energy of system                     -340.715029731 a.u.
 SCF   energy in the final basis set =     -340.7150297311
 Total energy in the final basis set =     -340.7150297311
 
 --------------------------------------------------------------
 
                    Orbital Energies (a.u.)
 --------------------------------------------------------------
 
 Alpha MOs
 -- Occupied --
-19.4592 -19.4206 -19.3694 -19.3694 -10.5127  -1.3495  -1.2367  -1.1675
 -0.9961  -0.8031  -0.7033  -0.6806  -0.6548  -0.6047  -0.5866  -0.5220
 -0.5028  -0.4701  -0.4464  -0.4017  -0.4002
 -- Virtual --
  0.0316   0.0487   0.0585   0.0819   0.1079   0.1190   0.1442   0.1623
  0.1922   0.2058   0.2134   0.2282   0.2302   0.2474   0.2559   0.2696
  0.2725   0.2767   0.2876   0.3018   0.3187   0.3262   0.3446   0.3516
  0.3670   0.3936   0.4021   0.4062   0.4411   0.4518   0.5885   0.5905
  0.6026   0.6690   0.6793   0.6863   0.7856   0.8112   0.8401   0.8484
  0.8716   0.9637   0.9890   1.0216   1.0585   1.0714   1.1064   1.1139
  1.1303   1.1323   1.1534   1.1807   1.1929   1.2140   1.2256   1.2514
  1.3170   1.3379   1.3958   1.4258   1.4492   1.4711   1.4986   1.5302
  1.5530   1.5701   1.6071   1.6509   1.6775   1.7643   1.8034   1.8489
  1.8786   1.9817   2.0269   2.0596   2.1500   2.1671   2.2294   2.2737
  2.2940   2.3141   2.3630   2.4137   2.4581   2.5201   2.6765   2.6982
  2.7902   2.8776   3.1928   3.2349   3.2755   3.3198   3.3326   3.4284
  3.4407   3.4731   3.5403   3.6753   3.6878   3.7470   3.7757   3.8102
  3.8243   3.8505   3.9484   4.1282   4.1580   4.2235   4.2922   4.3820
  4.3978   4.5555   4.6897   4.8016   4.8340   4.9581   5.0300   5.0646
  5.0746   5.1268   5.1396   5.1465   5.1821   5.2032   5.2199   5.2287
  5.2550   5.2705   5.2905   5.3043   5.3415   5.3779   5.4220   5.4968
  5.5139   5.5887   5.6236   5.6609   5.7042   5.8502   5.8888   6.0147
  6.0852   6.2363   6.2807   6.4799   6.5790   6.5950   6.8043   6.8378
  6.8593   6.9259   7.0259   7.0387   7.0870   7.1325   7.1881   7.2188
  7.2764   7.2943   7.3184   7.3695   7.3947   7.4260   7.4825   7.6060
  7.7020   7.7640   7.8061   7.8429   8.0144   8.0841  24.8239  50.4054
 50.4901  50.5666  50.5937
 
 Beta MOs
 -- Occupied --
-19.4490 -19.4016 -19.3694 -19.3692 -10.5130  -1.3250  -1.2332  -1.1673
 -0.9605  -0.7972  -0.7014  -0.6687  -0.6346  -0.5879  -0.5335  -0.5132
 -0.4985  -0.4650  -0.4410  -0.3824
 -- Virtual --
 -0.0323   0.0319   0.0489   0.0591   0.0827   0.1091   0.1196   0.1447
  0.1664   0.1942   0.2098   0.2151   0.2303   0.2325   0.2519   0.2574
  0.2745   0.2779   0.2812   0.2911   0.3024   0.3199   0.3275   0.3470
  0.3533   0.3676   0.3950   0.4053   0.4084   0.4420   0.4525   0.5893
  0.5907   0.6030   0.6697   0.6796   0.6861   0.7867   0.8118   0.8418
  0.8501   0.8737   0.9648   0.9917   1.0244   1.0679   1.0775   1.1118
  1.1236   1.1330   1.1479   1.1645   1.1888   1.2009   1.2206   1.2279
  1.2592   1.3200   1.3416   1.3978   1.4296   1.4648   1.4736   1.5022
  1.5405   1.5618   1.5785   1.6259   1.6587   1.6983   1.7738   1.8120
  1.8589   1.8820   1.9841   2.0297   2.0659   2.1606   2.1754   2.2356
  2.2782   2.3021   2.3254   2.3652   2.4173   2.4621   2.5243   2.6850
  2.7007   2.7913   2.8780   3.1945   3.2357   3.2756   3.3205   3.3333
  3.4288   3.4402   3.4742   3.5403   3.6755   3.6896   3.7486   3.7757
  3.8102   3.8248   3.8506   3.9489   4.1286   4.1582   4.2243   4.2933
  4.3830   4.3988   4.5928   4.7093   4.8265   4.8455   4.9767   5.0963
  5.1163   5.1262   5.1506   5.1598   5.1772   5.1923   5.2208   5.2322
  5.2502   5.2714   5.2782   5.3032   5.3139   5.3566   5.3873   5.4284
  5.4989   5.5254   5.6004   5.6289   5.6695   5.7178   5.8597   5.8925
  6.0172   6.0891   6.2404   6.2864   6.5260   6.5896   6.6053   6.8299
  6.8974   6.9387   6.9836   7.0318   7.0475   7.1215   7.1485   7.2198
  7.2245   7.2810   7.2980   7.3267   7.3835   7.4129   7.4514   7.5043
  7.6078   7.7075   7.7697   7.8104   7.8461   8.0258   8.1046  24.8236
 50.4183  50.4989  50.5669  50.5943
 --------------------------------------------------------------
 
          Ground-State Mulliken Net Atomic Charges

     Atom                 Charge (a.u.)    Spin (a.u.)
  --------------------------------------------------------
      1 C                     0.096822      -0.003392
      2 O                    -0.403201       0.002319
      3 O                    -0.416854       0.000253
      4 O                    -0.019722       0.311399
      5 O                    -0.241609       0.684087
      6 H                     0.348644       0.000390
      7 H                     0.341452      -0.000250
      8 H                     0.294467       0.005193
  --------------------------------------------------------
  Sum of atomic charges =    -0.000000
  Sum of spin   charges =     1.000000

 -----------------------------------------------------------------
                    Cartesian Multipole Moments
 -----------------------------------------------------------------
    Charge (ESU x 10^10)
                -0.0000
    Dipole Moment (Debye)
         X      -1.4320      Y      -0.9318      Z      -3.0114
       Tot       3.4623
    Quadrupole Moments (Debye-Ang)
        XX     -28.0309     XY       1.6875     YY     -32.3878
        XZ      -0.8820     YZ      -3.9611     ZZ     -26.7048
    Octopole Moments (Debye-Ang^2)
       XXX      76.5184    XXY      14.0779    XYY      22.6898
       YYY      49.5378    XXZ     -17.8697    XYZ       9.0802
       YYZ     -14.9723    XZZ      12.4810    YZZ       6.5359
       ZZZ     -58.6608
    Hexadecapole Moments (Debye-Ang^3)
      XXXX    -242.6177   XXXY     -64.3532   XXYY     -77.2127
      XYYY     -53.8352   YYYY    -261.7060   XXXZ      13.7186
      XXYZ     -13.6963   XYYZ     -14.8583   YYYZ     -11.6994
      XXZZ     -48.6476   XYZZ      -4.1998   YYZZ     -67.4104
      XZZZ       9.3152   YZZZ     -10.6854   ZZZZ    -184.1147
 -----------------------------------------------------------------
 Calculating analytic gradient of the SCF energy
 Gradient of CDS energy
            1           2           3           4           5           6
    1  -0.0030068  -0.0008802   0.0042343   0.0000659  -0.0000549  -0.0001902
    2  -0.0050875   0.0038218   0.0010998   0.0000175   0.0000888  -0.0002578
    3  -0.0001076  -0.0033005   0.0030727   0.0001889   0.0000157   0.0003339
            7           8
    1  -0.0002989   0.0001309
    2   0.0000533   0.0002641
    3  -0.0003974   0.0001942
 Gradient of SCF Energy
            1           2           3           4           5           6
    1  -0.0094045   0.0146076  -0.0030458   0.0002419   0.0007147  -0.0113852
    2  -0.0021233   0.0016464  -0.0122815   0.0027647  -0.0006885  -0.0025223
    3   0.0083941  -0.0052649   0.0149182   0.0002184   0.0015397   0.0064735
            7           8
    1   0.0010557   0.0072157
    2   0.0111235   0.0020810
    3  -0.0170061  -0.0092730
 Max gradient component =       1.701E-02
 RMS gradient           =       7.998E-03
 Computing fast CPCM-SWIG gradient
 Updating gradient with PCM contributions...
 -- total gradient after adding PCM contribution --
---------------------------------------------------
  Atom         X              Y              Z     
---------------------------------------------------
   1       0.000005      -0.000252      -0.000040
   2      -0.000046       0.000048      -0.000085
   3       0.000071       0.000015      -0.000004
   4      -0.000023       0.000160       0.000092
   5      -0.000017      -0.000039       0.000066
   6      -0.000097      -0.000020      -0.000021
   7       0.000070       0.000075      -0.000051
   8       0.000038       0.000013       0.000042
---------------------------------------------------
 Number of fixed atoms: 0
 Gradient time:  CPU 38.49 s  wall 5.62 s
 ######################################################
 ######################################################
 # Starting finite difference calculation for IDERIV  #
 Finite diff step size:  1.88973e-03 a.u.
 ----------------------------------------------------------------
             Standard Nuclear Orientation (Angstroms)
    I     Atom           X                Y                Z
 ----------------------------------------------------------------
    1      C      -0.7805818513    -0.8621260838     0.2169192630
    2      O      -0.5677313100    -1.8388176903     1.1426543543
    3      O      -1.9177326486    -1.1046415258    -0.5122751814
    4      O      -1.0492303607     0.4294279566     0.9158763606
    5      O       0.0279106599     0.8641850188     1.5019380736
    6      H      -1.3980157501    -2.0228529546     1.6064418571
    7      H      -1.9185720505    -0.5486092031    -1.3022780715
    8      H       0.1189209115    -0.7025546179    -0.3693780555
 ----------------------------------------------------------------
 Nuclear Repulsion Energy =         190.13147657 hartrees
 There are       21 alpha and       20 beta electrons
 Discretize the solute cavity surface with Lebedev spheres
	Using 110 Lebedev grid points for each H atom
	Using 194 Lebedev grid points for other atoms
	Atomic van der Waals radii will be scaled by 1.20
 Remove points where switching function is < 1.0e-08
 Keep 739 surface tesserae and discard 561 interior tesserae
 Molecular Surface Area = 88.067 Angst**2

                       Distance Matrix (Angstroms)
             C (  1)   O (  2)   O (  3)   O (  4)   O (  5)   H (  6)
   O (  2)  1.362431
   O (  3)  1.372461  2.258387
   O (  4)  1.492925  2.329851  2.268762
   O (  5)  2.298931  2.791075  3.423282  1.301044
   H (  6)  1.912926  0.968680  2.366892  2.571422  3.221673
   H (  7)  1.923870  3.076866  0.966063  2.575368  3.694376  3.302276
   H (  8)  1.085501  2.012170  2.080878  2.073123  2.442290  2.819246
             H (  7)
   H (  8)  2.246192
 
 Requested basis set is 6-311++G(2df,2p)
 There are 58 shells and 200 basis functions
 A cutoff of  1.0D-12 yielded   1654 shell pairs
 There are     19905 function pairs (     25247 Cartesian)
 Smallest overlap matrix eigenvalue = 3.66E-04
 Guess MOs from SCF MO coefficient file

 -----------------------------------------------------------------------
  General SCF calculation program by
  Eric Jon Sundstrom, Paul Horn, Yuezhi Mao, Dmitri Zuev, Alec White,
  David Stuck, Shaama M.S., Shane Yost, Joonho Lee, David Small,
  Daniel Levine, Susi Lehtola, Hugh Burton, Evgeny Epifanovsky,
  Bang C. Huynh
 -----------------------------------------------------------------------
 Exchange:     0.1500 Hartree-Fock + 1.0000 wB97M-V + LR-HF
 Correlation:  1.0000 wB97M-V
 Using SG-2 standard quadrature grid
 Nonlocal Correlation:  VV10 with C = 0.0100 and b = 6.00 and scale = 1.00000
 Grid used for NLC:  SG-1 standard quadrature
 
 Citation of the SMD model:
 Marenich, A.V.; Cramer, C.J.; Truhlar, D.G.
 J. Phys. Chem. B 2009, 113, 6378-6396.
 iSolventCode=           1
 Solvent: water                                                           
 
 vradii
            1           2           3           4           5           6
    1   1.8500000   1.5200000   1.5200000   1.5200000   1.5200000   1.2000000
            7           8
    1   1.2000000   1.2000000
 -------------------------------------------------------
 OpenMP BLAS3 based DFT computing Module                
 Release: version 1.0, May 2013, Q-Chem Inc. Pittsburgh 
 -------------------------------------------------------
 A unrestricted SCF calculation will be
 performed using Roothaan-Hall, DIIS, GDM
 SCF converges when RMS gradient is below 1.0e-07
 ---------------------------------------
  Cycle       Energy         DIIS error
 ---------------------------------------
    1    -340.6900438639      3.36e-04  Roothaan Step
 ---------------------------------------
  Cycle       Energy         DIIS error
 ---------------------------------------
    1    -340.7145780135      3.77e-04  
    2    -340.7169137739      3.53e-04  Done DIIS. Switching to GDM
 ---------------------------------------
  Cycle       Energy        RMS Gradient
 ---------------------------------------
    1    -340.7169137739      1.88e-02   Normal BFGS step
    2    -340.7159485800      3.19e-02  Line search: overstep
    3    -340.7184736399      3.20e-03   Normal BFGS step
    4    -340.7185609347      9.92e-04   Normal BFGS step
    5    -340.7185855882      7.60e-04   Normal BFGS step
    6    -340.7185891756      3.79e-04   Normal BFGS step
    7    -340.7185899568      2.39e-04   Normal BFGS step
    8    -340.7185903477      6.99e-05   Normal BFGS step
    9    -340.7185904000      5.55e-05   Normal BFGS step
   10    -340.7185904077      5.02e-05   Normal BFGS step
   11    -340.7185904131      4.20e-05   Normal BFGS step
   12    -340.7185904191      2.58e-05   Normal BFGS step
   13    -340.7185904231      8.15e-06   Normal BFGS step
   14    -340.7185904241      3.21e-06   Normal BFGS step
   15    -340.7185904243      9.48e-07   Normal BFGS step
   16    -340.7185904243      4.24e-07   Normal BFGS step
   17    -340.7185904243      1.24e-07   Normal BFGS step
   18    -340.7185904243      4.26e-08  Convergence criterion met
 ---------------------------------------
 SCF time:   CPU 298.61s  wall 38.00s 
<S^2> =          0.753865641
(3)  G-ENP(liq) elect-nuc-pol free energy of system     -340.718590424 a.u.
(4)  G-CDS(liq) cavity-dispersion-solvent structure 
     free energy                                                2.2351 kcal/mol
(6)  G-S(liq) free energy of system                     -340.715028537 a.u.
 SCF   energy in the final basis set =     -340.7150285369
 Total energy in the final basis set =     -340.7150285369
 
 --------------------------------------------------------------
 
                    Orbital Energies (a.u.)
 --------------------------------------------------------------
 
 Alpha MOs
 -- Occupied --
-19.4592 -19.4206 -19.3694 -19.3693 -10.5127  -1.3495  -1.2365  -1.1674
 -0.9961  -0.8032  -0.7031  -0.6806  -0.6549  -0.6047  -0.5866  -0.5219
 -0.5028  -0.4702  -0.4464  -0.4017  -0.4002
 -- Virtual --
  0.0316   0.0487   0.0585   0.0819   0.1079   0.1190   0.1443   0.1623
  0.1921   0.2058   0.2133   0.2282   0.2302   0.2474   0.2559   0.2697
  0.2725   0.2767   0.2876   0.3018   0.3187   0.3262   0.3445   0.3516
  0.3668   0.3936   0.4021   0.4062   0.4411   0.4517   0.5886   0.5906
  0.6027   0.6689   0.6793   0.6864   0.7855   0.8112   0.8400   0.8483
  0.8716   0.9638   0.9892   1.0217   1.0585   1.0713   1.1063   1.1140
  1.1302   1.1323   1.1534   1.1806   1.1929   1.2139   1.2257   1.2514
  1.3170   1.3381   1.3956   1.4257   1.4491   1.4711   1.4986   1.5301
  1.5531   1.5703   1.6070   1.6510   1.6775   1.7644   1.8035   1.8490
  1.8787   1.9816   2.0267   2.0594   2.1501   2.1668   2.2293   2.2736
  2.2941   2.3140   2.3626   2.4133   2.4582   2.5199   2.6765   2.6974
  2.7902   2.8774   3.1928   3.2348   3.2754   3.3199   3.3322   3.4284
  3.4405   3.4727   3.5405   3.6752   3.6880   3.7470   3.7756   3.8102
  3.8246   3.8503   3.9496   4.1281   4.1577   4.2238   4.2927   4.3826
  4.3987   4.5555   4.6896   4.8015   4.8338   4.9579   5.0300   5.0647
  5.0746   5.1269   5.1400   5.1468   5.1822   5.2032   5.2199   5.2286
  5.2552   5.2703   5.2904   5.3044   5.3412   5.3779   5.4217   5.4967
  5.5141   5.5887   5.6235   5.6608   5.7043   5.8502   5.8877   6.0146
  6.0850   6.2354   6.2802   6.4799   6.5789   6.5945   6.8041   6.8371
  6.8593   6.9259   7.0259   7.0387   7.0870   7.1326   7.1881   7.2189
  7.2764   7.2942   7.3182   7.3692   7.3946   7.4258   7.4823   7.6060
  7.7021   7.7639   7.8059   7.8427   8.0142   8.0841  24.8235  50.4054
 50.4901  50.5663  50.5937
 
 Beta MOs
 -- Occupied --
-19.4491 -19.4016 -19.3693 -19.3692 -10.5130  -1.3250  -1.2331  -1.1671
 -0.9604  -0.7973  -0.7012  -0.6687  -0.6347  -0.5879  -0.5335  -0.5131
 -0.4985  -0.4651  -0.4410  -0.3824
 -- Virtual --
 -0.0323   0.0319   0.0489   0.0591   0.0827   0.1091   0.1196   0.1447
  0.1664   0.1942   0.2097   0.2151   0.2304   0.2325   0.2518   0.2574
  0.2745   0.2779   0.2812   0.2911   0.3024   0.3199   0.3275   0.3468
  0.3533   0.3675   0.3949   0.4053   0.4085   0.4420   0.4524   0.5894
  0.5907   0.6031   0.6696   0.6796   0.6862   0.7867   0.8118   0.8418
  0.8500   0.8737   0.9648   0.9919   1.0244   1.0678   1.0775   1.1118
  1.1237   1.1330   1.1479   1.1645   1.1888   1.2008   1.2206   1.2280
  1.2592   1.3200   1.3418   1.3976   1.4295   1.4648   1.4736   1.5022
  1.5404   1.5619   1.5785   1.6259   1.6589   1.6984   1.7739   1.8121
  1.8589   1.8820   1.9840   2.0295   2.0658   2.1607   2.1751   2.2355
  2.2781   2.3022   2.3253   2.3648   2.4168   2.4621   2.5241   2.6849
  2.6998   2.7913   2.8778   3.1945   3.2356   3.2756   3.3206   3.3329
  3.4288   3.4400   3.4738   3.5405   3.6754   3.6898   3.7485   3.7756
  3.8102   3.8251   3.8504   3.9500   4.1285   4.1580   4.2246   4.2938
  4.3836   4.3997   4.5928   4.7092   4.8264   4.8453   4.9765   5.0966
  5.1162   5.1262   5.1507   5.1605   5.1771   5.1923   5.2208   5.2322
  5.2502   5.2714   5.2782   5.3032   5.3140   5.3563   5.3873   5.4282
  5.4988   5.5255   5.6004   5.6288   5.6695   5.7178   5.8597   5.8913
  6.0170   6.0890   6.2393   6.2859   6.5259   6.5893   6.6049   6.8289
  6.8975   6.9387   6.9835   7.0317   7.0475   7.1215   7.1487   7.2198
  7.2245   7.2809   7.2978   7.3265   7.3832   7.4128   7.4512   7.5041
  7.6078   7.7075   7.7697   7.8101   7.8458   8.0256   8.1046  24.8233
 50.4183  50.4989  50.5666  50.5942
 --------------------------------------------------------------
 
          Ground-State Mulliken Net Atomic Charges

     Atom                 Charge (a.u.)    Spin (a.u.)
  --------------------------------------------------------
      1 C                     0.096760      -0.003396
      2 O                    -0.403193       0.002317
      3 O                    -0.417301       0.000255
      4 O                    -0.019725       0.311404
      5 O                    -0.241595       0.684124
      6 H                     0.348773       0.000388
      7 H                     0.341384      -0.000250
      8 H                     0.294898       0.005158
  --------------------------------------------------------
  Sum of atomic charges =     0.000000
  Sum of spin   charges =     1.000000

 -----------------------------------------------------------------
                    Cartesian Multipole Moments
 -----------------------------------------------------------------
    Charge (ESU x 10^10)
                 0.0000
    Dipole Moment (Debye)
         X      -1.4256      Y      -0.9318      Z      -3.0089
       Tot       3.4574
    Quadrupole Moments (Debye-Ang)
        XX     -28.0428     XY       1.6817     YY     -32.3867
        XZ      -0.8873     YZ      -3.9651     ZZ     -26.7048
    Octopole Moments (Debye-Ang^2)
       XXX      76.5323    XXY      14.0892    XYY      22.6899
       YYY      49.5356    XXZ     -17.8605    XYZ       9.0863
       YYZ     -14.9642    XZZ      12.4797    YZZ       6.5336
       ZZZ     -58.6524
    Hexadecapole Moments (Debye-Ang^3)
      XXXX    -242.6348   XXXY     -64.3673   XXYY     -77.2169
      XYYY     -53.8302   YYYY    -261.6965   XXXZ      13.6958
      XXYZ     -13.7067   XYYZ     -14.8765   YYYZ     -11.7188
      XXZZ     -48.6478   XYZZ      -4.1968   YYZZ     -67.4069
      XZZZ       9.2932   YZZZ     -10.7018   ZZZZ    -184.1150
 -----------------------------------------------------------------
 Calculating analytic gradient of the SCF energy
 Gradient of CDS energy
            1           2           3           4           5           6
    1  -0.0030229  -0.0008781   0.0042553   0.0000647  -0.0000552  -0.0001910
    2  -0.0050881   0.0038163   0.0011044   0.0000171   0.0000892  -0.0002573
    3  -0.0001235  -0.0032949   0.0030845   0.0001891   0.0000158   0.0003334
            7           8
    1  -0.0003002   0.0001274
    2   0.0000527   0.0002658
    3  -0.0003980   0.0001937
 Gradient of SCF Energy
            1           2           3           4           5           6
    1  -0.0081431   0.0143817  -0.0034641   0.0000520   0.0007059  -0.0113647
    2  -0.0020230   0.0016758  -0.0123277   0.0028821  -0.0007616  -0.0025858
    3   0.0082136  -0.0052646   0.0147835   0.0002930   0.0014898   0.0065344
            7           8
    1   0.0010593   0.0067730
    2   0.0111106   0.0020295
    3  -0.0169889  -0.0090607
 Max gradient component =       1.699E-02
 RMS gradient           =       7.888E-03
 Computing fast CPCM-SWIG gradient
 Updating gradient with PCM contributions...
 -- total gradient after adding PCM contribution --
---------------------------------------------------
  Atom         X              Y              Z     
---------------------------------------------------
   1       0.001259      -0.000152      -0.000226
   2      -0.000259       0.000076      -0.000083
   3      -0.000330      -0.000040      -0.000127
   4      -0.000204       0.000284       0.000168
   5      -0.000026      -0.000116       0.000014
   6      -0.000081      -0.000079       0.000034
   7       0.000063       0.000071      -0.000054
   8      -0.000422      -0.000044       0.000274
---------------------------------------------------
 Number of fixed atoms: 0
 Gradient time:  CPU 39.38 s  wall 5.79 s
 ----------------------------------------------------------------
             Standard Nuclear Orientation (Angstroms)
    I     Atom           X                Y                Z
 ----------------------------------------------------------------
    1      C      -0.7825818513    -0.8621260838     0.2169192630
    2      O      -0.5677313100    -1.8388176903     1.1426543543
    3      O      -1.9177326486    -1.1046415258    -0.5122751814
    4      O      -1.0492303607     0.4294279566     0.9158763606
    5      O       0.0279106599     0.8641850188     1.5019380736
    6      H      -1.3980157501    -2.0228529546     1.6064418571
    7      H      -1.9185720505    -0.5486092031    -1.3022780715
    8      H       0.1189209115    -0.7025546179    -0.3693780555
 ----------------------------------------------------------------
 Nuclear Repulsion Energy =         190.14736716 hartrees
 There are       21 alpha and       20 beta electrons
 Discretize the solute cavity surface with Lebedev spheres
	Using 110 Lebedev grid points for each H atom
	Using 194 Lebedev grid points for other atoms
	Atomic van der Waals radii will be scaled by 1.20
 Remove points where switching function is < 1.0e-08
 Keep 737 surface tesserae and discard 563 interior tesserae
 Molecular Surface Area = 88.059 Angst**2

                       Distance Matrix (Angstroms)
             C (  1)   O (  2)   O (  3)   O (  4)   O (  5)   H (  6)
   O (  2)  1.362745
   O (  3)  1.370805  2.258387
   O (  4)  1.492566  2.329851  2.268762
   O (  5)  2.299635  2.791075  3.423282  1.301044
   H (  6)  1.912281  0.968680  2.366892  2.571422  3.221673
   H (  7)  1.922687  3.076866  0.966063  2.575368  3.694376  3.302276
   H (  8)  1.087159  2.012170  2.080878  2.073123  2.442290  2.819246
             H (  7)
   H (  8)  2.246192
 
 Requested basis set is 6-311++G(2df,2p)
 There are 58 shells and 200 basis functions
 A cutoff of  1.0D-12 yielded   1654 shell pairs
 There are     19905 function pairs (     25247 Cartesian)
 Smallest overlap matrix eigenvalue = 3.66E-04
 Guess MOs from SCF MO coefficient file

 -----------------------------------------------------------------------
  General SCF calculation program by
  Eric Jon Sundstrom, Paul Horn, Yuezhi Mao, Dmitri Zuev, Alec White,
  David Stuck, Shaama M.S., Shane Yost, Joonho Lee, David Small,
  Daniel Levine, Susi Lehtola, Hugh Burton, Evgeny Epifanovsky,
  Bang C. Huynh
 -----------------------------------------------------------------------
 Exchange:     0.1500 Hartree-Fock + 1.0000 wB97M-V + LR-HF
 Correlation:  1.0000 wB97M-V
 Using SG-2 standard quadrature grid
 Nonlocal Correlation:  VV10 with C = 0.0100 and b = 6.00 and scale = 1.00000
 Grid used for NLC:  SG-1 standard quadrature
 
 Citation of the SMD model:
 Marenich, A.V.; Cramer, C.J.; Truhlar, D.G.
 J. Phys. Chem. B 2009, 113, 6378-6396.
 iSolventCode=           1
 Solvent: water                                                           
 
 vradii
            1           2           3           4           5           6
    1   1.8500000   1.5200000   1.5200000   1.5200000   1.5200000   1.2000000
            7           8
    1   1.2000000   1.2000000
 -------------------------------------------------------
 OpenMP BLAS3 based DFT computing Module                
 Release: version 1.0, May 2013, Q-Chem Inc. Pittsburgh 
 -------------------------------------------------------
 A unrestricted SCF calculation will be
 performed using Roothaan-Hall, DIIS, GDM
 SCF converges when RMS gradient is below 1.0e-07
 ---------------------------------------
  Cycle       Energy         DIIS error
 ---------------------------------------
    1    -340.6900496690      3.36e-04  Roothaan Step
 ---------------------------------------
  Cycle       Energy         DIIS error
 ---------------------------------------
    1    -340.7145985051      3.76e-04  
    2    -340.7169326408      3.52e-04  Done DIIS. Switching to GDM
 ---------------------------------------
  Cycle       Energy        RMS Gradient
 ---------------------------------------
    1    -340.7169326408      1.88e-02   Normal BFGS step
    2    -340.7159705340      3.18e-02  Line search: overstep
    3    -340.7184851739      3.19e-03   Normal BFGS step
    4    -340.7185723830      9.84e-04   Normal BFGS step
    5    -340.7185968835      7.57e-04   Normal BFGS step
    6    -340.7186005032      3.78e-04   Normal BFGS step
    7    -340.7186013019      2.35e-04   Normal BFGS step
    8    -340.7186017078      9.44e-05   Normal BFGS step
    9    -340.7186017663      7.55e-05   Normal BFGS step
   10    -340.7186017782      6.68e-05   Normal BFGS step
   11    -340.7186017889      5.23e-05   Normal BFGS step
   12    -340.7186018005      2.60e-05   Normal BFGS step
   13    -340.7186018060      8.31e-06   Normal BFGS step
   14    -340.7186018072      2.89e-06   Normal BFGS step
   15    -340.7186018073      9.47e-07   Normal BFGS step
   16    -340.7186018073      4.14e-07   Normal BFGS step
   17    -340.7186018073      1.14e-07   Normal BFGS step
   18    -340.7186018073      4.27e-08  Convergence criterion met
 ---------------------------------------
 SCF time:   CPU 300.46s  wall 38.00s 
<S^2> =          0.753865133
(3)  G-ENP(liq) elect-nuc-pol free energy of system     -340.718601807 a.u.
(4)  G-CDS(liq) cavity-dispersion-solvent structure 
     free energy                                                2.2422 kcal/mol
(6)  G-S(liq) free energy of system                     -340.715028556 a.u.
 SCF   energy in the final basis set =     -340.7150285565
 Total energy in the final basis set =     -340.7150285565
 
 --------------------------------------------------------------
 
                    Orbital Energies (a.u.)
 --------------------------------------------------------------
 
 Alpha MOs
 -- Occupied --
-19.4592 -19.4206 -19.3695 -19.3694 -10.5127  -1.3495  -1.2368  -1.1677
 -0.9962  -0.8030  -0.7034  -0.6806  -0.6548  -0.6047  -0.5865  -0.5220
 -0.5029  -0.4701  -0.4465  -0.4017  -0.4002
 -- Virtual --
  0.0316   0.0487   0.0585   0.0819   0.1079   0.1190   0.1442   0.1623
  0.1922   0.2059   0.2135   0.2282   0.2302   0.2475   0.2558   0.2696
  0.2725   0.2767   0.2876   0.3018   0.3187   0.3262   0.3448   0.3516
  0.3671   0.3937   0.4021   0.4061   0.4411   0.4520   0.5883   0.5905
  0.6026   0.6691   0.6794   0.6863   0.7856   0.8111   0.8402   0.8484
  0.8716   0.9637   0.9889   1.0216   1.0585   1.0714   1.1064   1.1138
  1.1303   1.1324   1.1534   1.1807   1.1929   1.2141   1.2255   1.2514
  1.3171   1.3377   1.3961   1.4258   1.4492   1.4711   1.4985   1.5303
  1.5529   1.5698   1.6071   1.6508   1.6775   1.7643   1.8033   1.8489
  1.8786   1.9818   2.0272   2.0597   2.1499   2.1674   2.2295   2.2739
  2.2939   2.3142   2.3634   2.4141   2.4581   2.5203   2.6766   2.6990
  2.7902   2.8778   3.1927   3.2349   3.2755   3.3198   3.3330   3.4283
  3.4409   3.4734   3.5402   3.6754   3.6877   3.7470   3.7758   3.8102
  3.8240   3.8508   3.9473   4.1284   4.1583   4.2231   4.2917   4.3813
  4.3970   4.5555   4.6898   4.8017   4.8341   4.9583   5.0300   5.0645
  5.0746   5.1267   5.1391   5.1462   5.1820   5.2031   5.2199   5.2289
  5.2548   5.2707   5.2905   5.3042   5.3417   5.3779   5.4223   5.4968
  5.5138   5.5888   5.6237   5.6609   5.7042   5.8502   5.8900   6.0148
  6.0854   6.2372   6.2813   6.4800   6.5792   6.5954   6.8046   6.8385
  6.8593   6.9260   7.0259   7.0387   7.0871   7.1324   7.1881   7.2188
  7.2765   7.2944   7.3186   7.3698   7.3948   7.4262   7.4826   7.6060
  7.7019   7.7640   7.8064   7.8431   8.0145   8.0841  24.8242  50.4054
 50.4902  50.5668  50.5938
 
 Beta MOs
 -- Occupied --
-19.4490 -19.4016 -19.3695 -19.3692 -10.5130  -1.3250  -1.2334  -1.1674
 -0.9605  -0.7971  -0.7016  -0.6687  -0.6345  -0.5878  -0.5335  -0.5133
 -0.4985  -0.4650  -0.4410  -0.3824
 -- Virtual --
 -0.0324   0.0319   0.0489   0.0591   0.0827   0.1091   0.1196   0.1447
  0.1664   0.1943   0.2098   0.2152   0.2303   0.2325   0.2519   0.2574
  0.2745   0.2779   0.2812   0.2911   0.3024   0.3199   0.3275   0.3471
  0.3533   0.3678   0.3950   0.4053   0.4083   0.4420   0.4526   0.5891
  0.5907   0.6030   0.6698   0.6797   0.6860   0.7867   0.8118   0.8419
  0.8502   0.8738   0.9648   0.9916   1.0244   1.0679   1.0775   1.1118
  1.1236   1.1330   1.1479   1.1645   1.1888   1.2009   1.2207   1.2278
  1.2592   1.3200   1.3414   1.3981   1.4297   1.4648   1.4736   1.5021
  1.5405   1.5616   1.5784   1.6260   1.6586   1.6983   1.7737   1.8119
  1.8588   1.8820   1.9842   2.0300   2.0661   2.1605   2.1757   2.2357
  2.2783   2.3020   2.3255   2.3656   2.4177   2.4620   2.5246   2.6850
  2.7015   2.7913   2.8782   3.1945   3.2358   3.2757   3.3205   3.3336
  3.4287   3.4405   3.4745   3.5402   3.6756   3.6895   3.7486   3.7758
  3.8102   3.8245   3.8508   3.9477   4.1287   4.1585   4.2240   4.2928
  4.3824   4.3979   4.5928   4.7094   4.8266   4.8456   4.9768   5.0960
  5.1163   5.1262   5.1504   5.1590   5.1773   5.1923   5.2208   5.2323
  5.2503   5.2713   5.2783   5.3031   5.3139   5.3569   5.3873   5.4287
  5.4990   5.5252   5.6004   5.6290   5.6695   5.7178   5.8597   5.8937
  6.0174   6.0893   6.2414   6.2868   6.5260   6.5898   6.6058   6.8309
  6.8974   6.9387   6.9836   7.0319   7.0475   7.1215   7.1484   7.2198
  7.2244   7.2811   7.2981   7.3268   7.3838   7.4130   7.4516   7.5044
  7.6078   7.7074   7.7698   7.8106   7.8464   8.0259   8.1045  24.8240
 50.4183  50.4990  50.5671  50.5943
 --------------------------------------------------------------
 
          Ground-State Mulliken Net Atomic Charges

     Atom                 Charge (a.u.)    Spin (a.u.)
  --------------------------------------------------------
      1 C                     0.096884      -0.003387
      2 O                    -0.403208       0.002321
      3 O                    -0.416406       0.000252
      4 O                    -0.019718       0.311394
      5 O                    -0.241623       0.684049
      6 H                     0.348516       0.000392
      7 H                     0.341521      -0.000250
      8 H                     0.294035       0.005229
  --------------------------------------------------------
  Sum of atomic charges =     0.000000
  Sum of spin   charges =     1.000000

 -----------------------------------------------------------------
                    Cartesian Multipole Moments
 -----------------------------------------------------------------
    Charge (ESU x 10^10)
                 0.0000
    Dipole Moment (Debye)
         X      -1.4383      Y      -0.9319      Z      -3.0139
       Tot       3.4671
    Quadrupole Moments (Debye-Ang)
        XX     -28.0189     XY       1.6934     YY     -32.3889
        XZ      -0.8768     YZ      -3.9571     ZZ     -26.7048
    Octopole Moments (Debye-Ang^2)
       XXX      76.5044    XXY      14.0666    XYY      22.6898
       YYY      49.5401    XXZ     -17.8788    XYZ       9.0741
       YYZ     -14.9804    XZZ      12.4823    YZZ       6.5382
       ZZZ     -58.6691
    Hexadecapole Moments (Debye-Ang^3)
      XXXX    -242.6006   XXXY     -64.3389   XXYY     -77.2084
      XYYY     -53.8402   YYYY    -261.7155   XXXZ      13.7415
      XXYZ     -13.6859   XYYZ     -14.8401   YYYZ     -11.6800
      XXZZ     -48.6475   XYZZ      -4.2029   YYZZ     -67.4139
      XZZZ       9.3372   YZZZ     -10.6690   ZZZZ    -184.1144
 -----------------------------------------------------------------
 Calculating analytic gradient of the SCF energy
 Gradient of CDS energy
            1           2           3           4           5           6
    1  -0.0029895  -0.0008824   0.0042120   0.0000671  -0.0000546  -0.0001894
    2  -0.0050867   0.0038273   0.0010949   0.0000179   0.0000884  -0.0002582
    3  -0.0000909  -0.0033060   0.0030603   0.0001888   0.0000157   0.0003343
            7           8
    1  -0.0002976   0.0001343
    2   0.0000538   0.0002625
    3  -0.0003968   0.0001946
 Gradient of SCF Energy
            1           2           3           4           5           6
    1  -0.0106644   0.0148333  -0.0026266   0.0004317   0.0007234  -0.0114057
    2  -0.0022232   0.0016167  -0.0122350   0.0026473  -0.0006154  -0.0024588
    3   0.0085720  -0.0052649   0.0150536   0.0001440   0.0015895   0.0064126
            7           8
    1   0.0010522   0.0076561
    2   0.0111363   0.0021321
    3  -0.0170233  -0.0094835
 Max gradient component =       1.702E-02
 RMS gradient           =       8.118E-03
 Computing fast CPCM-SWIG gradient
 Updating gradient with PCM contributions...
 -- total gradient after adding PCM contribution --
---------------------------------------------------
  Atom         X              Y              Z     
---------------------------------------------------
   1      -0.001248      -0.000352       0.000144
   2       0.000167       0.000019      -0.000086
   3       0.000472       0.000070       0.000119
   4       0.000157       0.000036       0.000015
   5      -0.000008       0.000039       0.000118
   6      -0.000112       0.000039      -0.000075
   7       0.000077       0.000080      -0.000048
   8       0.000495       0.000069      -0.000188
---------------------------------------------------
 Number of fixed atoms: 0
 Gradient time:  CPU 39.69 s  wall 5.83 s
 ----------------------------------------------------------------
             Standard Nuclear Orientation (Angstroms)
    I     Atom           X                Y                Z
 ----------------------------------------------------------------
    1      C      -0.7815818513    -0.8611260838     0.2169192630
    2      O      -0.5677313100    -1.8388176903     1.1426543543
    3      O      -1.9177326486    -1.1046415258    -0.5122751814
    4      O      -1.0492303607     0.4294279566     0.9158763606
    5      O       0.0279106599     0.8641850188     1.5019380736
    6      H      -1.3980157501    -2.0228529546     1.6064418571
    7      H      -1.9185720505    -0.5486092031    -1.3022780715
    8      H       0.1189209115    -0.7025546179    -0.3693780555
 ----------------------------------------------------------------
 Nuclear Repulsion Energy =         190.14071165 hartrees
 There are       21 alpha and       20 beta electrons
 Discretize the solute cavity surface with Lebedev spheres
	Using 110 Lebedev grid points for each H atom
	Using 194 Lebedev grid points for other atoms
	Atomic van der Waals radii will be scaled by 1.20
 Remove points where switching function is < 1.0e-08
 Keep 738 surface tesserae and discard 562 interior tesserae
 Molecular Surface Area = 88.060 Angst**2

                       Distance Matrix (Angstroms)
             C (  1)   O (  2)   O (  3)   O (  4)   O (  5)   H (  6)
   O (  2)  1.363304
   O (  3)  1.371810  2.258387
   O (  4)  1.491880  2.329851  2.268762
   O (  5)  2.298532  2.791075  3.423282  1.301044
   H (  6)  1.913210  0.968680  2.366892  2.571422  3.221673
   H (  7)  1.923116  3.076866  0.966063  2.575368  3.694376  3.302276
   H (  8)  1.086184  2.012170  2.080878  2.073123  2.442290  2.819246
             H (  7)
   H (  8)  2.246192
 
 Requested basis set is 6-311++G(2df,2p)
 There are 58 shells and 200 basis functions
 A cutoff of  1.0D-12 yielded   1654 shell pairs
 There are     19905 function pairs (     25247 Cartesian)
 Smallest overlap matrix eigenvalue = 3.66E-04
 Guess MOs from SCF MO coefficient file

 -----------------------------------------------------------------------
  General SCF calculation program by
  Eric Jon Sundstrom, Paul Horn, Yuezhi Mao, Dmitri Zuev, Alec White,
  David Stuck, Shaama M.S., Shane Yost, Joonho Lee, David Small,
  Daniel Levine, Susi Lehtola, Hugh Burton, Evgeny Epifanovsky,
  Bang C. Huynh
 -----------------------------------------------------------------------
 Exchange:     0.1500 Hartree-Fock + 1.0000 wB97M-V + LR-HF
 Correlation:  1.0000 wB97M-V
 Using SG-2 standard quadrature grid
 Nonlocal Correlation:  VV10 with C = 0.0100 and b = 6.00 and scale = 1.00000
 Grid used for NLC:  SG-1 standard quadrature
 
 Citation of the SMD model:
 Marenich, A.V.; Cramer, C.J.; Truhlar, D.G.
 J. Phys. Chem. B 2009, 113, 6378-6396.
 iSolventCode=           1
 Solvent: water                                                           
 
 vradii
            1           2           3           4           5           6
    1   1.8500000   1.5200000   1.5200000   1.5200000   1.5200000   1.2000000
            7           8
    1   1.2000000   1.2000000
 -------------------------------------------------------
 OpenMP BLAS3 based DFT computing Module                
 Release: version 1.0, May 2013, Q-Chem Inc. Pittsburgh 
 -------------------------------------------------------
 A unrestricted SCF calculation will be
 performed using Roothaan-Hall, DIIS, GDM
 SCF converges when RMS gradient is below 1.0e-07
 ---------------------------------------
  Cycle       Energy         DIIS error
 ---------------------------------------
    1    -340.6900379634      3.36e-04  Roothaan Step
 ---------------------------------------
  Cycle       Energy         DIIS error
 ---------------------------------------
    1    -340.7145654644      3.78e-04  
    2    -340.7168930090      3.55e-04  Done DIIS. Switching to GDM
 ---------------------------------------
  Cycle       Energy        RMS Gradient
 ---------------------------------------
    1    -340.7168930090      1.90e-02   Normal BFGS step
    2    -340.7159107379      3.21e-02  Line search: overstep
    3    -340.7184710931      3.18e-03   Normal BFGS step
    4    -340.7185581874      9.92e-04   Normal BFGS step
    5    -340.7185827816      7.56e-04   Normal BFGS step
    6    -340.7185863320      3.77e-04   Normal BFGS step
    7    -340.7185870938      2.39e-04   Normal BFGS step
    8    -340.7185874737      5.69e-05   Normal BFGS step
    9    -340.7185875239      4.45e-05   Normal BFGS step
   10    -340.7185875300      4.09e-05   Normal BFGS step
   11    -340.7185875336      3.53e-05   Normal BFGS step
   12    -340.7185875372      2.47e-05   Normal BFGS step
   13    -340.7185875402      9.03e-06   Normal BFGS step
   14    -340.7185875412      3.33e-06   Normal BFGS step
   15    -340.7185875413      9.87e-07   Normal BFGS step
   16    -340.7185875414      4.49e-07   Normal BFGS step
   17    -340.7185875414      1.39e-07   Normal BFGS step
   18    -340.7185875414      4.45e-08  Convergence criterion met
 ---------------------------------------
 SCF time:   CPU 300.71s  wall 38.00s 
<S^2> =          0.753862571
(3)  G-ENP(liq) elect-nuc-pol free energy of system     -340.718587541 a.u.
(4)  G-CDS(liq) cavity-dispersion-solvent structure 
     free energy                                                2.2326 kcal/mol
(6)  G-S(liq) free energy of system                     -340.715029593 a.u.
 SCF   energy in the final basis set =     -340.7150295934
 Total energy in the final basis set =     -340.7150295934
 
 --------------------------------------------------------------
 
                    Orbital Energies (a.u.)
 --------------------------------------------------------------
 
 Alpha MOs
 -- Occupied --
-19.4593 -19.4207 -19.3694 -19.3693 -10.5127  -1.3497  -1.2365  -1.1673
 -0.9964  -0.8031  -0.7032  -0.6807  -0.6549  -0.6048  -0.5866  -0.5218
 -0.5029  -0.4700  -0.4464  -0.4018  -0.4004
 -- Virtual --
  0.0316   0.0487   0.0585   0.0819   0.1079   0.1190   0.1442   0.1623
  0.1923   0.2059   0.2134   0.2283   0.2301   0.2474   0.2559   0.2696
  0.2725   0.2768   0.2875   0.3019   0.3187   0.3262   0.3445   0.3516
  0.3669   0.3937   0.4022   0.4060   0.4411   0.4518   0.5884   0.5906
  0.6027   0.6689   0.6793   0.6863   0.7857   0.8111   0.8401   0.8484
  0.8716   0.9638   0.9890   1.0216   1.0586   1.0713   1.1063   1.1139
  1.1303   1.1324   1.1534   1.1806   1.1929   1.2140   1.2256   1.2513
  1.3170   1.3378   1.3959   1.4258   1.4492   1.4711   1.4986   1.5303
  1.5530   1.5703   1.6070   1.6509   1.6775   1.7642   1.8032   1.8489
  1.8787   1.9819   2.0268   2.0598   2.1497   2.1673   2.2296   2.2737
  2.2940   2.3142   2.3627   2.4135   2.4582   2.5202   2.6764   2.6978
  2.7901   2.8775   3.1929   3.2352   3.2752   3.3196   3.3325   3.4286
  3.4409   3.4729   3.5401   3.6754   3.6883   3.7473   3.7755   3.8101
  3.8241   3.8503   3.9486   4.1284   4.1578   4.2235   4.2923   4.3820
  4.3977   4.5554   4.6897   4.8018   4.8340   4.9583   5.0299   5.0646
  5.0746   5.1267   5.1396   5.1467   5.1820   5.2032   5.2199   5.2289
  5.2550   5.2704   5.2905   5.3043   5.3417   5.3780   5.4220   5.4969
  5.5140   5.5886   5.6237   5.6608   5.7042   5.8501   5.8891   6.0146
  6.0848   6.2352   6.2797   6.4798   6.5793   6.5950   6.8041   6.8369
  6.8592   6.9259   7.0259   7.0387   7.0870   7.1326   7.1883   7.2189
  7.2764   7.2940   7.3182   7.3696   7.3947   7.4262   7.4825   7.6056
  7.7019   7.7640   7.8062   7.8429   8.0144   8.0842  24.8232  50.4053
 50.4902  50.5665  50.5934
 
 Beta MOs
 -- Occupied --
-19.4492 -19.4017 -19.3694 -19.3691 -10.5130  -1.3252  -1.2331  -1.1671
 -0.9607  -0.7972  -0.7013  -0.6688  -0.6346  -0.5879  -0.5336  -0.5131
 -0.4986  -0.4649  -0.4409  -0.3825
 -- Virtual --
 -0.0325   0.0319   0.0489   0.0591   0.0827   0.1091   0.1196   0.1447
  0.1664   0.1943   0.2099   0.2151   0.2304   0.2326   0.2519   0.2574
  0.2745   0.2779   0.2812   0.2911   0.3024   0.3199   0.3275   0.3468
  0.3533   0.3676   0.3950   0.4053   0.4083   0.4420   0.4525   0.5892
  0.5908   0.6030   0.6696   0.6796   0.6860   0.7868   0.8118   0.8418
  0.8501   0.8737   0.9648   0.9917   1.0244   1.0679   1.0774   1.1117
  1.1236   1.1331   1.1479   1.1646   1.1887   1.2009   1.2205   1.2279
  1.2591   1.3200   1.3414   1.3979   1.4297   1.4648   1.4736   1.5022
  1.5405   1.5618   1.5787   1.6259   1.6587   1.6983   1.7737   1.8118
  1.8588   1.8821   1.9843   2.0296   2.0662   2.1603   2.1756   2.2358
  2.2781   2.3022   2.3254   2.3650   2.4171   2.4621   2.5244   2.6849
  2.7003   2.7912   2.8780   3.1946   3.2361   3.2754   3.3203   3.3331
  3.4290   3.4405   3.4741   3.5401   3.6756   3.6900   3.7489   3.7755
  3.8100   3.8246   3.8504   3.9490   4.1288   4.1581   4.2243   4.2934
  4.3830   4.3987   4.5927   4.7093   4.8267   4.8455   4.9769   5.0964
  5.1162   5.1262   5.1506   5.1599   5.1771   5.1923   5.2209   5.2322
  5.2501   5.2713   5.2782   5.3033   5.3139   5.3568   5.3873   5.4284
  5.4991   5.5254   5.6002   5.6289   5.6694   5.7178   5.8596   5.8929
  6.0172   6.0886   6.2392   6.2855   6.5258   6.5899   6.6054   6.8289
  6.8974   6.9387   6.9835   7.0318   7.0475   7.1215   7.1486   7.2199
  7.2246   7.2810   7.2977   7.3265   7.3836   7.4130   7.4515   7.5043
  7.6074   7.7073   7.7697   7.8105   7.8461   8.0258   8.1047  24.8230
 50.4183  50.4989  50.5668  50.5939
 --------------------------------------------------------------
 
          Ground-State Mulliken Net Atomic Charges

     Atom                 Charge (a.u.)    Spin (a.u.)
  --------------------------------------------------------
      1 C                     0.096844      -0.003373
      2 O                    -0.403744       0.002375
      3 O                    -0.416925       0.000256
      4 O                    -0.019439       0.311062
      5 O                    -0.241245       0.684339
      6 H                     0.348579       0.000390
      7 H                     0.341405      -0.000250
      8 H                     0.294525       0.005201
  --------------------------------------------------------
  Sum of atomic charges =    -0.000000
  Sum of spin   charges =     1.000000

 -----------------------------------------------------------------
                    Cartesian Multipole Moments
 -----------------------------------------------------------------
    Charge (ESU x 10^10)
                -0.0000
    Dipole Moment (Debye)
         X      -1.4305      Y      -0.9215      Z      -3.0106
       Tot       3.4582
    Quadrupole Moments (Debye-Ang)
        XX     -28.0320     XY       1.6806     YY     -32.4004
        XZ      -0.8818     YZ      -3.9512     ZZ     -26.7051
    Octopole Moments (Debye-Ang^2)
       XXX      76.5227    XXY      14.0832    XYY      22.7003
       YYY      49.5663    XXZ     -17.8680    XYZ       9.0750
       YYZ     -14.9822    XZZ      12.4857    YZZ       6.5484
       ZZZ     -58.6594
    Hexadecapole Moments (Debye-Ang^3)
      XXXX    -242.6250   XXXY     -64.3534   XXYY     -77.2147
      XYYY     -53.8497   YYYY    -261.7305   XXXZ      13.7158
      XXYZ     -13.6851   XYYZ     -14.8488   YYYZ     -11.6623
      XXZZ     -48.6514   XYZZ      -4.2051   YYZZ     -67.4184
      XZZZ       9.3192   YZZZ     -10.6545   ZZZZ    -184.1173
 -----------------------------------------------------------------
 Calculating analytic gradient of the SCF energy
 Gradient of CDS energy
            1           2           3           4           5           6
    1  -0.0030076  -0.0008845   0.0042388   0.0000654  -0.0000549  -0.0001898
    2  -0.0051117   0.0038463   0.0011040   0.0000171   0.0000884  -0.0002587
    3  -0.0000930  -0.0033206   0.0030756   0.0001898   0.0000160   0.0003346
            7           8
    1  -0.0002994   0.0001321
    2   0.0000528   0.0002617
    3  -0.0003975   0.0001952
 Gradient of SCF Energy
            1           2           3           4           5           6
    1  -0.0093092   0.0145798  -0.0031372   0.0002994   0.0006793  -0.0113714
    2  -0.0014480   0.0013677  -0.0124576   0.0026752  -0.0007133  -0.0025389
    3   0.0081690  -0.0050997   0.0149219   0.0002038   0.0015212   0.0064863
            7           8
    1   0.0011034   0.0071560
    2   0.0111353   0.0019795
    3  -0.0169757  -0.0092269
 Max gradient component =       1.698E-02
 RMS gradient           =       7.973E-03
 Computing fast CPCM-SWIG gradient
 Updating gradient with PCM contributions...
 -- total gradient after adding PCM contribution --
---------------------------------------------------
  Atom         X              Y              Z     
---------------------------------------------------
   1       0.000105       0.000398      -0.000261
   2      -0.000058      -0.000211       0.000072
   3      -0.000019      -0.000143      -0.000003
   4       0.000039       0.000071       0.000078
   5      -0.000056      -0.000063       0.000047
   6      -0.000097      -0.000051       0.000003
   7       0.000113       0.000083      -0.000027
   8      -0.000027      -0.000083       0.000090
---------------------------------------------------
 Number of fixed atoms: 0
 Gradient time:  CPU 40.03 s  wall 5.96 s
 ----------------------------------------------------------------
             Standard Nuclear Orientation (Angstroms)
    I     Atom           X                Y                Z
 ----------------------------------------------------------------
    1      C      -0.7815818513    -0.8631260838     0.2169192630
    2      O      -0.5677313100    -1.8388176903     1.1426543543
    3      O      -1.9177326486    -1.1046415258    -0.5122751814
    4      O      -1.0492303607     0.4294279566     0.9158763606
    5      O       0.0279106599     0.8641850188     1.5019380736
    6      H      -1.3980157501    -2.0228529546     1.6064418571
    7      H      -1.9185720505    -0.5486092031    -1.3022780715
    8      H       0.1189209115    -0.7025546179    -0.3693780555
 ----------------------------------------------------------------
 Nuclear Repulsion Energy =         190.13814163 hartrees
 There are       21 alpha and       20 beta electrons
 Discretize the solute cavity surface with Lebedev spheres
	Using 110 Lebedev grid points for each H atom
	Using 194 Lebedev grid points for other atoms
	Atomic van der Waals radii will be scaled by 1.20
 Remove points where switching function is < 1.0e-08
 Keep 738 surface tesserae and discard 562 interior tesserae
 Molecular Surface Area = 88.065 Angst**2

                       Distance Matrix (Angstroms)
             C (  1)   O (  2)   O (  3)   O (  4)   O (  5)   H (  6)
   O (  2)  1.361871
   O (  3)  1.371456  2.258387
   O (  4)  1.493611  2.329851  2.268762
   O (  5)  2.300034  2.791075  3.423282  1.301044
   H (  6)  1.911996  0.968680  2.366892  2.571422  3.221673
   H (  7)  1.923442  3.076866  0.966063  2.575368  3.694376  3.302276
   H (  8)  1.086477  2.012170  2.080878  2.073123  2.442290  2.819246
             H (  7)
   H (  8)  2.246192
 
 Requested basis set is 6-311++G(2df,2p)
 There are 58 shells and 200 basis functions
 A cutoff of  1.0D-12 yielded   1654 shell pairs
 There are     19905 function pairs (     25247 Cartesian)
 Smallest overlap matrix eigenvalue = 3.66E-04
 Guess MOs from SCF MO coefficient file

 -----------------------------------------------------------------------
  General SCF calculation program by
  Eric Jon Sundstrom, Paul Horn, Yuezhi Mao, Dmitri Zuev, Alec White,
  David Stuck, Shaama M.S., Shane Yost, Joonho Lee, David Small,
  Daniel Levine, Susi Lehtola, Hugh Burton, Evgeny Epifanovsky,
  Bang C. Huynh
 -----------------------------------------------------------------------
 Exchange:     0.1500 Hartree-Fock + 1.0000 wB97M-V + LR-HF
 Correlation:  1.0000 wB97M-V
 Using SG-2 standard quadrature grid
 Nonlocal Correlation:  VV10 with C = 0.0100 and b = 6.00 and scale = 1.00000
 Grid used for NLC:  SG-1 standard quadrature
 
 Citation of the SMD model:
 Marenich, A.V.; Cramer, C.J.; Truhlar, D.G.
 J. Phys. Chem. B 2009, 113, 6378-6396.
 iSolventCode=           1
 Solvent: water                                                           
 
 vradii
            1           2           3           4           5           6
    1   1.8500000   1.5200000   1.5200000   1.5200000   1.5200000   1.2000000
            7           8
    1   1.2000000   1.2000000
 -------------------------------------------------------
 OpenMP BLAS3 based DFT computing Module                
 Release: version 1.0, May 2013, Q-Chem Inc. Pittsburgh 
 -------------------------------------------------------
 A unrestricted SCF calculation will be
 performed using Roothaan-Hall, DIIS, GDM
 SCF converges when RMS gradient is below 1.0e-07
 ---------------------------------------
  Cycle       Energy         DIIS error
 ---------------------------------------
    1    -340.6900704177      3.35e-04  Roothaan Step
 ---------------------------------------
  Cycle       Energy         DIIS error
 ---------------------------------------
    1    -340.7146066347      3.75e-04  
    2    -340.7169578377      3.49e-04  Done DIIS. Switching to GDM
 ---------------------------------------
  Cycle       Energy        RMS Gradient
 ---------------------------------------
    1    -340.7169578377      1.85e-02   Normal BFGS step
    2    -340.7160202538      3.15e-02  Line search: overstep
    3    -340.7184882536      3.24e-03   Normal BFGS step
    4    -340.7185760425      9.89e-04   Normal BFGS step
    5    -340.7186007630      7.68e-04   Normal BFGS step
    6    -340.7186044513      3.83e-04   Normal BFGS step
    7    -340.7186052834      2.36e-04   Normal BFGS step
    8    -340.7186057062      1.04e-04   Normal BFGS step
    9    -340.7186057670      8.37e-05   Normal BFGS step
   10    -340.7186057811      7.34e-05   Normal BFGS step
   11    -340.7186057948      5.51e-05   Normal BFGS step
   12    -340.7186058086      2.55e-05   Normal BFGS step
   13    -340.7186058148      8.24e-06   Normal BFGS step
   14    -340.7186058160      2.80e-06   Normal BFGS step
   15    -340.7186058161      9.00e-07   Normal BFGS step
   16    -340.7186058161      3.91e-07   Normal BFGS step
   17    -340.7186058161      1.09e-07   Normal BFGS step
   18    -340.7186058161      4.14e-08  Convergence criterion met
 ---------------------------------------
 SCF time:   CPU 301.37s  wall 39.00s 
<S^2> =          0.753868209
(3)  G-ENP(liq) elect-nuc-pol free energy of system     -340.718605816 a.u.
(4)  G-CDS(liq) cavity-dispersion-solvent structure 
     free energy                                                2.2447 kcal/mol
(6)  G-S(liq) free energy of system                     -340.715028640 a.u.
 SCF   energy in the final basis set =     -340.7150286403
 Total energy in the final basis set =     -340.7150286403
 
 --------------------------------------------------------------
 
                    Orbital Energies (a.u.)
 --------------------------------------------------------------
 
 Alpha MOs
 -- Occupied --
-19.4590 -19.4205 -19.3695 -19.3694 -10.5127  -1.3493  -1.2368  -1.1677
 -0.9959  -0.8031  -0.7034  -0.6805  -0.6548  -0.6046  -0.5866  -0.5221
 -0.5028  -0.4702  -0.4465  -0.4016  -0.4000
 -- Virtual --
  0.0316   0.0487   0.0585   0.0819   0.1079   0.1190   0.1442   0.1623
  0.1921   0.2057   0.2134   0.2281   0.2302   0.2475   0.2558   0.2697
  0.2725   0.2767   0.2876   0.3018   0.3187   0.3262   0.3448   0.3517
  0.3670   0.3936   0.4020   0.4063   0.4411   0.4519   0.5885   0.5905
  0.6026   0.6691   0.6793   0.6864   0.7855   0.8112   0.8402   0.8483
  0.8716   0.9637   0.9890   1.0216   1.0584   1.0715   1.1064   1.1140
  1.1303   1.1323   1.1533   1.1808   1.1929   1.2141   1.2257   1.2515
  1.3171   1.3380   1.3957   1.4257   1.4492   1.4710   1.4985   1.5302
  1.5530   1.5698   1.6071   1.6509   1.6776   1.7644   1.8036   1.8490
  1.8785   1.9816   2.0270   2.0593   2.1503   2.1670   2.2292   2.2738
  2.2939   2.3141   2.3632   2.4139   2.4581   2.5201   2.6766   2.6986
  2.7903   2.8776   3.1927   3.2345   3.2758   3.3201   3.3327   3.4282
  3.4404   3.4732   3.5406   3.6752   3.6874   3.7467   3.7759   3.8104
  3.8246   3.8507   3.9483   4.1281   4.1582   4.2235   4.2921   4.3820
  4.3980   4.5556   4.6897   4.8014   4.8339   4.9579   5.0300   5.0645
  5.0747   5.1268   5.1396   5.1462   5.1821   5.2032   5.2200   5.2286
  5.2550   5.2707   5.2904   5.3043   5.3413   5.3779   5.4221   5.4966
  5.5139   5.5889   5.6235   5.6610   5.7042   5.8503   5.8886   6.0148
  6.0857   6.2373   6.2818   6.4800   6.5787   6.5949   6.8045   6.8387
  6.8593   6.9260   7.0259   7.0387   7.0871   7.1324   7.1880   7.2188
  7.2764   7.2946   7.3186   7.3694   7.3947   7.4259   7.4824   7.6064
  7.7021   7.7639   7.8061   7.8429   8.0143   8.0840  24.8245  50.4054
 50.4901  50.5666  50.5941
 
 Beta MOs
 -- Occupied --
-19.4489 -19.4015 -19.3694 -19.3693 -10.5130  -1.3249  -1.2334  -1.1674
 -0.9602  -0.7972  -0.7015  -0.6687  -0.6346  -0.5878  -0.5334  -0.5133
 -0.4985  -0.4651  -0.4410  -0.3822
 -- Virtual --
 -0.0322   0.0319   0.0489   0.0591   0.0827   0.1091   0.1196   0.1447
  0.1664   0.1942   0.2097   0.2152   0.2303   0.2324   0.2519   0.2574
  0.2745   0.2779   0.2813   0.2912   0.3024   0.3199   0.3275   0.3471
  0.3534   0.3677   0.3950   0.4052   0.4085   0.4420   0.4526   0.5893
  0.5906   0.6030   0.6698   0.6796   0.6862   0.7866   0.8119   0.8419
  0.8500   0.8738   0.9648   0.9918   1.0244   1.0678   1.0775   1.1118
  1.1236   1.1330   1.1479   1.1645   1.1889   1.2009   1.2207   1.2279
  1.2593   1.3201   1.3417   1.3977   1.4295   1.4648   1.4736   1.5021
  1.5404   1.5618   1.5782   1.6260   1.6587   1.6984   1.7739   1.8122
  1.8589   1.8819   1.9839   2.0298   2.0657   2.1609   2.1753   2.2354
  2.2783   2.3020   2.3254   2.3654   2.4174   2.4620   2.5243   2.6851
  2.7011   2.7914   2.8781   3.1944   3.2354   3.2759   3.3208   3.3334
  3.4286   3.4400   3.4743   3.5406   3.6754   3.6892   3.7482   3.7759
  3.8103   3.8251   3.8508   3.9487   4.1284   4.1584   4.2243   4.2932
  4.3830   4.3989   4.5929   4.7093   4.8263   4.8454   4.9764   5.0961
  5.1163   5.1262   5.1506   5.1596   5.1773   5.1924   5.2207   5.2322
  5.2503   5.2715   5.2783   5.3031   5.3140   5.3564   5.3873   5.4285
  5.4987   5.5253   5.6005   5.6288   5.6696   5.7178   5.8598   5.8922
  6.0173   6.0896   6.2415   6.2873   6.5261   6.5892   6.6053   6.8308
  6.8975   6.9387   6.9836   7.0318   7.0475   7.1215   7.1484   7.2197
  7.2244   7.2810   7.2983   7.3268   7.3834   7.4129   7.4513   7.5042
  7.6082   7.7076   7.7697   7.8102   7.8461   8.0257   8.1045  24.8242
 50.4183  50.4989  50.5669  50.5946
 --------------------------------------------------------------
 
          Ground-State Mulliken Net Atomic Charges

     Atom                 Charge (a.u.)    Spin (a.u.)
  --------------------------------------------------------
      1 C                     0.096800      -0.003410
      2 O                    -0.402658       0.002263
      3 O                    -0.416782       0.000251
      4 O                    -0.020005       0.311736
      5 O                    -0.241972       0.683834
      6 H                     0.348710       0.000390
      7 H                     0.341499      -0.000250
      8 H                     0.294409       0.005185
  --------------------------------------------------------
  Sum of atomic charges =     0.000000
  Sum of spin   charges =     1.000000

 -----------------------------------------------------------------
                    Cartesian Multipole Moments
 -----------------------------------------------------------------
    Charge (ESU x 10^10)
                 0.0000
    Dipole Moment (Debye)
         X      -1.4334      Y      -0.9422      Z      -3.0122
       Tot       3.4664
    Quadrupole Moments (Debye-Ang)
        XX     -28.0297     XY       1.6945     YY     -32.3752
        XZ      -0.8823     YZ      -3.9711     ZZ     -26.7045
    Octopole Moments (Debye-Ang^2)
       XXX      76.5141    XXY      14.0726    XYY      22.6794
       YYY      49.5093    XXZ     -17.8713    XYZ       9.0854
       YYZ     -14.9624    XZZ      12.4763    YZZ       6.5234
       ZZZ     -58.6621
    Hexadecapole Moments (Debye-Ang^3)
      XXXX    -242.6105   XXXY     -64.3529   XXYY     -77.2107
      XYYY     -53.8207   YYYY    -261.6814   XXXZ      13.7215
      XXYZ     -13.7076   XYYZ     -14.8679   YYYZ     -11.7366
      XXZZ     -48.6439   XYZZ      -4.1946   YYZZ     -67.4024
      XZZZ       9.3112   YZZZ     -10.7164   ZZZZ    -184.1122
 -----------------------------------------------------------------
 Calculating analytic gradient of the SCF energy
 Gradient of CDS energy
            1           2           3           4           5           6
    1  -0.0030061  -0.0008759   0.0042297   0.0000664  -0.0000549  -0.0001905
    2  -0.0050630   0.0037970   0.0010955   0.0000180   0.0000892  -0.0002569
    3  -0.0001224  -0.0032801   0.0030699   0.0001881   0.0000155   0.0003332
            7           8
    1  -0.0002984   0.0001297
    2   0.0000537   0.0002665
    3  -0.0003973   0.0001932
 Gradient of SCF Energy
            1           2           3           4           5           6
    1  -0.0095000   0.0146352  -0.0029545   0.0001847   0.0007499  -0.0113989
    2  -0.0027983   0.0019259  -0.0121054   0.0028530  -0.0006638  -0.0025058
    3   0.0086216  -0.0054311   0.0149141   0.0002325   0.0015581   0.0064607
            7           8
    1   0.0010080   0.0072756
    2   0.0111116   0.0021827
    3  -0.0170366  -0.0093193
 Max gradient component =       1.704E-02
 RMS gradient           =       8.027E-03
 Computing fast CPCM-SWIG gradient
 Updating gradient with PCM contributions...
 -- total gradient after adding PCM contribution --
---------------------------------------------------
  Atom         X              Y              Z     
---------------------------------------------------
   1      -0.000095      -0.000902       0.000183
   2      -0.000034       0.000307      -0.000242
   3       0.000161       0.000173      -0.000006
   4      -0.000085       0.000248       0.000105
   5       0.000021      -0.000014       0.000086
   6      -0.000096       0.000011      -0.000044
   7       0.000027       0.000068      -0.000075
   8       0.000102       0.000110      -0.000006
---------------------------------------------------
 Number of fixed atoms: 0
 Gradient time:  CPU 40.30 s  wall 5.85 s
 ----------------------------------------------------------------
             Standard Nuclear Orientation (Angstroms)
    I     Atom           X                Y                Z
 ----------------------------------------------------------------
    1      C      -0.7815818513    -0.8621260838     0.2179192630
    2      O      -0.5677313100    -1.8388176903     1.1426543543
    3      O      -1.9177326486    -1.1046415258    -0.5122751814
    4      O      -1.0492303607     0.4294279566     0.9158763606
    5      O       0.0279106599     0.8641850188     1.5019380736
    6      H      -1.3980157501    -2.0228529546     1.6064418571
    7      H      -1.9185720505    -0.5486092031    -1.3022780715
    8      H       0.1189209115    -0.7025546179    -0.3693780555
 ----------------------------------------------------------------
 Nuclear Repulsion Energy =         190.14806463 hartrees
 There are       21 alpha and       20 beta electrons
 Discretize the solute cavity surface with Lebedev spheres
	Using 110 Lebedev grid points for each H atom
	Using 194 Lebedev grid points for other atoms
	Atomic van der Waals radii will be scaled by 1.20
 Remove points where switching function is < 1.0e-08
 Keep 738 surface tesserae and discard 562 interior tesserae
 Molecular Surface Area = 88.058 Angst**2

                       Distance Matrix (Angstroms)
             C (  1)   O (  2)   O (  3)   O (  4)   O (  5)   H (  6)
   O (  2)  1.361908
   O (  3)  1.372165  2.258387
   O (  4)  1.492277  2.329851  2.268762
   O (  5)  2.298724  2.791075  3.423282  1.301044
   H (  6)  1.911877  0.968680  2.366892  2.571422  3.221673
   H (  7)  1.924068  3.076866  0.966063  2.575368  3.694376  3.302276
   H (  8)  1.086870  2.012170  2.080878  2.073123  2.442290  2.819246
             H (  7)
   H (  8)  2.246192
 
 Requested basis set is 6-311++G(2df,2p)
 There are 58 shells and 200 basis functions
 A cutoff of  1.0D-12 yielded   1654 shell pairs
 There are     19905 function pairs (     25247 Cartesian)
 Smallest overlap matrix eigenvalue = 3.66E-04
 Guess MOs from SCF MO coefficient file

 -----------------------------------------------------------------------
  General SCF calculation program by
  Eric Jon Sundstrom, Paul Horn, Yuezhi Mao, Dmitri Zuev, Alec White,
  David Stuck, Shaama M.S., Shane Yost, Joonho Lee, David Small,
  Daniel Levine, Susi Lehtola, Hugh Burton, Evgeny Epifanovsky,
  Bang C. Huynh
 -----------------------------------------------------------------------
 Exchange:     0.1500 Hartree-Fock + 1.0000 wB97M-V + LR-HF
 Correlation:  1.0000 wB97M-V
 Using SG-2 standard quadrature grid
 Nonlocal Correlation:  VV10 with C = 0.0100 and b = 6.00 and scale = 1.00000
 Grid used for NLC:  SG-1 standard quadrature
 
 Citation of the SMD model:
 Marenich, A.V.; Cramer, C.J.; Truhlar, D.G.
 J. Phys. Chem. B 2009, 113, 6378-6396.
 iSolventCode=           1
 Solvent: water                                                           
 
 vradii
            1           2           3           4           5           6
    1   1.8500000   1.5200000   1.5200000   1.5200000   1.5200000   1.2000000
            7           8
    1   1.2000000   1.2000000
 -------------------------------------------------------
 OpenMP BLAS3 based DFT computing Module                
 Release: version 1.0, May 2013, Q-Chem Inc. Pittsburgh 
 -------------------------------------------------------
 A unrestricted SCF calculation will be
 performed using Roothaan-Hall, DIIS, GDM
 SCF converges when RMS gradient is below 1.0e-07
 ---------------------------------------
  Cycle       Energy         DIIS error
 ---------------------------------------
    1    -340.6900398798      3.37e-04  Roothaan Step
 ---------------------------------------
  Cycle       Energy         DIIS error
 ---------------------------------------
    1    -340.7145876632      3.77e-04  
    2    -340.7169078039      3.54e-04  Done DIIS. Switching to GDM
 ---------------------------------------
  Cycle       Energy        RMS Gradient
 ---------------------------------------
    1    -340.7169078039      1.90e-02   Normal BFGS step
    2    -340.7159237459      3.21e-02  Line search: overstep
    3    -340.7184801552      3.15e-03   Normal BFGS step
    4    -340.7185670295      9.86e-04   Normal BFGS step
    5    -340.7185914464      7.45e-04   Normal BFGS step
    6    -340.7185949880      3.71e-04   Normal BFGS step
    7    -340.7185957564      2.34e-04   Normal BFGS step
    8    -340.7185961469      8.73e-05   Normal BFGS step
    9    -340.7185962033      6.96e-05   Normal BFGS step
   10    -340.7185962138      6.19e-05   Normal BFGS step
   11    -340.7185962227      4.92e-05   Normal BFGS step
   12    -340.7185962325      2.59e-05   Normal BFGS step
   13    -340.7185962375      8.25e-06   Normal BFGS step
   14    -340.7185962387      2.93e-06   Normal BFGS step
   15    -340.7185962388      9.38e-07   Normal BFGS step
   16    -340.7185962388      4.13e-07   Normal BFGS step
   17    -340.7185962388      1.15e-07   Normal BFGS step
   18    -340.7185962388      4.23e-08  Convergence criterion met
[...]
     5   -1.167142333935724e-01  -8.392252944814632e-02  -8.686136901433436e-02
     6    2.024141677172378e-03   2.967303137616374e-03  -4.070738997047234e-04
     7   -2.322054149114572e-04  -1.580959781260819e-03  -5.764004744375231e-06
     8    2.569325480214108e-03  -1.650339594041471e-02  -1.083145893211170e-02

Order 1, Length 24
    Atom      X          Y          Z
     1    4.040410909490377e-02  -7.022803502282494e-03  -5.307103999886413e-02
     2   -5.870650149438966e-03   9.753112733659221e-03   1.291304310241271e-02
     3   -1.810294022783993e-02  -2.392025347041526e-02  -2.240076434208388e-02
     4    1.518365873215176e-01   1.257418037768623e-01   1.705615330264606e-01
     5   -1.713873684594979e-01  -7.533562993736719e-02  -1.000673778341241e-01
     6   -1.320346431998157e-04   4.936615440546072e-04   1.136517746383758e-03
     7   -3.737469827150132e-04  -1.587785254153562e-03   4.608225598142823e-04
     8    3.626042012868608e-03  -2.812205196574014e-02  -9.532033489874614e-03


     5 Order 1, Length 24
    Atom      X          Y          Z
     1   -4.908301095520817e-03  -2.031875909846585e-02  -1.184000827873891e-02
     2    1.961781089257215e-03   3.103701192680192e-03   2.095173400050828e-03
     3    2.004250952694543e-03  -8.222434882779550e-04  -1.310370878219616e-03
     4   -3.390702688549228e-01  -1.167142333935724e-01  -1.713873684594979e-01
     5    3.374297524012062e-01   1.322442845124834e-01   1.815079443633145e-01
     6   -2.352025623278703e-04  -1.187609224056472e-04   3.050928448764055e-05
     7   -1.682231061998759e-04  -2.457037623816375e-04   1.949899230809253e-04
     8    2.986159502361607e-03   2.871694896383092e-03   7.098351873985935e-04

Order 1, Length 24
    Atom      X          Y          Z
     1   -4.098016323544016e-02  -1.311674586092851e-02  -1.542778563884196e-02
     2   -3.474657289961837e-04   2.396038727242825e-03  -1.445819215501821e-03
     3   -4.371763870963056e-03  -9.183948564134582e-03  -9.719950499542454e-03
     4   -8.537022682747557e-02  -8.392252944814632e-02  -7.533562993736719e-02
     5    1.322442845124834e-01   1.020022712412627e-01   1.000128089498814e-01
     6   -3.006556858911669e-04  -2.960053515966273e-04  -4.931004461805511e-04
     7   -3.482291527597568e-05  -5.979111964892077e-04   5.749121499985209e-04
     8   -8.391631342436229e-04   2.718812350494979e-03   1.835023704005406e-03

Order 1, Length 24
    Atom      X          Y          Z
     1   -2.750042113493975e-02  -1.032181730152413e-02  -1.663211312838728e-02
     2    2.508497917713580e-04   3.561855595525197e-03   1.300113088188252e-03
     3   -3.321312255189114e-03  -9.240344663712846e-03  -5.668879343396941e-03
     4   -1.512083602989161e-01  -8.686136901433436e-02  -1.000673778341241e-01
     5    1.815079443633145e-01   1.000128089498814e-01   1.182740834384453e-01
     6   -8.686972716147947e-05  -3.724129111758320e-04  -3.380013681499051e-05
     7    1.116046684066541e-04  -7.850711137043017e-05   9.428373361809207e-04
     8    2.465175816358670e-04   3.299801405237536e-03   1.885095773940351e-03


     6 Order 1, Length 24
    Atom      X          Y          Z
     1    8.199398771381018e-03  -2.302313246636516e-04  -3.734410115766921e-03
     2   -3.848187424579912e-01  -7.649775493208769e-02   2.042837436476121e-01
     3    6.290377149317242e-04   9.042191194691580e-04  -1.032358005068625e-03
     4   -4.177068652871763e-04   2.024141677172378e-03  -1.320346431998157e-04
     5   -2.352025623278703e-04  -3.006556858911669e-04  -8.686972716147947e-05
     6    3.759956892676058e-01   7.245062598332859e-02  -1.976622253006926e-01
     7   -6.189177597781645e-04   1.839887156004036e-04  -2.360914455650278e-04
     8    1.266432085559929e-03   1.465670904758567e-03  -1.399950198240571e-03

Order 1, Length 24
    Atom      X          Y          Z
     1   -3.113765188575134e-02  -1.652853122436935e-02   2.332583612083008e-02
     2   -4.338575223296598e-02  -3.730788870321662e-02   4.644499988743277e-02
     3    9.620485432208375e-04   1.686763398455183e-03  -2.296451007453410e-03
     4   -6.286611603363197e-04   2.967303137616374e-03   4.936615440546072e-04
     5   -1.187609224056472e-04  -2.960053515966273e-04  -3.724129111758320e-04
     6    7.245062598332859e-02   5.054917326126996e-02  -7.023876430367437e-02
     7   -9.069072817652160e-06  -2.118105228419577e-04  -2.869775738153392e-04
     8    1.867212156258964e-03  -8.589924738361992e-04   2.930022464643659e-03

Order 1, Length 24
    Atom      X          Y          Z
     1    2.878586723571090e-02   1.248368927624158e-02  -2.511398871825504e-02
     2    1.689042640339397e-01   5.786224312130628e-02  -1.210351383370807e-01
     3    2.089255208072408e-03  -2.952280627838116e-03   4.316000211357667e-03
     4   -8.549145028744668e-04  -4.070738997047234e-04   1.136517746383758e-03
     5    3.050928448764055e-05  -4.931004461805511e-04  -3.380013681499051e-05
     6   -1.976622253006926e-01  -7.023876430367437e-02   1.411214894778752e-01
     7    1.524366698124651e-04  -1.242764448485303e-04   4.267601016411905e-04
     8   -1.445160349257468e-03   3.869550375814408e-03  -8.177047055412440e-04


     7 Order 1, Length 24
    Atom      X          Y          Z
     1   -3.565210269343622e-03   2.264010539980171e-02  -3.357967708194307e-02
     2   -5.285426919003875e-03   6.165590531190177e-04  -7.187030783135820e-03
     3   -3.325631311706534e-02  -3.542101813341790e-02   2.055591302835173e-02
     4    1.013136270164076e-04  -2.322054149114572e-04  -3.737469827150132e-04
     5   -1.682231061998759e-04  -3.482291527597568e-05   1.116046684066541e-04
     6   -6.189177597781645e-04  -9.069072817652160e-06   1.524366698124651e-04
     7    4.192013133911355e-02   1.196858831364214e-02   1.938546082774729e-02
     8    8.726619056985868e-04   4.718899564675738e-04   9.352191103378215e-04

Order 1, Length 24
    Atom      X          Y          Z
     1   -2.256468391702355e-03   3.931848681078258e-03  -9.594924344973952e-03
     2   -3.061570921739891e-04   1.832692143108783e-03   8.910919373099368e-04
     3   -6.878102051063973e-03  -1.788966189486009e-01   2.472522359293977e-01
     4   -9.667605855779983e-04  -1.580959781260819e-03  -1.587785254153562e-03
     5   -2.457037623816375e-04  -5.979111964892077e-04  -7.850711137043017e-05
     6    1.839887156004036e-04  -2.118105228419577e-04  -1.242764448485303e-04
     7    1.196858831364214e-02   1.757397438780699e-01  -2.355715799397038e-01
     8   -1.499373427342508e-03  -2.169555305333244e-04  -1.186173733166898e-03

Order 1, Length 24
    Atom      X          Y          Z
     1   -1.635350385710707e-03   1.275619620655445e-02  -2.528450652049501e-02
     2   -2.132118383648285e-03  -9.950208765673531e-04   2.506932675508291e-03
     3   -1.693421337118247e-02   2.238358087906268e-01  -3.396214346477773e-01
     4    7.238905673030631e-04  -5.764004744375231e-06   4.608225598142823e-04
     5    1.949899230809253e-04   5.749121499985209e-04   9.428373361809207e-04
     6   -2.360914455650278e-04  -2.869775738153392e-04   4.267601016411905e-04
     7    1.938546082774729e-02  -2.355715799397038e-01   3.583501884692593e-01
     8    6.334201047895903e-04  -3.075372688155437e-04   2.218305579160603e-03


     8 Order 1, Length 24
    Atom      X          Y          Z
     1   -2.426298154704599e-01  -3.412027841942829e-02   1.282143884443954e-01
     2    1.052723409368631e-02   1.928180887729241e-03  -4.851714775662920e-03
     3   -2.845702231393374e-02  -4.362634348235300e-03   2.853574852282157e-03
     4   -5.083499245782853e-03   2.569325480214108e-03   3.626042012868608e-03
     5    2.986159502361607e-03  -8.391631342436229e-04   2.465175816358670e-04
     6    1.266432085559929e-03   1.867212156258964e-03  -1.445160349257468e-03
     7    8.726619056985868e-04  -1.499373427342508e-03   6.334201047895903e-04
     8    2.605177588966621e-01   3.445672267538533e-02  -1.292769600996784e-01

Order 1, Length 24
    Atom      X          Y          Z
     1   -2.990599633168926e-02  -5.109929656276534e-02   2.298626628178501e-02
     2   -2.194144840788010e-02  -9.570058823045093e-03   2.365469288363189e-02
     3   -1.107720383368065e-02   4.764551680376798e-03   5.866114327575285e-04
     4    2.365878645659091e-02  -1.650339594041471e-02  -2.812205196574014e-02
     5    2.871694896383092e-03   2.718812350494979e-03   3.299801405237536e-03
     6    1.465670904758567e-03  -8.589924738361992e-04   3.869550375814408e-03
     7    4.718899564675738e-04  -2.169555305333244e-04  -3.075372688155437e-04
     8    3.445672267538533e-02   7.076534377872173e-02  -2.596725542710956e-02

Order 1, Length 24
    Atom      X          Y          Z
     1    1.221466272277928e-01   2.558116304514884e-02  -1.358383299552965e-01
     2    2.020275976882560e-02   1.233841353061316e-02  -1.691524929378524e-02
     3   -2.796800811465058e-02  -4.699721730962098e-03   9.202361289986711e-03
     4    1.465040817879138e-02  -1.083145893211170e-02  -9.532033489874614e-03
     5    7.098351873985935e-04   1.835023704005406e-03   1.885095773940351e-03
     6   -1.399950198240571e-03   2.930022464643659e-03  -8.177047055412440e-04
     7    9.352191103378215e-04  -1.186173733166898e-03   2.218305579160603e-03
     8   -1.292769600996784e-01  -2.596725542710956e-02   1.497975063999228e-01




 # Finishing finite difference calculation for IDERIV #
 ######################################################
 ######################################################
 Requested basis set is 6-311++G(2df,2p)
 There are 58 shells and 200 basis functions
 **********************************************************************
 **                                                                  **
 **                       VIBRATIONAL ANALYSIS                       **
 **                       --------------------                       **
 **                                                                  **
 **        VIBRATIONAL FREQUENCIES (CM**-1) AND NORMAL MODES         **
 **     FORCE CONSTANTS (mDYN/ANGSTROM) AND REDUCED MASSES (AMU)     **
 **                  INFRARED INTENSITIES (KM/MOL)                   **
 **                                                                  **
 **********************************************************************
 

 Mode:                 1                      2                      3
 Frequency:       102.70                 279.21                 323.44
 Force Cnst:      0.0505                 0.0574                 0.2420
 Red. Mass:       8.1204                 1.2486                 3.9259
 IR Active:          YES                    YES                    YES
 IR Intens:        3.117                132.169                134.018
 Raman Active:       YES                    YES                    YES
               X      Y      Z        X      Y      Z        X      Y      Z
 C          0.014 -0.017  0.132    0.038 -0.027  0.006    0.063 -0.119 -0.007
 O         -0.137 -0.204 -0.021   -0.025 -0.044 -0.012   -0.013 -0.193 -0.064
 O          0.142  0.085 -0.101    0.025 -0.033  0.023   -0.079  0.124  0.140
 O         -0.104 -0.168  0.346    0.033  0.022 -0.070    0.122  0.004 -0.122
 O          0.085  0.290 -0.335   -0.030  0.040  0.027   -0.096  0.226  0.094
 H         -0.225 -0.329 -0.229   -0.070 -0.075 -0.103   -0.101 -0.392 -0.301
 H          0.171  0.374  0.101   -0.472  0.680  0.521    0.350 -0.516 -0.307
 H          0.114  0.116  0.323    0.056 -0.052  0.021    0.036 -0.236 -0.078
 TransDip  -0.009  0.020  0.052   -0.188  0.247  0.198    0.117 -0.297 -0.188

 Mode:                 4                      5                      6
 Frequency:       331.34                 465.49                 566.69
 Force Cnst:      0.0799                 0.7522                 1.0254
 Red. Mass:       1.2351                 5.8916                 5.4196
 IR Active:          YES                    YES                    YES
 IR Intens:      252.392                  5.568                 62.143
 Raman Active:       YES                    YES                    YES
               X      Y      Z        X      Y      Z        X      Y      Z
 C          0.017 -0.032 -0.004    0.058 -0.017  0.092   -0.134  0.029  0.241
 O          0.010 -0.047 -0.011    0.159  0.048  0.187    0.085 -0.266 -0.065
 O         -0.012  0.064 -0.019   -0.001  0.336  0.060    0.065  0.008 -0.022
 O          0.011 -0.066 -0.013   -0.099 -0.169 -0.155   -0.126  0.335 -0.095
 O         -0.040  0.031  0.002   -0.125 -0.189 -0.158    0.038 -0.097 -0.052
 H          0.248  0.645  0.691    0.027 -0.543 -0.284    0.376 -0.233  0.468
 H          0.024  0.131  0.028    0.257  0.431  0.127    0.316  0.042  0.001
 H          0.012 -0.102 -0.031    0.080 -0.101  0.100   -0.080  0.159  0.370
 TransDip   0.171  0.323  0.354    0.055 -0.052  0.003    0.033  0.020  0.250

 Mode:                 7                      8                      9
 Frequency:       610.42                 849.00                1030.37
 Force Cnst:      1.1563                 3.9707                 2.2736
 Red. Mass:       5.2669                 9.3497                 3.6348
 IR Active:          YES                    YES                    YES
 IR Intens:       59.977                331.412                222.071
 Raman Active:       YES                    YES                    YES
               X      Y      Z        X      Y      Z        X      Y      Z
 C          0.185  0.226  0.025   -0.167  0.530  0.370   -0.158 -0.184  0.145
 O         -0.167 -0.029 -0.176    0.005 -0.043 -0.020   -0.068  0.217 -0.204
 O          0.175 -0.005  0.306   -0.094 -0.113 -0.138    0.103 -0.014  0.079
 O         -0.082 -0.041 -0.061    0.218 -0.307 -0.189    0.053 -0.055 -0.020
 O         -0.056 -0.120 -0.089    0.007  0.077  0.056   -0.016  0.010  0.001
 H         -0.257  0.556 -0.102    0.150 -0.347  0.105    0.297 -0.316  0.211
 H         -0.091 -0.418  0.028   -0.113 -0.078 -0.113    0.616  0.214  0.240
 H          0.224  0.257  0.084   -0.206  0.216  0.223   -0.183 -0.210  0.101
 TransDip   0.033  0.244 -0.027    0.123  0.466  0.328    0.029 -0.398  0.262

 Mode:                10                     11                     12
 Frequency:      1121.42                1217.03                1278.44
 Force Cnst:      3.1451                 0.9709                11.1385
 Red. Mass:       4.2447                 1.1125                11.5668
 IR Active:          YES                    YES                    YES
 IR Intens:      416.466                124.473                 27.221
 Raman Active:       YES                    YES                    YES
               X      Y      Z        X      Y      Z        X      Y      Z
 C          0.319 -0.074  0.243   -0.050  0.026 -0.013   -0.016  0.003  0.025
 O          0.007  0.069 -0.094    0.028 -0.041  0.026    0.010 -0.018  0.012
 O         -0.251 -0.069 -0.090    0.006 -0.027  0.019   -0.032 -0.027 -0.031
 O         -0.048  0.036  0.004   -0.003 -0.005 -0.010    0.519  0.190  0.255
 O          0.014 -0.016 -0.007    0.007  0.006  0.006   -0.479 -0.187 -0.257
 H         -0.190  0.374 -0.308   -0.246  0.356 -0.282   -0.074  0.130 -0.066
 H          0.472  0.182  0.070    0.568  0.244  0.198    0.035  0.008 -0.012
 H          0.343  0.013  0.301   -0.338  0.154 -0.408   -0.043  0.503  0.111
 TransDip   0.495 -0.014  0.426    0.075  0.330 -0.114   -0.153 -0.030 -0.061

 Mode:                13                     14                     15
 Frequency:      1339.55                1386.32                1445.13
 Force Cnst:      1.2924                 1.6379                 1.5892
 Red. Mass:       1.2225                 1.4465                 1.2916
 IR Active:          YES                    YES                    YES
 IR Intens:       72.896                 62.182                 86.214
 Raman Active:       YES                    YES                    YES
               X      Y      Z        X      Y      Z        X      Y      Z
 C         -0.062 -0.093 -0.009    0.072  0.061 -0.132   -0.099  0.057 -0.088
 O          0.018  0.005  0.005   -0.063 -0.010  0.030    0.045 -0.012 -0.003
 O          0.002  0.019  0.007   -0.052 -0.040  0.027   -0.016 -0.022  0.025
 O          0.011 -0.034 -0.043   -0.001 -0.005 -0.002    0.009 -0.003  0.009
 O          0.025  0.017  0.018    0.004  0.001  0.003   -0.003  0.002  0.001
 H         -0.103  0.209 -0.114    0.271 -0.474  0.405   -0.105  0.209 -0.177
 H         -0.101 -0.048 -0.038    0.494  0.202  0.177    0.268  0.102  0.098
 H          0.068  0.830  0.456    0.168  0.391  0.066    0.459 -0.452  0.619
 TransDip  -0.212 -0.113 -0.131    0.244  0.035  0.055   -0.080  0.220 -0.183

 Mode:                16                     17                     18
 Frequency:      3161.40                3762.78                3803.20
 Force Cnst:      6.4240                 8.8872                 9.0871
 Red. Mass:       1.0909                 1.0654                 1.0663
 IR Active:          YES                    YES                    YES
 IR Intens:       16.382                162.571                208.427
 Raman Active:       YES                    YES                    YES
               X      Y      Z        X      Y      Z        X      Y      Z
 C         -0.071 -0.014  0.048   -0.002 -0.001  0.002    0.001  0.001 -0.002
 O          0.002  0.000 -0.001   -0.052 -0.013  0.031    0.001 -0.000  0.000
 O          0.001  0.001 -0.001   -0.000  0.001 -0.001   -0.002  0.035 -0.052
 O         -0.000  0.000 -0.000   -0.000  0.000 -0.000    0.000  0.000  0.000
 O          0.000  0.000  0.000   -0.000 -0.000 -0.000    0.000  0.000  0.000
 H         -0.021  0.004  0.003    0.846  0.204 -0.489   -0.012 -0.003  0.007
 H         -0.005 -0.007 -0.000   -0.001 -0.008  0.011    0.014 -0.565  0.822
 H          0.822  0.149 -0.543    0.014  0.004 -0.011   -0.000 -0.001  0.006
 TransDip  -0.109 -0.031  0.063    0.301  0.159 -0.225    0.093 -0.188  0.412

 STANDARD THERMODYNAMIC QUANTITIES AT   298.15 K  AND     1.00 ATM

   This Molecule has  0 Imaginary Frequencies
   Zero point vibrational energy:       32.986 kcal/mol

   Atom    1 Element C  Has Mass   12.00000
   Atom    2 Element O  Has Mass   15.99491
   Atom    3 Element O  Has Mass   15.99491
   Atom    4 Element O  Has Mass   15.99491
   Atom    5 Element O  Has Mass   15.99491
   Atom    6 Element H  Has Mass    1.00783
   Atom    7 Element H  Has Mass    1.00783
   Atom    8 Element H  Has Mass    1.00783
   Molecular Mass:    79.003130 amu
   Principal axes and moments of inertia in amu*Bohr^2:
                             1           2           3
    Eigenvalues --      189.21303   417.63970   559.02841
          X               0.43098    -0.47589     0.76667
          Y               0.74775     0.66393    -0.00823
          Z               0.50510    -0.57683    -0.64198
   Rotational Symmetry Number is   1
   The Molecule is an Asymmetric Top
   Translational Enthalpy:        0.889 kcal/mol
   Rotational Enthalpy:           0.889 kcal/mol
   Vibrational Enthalpy:         34.685 kcal/mol
   gas constant (RT):             0.592 kcal/mol
   Translational Entropy:        39.015  cal/mol.K
   Rotational Entropy:           25.294  cal/mol.K
   Vibrational Entropy:           9.616  cal/mol.K

   Total Enthalpy:               37.055 kcal/mol
   Total Entropy:                73.925  cal/mol.K
 Total job time:  2177.02s(wall), 16880.98s(cpu) 
 Tue Jul 25 21:42:47 2023

        *************************************************************
        *                                                           *
        *  Thank you very much for using Q-Chem.  Have a nice day.  *
        *                                                           *
        *************************************************************


