
Running Job 1 of 1 Q_in.in
qchem Q_in.in_232956.0 /scratch/ari.fischer/qChem1853804.hpc-mn1/qchem232956/ 0
/usr/local/qchem-5.4.1/exe/qcprog.exe_s Q_in.in_232956.0 /scratch/ari.fischer/qChem1853804.hpc-mn1/qchem232956/
                  Welcome to Q-Chem
     A Quantum Leap Into The Future Of Chemistry


 Q-Chem 5.4, Q-Chem, Inc., Pleasanton, CA (2021)

 License issued to: Nanyang Technological University (site)

 E. Epifanovsky,  A. T. B. Gilbert,  Xintian Feng,  Joonho Lee,  Yuezhi Mao,  
 N. Mardirossian,  P. Pokhilko,  A. White,  M. Wormit,  M. P. Coons,  
 A. L. Dempwolff,  Zhengting Gan,  D. Hait,  P. R. Horn,  L. D. Jacobson,  
 I. Kaliman,  J. Kussmann,  A. W. Lange,  Ka Un Lao,  D. S. Levine,  Jie Liu,  
 S. C. McKenzie,  A. F. Morrison,  K. Nanda,  F. Plasser,  D. R. Rehn,  
 M. L. Vidal,  Zhi-Qiang You,  Ying Zhu,  B. Alam,  B. Albrecht,  
 A. Aldossary,  E. Alguire,  J. H. Andersen,  D. Barton,  K. Begam,  A. Behn,  
 Y. A. Bernard,  E. J. Berquist,  H. Burton,  A. Carreras,  K. Carter-Fenk,  
 R. Chakraborty,  A. D. Chien,  K. D. Closser,  V. Cofer-Shabica,  
 S. Dasgupta,  Jia Deng,  M. de Wergifosse,  M. Diedenhofen,  Hainam Do,  
 S. Ehlert,  Po-Tung Fang,  S. Fatehi,  Qingguo Feng,  T. Friedhoff,  
 J. Gayvert,  Qinghui Ge,  G. Gidofalvi,  M. Goldey,  J. Gomes,  
 C. Gonzalez-Espinoza,  S. Gulania,  A. Gunina,  M. W. D. Hanson-Heine,  
 P. H. P. Harbach,  A. W. Hauser,  M. F. Herbst,  M. Hernandez Vera,  
 M. Hodecker,  Z. C. Holden,  S. Houck,  Xunkun Huang,  Kerwin Hui,  
 B. C. Huynh,  M. Ivanov,  Hyunjun Ji,  Hanjie Jiang,  B. Kaduk,  S. Kaehler,  
 K. Khistyaev,  Jaehoon Kim,  P. Klunzinger,  Z. Koczor-Benda,  
 Joong Hoon Koh,  D. Kosenkov,  L. Koulias,  T. Kowalczyk,  C. M. Krauter,  
 K. Kue,  A. Kunitsa,  T. Kus,  A. Landau,  K. V. Lawler,  D. Lefrancois,  
 S. Lehtola,  Rain Li,  Yi-Pei Li,  Jiashu Liang,  M. Liebenthal,  
 Hung-Hsuan Lin,  You-Sheng Lin,  Fenglai Liu,  Kuan-Yu Liu,  
 M. Loipersberger,  A. Luenser,  A. Manjanath,  P. Manohar,  E. Mansoor,  
 S. F. Manzer,  Shan-Ping Mao,  A. V. Marenich,  T. Markovich,  S. Mason,  
 S. A. Maurer,  P. F. McLaughlin,  M. F. S. J. Menger,  J.-M. Mewes,  
 S. A. Mewes,  P. Morgante,  J. W. Mullinax,  K. J. Oosterbaan,  G. Paran,  
 Alexander C. Paul,  Suranjan K. Paul,  F. Pavosevic,  Zheng Pei,  S. Prager,  
 E. I. Proynov,  E. Ramos,  B. Rana,  A. E. Rask,  A. Rettig,  R. M. Richard,  
 F. Rob,  E. Rossomme,  T. Scheele,  M. Scheurer,  M. Schneider,  
 N. Sergueev,  S. M. Sharada,  W. Skomorowski,  D. W. Small,  C. J. Stein,  
 Yu-Chuan Su,  E. J. Sundstrom,  Zhen Tao,  J. Thirman,  T. Tsuchimochi,  
 N. M. Tubman,  S. P. Veccham,  O. Vydrov,  J. Wenzel,  J. Witte,  A. Yamada,  
 Kun Yao,  S. Yeganeh,  S. R. Yost,  A. Zech,  Igor Ying Zhang,  Xing Zhang,  
 Yu Zhang,  D. Zuev,  A. Aspuru-Guzik,  A. T. Bell,  N. A. Besley,  
 K. B. Bravaya,  B. R. Brooks,  D. Casanova,  Jeng-Da Chai,  S. Coriani,  
 C. J. Cramer,  A. E. DePrince, III,  R. A. DiStasio Jr.,  A. Dreuw,  
 B. D. Dunietz,  T. R. Furlani,  W. A. Goddard III,  S. Grimme,  
 S. Hammes-Schiffer,  T. Head-Gordon,  W. J. Hehre,  Chao-Ping Hsu,  
 T.-C. Jagau,  Yousung Jung,  A. Klamt,  Jing Kong,  D. S. Lambrecht,  
 WanZhen Liang,  N. J. Mayhall,  C. W. McCurdy,  J. B. Neaton,  
 C. Ochsenfeld,  J. A. Parkhill,  R. Peverati,  V. A. Rassolov,  Yihan Shao,  
 L. V. Slipchenko,  T. Stauch,  R. P. Steele,  J. E. Subotnik,  
 A. J. W. Thom,  A. Tkatchenko,  D. G. Truhlar,  T. Van Voorhis,  
 T. A. Wesolowski,  K. B. Whaley,  H. L. Woodcock III,  P. M. Zimmerman,  
 S. Faraji,  P. M. W. Gill,  M. Head-Gordon,  J. M. Herbert,  A. I. Krylov

 Additional authors for Version 5.4.1: 
 S. Kotaru,  Shaozhi Li,  Xiangyuan Li,  F. Matz,  A. Molle,  Haisheng Ren,  
 Yingli Su,  Hung-Yi Tsai,  C. Utku,  Fang Wang

 Contributors to earlier versions of Q-Chem not listed above: 
 R. D. Adamson,  B. Austin,  R. Baer,  J. Baker,  G. J. O. Beran,  
 K. Brandhorst,  S. T. Brown,  E. F. C. Byrd,  A. K. Chakraborty,  
 G. K. L. Chan,  Chun-Min Chang,  Yunqing Chen,  C.-L. Cheng,  
 Siu Hung Chien,  D. M. Chipman,  D. L. Crittenden,  H. Dachsel,  
 R. J. Doerksen,  A. D. Dutoi,  R. G. Edgar,  J. Fosso-Tande,  
 L. Fusti-Molnar,  D. Ghosh,  A. Ghysels,  A. Golubeva-Zadorozhnaya,  
 J. Gonthier,  M. S. Gordon,  S. R. Gwaltney,  G. Hawkins,  J. E. Herr,  
 A. Heyden,  S. Hirata,  E. G. Hohenstein,  G. Kedziora,  F. J. Keil,  
 C. Kelley,  Jihan Kim,  R. A. King,  R. Z. Khaliullin,  P. P. Korambath,  
 W. Kurlancheek,  A. Laurent,  A. M. Lee,  M. S. Lee,  S. V. Levchenko,  
 Ching Yeh Lin,  D. Liotard,  E. Livshits,  R. C. Lochan,  I. Lotan,  
 L. A. Martinez-Martinez,  P. E. Maslen,  N. Nair,  D. P. O'Neill,  
 D. Neuhauser,  E. Neuscamman,  C. M. Oana,  R. Olivares-Amaya,  R. Olson,  
 T. M. Perrine,  B. Peters,  P. A. Pieniazek,  A. Prociuk,  Y. M. Rhee,  
 J. Ritchie,  M. A. Rohrdanz,  E. Rosta,  N. J. Russ,  H. F. Schaefer III,  
 M. W. Schmidt,  N. E. Schultz,  S. Sharma,  N. Shenvi,  C. D. Sherrill,  
 A. C. Simmonett,  A. Sodt,  T. Stein,  D. Stuck,  K. S. Thanthiriwatte,  
 V. Vanovschi,  L. Vogt,  Tao Wang,  A. Warshel,  M. A. Watson,  
 C. F. Williams,  Q. Wu,  X. Xu,  Jun Yang,  W. Zhang,  Yan Zhao

 Please cite Q-Chem as follows:
 Y. Shao et al., Mol. Phys. 113, 184-215 (2015)
 DOI: 10.1080/00268976.2014.952696

 Q-Chem 5.4.1 for Intel X86 EM64T Linux

 Parts of Q-Chem use Armadillo 9.800.1 (Horizon Scraper).
 http://arma.sourceforge.net/

 Q-Chem begins on Wed Dec  6 11:01:07 2023  

 Host: 
0

     Scratch files written to /scratch/ari.fischer/qChem1853804.hpc-mn1/qchem232956//
 Aug1521 |scratch|qcdevops|jenkins|workspace|build_RNUM 8249   
 Processing $rem in /usr/local/qchem-5.4.1/config/preferences:
 Processing $rem in /home/ari.fischer/.qchemrc:
 Symmetry turned off for PCM/SM12/SMD calculation

 Checking the input file for inconsistencies... 	...done.

--------------------------------------------------------------
User input:
--------------------------------------------------------------
$molecule
-1 2
C         0.6332016938    0.2492218888    0.7584201423
O         1.4025855345   -0.2466265649    1.5928966321
H        -1.9375709960   -1.0123331655   -0.8866207339
C        -0.5876356319   -0.6521105713    0.4044916578
O        -0.8569532521   -1.6133086963    1.1906387653
O        -1.1874161180   -0.4200235349   -0.6924266891
O         0.6788790895    1.3139223991    0.1285257991
O        -1.4798178908    1.1120009332    2.5219901422
O        -2.4778756125    0.8597842175    1.6870392901
H        -1.6207131163   -2.1609506057    0.9312915941
$end

$rem
BASIS = 6-31G(d)
JOB_TYPE = SP
METHOD = wB97M-V
SCF_ALGORITHM = DIIS_GDM
MAX_SCF_CYCLES = 400
SCF_CONVERGENCE = 7
THRESH = 12
Solvent_method = SMD
$end
--------------------------------------------------------------
 ----------------------------------------------------------------
             Standard Nuclear Orientation (Angstroms)
    I     Atom           X                Y                Z
 ----------------------------------------------------------------
    1      C       0.6332016938     0.2492218888     0.7584201423
    2      O       1.4025855345    -0.2466265649     1.5928966321
    3      H      -1.9375709960    -1.0123331655    -0.8866207339
    4      C      -0.5876356319    -0.6521105713     0.4044916578
    5      O      -0.8569532521    -1.6133086963     1.1906387653
    6      O      -1.1874161180    -0.4200235349    -0.6924266891
    7      O       0.6788790895     1.3139223991     0.1285257991
    8      O      -1.4798178908     1.1120009332     2.5219901422
    9      O      -2.4778756125     0.8597842175     1.6870392901
   10      H      -1.6207131163    -2.1609506057     0.9312915941
 ----------------------------------------------------------------
 Nuclear Repulsion Energy =         379.23554331 hartrees
 There are       32 alpha and       31 beta electrons
 Requested basis set is 6-31G(d)
 There are 36 shells and 124 basis functions

 Total QAlloc Memory Limit 288000 MB
 Mega-Array Size       188 MB
 MEM_STATIC part       192 MB
 
 Citation of the SMD model:
 Marenich, A.V.; Cramer, C.J.; Truhlar, D.G.
 J. Phys. Chem. B 2009, 113, 6378-6396.
 iSolventCode=           1
 Solvent: water                                                           
 
 vradii
            1           2           3           4           5           6
    1   1.8500000   1.5200000   1.2000000   1.8500000   1.5200000   1.5200000
            7           8           9          10
    1   1.5200000   1.5200000   1.5200000   1.2000000
 Changing PCM_VDW_RADII to SMD_RADIUS
 Discretize the solute cavity surface with Lebedev spheres
	Using 110 Lebedev grid points for each H atom
	Using 194 Lebedev grid points for other atoms
	Atomic van der Waals radii will be scaled by 1.20
 Remove points where switching function is < 1.0e-08
 Keep 1045 surface tesserae and discard 727 interior tesserae
 Molecular Surface Area = 126.290 Angst**2

                       Distance Matrix (Angstroms)
             C (  1)   O (  2)   H (  3)   C (  4)   O (  5)   O (  6)
   O (  2)  1.238615
   H (  3)  3.302507  4.229771
   C (  4)  1.558239  2.353233  1.902382
   O (  5)  2.424128  2.671170  2.417419  1.270614
   O (  6)  2.422291  3.458450  0.975333  1.271547  2.253679
   O (  7)  1.237918  2.259081  3.645243  2.354889  3.472110  2.676488
   O (  8)  2.884340  3.319237  4.042395  2.896874  3.096412  3.572824
   O (  9)  3.303623  4.036209  3.228077  2.739299  2.998331  2.994170
   H ( 10)  3.304383  3.639051  2.173598  1.902989  0.974937  2.419718
             O (  7)   O (  8)   O (  9)
   O (  8)  3.229461
   O (  9)  3.549691  1.325472
   H ( 10)  4.243501  3.641756  3.229663
 
 A cutoff of  1.0D-12 yielded    608 shell pairs
 There are      7786 function pairs
 Smallest overlap matrix eigenvalue = 1.77E-03

 Scale SEOQF with 1.000000e-01/1.000000e-01/1.000000e-01

 Standard Electronic Orientation quadrupole field applied
 Nucleus-field energy     =    -0.0000000039 hartrees
 Guess from superposition of atomic densities
 Warning:  Energy on first SCF cycle will be non-variational
 SAD guess density has 62.000000 electrons

 -----------------------------------------------------------------------
  General SCF calculation program by
  Eric Jon Sundstrom, Paul Horn, Yuezhi Mao, Dmitri Zuev, Alec White,
  David Stuck, Shaama M.S., Shane Yost, Joonho Lee, David Small,
  Daniel Levine, Susi Lehtola, Hugh Burton, Evgeny Epifanovsky,
  Bang C. Huynh
 -----------------------------------------------------------------------
 Exchange:     0.1500 Hartree-Fock + 1.0000 wB97M-V + LR-HF
 Correlation:  1.0000 wB97M-V
 Using SG-2 standard quadrature grid
 Nonlocal Correlation:  VV10 with C = 0.0100 and b = 6.00 and scale = 1.00000
 Grid used for NLC:  SG-1 standard quadrature
 
 Citation of the SMD model:
 Marenich, A.V.; Cramer, C.J.; Truhlar, D.G.
 J. Phys. Chem. B 2009, 113, 6378-6396.
 iSolventCode=           1
 Solvent: water                                                           
 
 vradii
            1           2           3           4           5           6
    1   1.8500000   1.5200000   1.2000000   1.8500000   1.5200000   1.5200000
            7           8           9          10
    1   1.5200000   1.5200000   1.5200000   1.2000000
 using 4 threads for integral computing
 -------------------------------------------------------
 OpenMP Integral computing Module                
 Release: version 1.0, May 2013, Q-Chem Inc. Pittsburgh 
 -------------------------------------------------------
 -------------------------------------------------------
 OpenMP BLAS3 based DFT computing Module                
 Release: version 1.0, May 2013, Q-Chem Inc. Pittsburgh 
 -------------------------------------------------------
 A unrestricted SCF calculation will be
 performed using DIIS, GDM
 SCF converges when RMS gradient is below 1.0e-07
 ---------------------------------------
  Cycle       Energy         DIIS error
 ---------------------------------------
    1    -529.5697002249      3.41e-02  
    2    -528.3557206150      6.35e-03  Done DIIS. Switching to GDM
 ---------------------------------------
  Cycle       Energy        RMS Gradient
 ---------------------------------------
    1    -528.3557206150      2.20e-01   Descent step
    2    -528.5681949057      4.99e-02   Normal BFGS step
    3    -528.6029306601      7.78e-03   Normal BFGS step
    4    -528.6041717190      3.90e-03   Normal BFGS step
    5    -528.6044296487      7.26e-04   Normal BFGS step
    6    -528.6044375916      1.46e-03   Normal BFGS step
    7    -528.6044403306      3.27e-04   Normal BFGS step
    8    -528.6044410403      1.37e-04   Normal BFGS step
    9    -528.6044411407      7.79e-05   Normal BFGS step
   10    -528.6044411887      7.79e-05   Normal BFGS step
   11    -528.6044412068      7.78e-05   Normal BFGS step
   12    -528.6044412202      7.71e-05   Normal BFGS step
   13    -528.6044412425      7.52e-05   Normal BFGS step
   14    -528.6044412914      1.07e-04   Normal BFGS step
   15    -528.6044413811      1.53e-04   Normal BFGS step
   16    -528.6044415184      1.66e-04   Normal BFGS step
   17    -528.6044416585      1.26e-04   Normal BFGS step
   18    -528.6044417305      5.46e-05   Normal BFGS step
   19    -528.6044417531      2.09e-05   Normal BFGS step
   20    -528.6044417572      8.82e-06   Normal BFGS step
   21    -528.6044417575      3.88e-06   Normal BFGS step
   22    -528.6044417576      1.49e-06   Normal BFGS step
   23    -528.6044417576      6.08e-07   Normal BFGS step
   24    -528.6044417576      2.31e-07   Normal BFGS step
   25    -528.6044417576      6.41e-08  Convergence criterion met
 ---------------------------------------
 SCF time:   CPU 186.07s  wall 48.00s 
<S^2> =          0.752796391
(3)  G-ENP(liq) elect-nuc-pol free energy of system     -528.604441758 a.u.
(4)  G-CDS(liq) cavity-dispersion-solvent structure 
     free energy                                                5.1142 kcal/mol
(6)  G-S(liq) free energy of system                     -528.596291756 a.u.
 SCF   energy in the final basis set =     -528.5962917555
 Total energy in the final basis set =     -528.5962917555
 
 --------------------------------------------------------------
 
                    Orbital Energies (a.u.)
 --------------------------------------------------------------
 
 Alpha MOs
 -- Occupied --
-19.4540 -19.4539 -19.3257 -19.3253 -19.3066 -19.3062 -10.5525 -10.4711
 -1.3181  -1.2370  -1.1820  -1.1727  -1.0875  -0.8581  -0.8311  -0.7669
 -0.6974  -0.6241  -0.6139  -0.5545  -0.5300  -0.5268  -0.5150  -0.4999
 -0.4874  -0.4839  -0.4572  -0.3686  -0.3628  -0.3579  -0.2890  -0.2566
 -- Virtual --
  0.0321   0.1441   0.1916   0.2137   0.3250   0.3286   0.3453   0.4216
  0.4245   0.5983   0.6214   0.6272   0.6743   0.6921   0.7095   0.7601
  0.7927   0.8402   0.8578   0.9059   0.9142   0.9348   0.9610   0.9642
  1.0018   1.0149   1.0362   1.0560   1.0687   1.0885   1.1218   1.1328
  1.1524   1.1597   1.2066   1.2642   1.2830   1.3370   1.3825   1.4308
  1.4470   1.4857   1.5638   1.5725   1.6770   1.6801   1.6849   1.7040
  1.7300   1.7691   1.8016   1.8478   1.8735   1.8810   1.9284   1.9481
  1.9534   1.9853   2.0384   2.0677   2.0875   2.1120   2.1415   2.1796
  2.2426   2.2727   2.3696   2.4282   2.4493   2.5588   2.6113   2.6466
  2.6548   2.6679   2.7260   2.8316   2.8719   2.9068   3.0100   3.0214
  3.0723   3.0969   3.2189   3.3159   3.4844   3.8196   3.8620   4.1563
  4.2129   4.2480   4.6606   4.7731
 
 Beta MOs
 -- Occupied --
-19.4540 -19.4540 -19.3122 -19.3116 -19.3066 -19.3062 -10.5525 -10.4711
 -1.3182  -1.2370  -1.1731  -1.1528  -1.0876  -0.8582  -0.7896  -0.7669
 -0.6974  -0.6239  -0.6139  -0.5545  -0.5300  -0.5268  -0.5135  -0.4954
 -0.4655  -0.4423  -0.4046  -0.3684  -0.3625  -0.3578  -0.2376
 -- Virtual --
  0.0322   0.0792   0.1443   0.1918   0.2138   0.3265   0.3422   0.3522
  0.4222   0.4249   0.5995   0.6229   0.6277   0.6757   0.6928   0.7118
  0.7610   0.7931   0.8407   0.8591   0.9141   0.9215   0.9394   0.9668
  0.9700   1.0046   1.0158   1.0497   1.0584   1.0875   1.0962   1.1335
  1.1427   1.1663   1.1695   1.2106   1.2724   1.2860   1.3391   1.3849
  1.4309   1.4485   1.4946   1.5641   1.5740   1.6821   1.6911   1.7074
  1.7148   1.7341   1.7746   1.8024   1.8596   1.8761   1.8856   1.9323
  1.9503   1.9555   1.9920   2.0439   2.0719   2.1063   2.1163   2.1608
  2.1856   2.2500   2.2758   2.3703   2.4311   2.4668   2.5590   2.6131
  2.6487   2.6652   2.6895   2.7338   2.8320   2.8720   2.9072   3.0102
  3.0221   3.0744   3.1102   3.2189   3.3162   3.5125   3.8429   3.8624
  4.1570   4.2136   4.2495   4.6607   4.7734
 --------------------------------------------------------------
 
          Ground-State Mulliken Net Atomic Charges

     Atom                 Charge (a.u.)    Spin (a.u.)
  --------------------------------------------------------
      1 C                     0.547692      -0.001116
      2 O                    -0.638691      -0.000512
      3 H                     0.517441      -0.000119
      4 C                     0.606611      -0.002641
      5 O                    -0.489307      -0.000306
      6 O                    -0.490035      -0.000203
      7 O                    -0.639734      -0.000136
      8 O                    -0.463179       0.506359
      9 O                    -0.468972       0.498689
     10 H                     0.518174      -0.000014
  --------------------------------------------------------
  Sum of atomic charges =    -1.000000
  Sum of spin   charges =     1.000000

 -----------------------------------------------------------------
                    Cartesian Multipole Moments
 -----------------------------------------------------------------
    Charge (ESU x 10^10)
                -4.8032
    Dipole Moment (Debye)
         X      -2.2843      Y     -12.6734      Z     -12.8755
       Tot      18.2103
    Quadrupole Moments (Debye-Ang)
        XX     -57.4219     XY      18.0216     YY     -44.3560
        XZ      11.4726     YZ      -8.3777     ZZ     -71.1577
    Octopole Moments (Debye-Ang^2)
       XXX      77.9814    XXY     -44.2861    XYY       7.2133
       YYY     -44.3080    XXZ     -90.5216    XYZ      21.5352
       YYZ     -51.7808    XZZ      45.0888    YZZ     -26.5537
       ZZZ    -191.6302
    Hexadecapole Moments (Debye-Ang^3)
      XXXX    -585.7969   XXXY      96.5425   XXYY    -116.1201
      XYYY      57.3147   YYYY    -247.3744   XXXZ     170.1728
      XXYZ     -52.5334   XYYZ      41.8741   YYYZ     -65.7769
      XXZZ    -251.1007   XYZZ      56.4379   YYZZ    -157.4946
      XZZZ     165.0660   YZZZ     -92.3951   ZZZZ    -670.5004
 -----------------------------------------------------------------
 Total job time:  48.49s(wall), 187.67s(cpu) 
 Wed Dec  6 11:01:56 2023

        *************************************************************
        *                                                           *
        *  Thank you very much for using Q-Chem.  Have a nice day.  *
        *                                                           *
        *************************************************************


