
Running Job 1 of 1 Q_in.in
qchem Q_in.in_233222.0 /scratch/ari.fischer/qChem1853807.hpc-mn1/qchem233222/ 0
/usr/local/qchem-5.4.1/exe/qcprog.exe_s Q_in.in_233222.0 /scratch/ari.fischer/qChem1853807.hpc-mn1/qchem233222/
                  Welcome to Q-Chem
     A Quantum Leap Into The Future Of Chemistry


 Q-Chem 5.4, Q-Chem, Inc., Pleasanton, CA (2021)

 License issued to: Nanyang Technological University (site)

 E. Epifanovsky,  A. T. B. Gilbert,  Xintian Feng,  Joonho Lee,  Yuezhi Mao,  
 N. Mardirossian,  P. Pokhilko,  A. White,  M. Wormit,  M. P. Coons,  
 A. L. Dempwolff,  Zhengting Gan,  D. Hait,  P. R. Horn,  L. D. Jacobson,  
 I. Kaliman,  J. Kussmann,  A. W. Lange,  Ka Un Lao,  D. S. Levine,  Jie Liu,  
 S. C. McKenzie,  A. F. Morrison,  K. Nanda,  F. Plasser,  D. R. Rehn,  
 M. L. Vidal,  Zhi-Qiang You,  Ying Zhu,  B. Alam,  B. Albrecht,  
 A. Aldossary,  E. Alguire,  J. H. Andersen,  D. Barton,  K. Begam,  A. Behn,  
 Y. A. Bernard,  E. J. Berquist,  H. Burton,  A. Carreras,  K. Carter-Fenk,  
 R. Chakraborty,  A. D. Chien,  K. D. Closser,  V. Cofer-Shabica,  
 S. Dasgupta,  Jia Deng,  M. de Wergifosse,  M. Diedenhofen,  Hainam Do,  
 S. Ehlert,  Po-Tung Fang,  S. Fatehi,  Qingguo Feng,  T. Friedhoff,  
 J. Gayvert,  Qinghui Ge,  G. Gidofalvi,  M. Goldey,  J. Gomes,  
 C. Gonzalez-Espinoza,  S. Gulania,  A. Gunina,  M. W. D. Hanson-Heine,  
 P. H. P. Harbach,  A. W. Hauser,  M. F. Herbst,  M. Hernandez Vera,  
 M. Hodecker,  Z. C. Holden,  S. Houck,  Xunkun Huang,  Kerwin Hui,  
 B. C. Huynh,  M. Ivanov,  Hyunjun Ji,  Hanjie Jiang,  B. Kaduk,  S. Kaehler,  
 K. Khistyaev,  Jaehoon Kim,  P. Klunzinger,  Z. Koczor-Benda,  
 Joong Hoon Koh,  D. Kosenkov,  L. Koulias,  T. Kowalczyk,  C. M. Krauter,  
 K. Kue,  A. Kunitsa,  T. Kus,  A. Landau,  K. V. Lawler,  D. Lefrancois,  
 S. Lehtola,  Rain Li,  Yi-Pei Li,  Jiashu Liang,  M. Liebenthal,  
 Hung-Hsuan Lin,  You-Sheng Lin,  Fenglai Liu,  Kuan-Yu Liu,  
 M. Loipersberger,  A. Luenser,  A. Manjanath,  P. Manohar,  E. Mansoor,  
 S. F. Manzer,  Shan-Ping Mao,  A. V. Marenich,  T. Markovich,  S. Mason,  
 S. A. Maurer,  P. F. McLaughlin,  M. F. S. J. Menger,  J.-M. Mewes,  
 S. A. Mewes,  P. Morgante,  J. W. Mullinax,  K. J. Oosterbaan,  G. Paran,  
 Alexander C. Paul,  Suranjan K. Paul,  F. Pavosevic,  Zheng Pei,  S. Prager,  
 E. I. Proynov,  E. Ramos,  B. Rana,  A. E. Rask,  A. Rettig,  R. M. Richard,  
 F. Rob,  E. Rossomme,  T. Scheele,  M. Scheurer,  M. Schneider,  
 N. Sergueev,  S. M. Sharada,  W. Skomorowski,  D. W. Small,  C. J. Stein,  
 Yu-Chuan Su,  E. J. Sundstrom,  Zhen Tao,  J. Thirman,  T. Tsuchimochi,  
 N. M. Tubman,  S. P. Veccham,  O. Vydrov,  J. Wenzel,  J. Witte,  A. Yamada,  
 Kun Yao,  S. Yeganeh,  S. R. Yost,  A. Zech,  Igor Ying Zhang,  Xing Zhang,  
 Yu Zhang,  D. Zuev,  A. Aspuru-Guzik,  A. T. Bell,  N. A. Besley,  
 K. B. Bravaya,  B. R. Brooks,  D. Casanova,  Jeng-Da Chai,  S. Coriani,  
 C. J. Cramer,  A. E. DePrince, III,  R. A. DiStasio Jr.,  A. Dreuw,  
 B. D. Dunietz,  T. R. Furlani,  W. A. Goddard III,  S. Grimme,  
 S. Hammes-Schiffer,  T. Head-Gordon,  W. J. Hehre,  Chao-Ping Hsu,  
 T.-C. Jagau,  Yousung Jung,  A. Klamt,  Jing Kong,  D. S. Lambrecht,  
 WanZhen Liang,  N. J. Mayhall,  C. W. McCurdy,  J. B. Neaton,  
 C. Ochsenfeld,  J. A. Parkhill,  R. Peverati,  V. A. Rassolov,  Yihan Shao,  
 L. V. Slipchenko,  T. Stauch,  R. P. Steele,  J. E. Subotnik,  
 A. J. W. Thom,  A. Tkatchenko,  D. G. Truhlar,  T. Van Voorhis,  
 T. A. Wesolowski,  K. B. Whaley,  H. L. Woodcock III,  P. M. Zimmerman,  
 S. Faraji,  P. M. W. Gill,  M. Head-Gordon,  J. M. Herbert,  A. I. Krylov

 Additional authors for Version 5.4.1: 
 S. Kotaru,  Shaozhi Li,  Xiangyuan Li,  F. Matz,  A. Molle,  Haisheng Ren,  
 Yingli Su,  Hung-Yi Tsai,  C. Utku,  Fang Wang

 Contributors to earlier versions of Q-Chem not listed above: 
 R. D. Adamson,  B. Austin,  R. Baer,  J. Baker,  G. J. O. Beran,  
 K. Brandhorst,  S. T. Brown,  E. F. C. Byrd,  A. K. Chakraborty,  
 G. K. L. Chan,  Chun-Min Chang,  Yunqing Chen,  C.-L. Cheng,  
 Siu Hung Chien,  D. M. Chipman,  D. L. Crittenden,  H. Dachsel,  
 R. J. Doerksen,  A. D. Dutoi,  R. G. Edgar,  J. Fosso-Tande,  
 L. Fusti-Molnar,  D. Ghosh,  A. Ghysels,  A. Golubeva-Zadorozhnaya,  
 J. Gonthier,  M. S. Gordon,  S. R. Gwaltney,  G. Hawkins,  J. E. Herr,  
 A. Heyden,  S. Hirata,  E. G. Hohenstein,  G. Kedziora,  F. J. Keil,  
 C. Kelley,  Jihan Kim,  R. A. King,  R. Z. Khaliullin,  P. P. Korambath,  
 W. Kurlancheek,  A. Laurent,  A. M. Lee,  M. S. Lee,  S. V. Levchenko,  
 Ching Yeh Lin,  D. Liotard,  E. Livshits,  R. C. Lochan,  I. Lotan,  
 L. A. Martinez-Martinez,  P. E. Maslen,  N. Nair,  D. P. O'Neill,  
 D. Neuhauser,  E. Neuscamman,  C. M. Oana,  R. Olivares-Amaya,  R. Olson,  
 T. M. Perrine,  B. Peters,  P. A. Pieniazek,  A. Prociuk,  Y. M. Rhee,  
 J. Ritchie,  M. A. Rohrdanz,  E. Rosta,  N. J. Russ,  H. F. Schaefer III,  
 M. W. Schmidt,  N. E. Schultz,  S. Sharma,  N. Shenvi,  C. D. Sherrill,  
 A. C. Simmonett,  A. Sodt,  T. Stein,  D. Stuck,  K. S. Thanthiriwatte,  
 V. Vanovschi,  L. Vogt,  Tao Wang,  A. Warshel,  M. A. Watson,  
 C. F. Williams,  Q. Wu,  X. Xu,  Jun Yang,  W. Zhang,  Yan Zhao

 Please cite Q-Chem as follows:
 Y. Shao et al., Mol. Phys. 113, 184-215 (2015)
 DOI: 10.1080/00268976.2014.952696

 Q-Chem 5.4.1 for Intel X86 EM64T Linux

 Parts of Q-Chem use Armadillo 9.800.1 (Horizon Scraper).
 http://arma.sourceforge.net/

 Q-Chem begins on Wed Dec  6 11:03:31 2023  

 Host: 
0

     Scratch files written to /scratch/ari.fischer/qChem1853807.hpc-mn1/qchem233222//
 Aug1521 |scratch|qcdevops|jenkins|workspace|build_RNUM 8249   
 Processing $rem in /usr/local/qchem-5.4.1/config/preferences:
 Processing $rem in /home/ari.fischer/.qchemrc:
 Symmetry turned off for PCM/SM12/SMD calculation

 Checking the input file for inconsistencies... 	...done.

--------------------------------------------------------------
User input:
--------------------------------------------------------------
$molecule
-1 2
C         1.4980164545    0.7660547243   -0.1383624944
O         1.8026323618    1.4121745551    0.8766832452
O         1.9798924524    0.8168866210   -1.2928620119
C         0.3676719600   -0.2762671958    0.0083766160
O        -0.0592124773   -0.7989272362   -1.1237456197
O        -0.4187979559   -0.3089060280    1.0215964248
H         0.0738809553   -1.0384616266    1.7114023966
O         1.5892850633   -1.6572546214    0.7212176276
O         1.0518619496   -1.9085083887    1.8610669549
H         0.5714289363   -0.4987389036   -1.8095437390
$end

$rem
BASIS = 6-31G(d)
JOB_TYPE = SP
METHOD = wB97M-V
SCF_ALGORITHM = DIIS_GDM
MAX_SCF_CYCLES = 400
SCF_CONVERGENCE = 7
THRESH = 12
Solvent_method = SMD
$end
--------------------------------------------------------------
 ----------------------------------------------------------------
             Standard Nuclear Orientation (Angstroms)
    I     Atom           X                Y                Z
 ----------------------------------------------------------------
    1      C       1.4980164545     0.7660547243    -0.1383624944
    2      O       1.8026323618     1.4121745551     0.8766832452
    3      O       1.9798924524     0.8168866210    -1.2928620119
    4      C       0.3676719600    -0.2762671958     0.0083766160
    5      O      -0.0592124773    -0.7989272362    -1.1237456197
    6      O      -0.4187979559    -0.3089060280     1.0215964248
    7      H       0.0738809553    -1.0384616266     1.7114023966
    8      O       1.5892850633    -1.6572546214     0.7212176276
    9      O       1.0518619496    -1.9085083887     1.8610669549
   10      H       0.5714289363    -0.4987389036    -1.8095437390
 ----------------------------------------------------------------
 Nuclear Repulsion Energy =         396.51812469 hartrees
 There are       32 alpha and       31 beta electrons
 Requested basis set is 6-31G(d)
 There are 36 shells and 124 basis functions

 Total QAlloc Memory Limit 288000 MB
 Mega-Array Size       188 MB
 MEM_STATIC part       192 MB
 
 Citation of the SMD model:
 Marenich, A.V.; Cramer, C.J.; Truhlar, D.G.
 J. Phys. Chem. B 2009, 113, 6378-6396.
 iSolventCode=           1
 Solvent: water                                                           
 
 vradii
            1           2           3           4           5           6
    1   1.8500000   1.5200000   1.5200000   1.8500000   1.5200000   1.5200000
            7           8           9          10
    1   1.2000000   1.5200000   1.5200000   1.2000000
 Changing PCM_VDW_RADII to SMD_RADIUS
 Discretize the solute cavity surface with Lebedev spheres
	Using 110 Lebedev grid points for each H atom
	Using 194 Lebedev grid points for other atoms
	Atomic van der Waals radii will be scaled by 1.20
 Remove points where switching function is < 1.0e-08
 Keep 951 surface tesserae and discard 821 interior tesserae
 Molecular Surface Area = 113.207 Angst**2

                       Distance Matrix (Angstroms)
             C (  1)   O (  2)   O (  3)   C (  4)   O (  5)   O (  6)
   O (  2)  1.241201
   O (  3)  1.252061  2.256705
   C (  4)  1.544554  2.379896  2.342533
   O (  5)  2.417666  3.515274  2.607183  1.317993
   O (  6)  2.485000  2.813871  3.518216  1.283049  2.229779
   H (  7)  2.950605  3.113030  4.012580  1.888796  2.848360  1.118399
   O (  8)  2.572865  3.080760  3.214104  1.976767  2.618809  2.437349
   O (  9)  3.368985  3.543953  4.270397  2.562184  3.372649  2.329437
   H ( 10)  2.291531  3.518987  1.995395  1.842782  0.978847  3.005319
             H (  7)   O (  8)   O (  9)
   O (  8)  1.913066
   O (  9)  1.317508  1.284994
   H ( 10)  3.596653  2.963603  3.961269
 
 A cutoff of  1.0D-12 yielded    613 shell pairs
 There are      7752 function pairs
 Smallest overlap matrix eigenvalue = 1.77E-03

 Scale SEOQF with 1.000000e-01/1.000000e-01/1.000000e-01

 Standard Electronic Orientation quadrupole field applied
 Nucleus-field energy     =     0.0000000015 hartrees
 Guess from superposition of atomic densities
 Warning:  Energy on first SCF cycle will be non-variational
 SAD guess density has 62.000000 electrons

 -----------------------------------------------------------------------
  General SCF calculation program by
  Eric Jon Sundstrom, Paul Horn, Yuezhi Mao, Dmitri Zuev, Alec White,
  David Stuck, Shaama M.S., Shane Yost, Joonho Lee, David Small,
  Daniel Levine, Susi Lehtola, Hugh Burton, Evgeny Epifanovsky,
  Bang C. Huynh
 -----------------------------------------------------------------------
 Exchange:     0.1500 Hartree-Fock + 1.0000 wB97M-V + LR-HF
 Correlation:  1.0000 wB97M-V
 Using SG-2 standard quadrature grid
 Nonlocal Correlation:  VV10 with C = 0.0100 and b = 6.00 and scale = 1.00000
 Grid used for NLC:  SG-1 standard quadrature
 
 Citation of the SMD model:
 Marenich, A.V.; Cramer, C.J.; Truhlar, D.G.
 J. Phys. Chem. B 2009, 113, 6378-6396.
 iSolventCode=           1
 Solvent: water                                                           
 
 vradii
            1           2           3           4           5           6
    1   1.8500000   1.5200000   1.5200000   1.8500000   1.5200000   1.5200000
            7           8           9          10
    1   1.2000000   1.5200000   1.5200000   1.2000000
 using 4 threads for integral computing
 -------------------------------------------------------
 OpenMP Integral computing Module                
 Release: version 1.0, May 2013, Q-Chem Inc. Pittsburgh 
 -------------------------------------------------------
 -------------------------------------------------------
 OpenMP BLAS3 based DFT computing Module                
 Release: version 1.0, May 2013, Q-Chem Inc. Pittsburgh 
 -------------------------------------------------------
 A unrestricted SCF calculation will be
 performed using DIIS, GDM
 SCF converges when RMS gradient is below 1.0e-07
 ---------------------------------------
  Cycle       Energy         DIIS error
 ---------------------------------------
    1    -529.8052450028      3.41e-02  
    2    -528.3999390104      6.39e-03  Done DIIS. Switching to GDM
 ---------------------------------------
  Cycle       Energy        RMS Gradient
 ---------------------------------------
    1    -528.3999390104      1.74e-01   Descent step
    2    -528.6095003138      4.33e-02   Normal BFGS step
    3    -528.6404400077      9.07e-03   Normal BFGS step
    4    -528.6411087970      9.93e-03   Normal BFGS step
    5    -528.6415515917      2.17e-03   Normal BFGS step
    6    -528.6416070970      1.40e-03   Normal BFGS step
    7    -528.6416212066      8.20e-04   Normal BFGS step
    8    -528.6416249632      4.16e-04   Normal BFGS step
    9    -528.6416262724      3.76e-04   Normal BFGS step
   10    -528.6416266389      2.66e-04   Normal BFGS step
   11    -528.6416267878      1.16e-04   Normal BFGS step
   12    -528.6416268784      1.16e-04   Normal BFGS step
   13    -528.6416269208      8.23e-05   Normal BFGS step
   14    -528.6416269424      2.01e-05   Normal BFGS step
   15    -528.6416269457      6.66e-06   Normal BFGS step
   16    -528.6416269467      3.21e-06   Normal BFGS step
   17    -528.6416269468      1.58e-06   Normal BFGS step
   18    -528.6416269468      8.66e-07   Normal BFGS step
   19    -528.6416269468      3.25e-07   Normal BFGS step
   20    -528.6416269468      9.22e-08  Convergence criterion met
 ---------------------------------------
 SCF time:   CPU 152.82s  wall 39.00s 
<S^2> =          0.754968989
(3)  G-ENP(liq) elect-nuc-pol free energy of system     -528.641626947 a.u.
(4)  G-CDS(liq) cavity-dispersion-solvent structure 
     free energy                                                4.4950 kcal/mol
(6)  G-S(liq) free energy of system                     -528.634463752 a.u.
 SCF   energy in the final basis set =     -528.6344637519
 Total energy in the final basis set =     -528.6344637519
 
 --------------------------------------------------------------
 
                    Orbital Energies (a.u.)
 --------------------------------------------------------------
 
 Alpha MOs
 -- Occupied --
-19.4394 -19.4367 -19.3958 -19.3635 -19.3042 -19.2992 -10.5081 -10.4537
 -1.3271  -1.2435  -1.1657  -1.1609  -1.0762  -0.9371  -0.7748  -0.7190
 -0.6853  -0.6057  -0.5954  -0.5873  -0.5813  -0.5285  -0.5225  -0.5081
 -0.4920  -0.4654  -0.4408  -0.3771  -0.3679  -0.3590  -0.3493  -0.3401
 -- Virtual --
  0.0715   0.2091   0.2141   0.2513   0.3056   0.3541   0.3893   0.4310
  0.4564   0.5820   0.6316   0.6642   0.6862   0.7079   0.7310   0.7619
  0.7925   0.8123   0.8580   0.8821   0.9360   0.9543   0.9672   0.9697
  1.0217   1.0572   1.0688   1.1015   1.1114   1.1158   1.1584   1.1855
  1.1943   1.2123   1.2309   1.2522   1.3005   1.3314   1.3921   1.4354
  1.5064   1.5493   1.5702   1.6129   1.6497   1.6621   1.6790   1.7355
  1.7681   1.7721   1.8485   1.8651   1.9054   1.9213   1.9476   1.9679
  1.9885   2.0047   2.0556   2.0724   2.1452   2.1696   2.1909   2.2478
  2.3163   2.3581   2.4160   2.4926   2.5664   2.5845   2.6199   2.6289
  2.6924   2.7151   2.7689   2.8639   2.8680   2.9132   3.0156   3.0271
  3.0618   3.0780   3.2325   3.3125   3.5489   3.9246   4.0095   4.1968
  4.2746   4.4379   4.6948   4.7160
 
 Beta MOs
 -- Occupied --
-19.4242 -19.4224 -19.3959 -19.3636 -19.3042 -19.2991 -10.5084 -10.4537
 -1.3002  -1.2417  -1.1654  -1.1609  -1.0761  -0.8974  -0.7727  -0.7176
 -0.6799  -0.6039  -0.5819  -0.5662  -0.5284  -0.5215  -0.5157  -0.5024
 -0.4841  -0.4596  -0.4396  -0.3635  -0.3586  -0.3494  -0.3323
 -- Virtual --
  0.0006   0.0749   0.2100   0.2145   0.2621   0.3187   0.3547   0.3902
  0.4317   0.4569   0.5819   0.6320   0.6656   0.6889   0.7087   0.7360
  0.7626   0.7954   0.8130   0.8601   0.8885   0.9426   0.9622   0.9719
  1.0043   1.0291   1.0607   1.0726   1.1023   1.1151   1.1187   1.1605
  1.1930   1.2008   1.2173   1.2421   1.2578   1.3040   1.3350   1.3962
  1.4409   1.5098   1.5511   1.5731   1.6397   1.6570   1.6702   1.6916
  1.7382   1.7735   1.7790   1.8532   1.8673   1.9116   1.9300   1.9479
  1.9726   1.9897   2.0099   2.0665   2.0750   2.1538   2.1746   2.1922
  2.2537   2.3209   2.3584   2.4357   2.4932   2.5704   2.5893   2.6281
  2.6542   2.6954   2.7182   2.7743   2.8648   2.8685   2.9135   3.0157
  3.0414   3.0620   3.0787   3.2323   3.3125   3.5756   3.9359   4.0200
  4.1980   4.2747   4.4403   4.6947   4.7156
 --------------------------------------------------------------
 
          Ground-State Mulliken Net Atomic Charges

     Atom                 Charge (a.u.)    Spin (a.u.)
  --------------------------------------------------------
      1 C                     0.536266      -0.000031
      2 O                    -0.655209       0.001899
      3 O                    -0.666804      -0.000062
      4 C                     0.562966      -0.022300
      5 O                    -0.584005      -0.004856
      6 O                    -0.658214      -0.001977
      7 H                     0.494084      -0.010207
      8 O                    -0.225214       0.535684
      9 O                    -0.270641       0.501755
     10 H                     0.466772       0.000096
  --------------------------------------------------------
  Sum of atomic charges =    -1.000000
  Sum of spin   charges =     1.000000

 -----------------------------------------------------------------
                    Cartesian Multipole Moments
 -----------------------------------------------------------------
    Charge (ESU x 10^10)
                -4.8032
    Dipole Moment (Debye)
         X      -7.9839      Y      -2.6234      Z      -2.2335
       Tot       8.6956
    Quadrupole Moments (Debye-Ang)
        XX     -65.3939     XY      -7.3803     YY     -57.1890
        XZ      -1.4129     YZ       1.3909     ZZ     -50.4583
    Octopole Moments (Debye-Ang^2)
       XXX    -169.7828    XXY      -4.0697    XYY     -66.2687
       YYY      34.0149    XXZ      -9.0674    XYZ       6.5521
       YYZ     -20.0902    XZZ     -58.1074    YZZ       5.6314
       ZZZ     -37.7581
    Hexadecapole Moments (Debye-Ang^3)
      XXXX    -562.3973   XXXY     -49.4769   XXYY    -186.5867
      XYYY     -18.0695   YYYY    -419.1491   XXXZ     -11.9681
      XXYZ      31.3365   XYYZ     -25.9975   YYYZ      77.0998
      XXZZ    -171.2042   XYZZ     -12.8868   YYZZ    -143.6449
      XZZZ     -28.3874   YZZZ      82.1455   ZZZZ    -336.4712
 -----------------------------------------------------------------
 Total job time:  39.75s(wall), 154.42s(cpu) 
 Wed Dec  6 11:04:10 2023

        *************************************************************
        *                                                           *
        *  Thank you very much for using Q-Chem.  Have a nice day.  *
        *                                                           *
        *************************************************************


