
Running Job 1 of 1 Q_in.in
qchem Q_in.in_44220.0 /scratch/ari.fischer/qChem1789183.hpc-mn1/qchem44220/ 0
/usr/local/qchem-5.4.1/exe/qcprog.exe_s Q_in.in_44220.0 /scratch/ari.fischer/qChem1789183.hpc-mn1/qchem44220/
                  Welcome to Q-Chem
     A Quantum Leap Into The Future Of Chemistry


 Q-Chem 5.4, Q-Chem, Inc., Pleasanton, CA (2021)

 License issued to: Nanyang Technological University (site)

 E. Epifanovsky,  A. T. B. Gilbert,  Xintian Feng,  Joonho Lee,  Yuezhi Mao,  
 N. Mardirossian,  P. Pokhilko,  A. White,  M. Wormit,  M. P. Coons,  
 A. L. Dempwolff,  Zhengting Gan,  D. Hait,  P. R. Horn,  L. D. Jacobson,  
 I. Kaliman,  J. Kussmann,  A. W. Lange,  Ka Un Lao,  D. S. Levine,  Jie Liu,  
 S. C. McKenzie,  A. F. Morrison,  K. Nanda,  F. Plasser,  D. R. Rehn,  
 M. L. Vidal,  Zhi-Qiang You,  Ying Zhu,  B. Alam,  B. Albrecht,  
 A. Aldossary,  E. Alguire,  J. H. Andersen,  D. Barton,  K. Begam,  A. Behn,  
 Y. A. Bernard,  E. J. Berquist,  H. Burton,  A. Carreras,  K. Carter-Fenk,  
 R. Chakraborty,  A. D. Chien,  K. D. Closser,  V. Cofer-Shabica,  
 S. Dasgupta,  Jia Deng,  M. de Wergifosse,  M. Diedenhofen,  Hainam Do,  
 S. Ehlert,  Po-Tung Fang,  S. Fatehi,  Qingguo Feng,  T. Friedhoff,  
 J. Gayvert,  Qinghui Ge,  G. Gidofalvi,  M. Goldey,  J. Gomes,  
 C. Gonzalez-Espinoza,  S. Gulania,  A. Gunina,  M. W. D. Hanson-Heine,  
 P. H. P. Harbach,  A. W. Hauser,  M. F. Herbst,  M. Hernandez Vera,  
 M. Hodecker,  Z. C. Holden,  S. Houck,  Xunkun Huang,  Kerwin Hui,  
 B. C. Huynh,  M. Ivanov,  Hyunjun Ji,  Hanjie Jiang,  B. Kaduk,  S. Kaehler,  
 K. Khistyaev,  Jaehoon Kim,  P. Klunzinger,  Z. Koczor-Benda,  
 Joong Hoon Koh,  D. Kosenkov,  L. Koulias,  T. Kowalczyk,  C. M. Krauter,  
 K. Kue,  A. Kunitsa,  T. Kus,  A. Landau,  K. V. Lawler,  D. Lefrancois,  
 S. Lehtola,  Rain Li,  Yi-Pei Li,  Jiashu Liang,  M. Liebenthal,  
 Hung-Hsuan Lin,  You-Sheng Lin,  Fenglai Liu,  Kuan-Yu Liu,  
 M. Loipersberger,  A. Luenser,  A. Manjanath,  P. Manohar,  E. Mansoor,  
 S. F. Manzer,  Shan-Ping Mao,  A. V. Marenich,  T. Markovich,  S. Mason,  
 S. A. Maurer,  P. F. McLaughlin,  M. F. S. J. Menger,  J.-M. Mewes,  
 S. A. Mewes,  P. Morgante,  J. W. Mullinax,  K. J. Oosterbaan,  G. Paran,  
 Alexander C. Paul,  Suranjan K. Paul,  F. Pavosevic,  Zheng Pei,  S. Prager,  
 E. I. Proynov,  E. Ramos,  B. Rana,  A. E. Rask,  A. Rettig,  R. M. Richard,  
 F. Rob,  E. Rossomme,  T. Scheele,  M. Scheurer,  M. Schneider,  
 N. Sergueev,  S. M. Sharada,  W. Skomorowski,  D. W. Small,  C. J. Stein,  
 Yu-Chuan Su,  E. J. Sundstrom,  Zhen Tao,  J. Thirman,  T. Tsuchimochi,  
 N. M. Tubman,  S. P. Veccham,  O. Vydrov,  J. Wenzel,  J. Witte,  A. Yamada,  
 Kun Yao,  S. Yeganeh,  S. R. Yost,  A. Zech,  Igor Ying Zhang,  Xing Zhang,  
 Yu Zhang,  D. Zuev,  A. Aspuru-Guzik,  A. T. Bell,  N. A. Besley,  
 K. B. Bravaya,  B. R. Brooks,  D. Casanova,  Jeng-Da Chai,  S. Coriani,  
 C. J. Cramer,  A. E. DePrince, III,  R. A. DiStasio Jr.,  A. Dreuw,  
 B. D. Dunietz,  T. R. Furlani,  W. A. Goddard III,  S. Grimme,  
 S. Hammes-Schiffer,  T. Head-Gordon,  W. J. Hehre,  Chao-Ping Hsu,  
 T.-C. Jagau,  Yousung Jung,  A. Klamt,  Jing Kong,  D. S. Lambrecht,  
 WanZhen Liang,  N. J. Mayhall,  C. W. McCurdy,  J. B. Neaton,  
 C. Ochsenfeld,  J. A. Parkhill,  R. Peverati,  V. A. Rassolov,  Yihan Shao,  
 L. V. Slipchenko,  T. Stauch,  R. P. Steele,  J. E. Subotnik,  
 A. J. W. Thom,  A. Tkatchenko,  D. G. Truhlar,  T. Van Voorhis,  
 T. A. Wesolowski,  K. B. Whaley,  H. L. Woodcock III,  P. M. Zimmerman,  
 S. Faraji,  P. M. W. Gill,  M. Head-Gordon,  J. M. Herbert,  A. I. Krylov

 Additional authors for Version 5.4.1: 
 S. Kotaru,  Shaozhi Li,  Xiangyuan Li,  F. Matz,  A. Molle,  Haisheng Ren,  
 Yingli Su,  Hung-Yi Tsai,  C. Utku,  Fang Wang

 Contributors to earlier versions of Q-Chem not listed above: 
 R. D. Adamson,  B. Austin,  R. Baer,  J. Baker,  G. J. O. Beran,  
 K. Brandhorst,  S. T. Brown,  E. F. C. Byrd,  A. K. Chakraborty,  
 G. K. L. Chan,  Chun-Min Chang,  Yunqing Chen,  C.-L. Cheng,  
 Siu Hung Chien,  D. M. Chipman,  D. L. Crittenden,  H. Dachsel,  
 R. J. Doerksen,  A. D. Dutoi,  R. G. Edgar,  J. Fosso-Tande,  
 L. Fusti-Molnar,  D. Ghosh,  A. Ghysels,  A. Golubeva-Zadorozhnaya,  
 J. Gonthier,  M. S. Gordon,  S. R. Gwaltney,  G. Hawkins,  J. E. Herr,  
 A. Heyden,  S. Hirata,  E. G. Hohenstein,  G. Kedziora,  F. J. Keil,  
 C. Kelley,  Jihan Kim,  R. A. King,  R. Z. Khaliullin,  P. P. Korambath,  
 W. Kurlancheek,  A. Laurent,  A. M. Lee,  M. S. Lee,  S. V. Levchenko,  
 Ching Yeh Lin,  D. Liotard,  E. Livshits,  R. C. Lochan,  I. Lotan,  
 L. A. Martinez-Martinez,  P. E. Maslen,  N. Nair,  D. P. O'Neill,  
 D. Neuhauser,  E. Neuscamman,  C. M. Oana,  R. Olivares-Amaya,  R. Olson,  
 T. M. Perrine,  B. Peters,  P. A. Pieniazek,  A. Prociuk,  Y. M. Rhee,  
 J. Ritchie,  M. A. Rohrdanz,  E. Rosta,  N. J. Russ,  H. F. Schaefer III,  
 M. W. Schmidt,  N. E. Schultz,  S. Sharma,  N. Shenvi,  C. D. Sherrill,  
 A. C. Simmonett,  A. Sodt,  T. Stein,  D. Stuck,  K. S. Thanthiriwatte,  
 V. Vanovschi,  L. Vogt,  Tao Wang,  A. Warshel,  M. A. Watson,  
 C. F. Williams,  Q. Wu,  X. Xu,  Jun Yang,  W. Zhang,  Yan Zhao

 Please cite Q-Chem as follows:
 Y. Shao et al., Mol. Phys. 113, 184-215 (2015)
 DOI: 10.1080/00268976.2014.952696

 Q-Chem 5.4.1 for Intel X86 EM64T Linux

 Parts of Q-Chem use Armadillo 9.800.1 (Horizon Scraper).
 http://arma.sourceforge.net/

 Q-Chem begins on Mon Oct  2 18:31:14 2023  

 Host: 
0

     Scratch files written to /scratch/ari.fischer/qChem1789183.hpc-mn1/qchem44220//
 Aug1521 |scratch|qcdevops|jenkins|workspace|build_RNUM 8249   
 Processing $rem in /usr/local/qchem-5.4.1/config/preferences:
 Processing $rem in /home/ari.fischer/.qchemrc:
 Symmetry turned off for PCM/SM12/SMD calculation


!!********************************************.
!!******************Warning*******************.
!!Desired Analytical derivatives not available.
!!Finite difference job might take a long time.
!!********************************************.
!!********************************************.


 2-order derivative to be evaluated numerically with 1-order analytical derivatives

 Checking the input file for inconsistencies... 	...done.

--------------------------------------------------------------
User input:
--------------------------------------------------------------
$molecule
-1 2
C         1.8089773900    0.1597908005   -1.5221501325
C         0.5792040988   -0.2991611523   -2.3054470286
O         0.6197325970   -1.7125805858   -2.2890431111
O         0.6655800822    0.2056558943   -3.6177985492
O         2.9496862201    0.0916683647   -2.0773576167
H        -0.2563330744   -2.0459168085   -2.5118039659
H        -0.2076477017    0.1496441022   -4.0202819741
H         1.7139920902   -0.1336964048   -0.4646467700
H        -0.3383111293    0.0472027698   -1.8278475356
O         1.3247484052    1.7812610481   -1.2728154322
O         2.2184430219    2.6226479715   -1.6799752844
$end

$rem
BASIS = 6-311++G(2df,2p)
GUI = 2
JOB_TYPE = Frequency
METHOD = wB97M-V
SOLVENT_METHOD = SMD
SCF_ALGORITHM = DIIS_GDM
MAX_SCF_CYCLES = 400
SCF_CONVERGENCE = 7
THRESH = 12
$end
--------------------------------------------------------------
 ----------------------------------------------------------------
             Standard Nuclear Orientation (Angstroms)
    I     Atom           X                Y                Z
 ----------------------------------------------------------------
    1      C       1.8089773900     0.1597908005    -1.5221501325
    2      C       0.5792040988    -0.2991611523    -2.3054470286
    3      O       0.6197325970    -1.7125805858    -2.2890431111
    4      O       0.6655800822     0.2056558943    -3.6177985492
    5      O       2.9496862201     0.0916683647    -2.0773576167
    6      H      -0.2563330744    -2.0459168085    -2.5118039659
    7      H      -0.2076477017     0.1496441022    -4.0202819741
    8      H       1.7139920902    -0.1336964048    -0.4646467700
    9      H      -0.3383111293     0.0472027698    -1.8278475356
   10      O       1.3247484052     1.7812610481    -1.2728154322
   11      O       2.2184430219     2.6226479715    -1.6799752844
 ----------------------------------------------------------------
 Nuclear Repulsion Energy =         321.90445532 hartrees
 There are       29 alpha and       28 beta electrons
 Requested basis set is 6-311++G(2df,2p)
 There are 80 shells and 278 basis functions

 Total QAlloc Memory Limit 288000 MB
 Mega-Array Size       188 MB
 MEM_STATIC part       192 MB
 
 Citation of the SMD model:
 Marenich, A.V.; Cramer, C.J.; Truhlar, D.G.
 J. Phys. Chem. B 2009, 113, 6378-6396.
 iSolventCode=           1
 Solvent: water                                                           
 
 vradii
            1           2           3           4           5           6
    1   1.8500000   1.8500000   1.5200000   1.5200000   1.5200000   1.2000000
            7           8           9          10          11
    1   1.2000000   1.2000000   1.2000000   1.5200000   1.5200000
 Changing PCM_VDW_RADII to SMD_RADIUS
 Discretize the solute cavity surface with Lebedev spheres
	Using 110 Lebedev grid points for each H atom
	Using 194 Lebedev grid points for other atoms
	Atomic van der Waals radii will be scaled by 1.20
 Remove points where switching function is < 1.0e-08
 Keep 984 surface tesserae and discard 814 interior tesserae
 Molecular Surface Area = 116.403 Angst**2

                       Distance Matrix (Angstroms)
             C (  1)   C (  2)   O (  3)   O (  4)   O (  5)   H (  6)
   C (  2)  1.528572
   O (  3)  2.346956  1.414096
   O (  4)  2.387719  1.408747  2.333950
   O (  5)  1.270477  2.413288  2.954456  2.757371
   H (  6)  3.179633  1.947270  0.963445  2.672588  3.877702
   H (  7)  3.210536  1.939387  2.673879  0.963150  3.707705  2.664275
   H (  8)  1.101576  2.168794  2.649283  3.340164  2.044154  3.424853
   H (  9)  2.171860  1.090827  2.056061  2.058356  3.297751  2.203558
   O ( 10)  1.710500  2.439328  3.706305  2.901031  2.478394  4.322291
   O ( 11)  2.501647  3.408121  4.660584  3.465313  2.664299  5.349014
             H (  7)   H (  8)   H (  9)   O ( 10)
   H (  8)  4.051607
   H (  9)  2.198712  2.470423
   O ( 10)  3.543866  2.114642  2.465925
   O ( 11)  4.180753  3.054329  3.632048  1.293214
 
 A cutoff of  1.0D-12 yielded   2997 shell pairs
 There are     36483 function pairs (     46210 Cartesian)
 Smallest overlap matrix eigenvalue = 5.92E-05
 Guess from superposition of atomic densities
 Warning:  Energy on first SCF cycle will be non-variational
 SAD guess density has 56.000000 electrons

 -----------------------------------------------------------------------
  General SCF calculation program by
  Eric Jon Sundstrom, Paul Horn, Yuezhi Mao, Dmitri Zuev, Alec White,
  David Stuck, Shaama M.S., Shane Yost, Joonho Lee, David Small,
  Daniel Levine, Susi Lehtola, Hugh Burton, Evgeny Epifanovsky,
  Bang C. Huynh
 -----------------------------------------------------------------------
 Exchange:     0.1500 Hartree-Fock + 1.0000 wB97M-V + LR-HF
 Correlation:  1.0000 wB97M-V
 Using SG-2 standard quadrature grid
 Nonlocal Correlation:  VV10 with C = 0.0100 and b = 6.00 and scale = 1.00000
 Grid used for NLC:  SG-1 standard quadrature
 using 8 threads for integral computing
 -------------------------------------------------------
 OpenMP Integral computing Module                
 Release: version 1.0, May 2013, Q-Chem Inc. Pittsburgh 
 -------------------------------------------------------
 
 Citation of the SMD model:
 Marenich, A.V.; Cramer, C.J.; Truhlar, D.G.
 J. Phys. Chem. B 2009, 113, 6378-6396.
 iSolventCode=           1
 Solvent: water                                                           
 
 vradii
            1           2           3           4           5           6
    1   1.8500000   1.8500000   1.5200000   1.5200000   1.5200000   1.2000000
            7           8           9          10          11
    1   1.2000000   1.2000000   1.2000000   1.5200000   1.5200000
 -------------------------------------------------------
 OpenMP BLAS3 based DFT computing Module                
 Release: version 1.0, May 2013, Q-Chem Inc. Pittsburgh 
 -------------------------------------------------------
 A unrestricted SCF calculation will be
 performed using DIIS, GDM
 SCF converges when RMS gradient is below 1.0e-07
 ---------------------------------------
  Cycle       Energy         DIIS error
 ---------------------------------------
    1    -455.4655032811      1.41e-02  
    2    -454.5935948506      2.52e-03  Done DIIS. Switching to GDM
 ---------------------------------------
  Cycle       Energy        RMS Gradient
 ---------------------------------------
    1    -454.5935948506      1.22e-01   Descent step
    2    -454.7636883969      4.12e-02   Normal BFGS step
    3    -454.7831679006      3.26e-02   Normal BFGS step
    4    -454.7862201331      1.52e-02   Normal BFGS step
    5    -454.7878497012      1.00e-02   Normal BFGS step
    6    -454.7880073626      3.91e-03   Normal BFGS step
    7    -454.7880897933      2.00e-03   Normal BFGS step
    8    -454.7881035216      5.99e-04   Normal BFGS step
    9    -454.7881065720      3.75e-04   Normal BFGS step
   10    -454.7881075369      3.02e-04   Normal BFGS step
   11    -454.7881078856      2.47e-04   Normal BFGS step
   12    -454.7881080346      1.91e-04   Normal BFGS step
   13    -454.7881081493      1.29e-04   Normal BFGS step
   14    -454.7881082499      7.96e-05   Normal BFGS step
   15    -454.7881082958      2.74e-05   Normal BFGS step
   16    -454.7881083038      7.95e-06   Normal BFGS step
   17    -454.7881083051      6.46e-06   Normal BFGS step
   18    -454.7881083056      2.17e-06   Normal BFGS step
   19    -454.7881083057      9.56e-07   Normal BFGS step
   20    -454.7881083057      3.23e-07   Normal BFGS step
   21    -454.7881083057      8.64e-08  Convergence criterion met
 ---------------------------------------
 SCF time:   CPU 735.45s  wall 93.00s 
<S^2> =          0.754950877
(3)  G-ENP(liq) elect-nuc-pol free energy of system     -454.788108306 a.u.
(4)  G-CDS(liq) cavity-dispersion-solvent structure 
     free energy                                                2.6822 kcal/mol
(6)  G-S(liq) free energy of system                     -454.783833911 a.u.
 SCF   energy in the final basis set =     -454.7838339113
 Total energy in the final basis set =     -454.7838339113
 
 --------------------------------------------------------------
 
                    Orbital Energies (a.u.)
 --------------------------------------------------------------
 
 Alpha MOs
 -- Occupied --
-19.4090 -19.3799 -19.3411 -19.3401 -19.2716 -10.4341 -10.4185  -1.2945
 -1.1961  -1.1302  -1.1100  -0.9340  -0.8202  -0.6923  -0.6485  -0.6440
 -0.5948  -0.5781  -0.5712  -0.5448  -0.5167  -0.4987  -0.4756  -0.4136
 -0.4078  -0.4012  -0.3666  -0.3382  -0.3284
 -- Virtual --
  0.0292   0.0498   0.0597   0.0617   0.0929   0.1062   0.1112   0.1264
  0.1354   0.1451   0.1562   0.1666   0.1738   0.1970   0.2161   0.2308
  0.2393   0.2523   0.2698   0.2750   0.2786   0.2849   0.2936   0.2993
  0.3097   0.3136   0.3315   0.3370   0.3398   0.3558   0.3678   0.3721
  0.3792   0.3828   0.3890   0.3960   0.4056   0.4351   0.4524   0.4770
  0.4860   0.5337   0.5747   0.5959   0.6175   0.6360   0.6480   0.6845
  0.6978   0.7200   0.7470   0.7570   0.7952   0.8199   0.8794   0.9000
  0.9064   0.9268   0.9625   1.0087   1.0387   1.0717   1.0787   1.1160
  1.1280   1.1368   1.1517   1.1610   1.1751   1.1809   1.1862   1.2036
  1.2178   1.2269   1.2441   1.2637   1.2663   1.2804   1.3030   1.3180
  1.3349   1.3894   1.4090   1.4485   1.4617   1.4863   1.5111   1.5353
  1.5481   1.5853   1.5909   1.6084   1.6355   1.6505   1.6624   1.6835
  1.7135   1.7335   1.7706   1.8375   1.8550   1.8952   1.9213   1.9569
  2.0040   2.0670   2.1080   2.1126   2.2233   2.2325   2.2654   2.2921
  2.3387   2.3597   2.4040   2.4333   2.4664   2.4884   2.5433   2.5753
  2.6525   2.7055   2.7199   2.8176   2.8602   2.9341   2.9686   3.0543
  3.1531   3.2439   3.2694   3.3178   3.3233   3.3790   3.4030   3.4261
  3.4699   3.5316   3.5667   3.5990   3.6066   3.6288   3.6669   3.7024
  3.7426   3.7766   3.8078   3.8568   3.8773   3.8896   3.9707   4.0296
  4.0720   4.1014   4.1786   4.1977   4.2238   4.2967   4.3163   4.3424
  4.3925   4.4610   4.5360   4.5906   4.6070   4.6853   4.7301   4.7962
  4.8749   4.9197   5.0862   5.0926   5.1027   5.1442   5.1734   5.2016
  5.2133   5.2328   5.2416   5.2501   5.2559   5.2617   5.2740   5.2974
  5.3042   5.3229   5.3343   5.3433   5.3785   5.4089   5.4337   5.4545
  5.4884   5.5283   5.5531   5.5780   5.6251   5.6495   5.6565   5.6738
  5.7276   5.7561   5.8537   5.9327   6.0505   6.0655   6.1317   6.2937
  6.4345   6.5009   6.5449   6.6343   6.7185   6.8172   6.8714   6.9491
  7.0160   7.0318   7.0608   7.0791   7.1183   7.1351   7.1554   7.1703
  7.2475   7.2630   7.2853   7.3310   7.3639   7.3791   7.4383   7.5017
  7.5258   7.5817   7.6606   7.7042   7.7242   7.7898   7.8505   7.8812
  8.0188   8.1144  24.7417  24.8858  50.4531  50.5390  50.5952  50.6216
 50.7282
 
 Beta MOs
 -- Occupied --
-19.3960 -19.3632 -19.3411 -19.3401 -19.2717 -10.4339 -10.4187  -1.2662
 -1.1959  -1.1301  -1.1096  -0.9006  -0.8131  -0.6873  -0.6460  -0.6435
 -0.5724  -0.5662  -0.5529  -0.5192  -0.4987  -0.4804  -0.4735  -0.4131
 -0.4070  -0.3948  -0.3351  -0.3228
 -- Virtual --
  0.0063   0.0293   0.0501   0.0599   0.0620   0.0934   0.1071   0.1120
  0.1282   0.1359   0.1464   0.1577   0.1682   0.1748   0.2001   0.2175
  0.2319   0.2408   0.2552   0.2718   0.2763   0.2811   0.2892   0.2958
  0.3021   0.3109   0.3158   0.3330   0.3400   0.3428   0.3571   0.3690
  0.3735   0.3822   0.3859   0.3912   0.3980   0.4071   0.4368   0.4530
  0.4778   0.4867   0.5349   0.5750   0.5963   0.6178   0.6367   0.6490
  0.6846   0.6982   0.7209   0.7471   0.7577   0.7962   0.8206   0.8800
  0.9016   0.9074   0.9280   0.9639   1.0097   1.0409   1.0738   1.0848
  1.1222   1.1313   1.1482   1.1568   1.1641   1.1778   1.1875   1.1961
  1.2066   1.2222   1.2278   1.2478   1.2686   1.2793   1.2842   1.3053
  1.3210   1.3378   1.3910   1.4111   1.4531   1.4652   1.4914   1.5142
  1.5431   1.5549   1.5935   1.5968   1.6203   1.6417   1.6534   1.6734
  1.6899   1.7270   1.7374   1.7841   1.8421   1.8598   1.8967   1.9231
  1.9611   2.0082   2.0746   2.1098   2.1187   2.2261   2.2363   2.2755
  2.3030   2.3440   2.3697   2.4063   2.4346   2.4683   2.4900   2.5446
  2.5760   2.6596   2.7096   2.7203   2.8191   2.8613   2.9339   2.9685
  3.0547   3.1536   3.2439   3.2698   3.3178   3.3232   3.3791   3.4029
  3.4261   3.4702   3.5316   3.5666   3.5997   3.6063   3.6285   3.6677
  3.7024   3.7429   3.7767   3.8078   3.8568   3.8775   3.8899   3.9711
  4.0297   4.0717   4.1013   4.1789   4.1979   4.2242   4.2974   4.3168
  4.3424   4.3933   4.4614   4.5365   4.6001   4.6340   4.6978   4.7390
  4.8229   4.8930   4.9319   5.1289   5.1415   5.1564   5.1764   5.1851
  5.2116   5.2190   5.2416   5.2554   5.2594   5.2792   5.2846   5.2969
  5.3041   5.3131   5.3401   5.3446   5.3566   5.3837   5.4174   5.4359
  5.4577   5.4893   5.5330   5.5548   5.5847   5.6318   5.6556   5.6684
  5.6796   5.7378   5.7615   5.8544   5.9431   6.0513   6.0659   6.1317
  6.2942   6.4352   6.5018   6.5918   6.6448   6.7202   6.8879   6.9479
  6.9892   7.0237   7.0497   7.0690   7.1027   7.1276   7.1405   7.1877
  7.2049   7.2552   7.2656   7.2856   7.3472   7.3732   7.3919   7.4682
  7.5070   7.5383   7.5895   7.6623   7.7052   7.7311   7.7906   7.8527
  7.8813   8.0338   8.1343  24.7418  24.8857  50.4651  50.5484  50.5954
 50.6228  50.7282
 --------------------------------------------------------------
 
          Ground-State Mulliken Net Atomic Charges

     Atom                 Charge (a.u.)    Spin (a.u.)
  --------------------------------------------------------
      1 C                    -0.044627      -0.014677
      2 C                    -0.056554       0.011503
      3 O                    -0.457361       0.000506
      4 O                    -0.452763      -0.000258
      5 O                    -0.731542      -0.005556
      6 H                     0.334618       0.000025
      7 H                     0.340193       0.000067
      8 H                     0.229167       0.006380
      9 H                     0.249658       0.000051
     10 O                    -0.083374       0.411601
     11 O                    -0.327415       0.590357
  --------------------------------------------------------
  Sum of atomic charges =    -1.000000
  Sum of spin   charges =     1.000000

 -----------------------------------------------------------------
                    Cartesian Multipole Moments
 -----------------------------------------------------------------
    Charge (ESU x 10^10)
                -4.8032
    Dipole Moment (Debye)
         X     -17.4499      Y      -5.9035      Z      10.0759
       Tot      20.9970
    Quadrupole Moments (Debye-Ang)
        XX     -83.6919     XY      -8.3048     YY     -60.4153
        XZ      41.8229     YZ      10.4984     ZZ     -64.1562
    Octopole Moments (Debye-Ang^2)
       XXX    -305.9192    XXY     -41.2481    XYY    -103.0244
       YYY     -89.1448    XXZ     179.5171    XYZ      11.9041
       YYZ     117.6514    XZZ    -168.1200    YZZ     -36.0469
       ZZZ     316.4128
    Hexadecapole Moments (Debye-Ang^3)
      XXXX   -1152.9795   XXXY    -196.1707   XXYY    -289.9226
      XYYY    -198.5200   YYYY    -629.9273   XXXZ     607.3696
      XXYZ      62.0459   XYYZ     193.7287   YYYZ     122.8290
      XXZZ    -551.7244   XYZZ     -60.7725   YYZZ    -353.0382
      XZZZ     650.3385   YZZZ      93.0623   ZZZZ   -1420.5763
 -----------------------------------------------------------------
 Calculating analytic gradient of the SCF energy
 Gradient of CDS energy
            1           2           3           4           5           6
    1   0.0029765  -0.0001007   0.0000732   0.0000345  -0.0021630  -0.0002310
    2  -0.0003045  -0.0001718   0.0009736  -0.0007780   0.0001964  -0.0004787
    3  -0.0007631  -0.0016285  -0.0001529   0.0019656   0.0008715   0.0000146
            7           8           9          10          11
    1  -0.0002176  -0.0002137  -0.0000686   0.0000036  -0.0000933
    2   0.0001916   0.0000599   0.0001653   0.0000589   0.0000873
    3  -0.0004437   0.0001477   0.0000422  -0.0000723   0.0000190
 Gradient of SCF Energy
            1           2           3           4           5           6
    1   0.0278760  -0.0518196   0.0069316   0.0083461  -0.0061848   0.0011170
    2  -0.0199506   0.0116824  -0.0147078   0.0083199   0.0037560   0.0074321
    3   0.0331831   0.0240939  -0.0028466  -0.0153182  -0.0006971   0.0015321
            7           8           9          10          11
    1   0.0025822  -0.0044029   0.0186945  -0.0057382   0.0025981
    2  -0.0044874   0.0102268  -0.0128312   0.0095750   0.0009849
    3   0.0097289  -0.0353685  -0.0133926   0.0004866  -0.0014015
 Max gradient component =       5.182E-02
 RMS gradient           =       1.629E-02
 Computing fast CPCM-SWIG gradient
 Updating gradient with PCM contributions...
 -- total gradient after adding PCM contribution --
---------------------------------------------------
  Atom         X              Y              Z     
---------------------------------------------------
   1       0.000179      -0.000195      -0.000122
   2      -0.000025       0.000007       0.000077
   3      -0.000020       0.000003      -0.000048
   4      -0.000015      -0.000032      -0.000019
   5      -0.000118       0.000019       0.000031
   6      -0.000015       0.000008       0.000053
   7      -0.000030       0.000033       0.000043
   8       0.000015       0.000010      -0.000023
   9       0.000014       0.000010      -0.000002
  10      -0.000089       0.000084       0.000066
  11       0.000105       0.000054      -0.000056
---------------------------------------------------
 Number of fixed atoms: 0
 Gradient time:  CPU 92.60 s  wall 13.56 s
 ######################################################
 ######################################################
 # Starting finite difference calculation for IDERIV  #
 Finite diff step size:  1.88973e-03 a.u.
 ----------------------------------------------------------------
             Standard Nuclear Orientation (Angstroms)
    I     Atom           X                Y                Z
 ----------------------------------------------------------------
    1      C       1.8099773900     0.1597908005    -1.5221501325
    2      C       0.5792040988    -0.2991611523    -2.3054470286
    3      O       0.6197325970    -1.7125805858    -2.2890431111
    4      O       0.6655800822     0.2056558943    -3.6177985492
    5      O       2.9496862201     0.0916683647    -2.0773576167
    6      H      -0.2563330744    -2.0459168085    -2.5118039659
    7      H      -0.2076477017     0.1496441022    -4.0202819741
    8      H       1.7139920902    -0.1336964048    -0.4646467700
    9      H      -0.3383111293     0.0472027698    -1.8278475356
   10      O       1.3247484052     1.7812610481    -1.2728154322
   11      O       2.2184430219     2.6226479715    -1.6799752844
 ----------------------------------------------------------------
 Nuclear Repulsion Energy =         321.90448016 hartrees
 There are       29 alpha and       28 beta electrons
 Discretize the solute cavity surface with Lebedev spheres
	Using 110 Lebedev grid points for each H atom
	Using 194 Lebedev grid points for other atoms
	Atomic van der Waals radii will be scaled by 1.20
 Remove points where switching function is < 1.0e-08
 Keep 984 surface tesserae and discard 814 interior tesserae
 Molecular Surface Area = 116.405 Angst**2

                       Distance Matrix (Angstroms)
             C (  1)   C (  2)   O (  3)   O (  4)   O (  5)   H (  6)
   C (  2)  1.529377
   O (  3)  2.347463  1.414096
   O (  4)  2.388198  1.408747  2.333950
   O (  5)  1.269580  2.413288  2.954456  2.757371
   H (  6)  3.180283  1.947270  0.963445  2.672588  3.877702
   H (  7)  3.211164  1.939387  2.673879  0.963150  3.707705  2.664275
   H (  8)  1.101663  2.168794  2.649283  3.340164  2.044154  3.424853
   H (  9)  2.172848  1.090827  2.056061  2.058356  3.297751  2.203558
   O ( 10)  1.710784  2.439328  3.706305  2.901031  2.478394  4.322291
   O ( 11)  2.501483  3.408121  4.660584  3.465313  2.664299  5.349014
             H (  7)   H (  8)   H (  9)   O ( 10)
   H (  8)  4.051607
   H (  9)  2.198712  2.470423
   O ( 10)  3.543866  2.114642  2.465925
   O ( 11)  4.180753  3.054329  3.632048  1.293214
 
 Requested basis set is 6-311++G(2df,2p)
 There are 80 shells and 278 basis functions
 A cutoff of  1.0D-12 yielded   2997 shell pairs
 There are     36483 function pairs (     46210 Cartesian)
 Smallest overlap matrix eigenvalue = 5.93E-05
 Guess MOs from SCF MO coefficient file

 -----------------------------------------------------------------------
  General SCF calculation program by
  Eric Jon Sundstrom, Paul Horn, Yuezhi Mao, Dmitri Zuev, Alec White,
  David Stuck, Shaama M.S., Shane Yost, Joonho Lee, David Small,
  Daniel Levine, Susi Lehtola, Hugh Burton, Evgeny Epifanovsky,
  Bang C. Huynh
 -----------------------------------------------------------------------
 Exchange:     0.1500 Hartree-Fock + 1.0000 wB97M-V + LR-HF
 Correlation:  1.0000 wB97M-V
 Using SG-2 standard quadrature grid
 Nonlocal Correlation:  VV10 with C = 0.0100 and b = 6.00 and scale = 1.00000
 Grid used for NLC:  SG-1 standard quadrature
 
 Citation of the SMD model:
 Marenich, A.V.; Cramer, C.J.; Truhlar, D.G.
 J. Phys. Chem. B 2009, 113, 6378-6396.
 iSolventCode=           1
 Solvent: water                                                           
 
 vradii
            1           2           3           4           5           6
    1   1.8500000   1.8500000   1.5200000   1.5200000   1.5200000   1.2000000
            7           8           9          10          11
    1   1.2000000   1.2000000   1.2000000   1.5200000   1.5200000
 -------------------------------------------------------
 OpenMP BLAS3 based DFT computing Module                
 Release: version 1.0, May 2013, Q-Chem Inc. Pittsburgh 
 -------------------------------------------------------
 A unrestricted SCF calculation will be
 performed using Roothaan-Hall, DIIS, GDM
 SCF converges when RMS gradient is below 1.0e-07
 ---------------------------------------
  Cycle       Energy         DIIS error
 ---------------------------------------
    1    -454.6254406205      5.65e-04  Roothaan Step
 ---------------------------------------
  Cycle       Energy         DIIS error
 ---------------------------------------
    1    -454.7600859555      6.98e-04  
    2    -454.7744503915      7.29e-04  Done DIIS. Switching to GDM
 ---------------------------------------
  Cycle       Energy        RMS Gradient
 ---------------------------------------
    1    -454.7744503915      3.36e-02   Normal BFGS step
    2    -454.7660680302      6.05e-02  Line search: overstep
    3    -454.7872444926      8.10e-03   Normal BFGS step
    4    -454.7878443596      4.75e-03   Normal BFGS step
    5    -454.7880798987      2.79e-03   Normal BFGS step
    6    -454.7881023523      3.98e-04   Normal BFGS step
    7    -454.7881111679      4.73e-04   Normal BFGS step
    8    -454.7881119238      2.86e-04   Normal BFGS step
    9    -454.7881123358      1.86e-04   Normal BFGS step
   10    -454.7881124685      3.24e-05   Normal BFGS step
   11    -454.7881124817      1.11e-05   Normal BFGS step
   12    -454.7881124833      4.45e-06   Normal BFGS step
   13    -454.7881124839      1.28e-06   Normal BFGS step
   14    -454.7881124840      1.14e-06   Normal BFGS step
   15    -454.7881124840      8.72e-07   Normal BFGS step
   16    -454.7881124840      8.24e-07   Normal BFGS step
   17    -454.7881124840      7.15e-07   Normal BFGS step
   18    -454.7881124840      5.26e-07   Normal BFGS step
   19    -454.7881124840      2.66e-07   Normal BFGS step
   20    -454.7881124840      1.07e-07   Normal BFGS step
   21    -454.7881124840      4.95e-08  Convergence criterion met
 ---------------------------------------
 SCF time:   CPU 754.96s  wall 95.00s 
<S^2> =          0.754951225
(3)  G-ENP(liq) elect-nuc-pol free energy of system     -454.788112484 a.u.
(4)  G-CDS(liq) cavity-dispersion-solvent structure 
     free energy                                                2.6857 kcal/mol
(6)  G-S(liq) free energy of system                     -454.783832483 a.u.
 SCF   energy in the final basis set =     -454.7838324826
 Total energy in the final basis set =     -454.7838324826
 
 --------------------------------------------------------------
 
                    Orbital Energies (a.u.)
 --------------------------------------------------------------
 
 Alpha MOs
 -- Occupied --
-19.4089 -19.3798 -19.3411 -19.3401 -19.2717 -10.4341 -10.4185  -1.2944
 -1.1961  -1.1302  -1.1105  -0.9339  -0.8200  -0.6923  -0.6484  -0.6440
 -0.5947  -0.5781  -0.5712  -0.5448  -0.5168  -0.4987  -0.4757  -0.4136
 -0.4078  -0.4013  -0.3665  -0.3381  -0.3284
 -- Virtual --
  0.0292   0.0498   0.0597   0.0617   0.0929   0.1061   0.1112   0.1264
  0.1354   0.1451   0.1562   0.1666   0.1739   0.1970   0.2161   0.2308
  0.2393   0.2523   0.2698   0.2750   0.2786   0.2849   0.2935   0.2993
  0.3097   0.3136   0.3315   0.3370   0.3397   0.3558   0.3678   0.3721
  0.3792   0.3828   0.3890   0.3960   0.4056   0.4351   0.4524   0.4770
  0.4860   0.5338   0.5746   0.5959   0.6176   0.6360   0.6480   0.6844
  0.6977   0.7201   0.7471   0.7571   0.7953   0.8199   0.8794   0.9001
  0.9064   0.9268   0.9625   1.0088   1.0388   1.0717   1.0788   1.1159
  1.1281   1.1369   1.1516   1.1610   1.1750   1.1808   1.1861   1.2035
  1.2178   1.2269   1.2440   1.2637   1.2662   1.2803   1.3030   1.3180
  1.3349   1.3893   1.4089   1.4485   1.4616   1.4863   1.5111   1.5352
  1.5482   1.5853   1.5910   1.6084   1.6357   1.6504   1.6625   1.6836
  1.7135   1.7335   1.7706   1.8376   1.8550   1.8954   1.9213   1.9569
  2.0042   2.0671   2.1080   2.1127   2.2235   2.2326   2.2655   2.2923
  2.3387   2.3598   2.4040   2.4333   2.4666   2.4885   2.5434   2.5759
  2.6526   2.7056   2.7200   2.8177   2.8600   2.9339   2.9684   3.0542
  3.1529   3.2442   3.2693   3.3175   3.3230   3.3790   3.4031   3.4263
  3.4702   3.5315   3.5667   3.5988   3.6064   3.6288   3.6669   3.7024
  3.7427   3.7768   3.8077   3.8566   3.8773   3.8895   3.9703   4.0300
  4.0717   4.1009   4.1785   4.1970   4.2236   4.2964   4.3163   4.3423
  4.3923   4.4610   4.5358   4.5904   4.6068   4.6852   4.7297   4.7961
  4.8748   4.9197   5.0863   5.0927   5.1028   5.1441   5.1734   5.2015
  5.2133   5.2328   5.2415   5.2501   5.2559   5.2617   5.2741   5.2974
  5.3041   5.3228   5.3344   5.3432   5.3785   5.4088   5.4338   5.4543
  5.4885   5.5285   5.5530   5.5781   5.6253   5.6495   5.6567   5.6738
  5.7279   5.7571   5.8538   5.9330   6.0506   6.0656   6.1319   6.2956
  6.4369   6.5009   6.5450   6.6345   6.7185   6.8173   6.8715   6.9492
  7.0169   7.0319   7.0609   7.0794   7.1189   7.1351   7.1554   7.1707
  7.2475   7.2630   7.2853   7.3311   7.3639   7.3791   7.4384   7.5017
  7.5259   7.5818   7.6606   7.7042   7.7240   7.7898   7.8507   7.8812
  8.0188   8.1145  24.7422  24.8859  50.4532  50.5391  50.5953  50.6216
 50.7290
 
 Beta MOs
 -- Occupied --
-19.3959 -19.3632 -19.3411 -19.3401 -19.2718 -10.4339 -10.4187  -1.2662
 -1.1959  -1.1301  -1.1101  -0.9005  -0.8129  -0.6872  -0.6459  -0.6435
 -0.5723  -0.5662  -0.5529  -0.5193  -0.4987  -0.4804  -0.4736  -0.4131
 -0.4070  -0.3950  -0.3351  -0.3227
 -- Virtual --
  0.0064   0.0293   0.0501   0.0599   0.0620   0.0934   0.1071   0.1120
  0.1282   0.1359   0.1464   0.1577   0.1682   0.1748   0.2001   0.2176
  0.2319   0.2408   0.2552   0.2718   0.2763   0.2811   0.2892   0.2957
  0.3022   0.3109   0.3158   0.3330   0.3400   0.3428   0.3571   0.3690
  0.3735   0.3822   0.3859   0.3912   0.3979   0.4071   0.4368   0.4530
  0.4777   0.4868   0.5350   0.5749   0.5963   0.6178   0.6367   0.6490
  0.6846   0.6982   0.7209   0.7472   0.7579   0.7963   0.8206   0.8800
  0.9016   0.9074   0.9280   0.9639   1.0098   1.0410   1.0738   1.0848
  1.1221   1.1314   1.1482   1.1567   1.1641   1.1778   1.1874   1.1961
  1.2065   1.2222   1.2277   1.2477   1.2685   1.2792   1.2842   1.3053
  1.3209   1.3378   1.3909   1.4110   1.4531   1.4651   1.4914   1.5142
  1.5431   1.5550   1.5935   1.5969   1.6203   1.6418   1.6534   1.6735
  1.6899   1.7271   1.7374   1.7841   1.8422   1.8598   1.8969   1.9231
  1.9611   2.0083   2.0747   2.1098   2.1188   2.2262   2.2364   2.2756
  2.3031   2.3440   2.3698   2.4063   2.4346   2.4684   2.4900   2.5448
  2.5766   2.6596   2.7096   2.7204   2.8192   2.8610   2.9338   2.9683
  3.0546   3.1534   3.2442   3.2697   3.3175   3.3229   3.3791   3.4030
  3.4262   3.4705   3.5316   3.5666   3.5995   3.6062   3.6285   3.6677
  3.7024   3.7430   3.7770   3.8078   3.8567   3.8775   3.8898   3.9708
  4.0301   4.0714   4.1009   4.1787   4.1973   4.2240   4.2971   4.3167
  4.3424   4.3931   4.4613   4.5363   4.5997   4.6340   4.6977   4.7388
  4.8228   4.8930   4.9319   5.1290   5.1415   5.1563   5.1765   5.1851
  5.2115   5.2190   5.2416   5.2554   5.2593   5.2793   5.2846   5.2969
  5.3041   5.3131   5.3400   5.3446   5.3566   5.3837   5.4175   5.4360
  5.4575   5.4894   5.5332   5.5548   5.5848   5.6320   5.6558   5.6685
  5.6796   5.7381   5.7624   5.8545   5.9434   6.0513   6.0660   6.1319
  6.2962   6.4377   6.5017   6.5919   6.6450   6.7202   6.8880   6.9480
  6.9893   7.0244   7.0499   7.0691   7.1032   7.1281   7.1406   7.1877
  7.2050   7.2552   7.2656   7.2856   7.3473   7.3732   7.3919   7.4684
  7.5070   7.5384   7.5896   7.6623   7.7052   7.7309   7.7906   7.8529
  7.8813   8.0338   8.1344  24.7423  24.8858  50.4652  50.5484  50.5954
 50.6228  50.7290
 --------------------------------------------------------------
 
          Ground-State Mulliken Net Atomic Charges

     Atom                 Charge (a.u.)    Spin (a.u.)
  --------------------------------------------------------
      1 C                    -0.044852      -0.014646
      2 C                    -0.056536       0.011507
      3 O                    -0.457419       0.000509
      4 O                    -0.452797      -0.000258
      5 O                    -0.730445      -0.005560
      6 H                     0.334600       0.000025
      7 H                     0.340178       0.000067
      8 H                     0.228957       0.006380
      9 H                     0.249633       0.000051
     10 O                    -0.083544       0.411742
     11 O                    -0.327774       0.590181
  --------------------------------------------------------
  Sum of atomic charges =    -1.000000
  Sum of spin   charges =     1.000000

 -----------------------------------------------------------------
                    Cartesian Multipole Moments
 -----------------------------------------------------------------
    Charge (ESU x 10^10)
                -4.8032
    Dipole Moment (Debye)
         X     -17.4412      Y      -5.9081      Z      10.0734
       Tot      20.9899
    Quadrupole Moments (Debye-Ang)
        XX     -83.6568     XY      -8.3145     YY     -60.4289
        XZ      41.8004     YZ      10.5055     ZZ     -64.1505
    Octopole Moments (Debye-Ang^2)
       XXX    -305.8037    XXY     -41.2706    XYY    -103.0477
       YYY     -89.1838    XXZ     179.4373    XYZ      11.9205
       YYZ     117.6737    XZZ    -168.0690    YZZ     -36.0597
       ZZZ     316.3999
    Hexadecapole Moments (Debye-Ang^3)
      XXXX   -1152.6187   XXXY    -196.2328   XXYY    -289.9730
      XYYY    -198.6112   YYYY    -630.0786   XXXZ     607.1144
      XXYZ      62.0832   XYYZ     193.7614   YYYZ     122.8929
      XXZZ    -551.5485   XYZZ     -60.8046   YYZZ    -353.0851
      XZZZ     650.2034   YZZZ      93.0870   ZZZZ   -1420.5660
 -----------------------------------------------------------------
 Calculating analytic gradient of the SCF energy
 Gradient of CDS energy
            1           2           3           4           5           6
    1   0.0029577  -0.0001013   0.0000730   0.0000342  -0.0021419  -0.0002309
    2  -0.0003033  -0.0001719   0.0009736  -0.0007781   0.0001951  -0.0004788
    3  -0.0007543  -0.0016283  -0.0001529   0.0019656   0.0008626   0.0000146
            7           8           9          10          11
    1  -0.0002176  -0.0002143  -0.0000686   0.0000034  -0.0000936
    2   0.0001916   0.0000600   0.0001654   0.0000588   0.0000876
    3  -0.0004437   0.0001474   0.0000421  -0.0000722   0.0000191
 Gradient of SCF Energy
            1           2           3           4           5           6
    1   0.0288978  -0.0520967   0.0069233   0.0083424  -0.0068915   0.0011233
    2  -0.0198129   0.0116133  -0.0147270   0.0083327   0.0037728   0.0074387
    3   0.0330111   0.0239688  -0.0028406  -0.0153381  -0.0003899   0.0015325
            7           8           9          10          11
    1   0.0025900  -0.0044152   0.0186884  -0.0057822   0.0026206
    2  -0.0044896   0.0102088  -0.0128424   0.0095552   0.0009503
    3   0.0097367  -0.0353466  -0.0134142   0.0004914  -0.0014113
 Max gradient component =       5.210E-02
 RMS gradient           =       1.636E-02
 Computing fast CPCM-SWIG gradient
 Updating gradient with PCM contributions...
 -- total gradient after adding PCM contribution --
---------------------------------------------------
  Atom         X              Y              Z     
---------------------------------------------------
   1       0.001334       0.000012      -0.000262
   2      -0.000298      -0.000064      -0.000029
   3      -0.000014       0.000002      -0.000045
   4      -0.000007      -0.000027      -0.000015
   5      -0.000807       0.000005       0.000298
   6      -0.000016       0.000013       0.000053
   7      -0.000032       0.000033       0.000049
   8      -0.000092      -0.000004      -0.000038
   9      -0.000013      -0.000001      -0.000022
  10      -0.000144       0.000045       0.000062
  11       0.000089      -0.000013      -0.000050
---------------------------------------------------
 Number of fixed atoms: 0
 Gradient time:  CPU 91.83 s  wall 13.75 s
 ----------------------------------------------------------------
             Standard Nuclear Orientation (Angstroms)
    I     Atom           X                Y                Z
 ----------------------------------------------------------------
    1      C       1.8079773900     0.1597908005    -1.5221501325
    2      C       0.5792040988    -0.2991611523    -2.3054470286
    3      O       0.6197325970    -1.7125805858    -2.2890431111
    4      O       0.6655800822     0.2056558943    -3.6177985492
    5      O       2.9496862201     0.0916683647    -2.0773576167
    6      H      -0.2563330744    -2.0459168085    -2.5118039659
    7      H      -0.2076477017     0.1496441022    -4.0202819741
    8      H       1.7139920902    -0.1336964048    -0.4646467700
    9      H      -0.3383111293     0.0472027698    -1.8278475356
   10      O       1.3247484052     1.7812610481    -1.2728154322
   11      O       2.2184430219     2.6226479715    -1.6799752844
 ----------------------------------------------------------------
 Nuclear Repulsion Energy =         321.90444501 hartrees
 There are       29 alpha and       28 beta electrons
 Discretize the solute cavity surface with Lebedev spheres
	Using 110 Lebedev grid points for each H atom
	Using 194 Lebedev grid points for other atoms
	Atomic van der Waals radii will be scaled by 1.20
 Remove points where switching function is < 1.0e-08
 Keep 985 surface tesserae and discard 813 interior tesserae
 Molecular Surface Area = 116.401 Angst**2

                       Distance Matrix (Angstroms)
             C (  1)   C (  2)   O (  3)   O (  4)   O (  5)   H (  6)
   C (  2)  1.527768
   O (  3)  2.346449  1.414096
   O (  4)  2.387241  1.408747  2.333950
   O (  5)  1.271375  2.413288  2.954456  2.757371
   H (  6)  3.178984  1.947270  0.963445  2.672588  3.877702
   H (  7)  3.209908  1.939387  2.673879  0.963150  3.707705  2.664275
   H (  8)  1.101491  2.168794  2.649283  3.340164  2.044154  3.424853
   H (  9)  2.170871  1.090827  2.056061  2.058356  3.297751  2.203558
   O ( 10)  1.710217  2.439328  3.706305  2.901031  2.478394  4.322291
   O ( 11)  2.501811  3.408121  4.660584  3.465313  2.664299  5.349014
             H (  7)   H (  8)   H (  9)   O ( 10)
   H (  8)  4.051607
   H (  9)  2.198712  2.470423
   O ( 10)  3.543866  2.114642  2.465925
   O ( 11)  4.180753  3.054329  3.632048  1.293214
 
 Requested basis set is 6-311++G(2df,2p)
 There are 80 shells and 278 basis functions
 A cutoff of  1.0D-12 yielded   2997 shell pairs
 There are     36483 function pairs (     46210 Cartesian)
 Smallest overlap matrix eigenvalue = 5.91E-05
 Guess MOs from SCF MO coefficient file

 -----------------------------------------------------------------------
  General SCF calculation program by
  Eric Jon Sundstrom, Paul Horn, Yuezhi Mao, Dmitri Zuev, Alec White,
  David Stuck, Shaama M.S., Shane Yost, Joonho Lee, David Small,
  Daniel Levine, Susi Lehtola, Hugh Burton, Evgeny Epifanovsky,
  Bang C. Huynh
 -----------------------------------------------------------------------
 Exchange:     0.1500 Hartree-Fock + 1.0000 wB97M-V + LR-HF
 Correlation:  1.0000 wB97M-V
 Using SG-2 standard quadrature grid
 Nonlocal Correlation:  VV10 with C = 0.0100 and b = 6.00 and scale = 1.00000
 Grid used for NLC:  SG-1 standard quadrature
 
 Citation of the SMD model:
 Marenich, A.V.; Cramer, C.J.; Truhlar, D.G.
 J. Phys. Chem. B 2009, 113, 6378-6396.
 iSolventCode=           1
 Solvent: water                                                           
 
 vradii
            1           2           3           4           5           6
    1   1.8500000   1.8500000   1.5200000   1.5200000   1.5200000   1.2000000
            7           8           9          10          11
    1   1.2000000   1.2000000   1.2000000   1.5200000   1.5200000
 -------------------------------------------------------
 OpenMP BLAS3 based DFT computing Module                
 Release: version 1.0, May 2013, Q-Chem Inc. Pittsburgh 
 -------------------------------------------------------
 A unrestricted SCF calculation will be
 performed using Roothaan-Hall, DIIS, GDM
 SCF converges when RMS gradient is below 1.0e-07
 ---------------------------------------
  Cycle       Energy         DIIS error
 ---------------------------------------
    1    -454.6254202901      5.64e-04  Roothaan Step
 ---------------------------------------
  Cycle       Energy         DIIS error
 ---------------------------------------
    1    -454.7599333959      7.00e-04  
    2    -454.7742543054      7.34e-04  Done DIIS. Switching to GDM
 ---------------------------------------
  Cycle       Energy        RMS Gradient
 ---------------------------------------
    1    -454.7742543054      3.35e-02   Normal BFGS step
    2    -454.7656935257      6.03e-02  Line search: overstep
    3    -454.7872290084      8.14e-03   Normal BFGS step
    4    -454.7878324092      4.83e-03   Normal BFGS step
    5    -454.7880691785      2.80e-03   Normal BFGS step
    6    -454.7880917733      3.99e-04   Normal BFGS step
    7    -454.7881006246      4.66e-04   Normal BFGS step
    8    -454.7881013610      2.81e-04   Normal BFGS step
    9    -454.7881017608      1.86e-04   Normal BFGS step
   10    -454.7881018920      3.57e-05   Normal BFGS step
   11    -454.7881019065      2.03e-05   Normal BFGS step
   12    -454.7881019087      1.71e-05   Normal BFGS step
   13    -454.7881019096      1.47e-05   Normal BFGS step
   14    -454.7881019101      1.25e-05   Normal BFGS step
   15    -454.7881019108      4.90e-06   Normal BFGS step
   16    -454.7881019110      2.23e-06   Normal BFGS step
   17    -454.7881019111      1.29e-06   Normal BFGS step
   18    -454.7881019111      5.43e-07   Normal BFGS step
   19    -454.7881019111      1.64e-07   Normal BFGS step
   20    -454.7881019111      6.03e-08  Convergence criterion met
 ---------------------------------------
 SCF time:   CPU 738.69s  wall 93.00s 
<S^2> =          0.754950530
(3)  G-ENP(liq) elect-nuc-pol free energy of system     -454.788101911 a.u.
(4)  G-CDS(liq) cavity-dispersion-solvent structure 
     free energy                                                2.6787 kcal/mol
(6)  G-S(liq) free energy of system                     -454.783833160 a.u.
 SCF   energy in the final basis set =     -454.7838331596
 Total energy in the final basis set =     -454.7838331596
 
 --------------------------------------------------------------
 
                    Orbital Energies (a.u.)
 --------------------------------------------------------------
 
 Alpha MOs
 -- Occupied --
-19.4091 -19.3800 -19.3411 -19.3401 -19.2715 -10.4342 -10.4185  -1.2946
 -1.1962  -1.1302  -1.1096  -0.9341  -0.8204  -0.6924  -0.6485  -0.6441
 -0.5948  -0.5781  -0.5713  -0.5448  -0.5165  -0.4988  -0.4756  -0.4136
 -0.4078  -0.4010  -0.3666  -0.3382  -0.3285
 -- Virtual --
  0.0291   0.0498   0.0597   0.0617   0.0929   0.1062   0.1112   0.1264
  0.1354   0.1451   0.1561   0.1665   0.1738   0.1970   0.2161   0.2308
  0.2393   0.2523   0.2699   0.2750   0.2786   0.2849   0.2936   0.2992
  0.3097   0.3136   0.3315   0.3370   0.3398   0.3558   0.3678   0.3721
  0.3792   0.3828   0.3890   0.3961   0.4056   0.4350   0.4524   0.4770
  0.4859   0.5335   0.5748   0.5958   0.6175   0.6359   0.6480   0.6845
  0.6978   0.7199   0.7469   0.7568   0.7950   0.8199   0.8795   0.9000
  0.9064   0.9268   0.9626   1.0087   1.0387   1.0717   1.0787   1.1160
  1.1278   1.1368   1.1518   1.1610   1.1751   1.1810   1.1862   1.2037
  1.2179   1.2270   1.2441   1.2637   1.2663   1.2804   1.3030   1.3181
  1.3350   1.3895   1.4090   1.4485   1.4618   1.4863   1.5112   1.5353
  1.5480   1.5852   1.5909   1.6085   1.6354   1.6505   1.6623   1.6835
  1.7135   1.7336   1.7705   1.8374   1.8549   1.8951   1.9213   1.9569
  2.0039   2.0668   2.1080   2.1124   2.2231   2.2325   2.2653   2.2919
  2.3387   2.3596   2.4041   2.4334   2.4663   2.4883   2.5432   2.5748
  2.6525   2.7055   2.7198   2.8175   2.8605   2.9342   2.9688   3.0544
  3.1533   3.2436   3.2694   3.3181   3.3236   3.3789   3.4028   3.4260
  3.4696   3.5316   3.5666   3.5991   3.6067   3.6288   3.6668   3.7024
  3.7425   3.7764   3.8078   3.8569   3.8774   3.8898   3.9710   4.0291
  4.0724   4.1018   4.1788   4.1983   4.2239   4.2970   4.3164   4.3424
  4.3927   4.4611   4.5362   4.5908   4.6071   4.6854   4.7304   4.7962
  4.8750   4.9197   5.0862   5.0925   5.1027   5.1443   5.1735   5.2016
  5.2134   5.2328   5.2417   5.2501   5.2560   5.2617   5.2740   5.2974
  5.3042   5.3230   5.3343   5.3434   5.3785   5.4089   5.4336   5.4547
  5.4884   5.5281   5.5531   5.5779   5.6249   5.6494   5.6564   5.6739
  5.7273   5.7552   5.8537   5.9323   6.0505   6.0654   6.1316   6.2918
  6.4320   6.5009   6.5448   6.6341   6.7185   6.8171   6.8713   6.9490
  7.0151   7.0318   7.0608   7.0788   7.1177   7.1351   7.1554   7.1700
  7.2474   7.2630   7.2853   7.3309   7.3638   7.3790   7.4382   7.5017
  7.5257   7.5816   7.6606   7.7043   7.7244   7.7898   7.8503   7.8812
  8.0188   8.1144  24.7412  24.8858  50.4530  50.5389  50.5952  50.6216
 50.7274
 
 Beta MOs
 -- Occupied --
-19.3961 -19.3633 -19.3411 -19.3401 -19.2716 -10.4340 -10.4188  -1.2663
 -1.1959  -1.1302  -1.1091  -0.9007  -0.8132  -0.6873  -0.6460  -0.6436
 -0.5725  -0.5662  -0.5530  -0.5191  -0.4987  -0.4804  -0.4735  -0.4131
 -0.4070  -0.3946  -0.3351  -0.3228
 -- Virtual --
  0.0063   0.0293   0.0501   0.0599   0.0620   0.0934   0.1072   0.1120
  0.1282   0.1359   0.1464   0.1577   0.1681   0.1748   0.2001   0.2175
  0.2319   0.2407   0.2551   0.2718   0.2763   0.2811   0.2891   0.2958
  0.3021   0.3110   0.3157   0.3330   0.3401   0.3429   0.3572   0.3690
  0.3735   0.3822   0.3859   0.3912   0.3980   0.4071   0.4368   0.4530
  0.4778   0.4866   0.5347   0.5751   0.5963   0.6178   0.6366   0.6489
  0.6846   0.6983   0.7208   0.7471   0.7575   0.7961   0.8206   0.8801
  0.9016   0.9074   0.9281   0.9639   1.0097   1.0409   1.0738   1.0847
  1.1222   1.1312   1.1482   1.1569   1.1641   1.1778   1.1875   1.1961
  1.2067   1.2222   1.2278   1.2478   1.2686   1.2793   1.2842   1.3053
  1.3210   1.3379   1.3911   1.4111   1.4531   1.4653   1.4914   1.5142
  1.5431   1.5548   1.5934   1.5968   1.6204   1.6416   1.6534   1.6733
  1.6898   1.7270   1.7375   1.7840   1.8420   1.8597   1.8966   1.9231
  1.9611   2.0081   2.0745   2.1098   2.1185   2.2259   2.2362   2.2755
  2.3028   2.3440   2.3696   2.4063   2.4346   2.4682   2.4899   2.5445
  2.5754   2.6595   2.7096   2.7203   2.8190   2.8615   2.9341   2.9687
  3.0548   3.1538   3.2436   3.2698   3.3181   3.3235   3.3790   3.4027
  3.4259   3.4699   3.5317   3.5666   3.5998   3.6065   3.6285   3.6677
  3.7024   3.7428   3.7765   3.8079   3.8570   3.8776   3.8900   3.9715
  4.0292   4.0721   4.1018   4.1790   4.1985   4.2243   4.2977   4.3169
  4.3425   4.3935   4.4614   4.5367   4.6004   4.6340   4.6979   4.7393
  4.8229   4.8931   4.9319   5.1289   5.1415   5.1565   5.1764   5.1851
  5.2117   5.2190   5.2417   5.2554   5.2594   5.2791   5.2846   5.2969
  5.3042   5.3131   5.3402   5.3447   5.3567   5.3837   5.4174   5.4358
  5.4579   5.4892   5.5329   5.5548   5.5846   5.6316   5.6554   5.6683
  5.6795   5.7375   5.7607   5.8544   5.9428   6.0513   6.0658   6.1316
  6.2923   6.4327   6.5018   6.5917   6.6447   6.7202   6.8878   6.9478
  6.9890   7.0230   7.0495   7.0689   7.1023   7.1272   7.1403   7.1876
  7.2048   7.2552   7.2655   7.2855   7.3471   7.3732   7.3918   7.4681
  7.5070   7.5382   7.5894   7.6622   7.7053   7.7313   7.7906   7.8525
  7.8813   8.0338   8.1342  24.7413  24.8856  50.4650  50.5483  50.5953
 50.6227  50.7274
 --------------------------------------------------------------
 
          Ground-State Mulliken Net Atomic Charges

     Atom                 Charge (a.u.)    Spin (a.u.)
  --------------------------------------------------------
      1 C                    -0.044402      -0.014708
      2 C                    -0.056574       0.011500
      3 O                    -0.457302       0.000502
      4 O                    -0.452730      -0.000258
      5 O                    -0.732637      -0.005552
      6 H                     0.334636       0.000024
      7 H                     0.340209       0.000067
      8 H                     0.229377       0.006380
      9 H                     0.249683       0.000052
     10 O                    -0.083204       0.411459
     11 O                    -0.327057       0.590533
  --------------------------------------------------------
  Sum of atomic charges =    -1.000000
  Sum of spin   charges =     1.000000

 -----------------------------------------------------------------
                    Cartesian Multipole Moments
 -----------------------------------------------------------------
    Charge (ESU x 10^10)
                -4.8032
    Dipole Moment (Debye)
         X     -17.4586      Y      -5.8990      Z      10.0784
       Tot      21.0041
    Quadrupole Moments (Debye-Ang)
        XX     -83.7270     XY      -8.2952     YY     -60.4017
        XZ      41.8453     YZ      10.4913     ZZ     -64.1620
    Octopole Moments (Debye-Ang^2)
       XXX    -306.0344    XXY     -41.2256    XYY    -103.0011
       YYY     -89.1058    XXZ     179.5968    XYZ      11.8878
       YYZ     117.6292    XZZ    -168.1709    YZZ     -36.0342
       ZZZ     316.4257
    Hexadecapole Moments (Debye-Ang^3)
      XXXX   -1153.3393   XXXY    -196.1086   XXYY    -289.8722
      XYYY    -198.4288   YYYY    -629.7762   XXXZ     607.6241
      XXYZ      62.0086   XYYZ     193.6960   YYYZ     122.7652
      XXZZ    -551.8999   XYZZ     -60.7404   YYZZ    -352.9914
      XZZZ     650.4733   YZZZ      93.0376   ZZZZ   -1420.5868
 -----------------------------------------------------------------
 Calculating analytic gradient of the SCF energy
 Gradient of CDS energy
            1           2           3           4           5           6
    1   0.0029957  -0.0001000   0.0000734   0.0000348  -0.0021842  -0.0002310
    2  -0.0003056  -0.0001718   0.0009737  -0.0007780   0.0001978  -0.0004787
    3  -0.0007720  -0.0016288  -0.0001529   0.0019656   0.0008805   0.0000146
            7           8           9          10          11
    1  -0.0002176  -0.0002132  -0.0000686   0.0000037  -0.0000930
    2   0.0001916   0.0000598   0.0001653   0.0000590   0.0000870
    3  -0.0004437   0.0001479   0.0000422  -0.0000724   0.0000190
 Gradient of SCF Energy
            1           2           3           4           5           6
    1   0.0268570  -0.0515410   0.0069399   0.0083497  -0.0054824   0.0011106
    2  -0.0200889   0.0117520  -0.0146886   0.0083070   0.0037394   0.0074254
    3   0.0333511   0.0242199  -0.0028527  -0.0152983  -0.0010020   0.0015318
            7           8           9          10          11
    1   0.0025745  -0.0043906   0.0187007  -0.0056940   0.0025756
    2  -0.0044852   0.0102447  -0.0128200   0.0095948   0.0010194
    3   0.0097211  -0.0353899  -0.0133711   0.0004817  -0.0013917
 Max gradient component =       5.154E-02
 RMS gradient           =       1.623E-02
 Computing fast CPCM-SWIG gradient
 Updating gradient with PCM contributions...
 -- total gradient after adding PCM contribution --
---------------------------------------------------
  Atom         X              Y              Z     
---------------------------------------------------
   1      -0.000974      -0.000403       0.000013
   2       0.000250       0.000078       0.000185
   3      -0.000026       0.000005      -0.000051
   4      -0.000023      -0.000038      -0.000023
   5       0.000566       0.000033      -0.000232
   6      -0.000015       0.000003       0.000053
   7      -0.000029       0.000034       0.000037
   8       0.000121       0.000024      -0.000008
   9       0.000041       0.000020       0.000018
  10      -0.000034       0.000122       0.000069
  11       0.000121       0.000122      -0.000061
---------------------------------------------------
 Number of fixed atoms: 0
 Gradient time:  CPU 96.62 s  wall 14.16 s
 ----------------------------------------------------------------
             Standard Nuclear Orientation (Angstroms)
    I     Atom           X                Y                Z
 ----------------------------------------------------------------
    1      C       1.8089773900     0.1607908005    -1.5221501325
    2      C       0.5792040988    -0.2991611523    -2.3054470286
    3      O       0.6197325970    -1.7125805858    -2.2890431111
    4      O       0.6655800822     0.2056558943    -3.6177985492
    5      O       2.9496862201     0.0916683647    -2.0773576167
    6      H      -0.2563330744    -2.0459168085    -2.5118039659
    7      H      -0.2076477017     0.1496441022    -4.0202819741
    8      H       1.7139920902    -0.1336964048    -0.4646467700
    9      H      -0.3383111293     0.0472027698    -1.8278475356
   10      O       1.3247484052     1.7812610481    -1.2728154322
   11      O       2.2184430219     2.6226479715    -1.6799752844
 ----------------------------------------------------------------
 Nuclear Repulsion Energy =         321.90884144 hartrees
 There are       29 alpha and       28 beta electrons
 Discretize the solute cavity surface with Lebedev spheres
	Using 110 Lebedev grid points for each H atom
	Using 194 Lebedev grid points for other atoms
	Atomic van der Waals radii will be scaled by 1.20
 Remove points where switching function is < 1.0e-08
 Keep 985 surface tesserae and discard 813 interior tesserae
 Molecular Surface Area = 116.401 Angst**2

                       Distance Matrix (Angstroms)
             C (  1)   C (  2)   O (  3)   O (  4)   O (  5)   H (  6)
   C (  2)  1.528873
   O (  3)  2.347754  1.414096
   O (  4)  2.387700  1.408747  2.333950
   O (  5)  1.270531  2.413288  2.954456  2.757371
   H (  6)  3.180327  1.947270  0.963445  2.672588  3.877702
   H (  7)  3.210539  1.939387  2.673879  0.963150  3.707705  2.664275
   H (  8)  1.101843  2.168794  2.649283  3.340164  2.044154  3.424853
   H (  9)  2.171912  1.090827  2.056061  2.058356  3.297751  2.203558
   O ( 10)  1.709552  2.439328  3.706305  2.901031  2.478394  4.322291
   O ( 11)  2.500662  3.408121  4.660584  3.465313  2.664299  5.349014
             H (  7)   H (  8)   H (  9)   O ( 10)
   H (  8)  4.051607
   H (  9)  2.198712  2.470423
   O ( 10)  3.543866  2.114642  2.465925
   O ( 11)  4.180753  3.054329  3.632048  1.293214
 
 Requested basis set is 6-311++G(2df,2p)
 There are 80 shells and 278 basis functions
 A cutoff of  1.0D-12 yielded   2997 shell pairs
 There are     36483 function pairs (     46210 Cartesian)
 Smallest overlap matrix eigenvalue = 5.93E-05
 Guess MOs from SCF MO coefficient file

 -----------------------------------------------------------------------
  General SCF calculation program by
  Eric Jon Sundstrom, Paul Horn, Yuezhi Mao, Dmitri Zuev, Alec White,
  David Stuck, Shaama M.S., Shane Yost, Joonho Lee, David Small,
  Daniel Levine, Susi Lehtola, Hugh Burton, Evgeny Epifanovsky,
  Bang C. Huynh
 -----------------------------------------------------------------------
 Exchange:     0.1500 Hartree-Fock + 1.0000 wB97M-V + LR-HF
 Correlation:  1.0000 wB97M-V
 Using SG-2 standard quadrature grid
 Nonlocal Correlation:  VV10 with C = 0.0100 and b = 6.00 and scale = 1.00000
 Grid used for NLC:  SG-1 standard quadrature
 
 Citation of the SMD model:
 Marenich, A.V.; Cramer, C.J.; Truhlar, D.G.
 J. Phys. Chem. B 2009, 113, 6378-6396.
 iSolventCode=           1
 Solvent: water                                                           
 
 vradii
            1           2           3           4           5           6
    1   1.8500000   1.8500000   1.5200000   1.5200000   1.5200000   1.2000000
            7           8           9          10          11
    1   1.2000000   1.2000000   1.2000000   1.5200000   1.5200000
 -------------------------------------------------------
 OpenMP BLAS3 based DFT computing Module                
 Release: version 1.0, May 2013, Q-Chem Inc. Pittsburgh 
 -------------------------------------------------------
 A unrestricted SCF calculation will be
 performed using Roothaan-Hall, DIIS, GDM
 SCF converges when RMS gradient is below 1.0e-07
 ---------------------------------------
  Cycle       Energy         DIIS error
 ---------------------------------------
    1    -454.6253406443      5.66e-04  Roothaan Step
 ---------------------------------------
  Cycle       Energy         DIIS error
 ---------------------------------------
    1    -454.7600339769      6.99e-04  
    2    -454.7744030368      7.30e-04  Done DIIS. Switching to GDM
 ---------------------------------------
  Cycle       Energy        RMS Gradient
 ---------------------------------------
    1    -454.7744030368      3.34e-02   Normal BFGS step
    2    -454.7659740126      6.02e-02  Line search: overstep
    3    -454.7872384472      8.14e-03   Normal BFGS step
    4    -454.7878394983      4.78e-03   Normal BFGS step
    5    -454.7880751835      2.79e-03   Normal BFGS step
    6    -454.7880976363      3.99e-04   Normal BFGS step
    7    -454.7881064514      4.71e-04   Normal BFGS step
    8    -454.7881071983      2.85e-04   Normal BFGS step
    9    -454.7881076043      1.86e-04   Normal BFGS step
   10    -454.7881077356      3.40e-05   Normal BFGS step
   11    -454.7881077490      1.12e-05   Normal BFGS step
   12    -454.7881077507      4.46e-06   Normal BFGS step
   13    -454.7881077513      1.37e-06   Normal BFGS step
   14    -454.7881077513      1.15e-06   Normal BFGS step
   15    -454.7881077514      1.08e-06   Normal BFGS step
   16    -454.7881077514      9.95e-07   Normal BFGS step
   17    -454.7881077513      8.34e-07   Normal BFGS step
   18    -454.7881077513      5.78e-07   Normal BFGS step
   19    -454.7881077513      2.57e-07   Normal BFGS step
   20    -454.7881077513      1.10e-07   Normal BFGS step
   21    -454.7881077514      5.31e-08  Convergence criterion met
 ---------------------------------------
 SCF time:   CPU 757.78s  wall 96.00s 
<S^2> =          0.754946517
(3)  G-ENP(liq) elect-nuc-pol free energy of system     -454.788107751 a.u.
(4)  G-CDS(liq) cavity-dispersion-solvent structure 
     free energy                                                2.6819 kcal/mol
(6)  G-S(liq) free energy of system                     -454.783833933 a.u.
 SCF   energy in the final basis set =     -454.7838339334
 Total energy in the final basis set =     -454.7838339334
 
 --------------------------------------------------------------
 
                    Orbital Energies (a.u.)
 --------------------------------------------------------------
 
 Alpha MOs
 -- Occupied --
-19.4092 -19.3800 -19.3411 -19.3401 -19.2715 -10.4341 -10.4185  -1.2946
 -1.1961  -1.1302  -1.1100  -0.9341  -0.8201  -0.6923  -0.6485  -0.6440
 -0.5948  -0.5782  -0.5713  -0.5448  -0.5166  -0.4987  -0.4756  -0.4136
 -0.4078  -0.4011  -0.3667  -0.3383  -0.3283
 -- Virtual --
  0.0292   0.0498   0.0597   0.0617   0.0929   0.1061   0.1112   0.1264
  0.1354   0.1452   0.1562   0.1666   0.1738   0.1971   0.2161   0.2308
  0.2393   0.2524   0.2699   0.2750   0.2786   0.2849   0.2936   0.2993
  0.3097   0.3136   0.3315   0.3370   0.3397   0.3558   0.3678   0.3721
  0.3792   0.3828   0.3890   0.3960   0.4056   0.4350   0.4524   0.4770
  0.4859   0.5336   0.5746   0.5959   0.6175   0.6360   0.6479   0.6845
  0.6978   0.7200   0.7470   0.7570   0.7950   0.8198   0.8793   0.9001
  0.9064   0.9268   0.9627   1.0088   1.0387   1.0717   1.0787   1.1160
  1.1278   1.1369   1.1517   1.1610   1.1750   1.1809   1.1862   1.2036
  1.2178   1.2269   1.2441   1.2637   1.2663   1.2803   1.3030   1.3180
  1.3348   1.3894   1.4089   1.4484   1.4619   1.4863   1.5111   1.5352
  1.5481   1.5852   1.5909   1.6084   1.6357   1.6504   1.6622   1.6835
  1.7135   1.7334   1.7706   1.8374   1.8551   1.8953   1.9214   1.9568
  2.0042   2.0670   2.1080   2.1126   2.2233   2.2325   2.2654   2.2921
  2.3387   2.3598   2.4041   2.4333   2.4664   2.4887   2.5435   2.5753
  2.6525   2.7056   2.7199   2.8177   2.8601   2.9340   2.9685   3.0542
  3.1530   3.2439   3.2693   3.3179   3.3238   3.3790   3.4030   3.4265
  3.4701   3.5317   3.5670   3.5992   3.6066   3.6290   3.6669   3.7023
  3.7425   3.7766   3.8078   3.8566   3.8774   3.8895   3.9706   4.0296
  4.0720   4.1013   4.1785   4.1974   4.2236   4.2962   4.3163   4.3424
  4.3923   4.4608   4.5353   4.5905   4.6068   4.6851   4.7299   4.7962
  4.8750   4.9198   5.0862   5.0926   5.1027   5.1442   5.1734   5.2016
  5.2134   5.2328   5.2416   5.2501   5.2559   5.2617   5.2740   5.2975
  5.3041   5.3231   5.3343   5.3434   5.3784   5.4089   5.4337   5.4545
  5.4884   5.5281   5.5531   5.5781   5.6253   5.6495   5.6563   5.6738
  5.7276   5.7562   5.8537   5.9340   6.0505   6.0654   6.1316   6.2937
  6.4335   6.5009   6.5448   6.6346   6.7185   6.8172   6.8714   6.9491
  7.0158   7.0318   7.0609   7.0792   7.1183   7.1351   7.1555   7.1703
  7.2475   7.2630   7.2853   7.3311   7.3639   7.3790   7.4383   7.5017
  7.5259   7.5816   7.6606   7.7043   7.7243   7.7898   7.8507   7.8812
  8.0189   8.1145  24.7416  24.8851  50.4530  50.5390  50.5952  50.6216
 50.7282
 
 Beta MOs
 -- Occupied --
-19.3962 -19.3633 -19.3411 -19.3401 -19.2716 -10.4339 -10.4188  -1.2664
 -1.1959  -1.1301  -1.1095  -0.9007  -0.8130  -0.6873  -0.6460  -0.6435
 -0.5725  -0.5662  -0.5530  -0.5192  -0.4987  -0.4804  -0.4735  -0.4131
 -0.4070  -0.3947  -0.3350  -0.3229
 -- Virtual --
  0.0063   0.0293   0.0501   0.0599   0.0620   0.0934   0.1071   0.1120
  0.1282   0.1359   0.1464   0.1578   0.1682   0.1748   0.2002   0.2175
  0.2319   0.2408   0.2552   0.2718   0.2763   0.2811   0.2892   0.2958
  0.3021   0.3109   0.3157   0.3330   0.3400   0.3428   0.3571   0.3690
  0.3735   0.3822   0.3859   0.3911   0.3979   0.4071   0.4368   0.4530
  0.4777   0.4867   0.5348   0.5749   0.5963   0.6178   0.6367   0.6489
  0.6846   0.6982   0.7209   0.7471   0.7577   0.7961   0.8205   0.8799
  0.9017   0.9074   0.9280   0.9641   1.0098   1.0409   1.0738   1.0847
  1.1222   1.1312   1.1482   1.1569   1.1641   1.1778   1.1874   1.1961
  1.2066   1.2222   1.2278   1.2478   1.2686   1.2792   1.2842   1.3053
  1.3209   1.3377   1.3910   1.4110   1.4530   1.4653   1.4914   1.5142
  1.5431   1.5549   1.5934   1.5967   1.6204   1.6418   1.6534   1.6732
  1.6898   1.7270   1.7374   1.7841   1.8420   1.8598   1.8968   1.9232
  1.9610   2.0084   2.0746   2.1098   2.1186   2.2261   2.2362   2.2756
  2.3029   2.3441   2.3698   2.4064   2.4346   2.4683   2.4903   2.5449
  2.5759   2.6596   2.7096   2.7203   2.8192   2.8611   2.9339   2.9683
  3.0546   3.1535   3.2439   3.2697   3.3180   3.3238   3.3791   3.4029
  3.4264   3.4703   3.5317   3.5669   3.5999   3.6063   3.6286   3.6678
  3.7023   3.7429   3.7767   3.8078   3.8567   3.8776   3.8897   3.9710
  4.0297   4.0717   4.1012   4.1787   4.1976   4.2240   4.2970   4.3168
  4.3424   4.3931   4.4611   4.5358   4.5999   4.6339   4.6976   4.7389
  4.8229   4.8932   4.9320   5.1289   5.1415   5.1564   5.1764   5.1851
  5.2116   5.2190   5.2416   5.2554   5.2593   5.2792   5.2846   5.2969
  5.3041   5.3131   5.3401   5.3445   5.3569   5.3836   5.4175   5.4359
  5.4577   5.4892   5.5328   5.5548   5.5848   5.6319   5.6558   5.6683
  5.6794   5.7378   5.7616   5.8544   5.9444   6.0512   6.0658   6.1316
  6.2942   6.4342   6.5017   6.5917   6.6451   6.7202   6.8879   6.9479
  6.9892   7.0236   7.0496   7.0690   7.1028   7.1276   7.1404   7.1877
  7.2049   7.2552   7.2656   7.2856   7.3473   7.3732   7.3919   7.4682
  7.5070   7.5384   7.5894   7.6623   7.7053   7.7311   7.7907   7.8529
  7.8813   8.0339   8.1343  24.7417  24.8850  50.4650  50.5483  50.5953
 50.6228  50.7282
 --------------------------------------------------------------
 
          Ground-State Mulliken Net Atomic Charges

     Atom                 Charge (a.u.)    Spin (a.u.)
  --------------------------------------------------------
      1 C                    -0.044810      -0.014669
      2 C                    -0.056470       0.011533
      3 O                    -0.457425       0.000507
      4 O                    -0.452768      -0.000258
      5 O                    -0.731893      -0.005527
      6 H                     0.334638       0.000026
      7 H                     0.340198       0.000068
      8 H                     0.228940       0.006421
      9 H                     0.249592       0.000049
     10 O                    -0.082816       0.411310
     11 O                    -0.327186       0.590539
  --------------------------------------------------------
  Sum of atomic charges =    -1.000000
  Sum of spin   charges =     1.000000

 -----------------------------------------------------------------
                    Cartesian Multipole Moments
 -----------------------------------------------------------------
    Charge (ESU x 10^10)
                -4.8032
    Dipole Moment (Debye)
         X     -17.4514      Y      -5.8952      Z      10.0769
       Tot      20.9964
    Quadrupole Moments (Debye-Ang)
        XX     -83.7013     XY      -8.2905     YY     -60.3989
        XZ      41.8269     YZ      10.4866     ZZ     -64.1630
    Octopole Moments (Debye-Ang^2)
       XXX    -305.9572    XXY     -41.2237    XYY    -102.9971
       YYY     -89.1101    XXZ     179.5392    XYZ      11.8826
       YYZ     117.6279    XZZ    -168.1347    YZZ     -36.0315
       ZZZ     316.4405
    Hexadecapole Moments (Debye-Ang^3)
      XXXX   -1153.1317   XXXY    -196.1343   XXYY    -289.8634
      XYYY    -198.4538   YYYY    -629.7923   XXXZ     607.4557
      XXYZ      62.0109   XYYZ     193.6879   YYYZ     122.7783
      XXZZ    -551.7875   XYZZ     -60.7429   YYZZ    -352.9964
      XZZZ     650.3851   YZZZ      93.0466   ZZZZ   -1420.6902
 -----------------------------------------------------------------
 Calculating analytic gradient of the SCF energy
 Gradient of CDS energy
            1           2           3           4           5           6
    1   0.0029777  -0.0001006   0.0000735   0.0000345  -0.0021643  -0.0002310
    2  -0.0003056  -0.0001720   0.0009736  -0.0007781   0.0001984  -0.0004788
    3  -0.0007640  -0.0016284  -0.0001527   0.0019656   0.0008721   0.0000146
            7           8           9          10          11
    1  -0.0002176  -0.0002138  -0.0000686   0.0000036  -0.0000933
    2   0.0001916   0.0000592   0.0001653   0.0000590   0.0000874
    3  -0.0004437   0.0001479   0.0000421  -0.0000725   0.0000190
 Gradient of SCF Energy
            1           2           3           4           5           6
    1   0.0280226  -0.0518744   0.0068943   0.0083579  -0.0062162   0.0011186
    2  -0.0198069   0.0116150  -0.0147443   0.0083143   0.0037038   0.0074262
    3   0.0330893   0.0240397  -0.0028672  -0.0153161  -0.0006924   0.0015301
            7           8           9          10          11
    1   0.0025820  -0.0044124   0.0187065  -0.0057648   0.0025861
    2  -0.0044818   0.0102039  -0.0128163   0.0096463   0.0009399
    3   0.0097338  -0.0352385  -0.0133854   0.0004948  -0.0013881
 Max gradient component =       5.187E-02
 RMS gradient           =       1.628E-02
 Computing fast CPCM-SWIG gradient
 Updating gradient with PCM contributions...
 -- total gradient after adding PCM contribution --
---------------------------------------------------
  Atom         X              Y              Z     
---------------------------------------------------
   1       0.000385       0.000172      -0.000263
   2      -0.000060      -0.000114       0.000024
   3      -0.000079      -0.000050      -0.000076
   4       0.000004      -0.000029       0.000005
   5      -0.000192      -0.000107       0.000069
   6      -0.000016      -0.000002       0.000051
   7      -0.000033       0.000035       0.000048
   8       0.000013      -0.000094       0.000082
   9       0.000031       0.000019       0.000008
  10      -0.000166       0.000155       0.000111
  11       0.000111       0.000015      -0.000058
---------------------------------------------------
 Number of fixed atoms: 0
 Gradient time:  CPU 97.98 s  wall 14.18 s
 ----------------------------------------------------------------
             Standard Nuclear Orientation (Angstroms)
    I     Atom           X                Y                Z
 ----------------------------------------------------------------
    1      C       1.8089773900     0.1587908005    -1.5221501325
    2      C       0.5792040988    -0.2991611523    -2.3054470286
    3      O       0.6197325970    -1.7125805858    -2.2890431111
    4      O       0.6655800822     0.2056558943    -3.6177985492
    5      O       2.9496862201     0.0916683647    -2.0773576167
    6      H      -0.2563330744    -2.0459168085    -2.5118039659
    7      H      -0.2076477017     0.1496441022    -4.0202819741
    8      H       1.7139920902    -0.1336964048    -0.4646467700
    9      H      -0.3383111293     0.0472027698    -1.8278475356
   10      O       1.3247484052     1.7812610481    -1.2728154322
   11      O       2.2184430219     2.6226479715    -1.6799752844
 ----------------------------------------------------------------
 Nuclear Repulsion Energy =         321.90006242 hartrees
 There are       29 alpha and       28 beta electrons
 Discretize the solute cavity surface with Lebedev spheres
	Using 110 Lebedev grid points for each H atom
	Using 194 Lebedev grid points for other atoms
	Atomic van der Waals radii will be scaled by 1.20
 Remove points where switching function is < 1.0e-08
 Keep 985 surface tesserae and discard 813 interior tesserae
 Molecular Surface Area = 116.405 Angst**2

                       Distance Matrix (Angstroms)
             C (  1)   C (  2)   O (  3)   O (  4)   O (  5)   H (  6)
   C (  2)  1.528272
   O (  3)  2.346158  1.414096
   O (  4)  2.387739  1.408747  2.333950
   O (  5)  1.270424  2.413288  2.954456  2.757371
   H (  6)  3.178940  1.947270  0.963445  2.672588  3.877702
   H (  7)  3.210533  1.939387  2.673879  0.963150  3.707705  2.664275
   H (  8)  1.101310  2.168794  2.649283  3.340164  2.044154  3.424853
   H (  9)  2.171808  1.090827  2.056061  2.058356  3.297751  2.203558
   O ( 10)  1.711448  2.439328  3.706305  2.901031  2.478394  4.322291
   O ( 11)  2.502631  3.408121  4.660584  3.465313  2.664299  5.349014
             H (  7)   H (  8)   H (  9)   O ( 10)
   H (  8)  4.051607
   H (  9)  2.198712  2.470423
   O ( 10)  3.543866  2.114642  2.465925
   O ( 11)  4.180753  3.054329  3.632048  1.293214
 
 Requested basis set is 6-311++G(2df,2p)
 There are 80 shells and 278 basis functions
 A cutoff of  1.0D-12 yielded   2997 shell pairs
 There are     36483 function pairs (     46210 Cartesian)
 Smallest overlap matrix eigenvalue = 5.91E-05
 Guess MOs from SCF MO coefficient file

 -----------------------------------------------------------------------
  General SCF calculation program by
  Eric Jon Sundstrom, Paul Horn, Yuezhi Mao, Dmitri Zuev, Alec White,
  David Stuck, Shaama M.S., Shane Yost, Joonho Lee, David Small,
  Daniel Levine, Susi Lehtola, Hugh Burton, Evgeny Epifanovsky,
  Bang C. Huynh
 -----------------------------------------------------------------------
 Exchange:     0.1500 Hartree-Fock + 1.0000 wB97M-V + LR-HF
 Correlation:  1.0000 wB97M-V
 Using SG-2 standard quadrature grid
 Nonlocal Correlation:  VV10 with C = 0.0100 and b = 6.00 and scale = 1.00000
 Grid used for NLC:  SG-1 standard quadrature
 
 Citation of the SMD model:
 Marenich, A.V.; Cramer, C.J.; Truhlar, D.G.
 J. Phys. Chem. B 2009, 113, 6378-6396.
 iSolventCode=           1
 Solvent: water                                                           
 
 vradii
            1           2           3           4           5           6
    1   1.8500000   1.8500000   1.5200000   1.5200000   1.5200000   1.2000000
            7           8           9          10          11
    1   1.2000000   1.2000000   1.2000000   1.5200000   1.5200000
 -------------------------------------------------------
 OpenMP BLAS3 based DFT computing Module                
 Release: version 1.0, May 2013, Q-Chem Inc. Pittsburgh 
 -------------------------------------------------------
 A unrestricted SCF calculation will be
 performed using Roothaan-Hall, DIIS, GDM
 SCF converges when RMS gradient is below 1.0e-07
 ---------------------------------------
  Cycle       Energy         DIIS error
 ---------------------------------------
    1    -454.6253993808      5.65e-04  Roothaan Step
 ---------------------------------------
  Cycle       Energy         DIIS error
 ---------------------------------------
    1    -454.7600126767      6.99e-04  
    2    -454.7743650304      7.31e-04  Done DIIS. Switching to GDM
 ---------------------------------------
  Cycle       Energy        RMS Gradient
 ---------------------------------------
    1    -454.7743650304      3.35e-02   Normal BFGS step
    2    -454.7659103221      6.05e-02  Line search: overstep
    3    -454.7872379929      8.15e-03   Normal BFGS step
    4    -454.7878392894      4.76e-03   Normal BFGS step
    5    -454.7880753603      2.82e-03   Normal BFGS step
    6    -454.7880979742      3.98e-04   Normal BFGS step
    7    -454.7881068301      4.79e-04   Normal BFGS step
    8    -454.7881075967      2.90e-04   Normal BFGS step
    9    -454.7881080151      1.88e-04   Normal BFGS step
   10    -454.7881081497      3.19e-05   Normal BFGS step
   11    -454.7881081629      1.11e-05   Normal BFGS step
   12    -454.7881081646      5.88e-06   Normal BFGS step
   13    -454.7881081652      4.96e-06   Normal BFGS step
   14    -454.7881081653      4.38e-06   Normal BFGS step
   15    -454.7881081654      3.49e-06   Normal BFGS step
   16    -454.7881081654      2.18e-06   Normal BFGS step
   17    -454.7881081654      1.01e-06   Normal BFGS step
   18    -454.7881081654      5.49e-07   Normal BFGS step
   19    -454.7881081654      2.08e-07   Normal BFGS step
   20    -454.7881081654      9.30e-08  Convergence criterion met
 ---------------------------------------
 SCF time:   CPU 736.10s  wall 93.00s 
<S^2> =          0.754955245
(3)  G-ENP(liq) elect-nuc-pol free energy of system     -454.788108165 a.u.
(4)  G-CDS(liq) cavity-dispersion-solvent structure 
     free energy                                                2.6826 kcal/mol
(6)  G-S(liq) free energy of system                     -454.783833197 a.u.
 SCF   energy in the final basis set =     -454.7838331967
 Total energy in the final basis set =     -454.7838331967
 
 --------------------------------------------------------------
 
                    Orbital Energies (a.u.)
 --------------------------------------------------------------
 
 Alpha MOs
 -- Occupied --
-19.4088 -19.3798 -19.3411 -19.3401 -19.2717 -10.4342 -10.4185  -1.2943
 -1.1962  -1.1302  -1.1101  -0.9338  -0.8203  -0.6923  -0.6485  -0.6440
 -0.5947  -0.5780  -0.5712  -0.5448  -0.5168  -0.4987  -0.4757  -0.4136
 -0.4078  -0.4012  -0.3665  -0.3380  -0.3285
 -- Virtual --
  0.0292   0.0498   0.0597   0.0617   0.0929   0.1062   0.1112   0.1264
  0.1354   0.1451   0.1561   0.1665   0.1738   0.1969   0.2161   0.2308
  0.2393   0.2523   0.2698   0.2750   0.2786   0.2849   0.2936   0.2993
[...]
     5    2.329189446569754e-02  -1.739020355780803e-02  -3.351756090556009e-03
     6    4.151390288350748e-04  -5.247896063336418e-04  -2.048808915102171e-04
     7    1.666573786716792e-04  -3.953282718072899e-05   1.702349827101930e-04
     8   -2.471664643159528e-03   1.468506912935078e-02   3.400967716381807e-03
     9   -5.870376796886614e-05   2.773784141988268e-04   1.905721767158527e-04
    10   -1.378993500130644e-01  -8.796634155534026e-02   8.748150235578636e-02
    11    1.200506259418095e-01   8.284440147939526e-02  -5.558681895835267e-02


    11 Order 1, Length 33
    Atom      X          Y          Z
     1   -8.249087168268329e-03   3.057082274022556e-03   2.553870526036639e-03
     2    2.729653132806896e-03  -7.926132242222312e-04   2.864561973962125e-03
     3   -1.381061119552752e-03  -1.472036638368574e-03  -7.422565243887897e-04
     4   -8.016179487999187e-05   5.339441577373820e-04  -5.751458306568823e-04
     5    1.160229120033437e-02   7.571756199607297e-03  -6.721801373748898e-03
     6    9.749590940435408e-05  -2.809637570913310e-04  -1.832963603422479e-04
     7    3.110151128591526e-05   5.515506431988120e-05  -5.701059044930209e-05
     8   -4.266734070009345e-04  -3.785174171173303e-04   2.086802713283487e-04
     9    1.038263718398207e-04   6.295694855631419e-06  -1.149374699922773e-04
    10   -2.640655980348091e-01  -2.260871390514712e-01   1.200506259418095e-01
    11    2.596377514079135e-01   2.177845689987913e-01  -1.172835936161823e-01

Order 1, Length 33
    Atom      X          Y          Z
     1   -3.571583098638944e-02  -2.085311984510687e-02   1.453902472045967e-02
     2    8.371060879327444e-03  -3.472905530776822e-03   6.236362476956709e-03
     3   -4.207649311484894e-03  -3.807648287850997e-03  -2.361937164663902e-03
     4   -8.727208838923326e-04   6.290728350740620e-04  -1.598559536209386e-03
     5    1.544091188499416e-03   5.664347405046483e-03  -1.155387270633358e-03
     6    2.081555348897524e-04  -7.827202277879231e-04  -5.916143615775047e-04
     7    1.084655397697950e-04   4.301275915506553e-05  -1.737859655185623e-04
     8    8.781272854217232e-04  -5.294594734987052e-03  -6.445057960920690e-04
     9   -2.775492256662886e-04   1.783204915962268e-04   1.972556757147505e-04
    10   -1.878206837831472e-01  -2.326604110946291e-01   8.284440147939526e-02
    11    2.177845689987913e-01   2.603564681509705e-01  -9.729215843026237e-02

Order 1, Length 33
    Atom      X          Y          Z
     1    3.130259366011379e-03  -1.476544249845539e-03  -4.021541126604988e-04
     2   -1.401159386846187e-03  -8.878193873446453e-04  -1.576273259681409e-03
     3    4.567529244154161e-04   5.139129323214958e-05   2.613488894052918e-05
     4    3.967992058452826e-05  -3.077243760951722e-04   3.824035465204047e-04
     5   -6.588616643236144e-03  -3.757218777098073e-03   2.132519526962430e-03
     6   -4.054367333275381e-05   5.092132587697763e-05   4.882190228833357e-05
     7   -3.458753771131264e-05   1.556743728222752e-05   6.364228740261668e-05
     8   -3.469915315628677e-04   1.504831894084054e-03  -1.393917514471916e-04
     9    1.391058210668280e-04  -2.958286660294249e-04  -1.282741633766167e-05
    10    1.219307938094115e-01   1.023959761203440e-01  -5.558681895835267e-02
    11   -1.172835936161823e-01  -9.729215843026237e-02   5.506466176926224e-02




 # Finishing finite difference calculation for IDERIV #
 ######################################################
 ######################################################
 Requested basis set is 6-311++G(2df,2p)
 There are 80 shells and 278 basis functions
 **********************************************************************
 **                                                                  **
 **                       VIBRATIONAL ANALYSIS                       **
 **                       --------------------                       **
 **                                                                  **
 **        VIBRATIONAL FREQUENCIES (CM**-1) AND NORMAL MODES         **
 **     FORCE CONSTANTS (mDYN/ANGSTROM) AND REDUCED MASSES (AMU)     **
 **                  INFRARED INTENSITIES (KM/MOL)                   **
 **                                                                  **
 **********************************************************************
 

 Mode:                 1                      2                      3
 Frequency:        55.54                  95.65                 198.33
 Force Cnst:      0.0206                 0.0420                 0.1624
 Red. Mass:      11.3069                 7.7966                 7.0079
 IR Active:          YES                    YES                    YES
 IR Intens:        1.351                  2.082                 95.797
 Raman Active:       YES                    YES                    YES
               X      Y      Z        X      Y      Z        X      Y      Z
 C          0.015  0.064 -0.169    0.111 -0.077 -0.061   -0.202  0.305  0.006
 C         -0.016 -0.023 -0.066    0.052  0.073 -0.059   -0.094  0.106 -0.081
 O         -0.099 -0.023  0.221   -0.282  0.065  0.146    0.203  0.121  0.144
 O         -0.005 -0.293 -0.168    0.249 -0.130 -0.122   -0.069 -0.077 -0.156
 O         -0.011  0.140 -0.224    0.065  0.090 -0.155   -0.124  0.100  0.010
 H         -0.117 -0.017  0.281   -0.337  0.241  0.097    0.417 -0.105 -0.361
 H         -0.010 -0.340 -0.151    0.255  0.037 -0.158   -0.052 -0.172 -0.179
 H          0.099  0.084 -0.155    0.186 -0.255 -0.106   -0.260 -0.033 -0.081
 H          0.009  0.124 -0.123    0.101  0.343 -0.163   -0.213  0.017 -0.238
 O         -0.099  0.063 -0.198    0.073 -0.086  0.334    0.157 -0.223  0.146
 O          0.216  0.091  0.555   -0.241  0.041 -0.092    0.062 -0.212 -0.033
 TransDip  -0.001 -0.034 -0.015    0.041  0.014 -0.016   -0.126  0.283 -0.048

 Mode:                 4                      5                      6
 Frequency:       233.88                 245.51                 285.37
 Force Cnst:      0.0744                 0.0608                 0.0906
 Red. Mass:       2.3079                 1.7130                 1.8878
 IR Active:          YES                    YES                    YES
 IR Intens:      169.662                 54.839                127.944
 Raman Active:       YES                    YES                    YES
               X      Y      Z        X      Y      Z        X      Y      Z
 C          0.050  0.044  0.010    0.012  0.065 -0.001    0.017  0.004 -0.025
 C          0.035  0.038  0.040    0.011  0.024  0.021    0.022  0.006 -0.067
 O         -0.051  0.044  0.074   -0.036  0.027 -0.026    0.005  0.005 -0.030
 O          0.028  0.033  0.035    0.021  0.085  0.045   -0.114 -0.058 -0.105
 O          0.073  0.024 -0.002    0.043  0.045  0.007    0.092  0.014  0.122
 H          0.060  0.103 -0.461   -0.223  0.054  0.678   -0.179  0.002  0.710
 H         -0.133  0.746  0.293    0.183 -0.596 -0.217   -0.292  0.507  0.208
 H          0.084  0.015  0.007    0.015 -0.003 -0.016   -0.100 -0.040 -0.045
 H          0.062  0.111  0.039    0.021  0.009  0.054    0.059  0.021 -0.014
 O         -0.057 -0.154 -0.159   -0.015 -0.120 -0.080    0.031 -0.017  0.026
 O         -0.062 -0.070  0.022   -0.029 -0.069  0.007   -0.011  0.017  0.002
 TransDip  -0.069  0.411 -0.019   -0.087 -0.056  0.214   -0.174  0.187  0.256

 Mode:                 7                      8                      9
 Frequency:       305.76                 307.20                 441.11
 Force Cnst:      0.3712                 0.1274                 1.0758
 Red. Mass:       6.7389                 2.2905                 9.3839
 IR Active:          YES                    YES                    YES
 IR Intens:       42.335                 87.506                166.602
 Raman Active:       YES                    YES                    YES
               X      Y      Z        X      Y      Z        X      Y      Z
 C          0.046 -0.041  0.032   -0.069  0.001  0.026   -0.099  0.347  0.098
 C          0.021 -0.094  0.016   -0.017 -0.042  0.016   -0.084 -0.152  0.104
 O         -0.184 -0.108 -0.113    0.039 -0.046 -0.018   -0.155 -0.178 -0.258
 O         -0.090 -0.075  0.024    0.143  0.015  0.047    0.084 -0.173  0.124
 O          0.093  0.430  0.130   -0.131  0.085 -0.096   -0.062  0.049  0.006
 H         -0.115  0.080 -0.682   -0.105 -0.088  0.623   -0.252  0.011 -0.162
 H         -0.077 -0.297  0.023    0.054  0.677  0.157    0.051  0.258  0.144
 H          0.049 -0.096  0.017    0.031  0.009  0.035   -0.036  0.326  0.115
 H          0.088 -0.036  0.115   -0.072 -0.086 -0.069   -0.176 -0.249  0.003
 O         -0.034  0.081  0.046   -0.047  0.043  0.017    0.338 -0.172 -0.069
 O          0.168 -0.205 -0.090    0.066 -0.099 -0.029   -0.041  0.306  0.039
 TransDip   0.060 -0.152 -0.129   -0.071  0.122  0.264   -0.159  0.363  0.119

 Mode:                10                     11                     12
 Frequency:       546.16                 682.00                 777.75
 Force Cnst:      1.2104                 1.7688                 1.8064
 Red. Mass:       6.8871                 6.4546                 5.0686
 IR Active:          YES                    YES                    YES
 IR Intens:       91.960                127.907                 76.918
 Raman Active:       YES                    YES                    YES
               X      Y      Z        X      Y      Z        X      Y      Z
 C         -0.090 -0.100 -0.154    0.023  0.440 -0.090    0.019 -0.047  0.291
 C         -0.089 -0.185 -0.194    0.166 -0.106 -0.054    0.358 -0.023 -0.063
 O         -0.042 -0.246  0.277   -0.091 -0.191  0.038   -0.033 -0.066  0.047
 O          0.006  0.328 -0.015   -0.016  0.093 -0.026   -0.066  0.094 -0.165
 O          0.032  0.105  0.078    0.115 -0.186 -0.045   -0.224  0.027 -0.040
 H          0.096 -0.404 -0.044   -0.175  0.118 -0.115   -0.185  0.367 -0.017
 H          0.148  0.203 -0.309   -0.055  0.017  0.069   -0.278 -0.274  0.330
 H         -0.238 -0.195 -0.189    0.029  0.673 -0.030    0.032  0.001  0.313
 H         -0.115 -0.231 -0.214    0.151 -0.162 -0.042    0.360  0.026 -0.101
 O          0.138 -0.055 -0.031   -0.148  0.129  0.148    0.049 -0.049 -0.050
 O          0.008  0.121 -0.000    0.001 -0.135  0.001   -0.003  0.039  0.004
 TransDip  -0.039 -0.173 -0.251   -0.044  0.360  0.003    0.190 -0.005  0.206

 Mode:                13                     14                     15
 Frequency:       895.01                1148.43                1192.29
 Force Cnst:      1.3495                 0.9749                 1.3903
 Red. Mass:       2.8594                 1.2546                 1.6599
 IR Active:          YES                    YES                    YES
 IR Intens:       29.942                211.288                 95.577
 Raman Active:       YES                    YES                    YES
               X      Y      Z        X      Y      Z        X      Y      Z
 C          0.163  0.027  0.259    0.017 -0.069 -0.059    0.026  0.019 -0.005
 C         -0.199 -0.002 -0.008   -0.005 -0.052  0.012   -0.015  0.138  0.085
 O         -0.011 -0.034  0.001   -0.006  0.048 -0.003    0.012 -0.131 -0.013
 O         -0.023  0.038 -0.120    0.004  0.009 -0.023   -0.006  0.003 -0.063
 O          0.066 -0.007 -0.049   -0.037  0.021  0.022   -0.040 -0.002  0.011
 H          0.098 -0.357  0.060    0.083 -0.194  0.020    0.027 -0.188 -0.007
 H          0.049  0.091 -0.289    0.004  0.002 -0.026    0.153  0.181 -0.432
 H          0.489  0.149  0.313    0.043  0.915  0.211   -0.087 -0.102 -0.039
 H         -0.386 -0.106 -0.295    0.129  0.128  0.135    0.351  0.380  0.619
 O         -0.022  0.010 -0.007    0.035 -0.018  0.008    0.005  0.001 -0.007
 O          0.001 -0.012 -0.000   -0.022 -0.023  0.011   -0.007 -0.006  0.003
 TransDip   0.023 -0.057  0.164    0.112 -0.446 -0.069    0.123  0.283 -0.053

 Mode:                16                     17                     18
 Frequency:      1209.53                1246.21                1274.63
 Force Cnst:      0.9488                 1.8757                 3.3150
 Red. Mass:       1.1008                 2.0499                 3.4631
 IR Active:          YES                    YES                    YES
 IR Intens:       47.717                128.093                272.457
 Raman Active:       YES                    YES                    YES
               X      Y      Z        X      Y      Z        X      Y      Z
 C          0.010 -0.014  0.004   -0.004 -0.066 -0.053   -0.056  0.009 -0.094
 C          0.001 -0.058  0.009   -0.053  0.208  0.034   -0.067 -0.127  0.301
 O          0.030  0.029  0.018    0.053 -0.151  0.006    0.006  0.031 -0.001
 O         -0.033 -0.012 -0.006    0.017  0.002 -0.003    0.082  0.086 -0.233
 O         -0.008  0.003  0.003    0.010  0.015  0.011    0.003 -0.004  0.037
 H         -0.188  0.627 -0.038   -0.228  0.579 -0.037   -0.043  0.173 -0.028
 H          0.208  0.245 -0.550   -0.119 -0.141  0.300   -0.247 -0.215  0.477
 H          0.037  0.076  0.032    0.038  0.368  0.056    0.370 -0.236 -0.125
 H         -0.033 -0.352  0.157   -0.355 -0.052 -0.367   -0.113 -0.303  0.350
 O          0.000 -0.004  0.001    0.034  0.008 -0.011   -0.021 -0.014  0.011
 O          0.001  0.001 -0.001   -0.030 -0.028  0.014    0.024  0.025 -0.012
 TransDip   0.037  0.113 -0.186   -0.052  0.358 -0.020   -0.082 -0.268  0.448

 Mode:                19                     20                     21
 Frequency:      1318.82                1346.94                1406.96
 Force Cnst:      7.1469                 1.7780                 1.5053
 Red. Mass:       6.9742                 1.6634                 1.2907
 IR Active:          YES                    YES                    YES
 IR Intens:       68.707                114.615                 65.350
 Raman Active:       YES                    YES                    YES
               X      Y      Z        X      Y      Z        X      Y      Z
 C         -0.063 -0.007  0.087    0.051  0.041 -0.089   -0.063 -0.002  0.016
 C          0.001 -0.076  0.070    0.020 -0.002 -0.045   -0.018 -0.107  0.064
 O         -0.013  0.044 -0.000   -0.002  0.002 -0.001    0.040 -0.010 -0.010
 O          0.013  0.016 -0.050   -0.014 -0.010  0.033   -0.023  0.014 -0.002
 O          0.085  0.002 -0.072   -0.105 -0.010  0.090    0.037 -0.001 -0.016
 H          0.036 -0.075 -0.002    0.010 -0.033  0.007   -0.074  0.263  0.001
 H         -0.020 -0.000  0.018    0.032  0.026 -0.063    0.041  0.040 -0.137
 H         -0.684 -0.242 -0.025    0.933 -0.214 -0.089    0.048 -0.034  0.015
 H         -0.023 -0.206  0.132    0.022  0.087 -0.117    0.092  0.838 -0.405
 O          0.297  0.294 -0.137    0.059  0.046 -0.028   -0.000  0.006  0.001
 O         -0.291 -0.261  0.133   -0.055 -0.049  0.024    0.001  0.002 -0.000
 TransDip  -0.183  0.049  0.186    0.250 -0.034 -0.233   -0.195 -0.018  0.169

 Mode:                22                     23                     24
 Frequency:      1463.85                1511.74                2952.03
 Force Cnst:      2.4728                 3.6302                 5.5567
 Red. Mass:       1.9586                 2.6960                 1.0822
 IR Active:          YES                    YES                    YES
 IR Intens:      246.759                149.901                187.048
 Raman Active:       YES                    YES                    YES
               X      Y      Z        X      Y      Z        X      Y      Z
 C         -0.169 -0.016  0.085    0.265  0.063 -0.014    0.001  0.020 -0.080
 C         -0.091 -0.000 -0.162   -0.179 -0.103 -0.110   -0.002  0.003  0.001
 O          0.028 -0.009  0.014    0.044  0.003  0.011   -0.000 -0.000  0.000
 O          0.034 -0.004  0.015    0.046  0.013  0.010    0.000 -0.000  0.000
 O          0.089 -0.003 -0.036   -0.109 -0.002  0.034    0.003 -0.000 -0.001
 H         -0.073  0.255 -0.013   -0.121  0.431 -0.020    0.000 -0.002 -0.000
 H         -0.091 -0.126  0.284   -0.137 -0.162  0.410   -0.001 -0.000 -0.001
 H          0.470  0.061  0.138   -0.477 -0.113 -0.079   -0.063 -0.256  0.960
 H          0.330  0.082  0.619    0.154  0.294  0.288    0.028 -0.016 -0.020
 O          0.005  0.009 -0.002   -0.002  0.002 -0.003   -0.001  0.001  0.001
 O         -0.002  0.002  0.001   -0.007 -0.014  0.003    0.000 -0.000 -0.000
 TransDip  -0.442  0.232  0.064    0.321 -0.188 -0.124    0.141  0.098 -0.403

 Mode:                25                     26                     27
 Frequency:      3081.87                3828.49                3833.53
 Force Cnst:      6.0832                 9.2130                 9.2378
 Red. Mass:       1.0871                 1.0668                 1.0669
 IR Active:          YES                    YES                    YES
 IR Intens:       64.782                132.555                133.927
 Raman Active:       YES                    YES                    YES
               X      Y      Z        X      Y      Z        X      Y      Z
 C          0.000 -0.000  0.004    0.000  0.000  0.000    0.000 -0.000  0.000
 C         -0.073  0.025  0.036   -0.001  0.001  0.000   -0.002 -0.000  0.001
 O          0.001  0.000  0.000   -0.056 -0.023 -0.014   -0.000 -0.000  0.000
 O          0.001  0.000  0.000    0.000  0.000 -0.000   -0.056 -0.003 -0.028
 O          0.000  0.000 -0.000    0.000  0.000  0.000    0.000  0.000 -0.000
 H         -0.005  0.003 -0.004    0.905  0.355  0.226    0.005  0.003  0.001
 H         -0.006 -0.005  0.002   -0.006 -0.001 -0.002    0.901  0.050  0.426
 H         -0.001  0.008 -0.036    0.000  0.000  0.000    0.000  0.000  0.002
 H          0.843 -0.312 -0.427    0.005  0.003 -0.001    0.005 -0.002  0.003
 O          0.000  0.000 -0.000    0.000  0.000  0.000    0.000  0.000  0.000
 O         -0.000 -0.000  0.000    0.000  0.000 -0.000    0.000  0.000 -0.000
 TransDip  -0.172  0.086  0.172    0.300  0.207  0.059    0.299 -0.020  0.218

 STANDARD THERMODYNAMIC QUANTITIES AT   298.15 K  AND     1.00 ATM

   This Molecule has  0 Imaginary Frequencies
   Zero point vibrational energy:       45.581 kcal/mol

   Atom    1 Element C  Has Mass   12.00000
   Atom    2 Element C  Has Mass   12.00000
   Atom    3 Element O  Has Mass   15.99491
   Atom    4 Element O  Has Mass   15.99491
   Atom    5 Element O  Has Mass   15.99491
   Atom    6 Element H  Has Mass    1.00783
   Atom    7 Element H  Has Mass    1.00783
   Atom    8 Element H  Has Mass    1.00783
   Atom    9 Element H  Has Mass    1.00783
   Atom   10 Element O  Has Mass   15.99491
   Atom   11 Element O  Has Mass   15.99491
   Molecular Mass:   108.005870 amu
   Principal axes and moments of inertia in amu*Bohr^2:
                             1           2           3
    Eigenvalues --      377.35584   988.85077  1094.25400
          X               0.40130     0.72955    -0.55381
          Y               0.86638    -0.49855    -0.02897
          Z               0.29724     0.46818     0.83214
   Rotational Symmetry Number is   1
   The Molecule is an Asymmetric Top
   Translational Enthalpy:        0.889 kcal/mol
   Rotational Enthalpy:           0.889 kcal/mol
   Vibrational Enthalpy:         48.867 kcal/mol
   gas constant (RT):             0.592 kcal/mol
   Translational Entropy:        39.947  cal/mol.K
   Rotational Entropy:           27.503  cal/mol.K
   Vibrational Entropy:          20.534  cal/mol.K

   Total Enthalpy:               51.237 kcal/mol
   Total Entropy:                87.985  cal/mol.K
 Total job time:  7238.96s(wall), 56039.77s(cpu) 
 Mon Oct  2 20:31:53 2023

        *************************************************************
        *                                                           *
        *  Thank you very much for using Q-Chem.  Have a nice day.  *
        *                                                           *
        *************************************************************


