
Running Job 1 of 1 Q_in.in
qchem Q_in.in_203052.0 /scratch/ari.fischer/qChem1788977.hpc-mn1/qchem203052/ 0
/usr/local/qchem-5.4.1/exe/qcprog.exe_s Q_in.in_203052.0 /scratch/ari.fischer/qChem1788977.hpc-mn1/qchem203052/
                  Welcome to Q-Chem
     A Quantum Leap Into The Future Of Chemistry


 Q-Chem 5.4, Q-Chem, Inc., Pleasanton, CA (2021)

 License issued to: Nanyang Technological University (site)

 E. Epifanovsky,  A. T. B. Gilbert,  Xintian Feng,  Joonho Lee,  Yuezhi Mao,  
 N. Mardirossian,  P. Pokhilko,  A. White,  M. Wormit,  M. P. Coons,  
 A. L. Dempwolff,  Zhengting Gan,  D. Hait,  P. R. Horn,  L. D. Jacobson,  
 I. Kaliman,  J. Kussmann,  A. W. Lange,  Ka Un Lao,  D. S. Levine,  Jie Liu,  
 S. C. McKenzie,  A. F. Morrison,  K. Nanda,  F. Plasser,  D. R. Rehn,  
 M. L. Vidal,  Zhi-Qiang You,  Ying Zhu,  B. Alam,  B. Albrecht,  
 A. Aldossary,  E. Alguire,  J. H. Andersen,  D. Barton,  K. Begam,  A. Behn,  
 Y. A. Bernard,  E. J. Berquist,  H. Burton,  A. Carreras,  K. Carter-Fenk,  
 R. Chakraborty,  A. D. Chien,  K. D. Closser,  V. Cofer-Shabica,  
 S. Dasgupta,  Jia Deng,  M. de Wergifosse,  M. Diedenhofen,  Hainam Do,  
 S. Ehlert,  Po-Tung Fang,  S. Fatehi,  Qingguo Feng,  T. Friedhoff,  
 J. Gayvert,  Qinghui Ge,  G. Gidofalvi,  M. Goldey,  J. Gomes,  
 C. Gonzalez-Espinoza,  S. Gulania,  A. Gunina,  M. W. D. Hanson-Heine,  
 P. H. P. Harbach,  A. W. Hauser,  M. F. Herbst,  M. Hernandez Vera,  
 M. Hodecker,  Z. C. Holden,  S. Houck,  Xunkun Huang,  Kerwin Hui,  
 B. C. Huynh,  M. Ivanov,  Hyunjun Ji,  Hanjie Jiang,  B. Kaduk,  S. Kaehler,  
 K. Khistyaev,  Jaehoon Kim,  P. Klunzinger,  Z. Koczor-Benda,  
 Joong Hoon Koh,  D. Kosenkov,  L. Koulias,  T. Kowalczyk,  C. M. Krauter,  
 K. Kue,  A. Kunitsa,  T. Kus,  A. Landau,  K. V. Lawler,  D. Lefrancois,  
 S. Lehtola,  Rain Li,  Yi-Pei Li,  Jiashu Liang,  M. Liebenthal,  
 Hung-Hsuan Lin,  You-Sheng Lin,  Fenglai Liu,  Kuan-Yu Liu,  
 M. Loipersberger,  A. Luenser,  A. Manjanath,  P. Manohar,  E. Mansoor,  
 S. F. Manzer,  Shan-Ping Mao,  A. V. Marenich,  T. Markovich,  S. Mason,  
 S. A. Maurer,  P. F. McLaughlin,  M. F. S. J. Menger,  J.-M. Mewes,  
 S. A. Mewes,  P. Morgante,  J. W. Mullinax,  K. J. Oosterbaan,  G. Paran,  
 Alexander C. Paul,  Suranjan K. Paul,  F. Pavosevic,  Zheng Pei,  S. Prager,  
 E. I. Proynov,  E. Ramos,  B. Rana,  A. E. Rask,  A. Rettig,  R. M. Richard,  
 F. Rob,  E. Rossomme,  T. Scheele,  M. Scheurer,  M. Schneider,  
 N. Sergueev,  S. M. Sharada,  W. Skomorowski,  D. W. Small,  C. J. Stein,  
 Yu-Chuan Su,  E. J. Sundstrom,  Zhen Tao,  J. Thirman,  T. Tsuchimochi,  
 N. M. Tubman,  S. P. Veccham,  O. Vydrov,  J. Wenzel,  J. Witte,  A. Yamada,  
 Kun Yao,  S. Yeganeh,  S. R. Yost,  A. Zech,  Igor Ying Zhang,  Xing Zhang,  
 Yu Zhang,  D. Zuev,  A. Aspuru-Guzik,  A. T. Bell,  N. A. Besley,  
 K. B. Bravaya,  B. R. Brooks,  D. Casanova,  Jeng-Da Chai,  S. Coriani,  
 C. J. Cramer,  A. E. DePrince, III,  R. A. DiStasio Jr.,  A. Dreuw,  
 B. D. Dunietz,  T. R. Furlani,  W. A. Goddard III,  S. Grimme,  
 S. Hammes-Schiffer,  T. Head-Gordon,  W. J. Hehre,  Chao-Ping Hsu,  
 T.-C. Jagau,  Yousung Jung,  A. Klamt,  Jing Kong,  D. S. Lambrecht,  
 WanZhen Liang,  N. J. Mayhall,  C. W. McCurdy,  J. B. Neaton,  
 C. Ochsenfeld,  J. A. Parkhill,  R. Peverati,  V. A. Rassolov,  Yihan Shao,  
 L. V. Slipchenko,  T. Stauch,  R. P. Steele,  J. E. Subotnik,  
 A. J. W. Thom,  A. Tkatchenko,  D. G. Truhlar,  T. Van Voorhis,  
 T. A. Wesolowski,  K. B. Whaley,  H. L. Woodcock III,  P. M. Zimmerman,  
 S. Faraji,  P. M. W. Gill,  M. Head-Gordon,  J. M. Herbert,  A. I. Krylov

 Additional authors for Version 5.4.1: 
 S. Kotaru,  Shaozhi Li,  Xiangyuan Li,  F. Matz,  A. Molle,  Haisheng Ren,  
 Yingli Su,  Hung-Yi Tsai,  C. Utku,  Fang Wang

 Contributors to earlier versions of Q-Chem not listed above: 
 R. D. Adamson,  B. Austin,  R. Baer,  J. Baker,  G. J. O. Beran,  
 K. Brandhorst,  S. T. Brown,  E. F. C. Byrd,  A. K. Chakraborty,  
 G. K. L. Chan,  Chun-Min Chang,  Yunqing Chen,  C.-L. Cheng,  
 Siu Hung Chien,  D. M. Chipman,  D. L. Crittenden,  H. Dachsel,  
 R. J. Doerksen,  A. D. Dutoi,  R. G. Edgar,  J. Fosso-Tande,  
 L. Fusti-Molnar,  D. Ghosh,  A. Ghysels,  A. Golubeva-Zadorozhnaya,  
 J. Gonthier,  M. S. Gordon,  S. R. Gwaltney,  G. Hawkins,  J. E. Herr,  
 A. Heyden,  S. Hirata,  E. G. Hohenstein,  G. Kedziora,  F. J. Keil,  
 C. Kelley,  Jihan Kim,  R. A. King,  R. Z. Khaliullin,  P. P. Korambath,  
 W. Kurlancheek,  A. Laurent,  A. M. Lee,  M. S. Lee,  S. V. Levchenko,  
 Ching Yeh Lin,  D. Liotard,  E. Livshits,  R. C. Lochan,  I. Lotan,  
 L. A. Martinez-Martinez,  P. E. Maslen,  N. Nair,  D. P. O'Neill,  
 D. Neuhauser,  E. Neuscamman,  C. M. Oana,  R. Olivares-Amaya,  R. Olson,  
 T. M. Perrine,  B. Peters,  P. A. Pieniazek,  A. Prociuk,  Y. M. Rhee,  
 J. Ritchie,  M. A. Rohrdanz,  E. Rosta,  N. J. Russ,  H. F. Schaefer III,  
 M. W. Schmidt,  N. E. Schultz,  S. Sharma,  N. Shenvi,  C. D. Sherrill,  
 A. C. Simmonett,  A. Sodt,  T. Stein,  D. Stuck,  K. S. Thanthiriwatte,  
 V. Vanovschi,  L. Vogt,  Tao Wang,  A. Warshel,  M. A. Watson,  
 C. F. Williams,  Q. Wu,  X. Xu,  Jun Yang,  W. Zhang,  Yan Zhao

 Please cite Q-Chem as follows:
 Y. Shao et al., Mol. Phys. 113, 184-215 (2015)
 DOI: 10.1080/00268976.2014.952696

 Q-Chem 5.4.1 for Intel X86 EM64T Linux

 Parts of Q-Chem use Armadillo 9.800.1 (Horizon Scraper).
 http://arma.sourceforge.net/

 Q-Chem begins on Mon Oct  2 09:37:02 2023  

 Host: 
0

     Scratch files written to /scratch/ari.fischer/qChem1788977.hpc-mn1/qchem203052//
 Aug1521 |scratch|qcdevops|jenkins|workspace|build_RNUM 8249   
 Processing $rem in /usr/local/qchem-5.4.1/config/preferences:
 Processing $rem in /home/ari.fischer/.qchemrc:
 Symmetry turned off for PCM/SM12/SMD calculation

 Checking the input file for inconsistencies... 	...done.

--------------------------------------------------------------
User input:
--------------------------------------------------------------
$molecule
-1 2
C         1.8194099056    0.1366135808   -1.4725155938
C         0.5832048322   -0.2890755935   -2.2703443059
O         0.6272724627   -1.7038411751   -2.3173667447
O         0.6824404389    0.2804111209   -3.5580107426
O         2.9527185606    0.0495060781   -2.0341008923
H        -0.2404047928   -2.0092854818   -2.6289070939
H        -0.1807165047    0.1653891643   -3.9873825848
H         1.7046694738   -0.1564445128   -0.4074488158
H        -0.3413807856    0.0374938868   -1.7779305868
O         1.3657848216    1.7814173832   -1.2058312770
O         2.1050735876    2.5743315489   -1.9293287626
$end

$rem
BASIS = 6-311++G(2df,2p)
GUI = 2
JOB_TYPE = Optimization
METHOD = wB97M-V
SCF_ALGORITHM = DIIS_GDM
MAX_SCF_CYCLES = 400
GEOM_OPT_MAX_CYCLES = 150
SCF_CONVERGENCE = 7
THRESH = 12
UNRESTRICTED = 1
Solvent_method = SMD
$end
--------------------------------------------------------------
 ----------------------------------------------------------------
             Standard Nuclear Orientation (Angstroms)
    I     Atom           X                Y                Z
 ----------------------------------------------------------------
    1      C       1.8194099056     0.1366135808    -1.4725155938
    2      C       0.5832048322    -0.2890755935    -2.2703443059
    3      O       0.6272724627    -1.7038411751    -2.3173667447
    4      O       0.6824404389     0.2804111209    -3.5580107426
    5      O       2.9527185606     0.0495060781    -2.0341008923
    6      H      -0.2404047928    -2.0092854818    -2.6289070939
    7      H      -0.1807165047     0.1653891643    -3.9873825848
    8      H       1.7046694738    -0.1564445128    -0.4074488158
    9      H      -0.3413807856     0.0374938868    -1.7779305868
   10      O       1.3657848216     1.7814173832    -1.2058312770
   11      O       2.1050735876     2.5743315489    -1.9293287626
 ----------------------------------------------------------------
 Nuclear Repulsion Energy =         323.04042406 hartrees
 There are       29 alpha and       28 beta electrons
 Requested basis set is 6-311++G(2df,2p)
 There are 80 shells and 278 basis functions

 Total QAlloc Memory Limit 288000 MB
 Mega-Array Size       188 MB
 MEM_STATIC part       192 MB
 
 Citation of the SMD model:
 Marenich, A.V.; Cramer, C.J.; Truhlar, D.G.
 J. Phys. Chem. B 2009, 113, 6378-6396.
 iSolventCode=           1
 Solvent: water                                                           
 
 vradii
            1           2           3           4           5           6
    1   1.8500000   1.8500000   1.5200000   1.5200000   1.5200000   1.2000000
            7           8           9          10          11
    1   1.2000000   1.2000000   1.2000000   1.5200000   1.5200000
 Changing PCM_VDW_RADII to SMD_RADIUS
 Discretize the solute cavity surface with Lebedev spheres
	Using 110 Lebedev grid points for each H atom
	Using 194 Lebedev grid points for other atoms
	Atomic van der Waals radii will be scaled by 1.20
 Remove points where switching function is < 1.0e-08
 Keep 994 surface tesserae and discard 804 interior tesserae
 Molecular Surface Area = 116.750 Angst**2
 A cutoff of  1.0D-12 yielded   3004 shell pairs
 There are     36621 function pairs (     46418 Cartesian)
 Smallest overlap matrix eigenvalue = 5.00E-05

 Scale SEOQF with 1.000000e-01/1.000000e-01/1.000000e-01

 Standard Electronic Orientation quadrupole field applied
 Nucleus-field energy     =    -0.0000000179 hartrees
 Guess from superposition of atomic densities
 Warning:  Energy on first SCF cycle will be non-variational
 SAD guess density has 56.000000 electrons

 -----------------------------------------------------------------------
  General SCF calculation program by
  Eric Jon Sundstrom, Paul Horn, Yuezhi Mao, Dmitri Zuev, Alec White,
  David Stuck, Shaama M.S., Shane Yost, Joonho Lee, David Small,
  Daniel Levine, Susi Lehtola, Hugh Burton, Evgeny Epifanovsky,
  Bang C. Huynh
 -----------------------------------------------------------------------
 Exchange:     0.1500 Hartree-Fock + 1.0000 wB97M-V + LR-HF
 Correlation:  1.0000 wB97M-V
 Using SG-2 standard quadrature grid
 Nonlocal Correlation:  VV10 with C = 0.0100 and b = 6.00 and scale = 1.00000
 Grid used for NLC:  SG-1 standard quadrature
 
 Citation of the SMD model:
 Marenich, A.V.; Cramer, C.J.; Truhlar, D.G.
 J. Phys. Chem. B 2009, 113, 6378-6396.
 iSolventCode=           1
 Solvent: water                                                           
 
 vradii
            1           2           3           4           5           6
    1   1.8500000   1.8500000   1.5200000   1.5200000   1.5200000   1.2000000
            7           8           9          10          11
    1   1.2000000   1.2000000   1.2000000   1.5200000   1.5200000
 using 8 threads for integral computing
 -------------------------------------------------------
 OpenMP Integral computing Module                
 Release: version 1.0, May 2013, Q-Chem Inc. Pittsburgh 
 -------------------------------------------------------
 -------------------------------------------------------
 OpenMP BLAS3 based DFT computing Module                
 Release: version 1.0, May 2013, Q-Chem Inc. Pittsburgh 
 -------------------------------------------------------
 A unrestricted SCF calculation will be
 performed using DIIS, GDM
 SCF converges when RMS gradient is below 1.0e-07
 ---------------------------------------
  Cycle       Energy         DIIS error
 ---------------------------------------
    1    -455.4101691599      1.40e-02  
    2    -454.5940752092      2.51e-03  Done DIIS. Switching to GDM
 ---------------------------------------
  Cycle       Energy        RMS Gradient
 ---------------------------------------
    1    -454.5940752092      1.21e-01   Descent step
    2    -454.7631204482      3.87e-02   Normal BFGS step
    3    -454.7822350459      3.20e-02   Normal BFGS step
    4    -454.7853117563      2.02e-02   Normal BFGS step
    5    -454.7869952247      9.49e-03   Normal BFGS step
    6    -454.7871558486      3.65e-03   Normal BFGS step
    7    -454.7872423343      1.85e-03   Normal BFGS step
    8    -454.7872580298      7.17e-04   Normal BFGS step
    9    -454.7872620896      6.05e-04   Normal BFGS step
   10    -454.7872639364      4.97e-04   Normal BFGS step
   11    -454.7872649371      4.22e-04   Normal BFGS step
   12    -454.7872655563      3.35e-04   Normal BFGS step
   13    -454.7872660311      2.40e-04   Normal BFGS step
   14    -454.7872663259      1.45e-04   Normal BFGS step
   15    -454.7872664189      3.33e-05   Normal BFGS step
   16    -454.7872664297      1.02e-05   Normal BFGS step
   17    -454.7872664323      9.93e-06   Normal BFGS step
   18    -454.7872664329      2.70e-06   Normal BFGS step
   19    -454.7872664330      1.17e-06   Normal BFGS step
   20    -454.7872664330      3.66e-07   Normal BFGS step
   21    -454.7872664331      9.27e-08  Convergence criterion met
 ---------------------------------------
 SCF time:   CPU 753.12s  wall 95.00s 
<S^2> =          0.754987235
(3)  G-ENP(liq) elect-nuc-pol free energy of system     -454.787266433 a.u.
(4)  G-CDS(liq) cavity-dispersion-solvent structure 
     free energy                                                2.6843 kcal/mol
(6)  G-S(liq) free energy of system                     -454.782988654 a.u.
 SCF   energy in the final basis set =     -454.7829886538
 Total energy in the final basis set =     -454.7829886538
 
 --------------------------------------------------------------
 
                    Orbital Energies (a.u.)
 --------------------------------------------------------------
 
 Alpha MOs
 -- Occupied --
-19.4073 -19.3796 -19.3425 -19.3407 -19.2733 -10.4347 -10.4200  -1.2867
 -1.1951  -1.1284  -1.1118  -0.9320  -0.8193  -0.6882  -0.6464  -0.6421
 -0.5911  -0.5730  -0.5687  -0.5437  -0.5164  -0.4980  -0.4813  -0.4117
 -0.4073  -0.4025  -0.3670  -0.3392  -0.3294
 -- Virtual --
  0.0292   0.0496   0.0598   0.0617   0.0927   0.1059   0.1104   0.1236
  0.1373   0.1442   0.1534   0.1673   0.1737   0.1928   0.2122   0.2320
  0.2404   0.2534   0.2703   0.2757   0.2817   0.2865   0.2900   0.2995
  0.3084   0.3170   0.3290   0.3348   0.3374   0.3518   0.3640   0.3678
  0.3731   0.3839   0.3881   0.3954   0.4034   0.4364   0.4584   0.4721
  0.4809   0.5155   0.5732   0.6011   0.6239   0.6372   0.6447   0.6802
  0.6970   0.7310   0.7486   0.7632   0.7912   0.8124   0.8702   0.8985
  0.9188   0.9413   0.9557   1.0004   1.0424   1.0791   1.0974   1.1205
  1.1275   1.1407   1.1482   1.1549   1.1704   1.1757   1.1852   1.1958
  1.2173   1.2270   1.2424   1.2615   1.2713   1.2778   1.2992   1.3293
  1.3542   1.3797   1.4070   1.4389   1.4552   1.4825   1.5094   1.5309
  1.5400   1.5775   1.5843   1.6172   1.6420   1.6461   1.6716   1.6838
  1.7145   1.7249   1.7698   1.8424   1.8558   1.9052   1.9300   1.9633
  1.9970   2.0804   2.1037   2.1226   2.2044   2.2289   2.2478   2.3148
  2.3302   2.3532   2.4131   2.4246   2.4675   2.4878   2.5493   2.5833
  2.6518   2.7154   2.7275   2.8258   2.8668   2.9343   2.9630   3.0522
  3.1506   3.2291   3.2704   3.2980   3.3187   3.3799   3.4100   3.4265
  3.4726   3.5277   3.5495   3.5952   3.6146   3.6287   3.6657   3.6974
  3.7358   3.7788   3.8063   3.8501   3.8697   3.8808   3.9584   4.0318
  4.0658   4.0818   4.1644   4.1889   4.2122   4.2930   4.3140   4.3413
  4.3882   4.4482   4.5398   4.5883   4.6037   4.6865   4.7229   4.7986
  4.8443   4.9084   5.0884   5.0952   5.1052   5.1371   5.1812   5.1973
  5.2060   5.2262   5.2397   5.2462   5.2474   5.2612   5.2679   5.2937
  5.3053   5.3164   5.3293   5.3412   5.3826   5.4116   5.4295   5.4560
  5.5031   5.5264   5.5476   5.5798   5.6124   5.6328   5.6508   5.6523
  5.7171   5.7456   5.8412   5.9044   6.0277   6.0452   6.1162   6.3001
  6.4352   6.4871   6.5076   6.5884   6.7016   6.8253   6.8751   6.9479
  7.0118   7.0259   7.0575   7.0914   7.1195   7.1283   7.1454   7.1646
  7.2377   7.2430   7.2766   7.3259   7.3527   7.3902   7.4265   7.4860
  7.5190   7.5680   7.6484   7.6984   7.7127   7.7999   7.8430   7.8794
  7.9974   8.1049  24.7267  24.8770  50.4473  50.5369  50.5907  50.6176
 50.7322
 
 Beta MOs
 -- Occupied --
-19.3945 -19.3629 -19.3424 -19.3407 -19.2734 -10.4344 -10.4203  -1.2584
 -1.1947  -1.1283  -1.1114  -0.8975  -0.8127  -0.6838  -0.6438  -0.6418
 -0.5680  -0.5630  -0.5523  -0.5169  -0.4979  -0.4839  -0.4739  -0.4108
 -0.4066  -0.3962  -0.3361  -0.3224
 -- Virtual --
  0.0044   0.0294   0.0499   0.0600   0.0619   0.0933   0.1069   0.1109
  0.1254   0.1377   0.1455   0.1548   0.1690   0.1745   0.1958   0.2136
  0.2338   0.2418   0.2552   0.2721   0.2784   0.2837   0.2898   0.2965
  0.3012   0.3097   0.3184   0.3308   0.3370   0.3393   0.3536   0.3651
  0.3707   0.3747   0.3867   0.3887   0.3972   0.4050   0.4383   0.4595
  0.4725   0.4818   0.5167   0.5734   0.6013   0.6242   0.6376   0.6453
  0.6804   0.6974   0.7316   0.7487   0.7636   0.7926   0.8129   0.8715
  0.8990   0.9195   0.9426   0.9572   1.0015   1.0442   1.0794   1.1040
  1.1242   1.1296   1.1488   1.1536   1.1685   1.1736   1.1799   1.1974
  1.1980   1.2215   1.2295   1.2453   1.2683   1.2770   1.2836   1.3016
  1.3305   1.3594   1.3812   1.4091   1.4446   1.4626   1.4912   1.5109
  1.5375   1.5444   1.5837   1.5894   1.6237   1.6463   1.6551   1.6794
  1.6900   1.7228   1.7391   1.7806   1.8471   1.8607   1.9063   1.9322
  1.9697   2.0003   2.0874   2.1100   2.1249   2.2087   2.2301   2.2592
  2.3317   2.3371   2.3564   2.4147   2.4262   2.4684   2.4893   2.5504
  2.5845   2.6585   2.7160   2.7312   2.8275   2.8675   2.9341   2.9628
  3.0524   3.1510   3.2290   3.2708   3.2981   3.3184   3.3799   3.4098
  3.4266   3.4729   3.5279   3.5490   3.5958   3.6136   3.6290   3.6666
  3.6974   3.7360   3.7787   3.8064   3.8502   3.8700   3.8810   3.9588
  4.0317   4.0656   4.0815   4.1645   4.1891   4.2125   4.2932   4.3149
  4.3414   4.3887   4.4484   4.5409   4.5916   4.6370   4.6966   4.7299
  4.8249   4.8620   4.9229   5.1340   5.1429   5.1503   5.1712   5.1974
  5.2043   5.2166   5.2352   5.2477   5.2520   5.2725   5.2884   5.2954
  5.3027   5.3104   5.3334   5.3414   5.3505   5.3867   5.4225   5.4317
  5.4601   5.5041   5.5308   5.5493   5.5889   5.6139   5.6430   5.6522
  5.6715   5.7269   5.7475   5.8419   5.9135   6.0285   6.0455   6.1162
  6.3007   6.4361   6.4899   6.5520   6.5992   6.7031   6.8947   6.9516
  6.9966   7.0284   7.0346   7.0594   7.1126   7.1253   7.1440   7.1792
  7.1921   7.2425   7.2438   7.2776   7.3356   7.3721   7.3982   7.4611
  7.4938   7.5337   7.5725   7.6513   7.6993   7.7190   7.8009   7.8445
  7.8796   8.0123   8.1246  24.7268  24.8768  50.4593  50.5461  50.5909
 50.6189  50.7322
 --------------------------------------------------------------
 
          Ground-State Mulliken Net Atomic Charges

     Atom                 Charge (a.u.)    Spin (a.u.)
  --------------------------------------------------------
      1 C                    -0.025679      -0.011621
      2 C                    -0.069369       0.010450
      3 O                    -0.454618       0.001009
      4 O                    -0.453166      -0.002325
      5 O                    -0.722051      -0.005959
      6 H                     0.332315       0.000032
      7 H                     0.341104       0.000255
      8 H                     0.222970       0.004385
      9 H                     0.251011      -0.000417
     10 O                    -0.081820       0.408285
     11 O                    -0.340697       0.595907
  --------------------------------------------------------
  Sum of atomic charges =    -1.000000
  Sum of spin   charges =     1.000000

 -----------------------------------------------------------------
                    Cartesian Multipole Moments
 -----------------------------------------------------------------
    Charge (ESU x 10^10)
                -4.8032
    Dipole Moment (Debye)
         X     -17.1659      Y      -5.9189      Z      10.0860
       Tot      20.7708
    Quadrupole Moments (Debye-Ang)
        XX     -82.5987     XY      -7.6076     YY     -60.5300
        XZ      41.6604     YZ      11.9878     ZZ     -63.7280
    Octopole Moments (Debye-Ang^2)
       XXX    -300.4952    XXY     -36.9741    XYY    -100.4478
       YYY     -87.0686    XXZ     178.4751    XYZ      12.6661
       YYZ     120.2290    XZZ    -167.9173    YZZ     -43.0641
       ZZZ     312.7780
    Hexadecapole Moments (Debye-Ang^3)
      XXXX   -1125.4890   XXXY    -173.5356   XXYY    -277.9778
      XYYY    -184.8884   YYYY    -618.8418   XXXZ     601.3506
      XXYZ      62.6839   XYYZ     196.8515   YYYZ     139.3292
      XXZZ    -549.0033   XYZZ     -64.0443   YYZZ    -359.4893
      XZZZ     649.9603   YZZZ     127.9474   ZZZZ   -1396.8482
 -----------------------------------------------------------------
 Calculating analytic gradient of the SCF energy
 Gradient of CDS energy
            1           2           3           4           5           6
    1   0.0029273  -0.0001514   0.0000811   0.0000731  -0.0020863  -0.0002222
    2  -0.0003367  -0.0000115   0.0006113  -0.0005719   0.0002112  -0.0004821
    3  -0.0007315  -0.0009740  -0.0001250   0.0012965   0.0008464  -0.0000133
            7           8           9          10          11
    1  -0.0002042  -0.0002068  -0.0000873  -0.0000401  -0.0000831
    2   0.0002067   0.0000795   0.0001637   0.0000674   0.0000623
    3  -0.0004434   0.0001624   0.0000485  -0.0000887   0.0000220
 Gradient of SCF Energy
            1           2           3           4           5           6
    1   0.0344594  -0.0551449   0.0148419   0.0167101  -0.0086120  -0.0055912
    2  -0.0182540   0.0084007  -0.0144522   0.0121532   0.0032890   0.0063935
    3   0.0329754   0.0212215  -0.0004044  -0.0154485  -0.0027697  -0.0008014
            7           8           9          10          11
    1  -0.0038435  -0.0049746   0.0158623  -0.0117465   0.0080389
    2  -0.0061463   0.0084219  -0.0111958   0.0052238   0.0061661
    3   0.0076602  -0.0301817  -0.0121551   0.0069871  -0.0070834
 Max gradient component =       5.514E-02
 RMS gradient           =       1.691E-02
 Computing fast CPCM-SWIG gradient
 Updating gradient with PCM contributions...
 -- total gradient after adding PCM contribution --
---------------------------------------------------
  Atom         X              Y              Z     
---------------------------------------------------
   1       0.005065       0.002094      -0.005221
   2      -0.001871      -0.002178      -0.001316
   3       0.008093      -0.000906       0.003306
   4       0.009539       0.004135       0.001320
   5      -0.000026      -0.000303      -0.001896
   6      -0.006551      -0.000506      -0.002616
   7      -0.006593      -0.001906      -0.001678
   8      -0.002007      -0.001611       0.005024
   9      -0.003393       0.001319       0.002042
  10      -0.007874      -0.002638       0.007230
  11       0.005617       0.002499      -0.006196
---------------------------------------------------
 Number of fixed atoms: 0
 Gradient time:  CPU 94.48 s  wall 14.42 s
 Geometry Optimization Parameters
   NAtoms,    NIC,     NZ,  NCons,   NDum,   NFix, NCnnct, MaxDiis
       11      65       0       0       0       0       0       0


** GEOMETRY OPTIMIZATION IN DELOCALIZED INTERNAL COORDINATES **
   Searching for a Minimum

   Optimization Cycle:   1

                       Coordinates (Angstroms)
     ATOM                X               Y               Z
      1  C         1.8194099056    0.1366135808   -1.4725155938
      2  C         0.5832048322   -0.2890755935   -2.2703443059
      3  O         0.6272724627   -1.7038411751   -2.3173667447
      4  O         0.6824404389    0.2804111209   -3.5580107426
      5  O         2.9527185606    0.0495060781   -2.0341008923
      6  H        -0.2404047928   -2.0092854818   -2.6289070939
      7  H        -0.1807165047    0.1653891643   -3.9873825848
      8  H         1.7046694738   -0.1564445128   -0.4074488158
      9  H        -0.3413807856    0.0374938868   -1.7779305868
     10  O         1.3657848216    1.7814173832   -1.2058312770
     11  O         2.1050735876    2.5743315489   -1.9293287626
   Point Group: c1    Number of degrees of freedom:    27


   Energy is   -454.782988654


 Attempting to generate delocalized internal coordinates
 Initial Hessian constructed with Jon Baker's OPTIMIZE code

 27 Hessian modes will be used to form the next step
  Hessian Eigenvalues:
     0.002000    0.004992    0.013498    0.014128    0.049608    0.058098
     0.068826    0.076985    0.089599    0.114475    0.160000    0.160000
     0.167736    0.176928    0.178442    0.204431    0.240128    0.250000
     0.292718    0.325374    0.339871    0.430328    0.437713    0.531338
     0.531952    0.662725    0.769870

 Minimum search - taking simple RFO step
 Searching for Lamda that Minimizes Along All modes
 Value Taken    Lamda =  -0.00132029
 Calculated Step too Large.  Step scaled by  0.976041
 Step Taken.  Stepsize is  0.300000

                             Maximum     Tolerance    Cnvgd?
         Gradient           0.007253      0.000300      NO
         Displacement       0.193215      0.001200      NO
         Energy change     *********      0.000001      NO


 New Cartesian Coordinates Obtained by Inverse Iteration

 Displacement from previous Coordinates is:  0.408340
 ----------------------------------------------------------------
             Standard Nuclear Orientation (Angstroms)
    I     Atom           X                Y                Z
 ----------------------------------------------------------------
    1      C       1.8124759904     0.1506003862    -1.4996123351
    2      C       0.5776161471    -0.2928225896    -2.2895696836
    3      O       0.6190548697    -1.7066669717    -2.3031019304
    4      O       0.6534574210     0.2373214971    -3.5936351725
    5      O       2.9503739569     0.0676209487    -2.0512209793
    6      H      -0.2433012388    -2.0334740452    -2.5857574049
    7      H      -0.2068476744     0.1245785468    -4.0143951485
    8      H       1.7082101799    -0.1331568746    -0.4399443250
    9      H      -0.3397290835     0.0394391349    -1.8014484210
   10      O       1.3564097699     1.7924124169    -1.2310254990
   11      O       2.1903516619     2.6206635503    -1.7794565010
 ----------------------------------------------------------------
 Nuclear Repulsion Energy =         321.64479330 hartrees
 There are       29 alpha and       28 beta electrons
 Discretize the solute cavity surface with Lebedev spheres
	Using 110 Lebedev grid points for each H atom
	Using 194 Lebedev grid points for other atoms
	Atomic van der Waals radii will be scaled by 1.20
 Remove points where switching function is < 1.0e-08
 Keep 982 surface tesserae and discard 816 interior tesserae
 Molecular Surface Area = 116.846 Angst**2
 Applying Cartesian multipole field
    Component          Value
    ---------          -----
     (2,0,0)        1.00000E-11
     (0,2,0)        2.00000E-11
     (0,0,2)       -3.00000E-11
 Nucleus-field energy     =    -0.0000000176 hartrees
 Requested basis set is 6-311++G(2df,2p)
 There are 80 shells and 278 basis functions
 A cutoff of  1.0D-12 yielded   3003 shell pairs
 There are     36611 function pairs (     46404 Cartesian)
 Smallest overlap matrix eigenvalue = 5.35E-05
 Guess MOs from SCF MO coefficient file

 -----------------------------------------------------------------------
  General SCF calculation program by
  Eric Jon Sundstrom, Paul Horn, Yuezhi Mao, Dmitri Zuev, Alec White,
  David Stuck, Shaama M.S., Shane Yost, Joonho Lee, David Small,
  Daniel Levine, Susi Lehtola, Hugh Burton, Evgeny Epifanovsky,
  Bang C. Huynh
 -----------------------------------------------------------------------
 Exchange:     0.1500 Hartree-Fock + 1.0000 wB97M-V + LR-HF
 Correlation:  1.0000 wB97M-V
 Using SG-2 standard quadrature grid
 Nonlocal Correlation:  VV10 with C = 0.0100 and b = 6.00 and scale = 1.00000
 Grid used for NLC:  SG-1 standard quadrature
 
 Citation of the SMD model:
 Marenich, A.V.; Cramer, C.J.; Truhlar, D.G.
 J. Phys. Chem. B 2009, 113, 6378-6396.
 iSolventCode=           1
 Solvent: water                                                           
 
 vradii
            1           2           3           4           5           6
    1   1.8500000   1.8500000   1.5200000   1.5200000   1.5200000   1.2000000
            7           8           9          10          11
    1   1.2000000   1.2000000   1.2000000   1.5200000   1.5200000
 -------------------------------------------------------
 OpenMP BLAS3 based DFT computing Module                
 Release: version 1.0, May 2013, Q-Chem Inc. Pittsburgh 
 -------------------------------------------------------
 A unrestricted SCF calculation will be
 performed using Roothaan-Hall, DIIS, GDM
 SCF converges when RMS gradient is below 1.0e-07
 ---------------------------------------
  Cycle       Energy         DIIS error
 ---------------------------------------
    1    -454.6066745943      7.68e-04  Roothaan Step
 ---------------------------------------
  Cycle       Energy         DIIS error
 ---------------------------------------
    1    -454.7577640218      7.04e-04  
    2    -454.7743262210      7.15e-04  Done DIIS. Switching to GDM
 ---------------------------------------
  Cycle       Energy        RMS Gradient
 ---------------------------------------
    1    -454.7743262210      3.19e-02   Normal BFGS step
    2    -454.7667309890      6.25e-02  Line search: overstep
    3    -454.7867569394      9.29e-03   Normal BFGS step
    4    -454.7875690634      4.51e-03   Normal BFGS step
    5    -454.7878599723      2.85e-03   Normal BFGS step
    6    -454.7879044791      1.62e-03   Normal BFGS step
    7    -454.7879219269      1.46e-03   Normal BFGS step
    8    -454.7879287632      1.27e-03   Normal BFGS step
    9    -454.7879334373      9.77e-04   Normal BFGS step
   10    -454.7879364332      6.93e-04   Normal BFGS step
   11    -454.7879391494      3.71e-04   Normal BFGS step
   12    -454.7879402143      2.12e-04   Normal BFGS step
   13    -454.7879403968      9.09e-05   Normal BFGS step
   14    -454.7879404702      6.25e-05   Normal BFGS step
   15    -454.7879404855      2.63e-05   Normal BFGS step
   16    -454.7879404905      4.24e-06   Normal BFGS step
   17    -454.7879404911      1.53e-06   Normal BFGS step
   18    -454.7879404912      7.28e-07   Normal BFGS step
   19    -454.7879404912      3.39e-07   Normal BFGS step
   20    -454.7879404912      1.46e-07   Normal BFGS step
   21    -454.7879404912      8.83e-08  Convergence criterion met
 ---------------------------------------
 SCF time:   CPU 788.27s  wall 99.00s 
<S^2> =          0.755013162
(3)  G-ENP(liq) elect-nuc-pol free energy of system     -454.787940491 a.u.
(4)  G-CDS(liq) cavity-dispersion-solvent structure 
     free energy                                                2.6833 kcal/mol
(6)  G-S(liq) free energy of system                     -454.783664337 a.u.
 SCF   energy in the final basis set =     -454.7836643369
 Total energy in the final basis set =     -454.7836643369
 
 --------------------------------------------------------------
 
                    Orbital Energies (a.u.)
 --------------------------------------------------------------
 
 Alpha MOs
 -- Occupied --
-19.4074 -19.3796 -19.3415 -19.3403 -19.2732 -10.4348 -10.4195  -1.2905
 -1.1963  -1.1295  -1.1125  -0.9319  -0.8209  -0.6913  -0.6485  -0.6428
 -0.5929  -0.5759  -0.5696  -0.5455  -0.5179  -0.4969  -0.4807  -0.4120
 -0.4075  -0.4029  -0.3665  -0.3376  -0.3295
 -- Virtual --
  0.0292   0.0497   0.0598   0.0616   0.0927   0.1061   0.1109   0.1247
  0.1370   0.1440   0.1542   0.1668   0.1736   0.1947   0.2146   0.2309
  0.2405   0.2532   0.2713   0.2737   0.2795   0.2851   0.2927   0.2988
  0.3093   0.3159   0.3290   0.3360   0.3396   0.3548   0.3672   0.3690
  0.3756   0.3815   0.3912   0.3943   0.4057   0.4352   0.4537   0.4726
  0.4809   0.5263   0.5739   0.5992   0.6219   0.6358   0.6478   0.6836
  0.6988   0.7242   0.7504   0.7613   0.7929   0.8163   0.8754   0.8946
  0.9130   0.9358   0.9563   1.0051   1.0421   1.0731   1.0857   1.1221
  1.1261   1.1339   1.1497   1.1577   1.1725   1.1792   1.1850   1.1995
  1.2167   1.2271   1.2441   1.2646   1.2667   1.2791   1.3012   1.3239
  1.3399   1.3828   1.4097   1.4435   1.4614   1.4877   1.5122   1.5315
  1.5435   1.5829   1.5879   1.6132   1.6343   1.6490   1.6643   1.6822
  1.7125   1.7226   1.7698   1.8408   1.8553   1.9034   1.9295   1.9595
  1.9941   2.0647   2.1088   2.1149   2.2120   2.2304   2.2544   2.3009
  2.3330   2.3575   2.4048   2.4319   2.4625   2.4894   2.5491   2.5801
  2.6514   2.7150   2.7264   2.8130   2.8633   2.9345   2.9638   3.0550
  3.1513   3.2343   3.2704   3.3075   3.3173   3.3783   3.4091   3.4223
  3.4709   3.5311   3.5582   3.5962   3.6109   3.6267   3.6620   3.6965
  3.7416   3.7748   3.8058   3.8557   3.8717   3.8861   3.9626   4.0324
  4.0703   4.0875   4.1718   4.1926   4.2203   4.3016   4.3221   4.3542
  4.3927   4.4568   4.5425   4.5868   4.6079   4.6865   4.7265   4.7972
  4.8629   4.9128   5.0871   5.0920   5.1030   5.1429   5.1766   5.1982
  5.2085   5.2283   5.2445   5.2461   5.2539   5.2583   5.2684   5.2947
  5.3056   5.3182   5.3309   5.3400   5.3798   5.4097   5.4308   5.4544
  5.4997   5.5278   5.5473   5.5757   5.6186   5.6403   5.6600   5.6672
  5.7271   5.7507   5.8515   5.9137   6.0461   6.0638   6.1150   6.3004
  6.4412   6.4962   6.5304   6.6171   6.7127   6.8181   6.8707   6.9476
  7.0206   7.0228   7.0598   7.0823   7.1186   7.1309   7.1532   7.1686
  7.2467   7.2658   7.2822   7.3315   7.3588   7.3772   7.4321   7.4887
  7.5182   7.5786   7.6582   7.7056   7.7213   7.7950   7.8455   7.8775
  8.0100   8.1092  24.7414  24.8855  50.4499  50.5377  50.5940  50.6185
 50.7306
 
 Beta MOs
 -- Occupied --
-19.3944 -19.3629 -19.3414 -19.3403 -19.2733 -10.4346 -10.4198  -1.2622
 -1.1961  -1.1295  -1.1121  -0.8981  -0.8140  -0.6866  -0.6460  -0.6426
 -0.5705  -0.5647  -0.5526  -0.5195  -0.4968  -0.4832  -0.4753  -0.4111
 -0.4070  -0.3968  -0.3360  -0.3218
 -- Virtual --
  0.0061   0.0293   0.0500   0.0601   0.0619   0.0932   0.1071   0.1116
  0.1265   0.1375   0.1453   0.1558   0.1683   0.1744   0.1977   0.2161
  0.2323   0.2420   0.2555   0.2735   0.2752   0.2818   0.2891   0.2966
  0.3013   0.3106   0.3174   0.3308   0.3390   0.3415   0.3564   0.3678
  0.3722   0.3782   0.3854   0.3919   0.3957   0.4073   0.4372   0.4544
  0.4733   0.4816   0.5275   0.5742   0.5995   0.6221   0.6365   0.6485
  0.6838   0.6992   0.7250   0.7505   0.7619   0.7941   0.8169   0.8764
  0.8953   0.9146   0.9367   0.9576   1.0061   1.0441   1.0745   1.0924
  1.1269   1.1288   1.1461   1.1553   1.1641   1.1746   1.1853   1.1935
  1.2042   1.2211   1.2279   1.2472   1.2669   1.2812   1.2823   1.3038
  1.3264   1.3441   1.3843   1.4115   1.4489   1.4657   1.4950   1.5150
  1.5401   1.5489   1.5893   1.5941   1.6212   1.6429   1.6514   1.6748
  1.6892   1.7233   1.7297   1.7828   1.8454   1.8605   1.9047   1.9313
  1.9638   1.9986   2.0721   2.1149   2.1169   2.2153   2.2326   2.2648
  2.3138   2.3434   2.3625   2.4059   2.4332   2.4640   2.4911   2.5502
  2.5810   2.6584   2.7178   2.7278   2.8147   2.8642   2.9342   2.9636
  3.0553   3.1518   3.2342   3.2708   3.3076   3.3169   3.3784   3.4089
  3.4224   3.4711   3.5312   3.5580   3.5970   3.6102   3.6265   3.6628
  3.6966   3.7418   3.7749   3.8058   3.8557   3.8719   3.8863   3.9630
  4.0324   4.0700   4.0874   4.1719   4.1928   4.2207   4.3021   4.3227
  4.3543   4.3933   4.4571   4.5430   4.5958   4.6359   4.6978   4.7345
  4.8238   4.8814   4.9257   5.1311   5.1409   5.1549   5.1734   5.1898
  5.2062   5.2175   5.2369   5.2502   5.2575   5.2784   5.2845   5.2923
  5.3055   5.3094   5.3377   5.3419   5.3512   5.3854   5.4182   5.4328
  5.4584   5.5005   5.5323   5.5495   5.5828   5.6228   5.6490   5.6667
  5.6789   5.7391   5.7526   5.8521   5.9236   6.0468   6.0640   6.1150
  6.3008   6.4421   6.4971   6.5771   6.6278   6.7142   6.8881   6.9472
  6.9911   7.0284   7.0439   7.0631   7.1064   7.1234   7.1432   7.1862
  7.2000   7.2537   7.2671   7.2826   7.3478   7.3679   7.3891   7.4632
  7.4956   7.5306   7.5858   7.6607   7.7064   7.7276   7.7960   7.8472
  7.8777   8.0252   8.1290  24.7415  24.8854  50.4619  50.5472  50.5941
 50.6196  50.7306
 --------------------------------------------------------------
 
          Ground-State Mulliken Net Atomic Charges

     Atom                 Charge (a.u.)    Spin (a.u.)
  --------------------------------------------------------
      1 C                    -0.042049      -0.013776
      2 C                    -0.059141       0.011077
      3 O                    -0.454566       0.000650
      4 O                    -0.453378      -0.001084
      5 O                    -0.722280      -0.006002
      6 H                     0.333095       0.000009
      7 H                     0.340211       0.000129
      8 H                     0.228606       0.005265
      9 H                     0.251184      -0.000157
     10 O                    -0.086551       0.413082
     11 O                    -0.335131       0.590807
  --------------------------------------------------------
  Sum of atomic charges =    -1.000000
  Sum of spin   charges =     1.000000

 -----------------------------------------------------------------
                    Cartesian Multipole Moments
 -----------------------------------------------------------------
    Charge (ESU x 10^10)
                -4.8032
    Dipole Moment (Debye)
         X     -17.2990      Y      -6.0559      Z       9.9706
       Tot      20.8649
    Quadrupole Moments (Debye-Ang)
        XX     -83.1865     XY      -8.2076     YY     -60.7045
        XZ      41.5998     YZ      11.6027     ZZ     -63.3981
    Octopole Moments (Debye-Ang^2)
       XXX    -303.5657    XXY     -40.1342    XYY    -102.6964
       YYY     -89.9145    XXZ     178.5671    XYZ      12.4285
       YYZ     118.6087    XZZ    -167.4860    YZZ     -40.9953
       ZZZ     311.9713
    Hexadecapole Moments (Debye-Ang^3)
      XXXX   -1143.0586   XXXY    -190.1516   XXYY    -288.3067
      XYYY    -197.8648   YYYY    -632.4615   XXXZ     602.6057
      XXYZ      63.2654   XYYZ     195.7426   YYYZ     131.9708
      XXZZ    -548.6832   XYZZ     -62.7132   YYZZ    -354.9538
      XZZZ     646.9404   YZZZ     114.8544   ZZZZ   -1397.2866
 -----------------------------------------------------------------
 Calculating analytic gradient of the SCF energy
 Gradient of CDS energy
            1           2           3           4           5           6
    1   0.0029179  -0.0001319   0.0000665   0.0000634  -0.0020943  -0.0002212
    2  -0.0003403  -0.0001498   0.0008963  -0.0007086   0.0002124  -0.0004847
    3  -0.0007163  -0.0014003  -0.0001320   0.0017216   0.0008320   0.0000020
            7           8           9          10          11
    1  -0.0002108  -0.0002083  -0.0000792  -0.0000141  -0.0000879
    2   0.0001952   0.0000808   0.0001587   0.0000635   0.0000764
    3  -0.0004471   0.0001503   0.0000452  -0.0000776   0.0000223
 Gradient of SCF Energy
            1           2           3           4           5           6
    1   0.0310060  -0.0530605   0.0076877   0.0090210  -0.0084941   0.0000536
    2  -0.0186223   0.0101284  -0.0144399   0.0089089   0.0035763   0.0069789
    3   0.0340959   0.0242981  -0.0028083  -0.0161765  -0.0004702   0.0010369
            7           8           9          10          11
    1   0.0014538  -0.0040490   0.0190002  -0.0075712   0.0049524
    2  -0.0046722   0.0097604  -0.0129092   0.0077217   0.0035691
    3   0.0091074  -0.0348994  -0.0140028   0.0026976  -0.0028788
 Max gradient component =       5.306E-02
 RMS gradient           =       1.664E-02
 Computing fast CPCM-SWIG gradient
 Updating gradient with PCM contributions...
 -- total gradient after adding PCM contribution --
---------------------------------------------------
  Atom         X              Y              Z     
---------------------------------------------------
   1       0.001816       0.000218      -0.000922
   2       0.000569      -0.000558       0.000455
   3      -0.000054      -0.000041       0.000125
   4      -0.000286       0.000348      -0.000682
   5      -0.000819      -0.000392       0.000820
   6      -0.000654      -0.000307      -0.000565
   7      -0.000725      -0.000421      -0.000559
   8       0.000023       0.000337       0.000453
   9      -0.000103      -0.000403      -0.000145
  10      -0.001793      -0.001020       0.002706
  11       0.002027       0.002238      -0.001687
---------------------------------------------------
 Number of fixed atoms: 0
 Gradient time:  CPU 95.34 s  wall 14.29 s
 Geometry Optimization Parameters
   NAtoms,    NIC,     NZ,  NCons,   NDum,   NFix, NCnnct, MaxDiis
       11      65       0       0       0       0       0       0

 Cartesian Hessian Update
 Hessian updated using BFGS update


** GEOMETRY OPTIMIZATION IN DELOCALIZED INTERNAL COORDINATES **
   Searching for a Minimum

   Optimization Cycle:   2

                       Coordinates (Angstroms)
     ATOM                X               Y               Z
      1  C         1.8124759904    0.1506003862   -1.4996123351
      2  C         0.5776161471   -0.2928225896   -2.2895696836
      3  O         0.6190548697   -1.7066669717   -2.3031019304
      4  O         0.6534574210    0.2373214971   -3.5936351725
      5  O         2.9503739569    0.0676209487   -2.0512209793
      6  H        -0.2433012388   -2.0334740452   -2.5857574049
      7  H        -0.2068476744    0.1245785468   -4.0143951485
      8  H         1.7082101799   -0.1331568746   -0.4399443250
      9  H        -0.3397290835    0.0394391349   -1.8014484210
     10  O         1.3564097699    1.7924124169   -1.2310254990
     11  O         2.1903516619    2.6206635503   -1.7794565010
   Point Group: c1    Number of degrees of freedom:    27


   Energy is   -454.783664337

 Hessian updated using BFGS update

 27 Hessian modes will be used to form the next step
  Hessian Eigenvalues:
     0.001994    0.004951    0.013302    0.013993    0.050018    0.058288
     0.069334    0.078965    0.091066    0.115989    0.156409    0.160014
     0.167355    0.177371    0.186034    0.205962    0.234906    0.261197
     0.297213    0.327033    0.344295    0.429017    0.435999    0.510713
     0.531649    0.637336    0.773030

 Minimum search - taking simple RFO step
 Searching for Lamda that Minimizes Along All modes
 Value Taken    Lamda =  -0.00022805
 Step Taken.  Stepsize is  0.204772

                             Maximum     Tolerance    Cnvgd?
         Gradient           0.002629      0.000300      NO
         Displacement       0.133271      0.001200      NO
         Energy change     -0.000676      0.000001      NO


 New Cartesian Coordinates Obtained by Inverse Iteration

 Displacement from previous Coordinates is:  0.202393
 ----------------------------------------------------------------
             Standard Nuclear Orientation (Angstroms)
    I     Atom           X                Y                Z
 ----------------------------------------------------------------
    1      C       1.8078626118     0.1540477912    -1.5158241602
    2      C       0.5745231195    -0.2954751309    -2.2966479191
    3      O       0.6190366562    -1.7086335619    -2.2904442430
    4      O       0.6559700206     0.2217277665    -3.6037773774
    5      O       2.9439151015     0.0814840750    -2.0743579744
    6      H      -0.2450923815    -2.0427201206    -2.5524025764
    7      H      -0.2057878349     0.1234971830    -4.0210452603
    8      H       1.7104316825    -0.1261263463    -0.4563554444
    9      H      -0.3392479915     0.0466942643    -1.8100507347
   10      O       1.3355832244     1.7891971494    -1.2640091912
   11      O       2.2208777914     2.6228229300    -1.7042525190
 ----------------------------------------------------------------
 Nuclear Repulsion Energy =         321.97543534 hartrees
 There are       29 alpha and       28 beta electrons
 Discretize the solute cavity surface with Lebedev spheres
	Using 110 Lebedev grid points for each H atom
	Using 194 Lebedev grid points for other atoms
	Atomic van der Waals radii will be scaled by 1.20
 Remove points where switching function is < 1.0e-08
 Keep 988 surface tesserae and discard 810 interior tesserae
 Molecular Surface Area = 116.467 Angst**2
 Applying Cartesian multipole field
    Component          Value
    ---------          -----
     (2,0,0)        1.00000E-11
     (0,2,0)        2.00000E-11
     (0,0,2)       -3.00000E-11
 Nucleus-field energy     =    -0.0000000175 hartrees
 Requested basis set is 6-311++G(2df,2p)
 There are 80 shells and 278 basis functions
 A cutoff of  1.0D-12 yielded   3000 shell pairs
 There are     36564 function pairs (     46342 Cartesian)
 Smallest overlap matrix eigenvalue = 5.55E-05
 Guess MOs from SCF MO coefficient file

 -----------------------------------------------------------------------
  General SCF calculation program by
  Eric Jon Sundstrom, Paul Horn, Yuezhi Mao, Dmitri Zuev, Alec White,
  David Stuck, Shaama M.S., Shane Yost, Joonho Lee, David Small,
  Daniel Levine, Susi Lehtola, Hugh Burton, Evgeny Epifanovsky,
  Bang C. Huynh
 -----------------------------------------------------------------------
 Exchange:     0.1500 Hartree-Fock + 1.0000 wB97M-V + LR-HF
 Correlation:  1.0000 wB97M-V
 Using SG-2 standard quadrature grid
 Nonlocal Correlation:  VV10 with C = 0.0100 and b = 6.00 and scale = 1.00000
 Grid used for NLC:  SG-1 standard quadrature
 
 Citation of the SMD model:
 Marenich, A.V.; Cramer, C.J.; Truhlar, D.G.
 J. Phys. Chem. B 2009, 113, 6378-6396.
 iSolventCode=           1
 Solvent: water                                                           
 
 vradii
            1           2           3           4           5           6
    1   1.8500000   1.8500000   1.5200000   1.5200000   1.5200000   1.2000000
            7           8           9          10          11
    1   1.2000000   1.2000000   1.2000000   1.5200000   1.5200000
 -------------------------------------------------------
 OpenMP BLAS3 based DFT computing Module                
 Release: version 1.0, May 2013, Q-Chem Inc. Pittsburgh 
 -------------------------------------------------------
 A unrestricted SCF calculation will be
 performed using Roothaan-Hall, DIIS, GDM
 SCF converges when RMS gradient is below 1.0e-07
 ---------------------------------------
  Cycle       Energy         DIIS error
 ---------------------------------------
    1    -454.6186705668      6.46e-04  Roothaan Step
 ---------------------------------------
  Cycle       Energy         DIIS error
 ---------------------------------------
    1    -454.7592972819      7.00e-04  
    2    -454.7743686981      7.25e-04  Done DIIS. Switching to GDM
 ---------------------------------------
  Cycle       Energy        RMS Gradient
 ---------------------------------------
    1    -454.7743686981      3.34e-02   Normal BFGS step
    2    -454.7662422148      6.20e-02  Line search: overstep
    3    -454.7870654897      7.76e-03   Normal BFGS step
    4    -454.7877422329      4.15e-03   Normal BFGS step
    5    -454.7880001116      2.72e-03   Normal BFGS step
    6    -454.7880331329      1.84e-03   Normal BFGS step
    7    -454.7880475322      1.65e-03   Normal BFGS step
    8    -454.7880541453      1.40e-03   Normal BFGS step
    9    -454.7880608447      9.23e-04   Normal BFGS step
   10    -454.7880645086      6.03e-04   Normal BFGS step
   11    -454.7880666601      3.84e-04   Normal BFGS step
   12    -454.7880675349      1.74e-04   Normal BFGS step
   13    -454.7880676860      5.44e-05   Normal BFGS step
   14    -454.7880677441      4.99e-05   Normal BFGS step
   15    -454.7880677531      2.02e-05   Normal BFGS step
   16    -454.7880677559      4.91e-06   Normal BFGS step
   17    -454.7880677564      1.78e-06   Normal BFGS step
   18    -454.7880677564      7.11e-07   Normal BFGS step
   19    -454.7880677564      2.80e-07   Normal BFGS step
   20    -454.7880677565      9.92e-08  Convergence criterion met
 ---------------------------------------
 SCF time:   CPU 768.48s  wall 97.00s 
<S^2> =          0.754992870
(3)  G-ENP(liq) elect-nuc-pol free energy of system     -454.788067756 a.u.
(4)  G-CDS(liq) cavity-dispersion-solvent structure 
     free energy                                                2.6866 kcal/mol
(6)  G-S(liq) free energy of system                     -454.783786457 a.u.
 SCF   energy in the final basis set =     -454.7837864566
 Total energy in the final basis set =     -454.7837864566
 
 --------------------------------------------------------------
 
                    Orbital Energies (a.u.)
 --------------------------------------------------------------
 
 Alpha MOs
 -- Occupied --
-19.4075 -19.3791 -19.3413 -19.3402 -19.2725 -10.4341 -10.4183  -1.2931
 -1.1968  -1.1304  -1.1117  -0.9322  -0.8211  -0.6919  -0.6493  -0.6436
 -0.5938  -0.5770  -0.5703  -0.5453  -0.5178  -0.4977  -0.4790  -0.4124
 -0.4080  -0.4023  -0.3659  -0.3371  -0.3289
 -- Virtual --
  0.0292   0.0498   0.0598   0.0616   0.0928   0.1061   0.1111   0.1258
  0.1365   0.1445   0.1553   0.1667   0.1738   0.1957   0.2161   0.2304
  0.2403   0.2528   0.2708   0.2738   0.2792   0.2847   0.2939   0.2993
  0.3102   0.3155   0.3311   0.3372   0.3405   0.3560   0.3682   0.3711
  0.3774   0.3828   0.3903   0.3965   0.4062   0.4349   0.4525   0.4756
  0.4834   0.5328   0.5753   0.5971   0.6197   0.6364   0.6479   0.6847
  0.6989   0.7214   0.7486   0.7585   0.7959   0.8165   0.8786   0.8971
  0.9096   0.9307   0.9601   1.0066   1.0410   1.0704   1.0802   1.1178
  1.1278   1.1350   1.1520   1.1601   1.1736   1.1823   1.1837   1.2029
  1.2175   1.2264   1.2442   1.2648   1.2654   1.2806   1.3030   1.3216
  1.3390   1.3868   1.4106   1.4486   1.4619   1.4919   1.5112   1.5343
  1.5484   1.5855   1.5898   1.6109   1.6351   1.6501   1.6629   1.6828
  1.7137   1.7271   1.7702   1.8392   1.8546   1.8992   1.9274   1.9554
  1.9998   2.0649   2.1117   2.1135   2.2204   2.2314   2.2630   2.2959
  2.3397   2.3592   2.4045   2.4325   2.4692   2.4879   2.5474   2.5791
  2.6540   2.7075   2.7240   2.8127   2.8646   2.9345   2.9670   3.0575
  3.1523   3.2367   3.2721   3.3146   3.3191   3.3797   3.4073   3.4225
  3.4707   3.5312   3.5621   3.5975   3.6078   3.6269   3.6630   3.6999
  3.7446   3.7753   3.8080   3.8576   3.8764   3.8907   3.9661   4.0332
  4.0726   4.0987   4.1760   4.1998   4.2232   4.3041   4.3229   4.3540
  4.3954   4.4619   4.5435   4.5905   4.6100   4.6867   4.7307   4.7959
  4.8716   4.9186   5.0867   5.0924   5.1031   5.1443   5.1743   5.2011
  5.2097   5.2308   5.2416   5.2485   5.2564   5.2597   5.2727   5.2958
  5.3059   5.3213   5.3344   5.3406   5.3792   5.4099   5.4331   5.4563
  5.4995   5.5299   5.5498   5.5790   5.6235   5.6446   5.6623   5.6728
  5.7308   5.7577   5.8541   5.9219   6.0524   6.0698   6.1279   6.2994
  6.4450   6.5009   6.5453   6.6323   6.7192   6.8177   6.8713   6.9492
  7.0211   7.0300   7.0600   7.0800   7.1186   7.1341   7.1551   7.1731
  7.2479   7.2663   7.2886   7.3304   7.3647   7.3776   7.4381   7.4941
  7.5207   7.5828   7.6615   7.7085   7.7243   7.7953   7.8490   7.8797
  8.0180   8.1150  24.7461  24.8935  50.4537  50.5401  50.5960  50.6221
 50.7310
 
 Beta MOs
 -- Occupied --
-19.3944 -19.3625 -19.3413 -19.3402 -19.2726 -10.4339 -10.4186  -1.2649
 -1.1966  -1.1304  -1.1113  -0.8987  -0.8139  -0.6871  -0.6467  -0.6433
 -0.5714  -0.5655  -0.5523  -0.5202  -0.4976  -0.4815  -0.4755  -0.4117
 -0.4073  -0.3961  -0.3358  -0.3215
 -- Virtual --
  0.0071   0.0293   0.0501   0.0600   0.0619   0.0934   0.1071   0.1119
  0.1275   0.1370   0.1457   0.1569   0.1682   0.1747   0.1988   0.2175
  0.2316   0.2417   0.2554   0.2731   0.2747   0.2817   0.2888   0.2965
  0.3023   0.3117   0.3171   0.3328   0.3399   0.3435   0.3574   0.3691
  0.3731   0.3806   0.3869   0.3914   0.3980   0.4078   0.4369   0.4530
  0.4764   0.4841   0.5340   0.5756   0.5975   0.6200   0.6372   0.6488
  0.6848   0.6994   0.7222   0.7487   0.7592   0.7971   0.8172   0.8794
  0.8981   0.9112   0.9315   0.9615   1.0075   1.0432   1.0723   1.0866
  1.1237   1.1312   1.1465   1.1574   1.1636   1.1758   1.1875   1.1944
  1.2065   1.2217   1.2273   1.2475   1.2675   1.2797   1.2850   1.3055
  1.3249   1.3418   1.3883   1.4126   1.4534   1.4657   1.4973   1.5146
  1.5422   1.5550   1.5924   1.5967   1.6219   1.6414   1.6521   1.6744
  1.6892   1.7248   1.7334   1.7837   1.8439   1.8599   1.9005   1.9294
  1.9592   2.0043   2.0724   2.1137   2.1193   2.2233   2.2346   2.2731
  2.3074   2.3463   2.3685   2.4063   2.4338   2.4708   2.4897   2.5485
  2.5797   2.6612   2.7113   2.7246   2.8142   2.8656   2.9343   2.9669
  3.0578   3.1528   3.2366   3.2725   3.3147   3.3188   3.3797   3.4072
  3.4225   3.4710   3.5313   3.5622   3.5982   3.6073   3.6268   3.6637
  3.6999   3.7449   3.7754   3.8080   3.8576   3.8766   3.8909   3.9665
  4.0332   4.0723   4.0986   4.1761   4.2000   4.2236   4.3049   4.3233
  4.3541   4.3961   4.4622   4.5440   4.6017   4.6356   4.6992   4.7390
  4.8226   4.8902   4.9308   5.1293   5.1410   5.1565   5.1762   5.1860
  5.2091   5.2176   5.2383   5.2520   5.2602   5.2801   5.2847   5.2953
  5.3048   5.3121   5.3401   5.3443   5.3538   5.3850   5.4181   5.4351
  5.4599   5.5003   5.5344   5.5518   5.5858   5.6285   5.6525   5.6719
  5.6812   5.7413   5.7619   5.8548   5.9322   6.0532   6.0701   6.1279
  6.2998   6.4458   6.5016   6.5923   6.6429   6.7207   6.8881   6.9476
  6.9898   7.0276   7.0504   7.0671   7.1047   7.1252   7.1433   7.1877
  7.2058   7.2555   7.2685   7.2889   7.3470   7.3739   7.3899   7.4677
  7.4999   7.5333   7.5906   7.6635   7.7095   7.7311   7.7962   7.8508
  7.8798   8.0331   8.1348  24.7462  24.8933  50.4657  50.5495  50.5961
 50.6232  50.7310
 --------------------------------------------------------------
 
          Ground-State Mulliken Net Atomic Charges

     Atom                 Charge (a.u.)    Spin (a.u.)
  --------------------------------------------------------
      1 C                    -0.044539      -0.014933
      2 C                    -0.056794       0.011569
      3 O                    -0.455211       0.000523
      4 O                    -0.451295      -0.000407
      5 O                    -0.726313      -0.005836
      6 H                     0.333361       0.000002
      7 H                     0.339625       0.000066
      8 H                     0.229870       0.005913
      9 H                     0.250538       0.000013
     10 O                    -0.088323       0.414315
     11 O                    -0.330920       0.588775
  --------------------------------------------------------
  Sum of atomic charges =    -1.000000
  Sum of spin   charges =     1.000000

 -----------------------------------------------------------------
                    Cartesian Multipole Moments
 -----------------------------------------------------------------
    Charge (ESU x 10^10)
                -4.8032
    Dipole Moment (Debye)
         X     -17.3581      Y      -6.0554      Z       9.9794
       Tot      20.9180
    Quadrupole Moments (Debye-Ang)
        XX     -83.4509     XY      -8.4044     YY     -60.6044
        XZ      41.6365     YZ      11.2189     ZZ     -63.4867
    Octopole Moments (Debye-Ang^2)
       XXX    -304.5731    XXY     -41.2658    XYY    -103.1449
       YYY     -90.0913    XXZ     179.0126    XYZ      12.1770
       YYZ     117.7520    XZZ    -167.4592    YZZ     -39.0683
       ZZZ     312.7062
    Hexadecapole Moments (Debye-Ang^3)
      XXXX   -1147.3135   XXXY    -195.8358   XXYY    -290.5944
      XYYY    -200.3154   YYYY    -632.0546   XXXZ     604.5675
      XXYZ      62.8286   XYYZ     194.4011   YYYZ     127.1591
      XXZZ    -549.8651   XYZZ     -61.4332   YYZZ    -352.2196
      XZZZ     647.1429   YZZZ     105.5767   ZZZZ   -1401.1865
 -----------------------------------------------------------------
 Calculating analytic gradient of the SCF energy
 Gradient of CDS energy
            1           2           3           4           5           6
    1   0.0029159  -0.0001057   0.0000651   0.0000327  -0.0020996  -0.0002226
    2  -0.0003203  -0.0001463   0.0010206  -0.0008419   0.0001978  -0.0004846
    3  -0.0007402  -0.0017639  -0.0001448   0.0020972   0.0008506   0.0000084
            7           8           9          10          11
    1  -0.0002116  -0.0002112  -0.0000706  -0.0000003  -0.0000922
    2   0.0001910   0.0000734   0.0001664   0.0000587   0.0000852
    3  -0.0004482   0.0001471   0.0000464  -0.0000720   0.0000195
 Gradient of SCF Energy
            1           2           3           4           5           6
    1   0.0289462  -0.0530289   0.0068036   0.0079398  -0.0076911   0.0016592
    2  -0.0197892   0.0109754  -0.0147127   0.0085884   0.0039313   0.0076236
    3   0.0339526   0.0236394  -0.0027032  -0.0154682  -0.0004459   0.0015759
            7           8           9          10          11
    1   0.0030701  -0.0044061   0.0195305  -0.0056402   0.0028170
    2  -0.0044591   0.0101068  -0.0129100   0.0093983   0.0012471
    3   0.0100487  -0.0360444  -0.0137611   0.0007169  -0.0015107
 Max gradient component =       5.303E-02
 RMS gradient           =       1.659E-02
 Computing fast CPCM-SWIG gradient
 Updating gradient with PCM contributions...
 -- total gradient after adding PCM contribution --
---------------------------------------------------
  Atom         X              Y              Z     
---------------------------------------------------
   1       0.000555      -0.001754       0.000008
   2      -0.000413      -0.000019      -0.000335
   3      -0.000508      -0.000010       0.000176
   4      -0.000808       0.000228       0.000082
   5      -0.001203       0.000380       0.000046
   6       0.000837       0.000280       0.000043
   7       0.000813      -0.000142       0.000282
   8      -0.000323       0.000809      -0.000570
   9       0.000606       0.000018       0.000072
  10       0.000448       0.000008       0.000232
  11      -0.000004       0.000202      -0.000036
---------------------------------------------------
 Number of fixed atoms: 0
 Gradient time:  CPU 95.49 s  wall 14.34 s
 Geometry Optimization Parameters
   NAtoms,    NIC,     NZ,  NCons,   NDum,   NFix, NCnnct, MaxDiis
       11      65       0       0       0       0       0       0

 Cartesian Hessian Update
 Hessian updated using BFGS update


** GEOMETRY OPTIMIZATION IN DELOCALIZED INTERNAL COORDINATES **
   Searching for a Minimum

   Optimization Cycle:   3

                       Coordinates (Angstroms)
     ATOM                X               Y               Z
      1  C         1.8078626118    0.1540477912   -1.5158241602
      2  C         0.5745231195   -0.2954751309   -2.2966479191
      3  O         0.6190366562   -1.7086335619   -2.2904442430
      4  O         0.6559700206    0.2217277665   -3.6037773774
      5  O         2.9439151015    0.0814840750   -2.0743579744
      6  H        -0.2450923815   -2.0427201206   -2.5524025764
      7  H        -0.2057878349    0.1234971830   -4.0210452603
      8  H         1.7104316825   -0.1261263463   -0.4563554444
      9  H        -0.3392479915    0.0466942643   -1.8100507347
     10  O         1.3355832244    1.7891971494   -1.2640091912
     11  O         2.2208777914    2.6228229300   -1.7042525190
   Point Group: c1    Number of degrees of freedom:    27


   Energy is   -454.783786457

 Hessian updated using BFGS update

 27 Hessian modes will be used to form the next step
  Hessian Eigenvalues:
     0.001879    0.004792    0.012152    0.013835    0.051986    0.058283
     0.069623    0.077988    0.096301    0.116613    0.156140    0.160015
     0.165719    0.176817    0.196426    0.205699    0.226893    0.257793
     0.319747    0.328050    0.342313    0.430728    0.440506    0.531619
     0.533634    0.625790    0.770789

 Minimum search - taking simple RFO step
 Searching for Lamda that Minimizes Along All modes
 Value Taken    Lamda =  -0.00004635
 Step Taken.  Stepsize is  0.074608

                             Maximum     Tolerance    Cnvgd?
         Gradient           0.001234      0.000300      NO
         Displacement       0.042013      0.001200      NO
         Energy change     -0.000122      0.000001      NO


 New Cartesian Coordinates Obtained by Inverse Iteration

 Displacement from previous Coordinates is:  0.077618
 ----------------------------------------------------------------
             Standard Nuclear Orientation (Angstroms)
    I     Atom           X                Y                Z
 ----------------------------------------------------------------
    1      C       1.8100943721     0.1570408580    -1.5213430297
    2      C       0.5767227552    -0.2966892248    -2.3008007564
    3      O       0.6156066620    -1.7101476919    -2.2860431361
    4      O       0.6595188164     0.2118756104    -3.6112629150
    5      O       2.9477231196     0.0883435806    -2.0793286586
    6      H      -0.2534640069    -2.0426563478    -2.5353840726
    7      H      -0.2063927525     0.1251902603    -4.0236980559
    8      H       1.7163786160    -0.1302491042    -0.4625577509
    9      H      -0.3378638862     0.0504794493    -1.8178487786
   10      O       1.3266867116     1.7879661901    -1.2719602907
   11      O       2.2230615926     2.6253624196    -1.6789399558
 ----------------------------------------------------------------
 Nuclear Repulsion Energy =         321.81064217 hartrees
 There are       29 alpha and       28 beta electrons
 Discretize the solute cavity surface with Lebedev spheres
	Using 110 Lebedev grid points for each H atom
	Using 194 Lebedev grid points for other atoms
	Atomic van der Waals radii will be scaled by 1.20
 Remove points where switching function is < 1.0e-08
 Keep 986 surface tesserae and discard 812 interior tesserae
 Molecular Surface Area = 116.444 Angst**2
 Applying Cartesian multipole field
    Component          Value
    ---------          -----
     (2,0,0)        1.00000E-11
     (0,2,0)        2.00000E-11
     (0,0,2)       -3.00000E-11
 Nucleus-field energy     =    -0.0000000175 hartrees
 Requested basis set is 6-311++G(2df,2p)
 There are 80 shells and 278 basis functions
 A cutoff of  1.0D-12 yielded   2996 shell pairs
 There are     36468 function pairs (     46192 Cartesian)
 Smallest overlap matrix eigenvalue = 5.70E-05
 Guess MOs from SCF MO coefficient file

 -----------------------------------------------------------------------
  General SCF calculation program by
  Eric Jon Sundstrom, Paul Horn, Yuezhi Mao, Dmitri Zuev, Alec White,
  David Stuck, Shaama M.S., Shane Yost, Joonho Lee, David Small,
  Daniel Levine, Susi Lehtola, Hugh Burton, Evgeny Epifanovsky,
  Bang C. Huynh
 -----------------------------------------------------------------------
 Exchange:     0.1500 Hartree-Fock + 1.0000 wB97M-V + LR-HF
 Correlation:  1.0000 wB97M-V
 Using SG-2 standard quadrature grid
 Nonlocal Correlation:  VV10 with C = 0.0100 and b = 6.00 and scale = 1.00000
 Grid used for NLC:  SG-1 standard quadrature
 
 Citation of the SMD model:
 Marenich, A.V.; Cramer, C.J.; Truhlar, D.G.
 J. Phys. Chem. B 2009, 113, 6378-6396.
 iSolventCode=           1
 Solvent: water                                                           
 
 vradii
            1           2           3           4           5           6
    1   1.8500000   1.8500000   1.5200000   1.5200000   1.5200000   1.2000000
            7           8           9          10          11
    1   1.2000000   1.2000000   1.2000000   1.5200000   1.5200000
 -------------------------------------------------------
 OpenMP BLAS3 based DFT computing Module                
 Release: version 1.0, May 2013, Q-Chem Inc. Pittsburgh 
 -------------------------------------------------------
 A unrestricted SCF calculation will be
 performed using Roothaan-Hall, DIIS, GDM
 SCF converges when RMS gradient is below 1.0e-07
 ---------------------------------------
  Cycle       Energy         DIIS error
 ---------------------------------------
    1    -454.6249375322      5.72e-04  Roothaan Step
 ---------------------------------------
  Cycle       Energy         DIIS error
 ---------------------------------------
    1    -454.7601886883      6.96e-04  
    2    -454.7745663176      7.25e-04  Done DIIS. Switching to GDM
 ---------------------------------------
  Cycle       Energy        RMS Gradient
 ---------------------------------------
    1    -454.7745663176      3.36e-02   Normal BFGS step
    2    -454.7662852912      6.08e-02  Line search: overstep
    3    -454.7872202788      7.40e-03   Normal BFGS step
    4    -454.7878237812      4.00e-03   Normal BFGS step
    5    -454.7880598013      2.58e-03   Normal BFGS step
    6    -454.7880828103      6.46e-04   Normal BFGS step
    7    -454.7880920977      5.45e-04   Normal BFGS step
    8    -454.7880932757      4.90e-04   Normal BFGS step
    9    -454.7880941885      4.10e-04   Normal BFGS step
   10    -454.7880947964      2.85e-04   Normal BFGS step
   11    -454.7880950214      2.09e-04   Normal BFGS step
   12    -454.7880952903      1.22e-04   Normal BFGS step
   13    -454.7880953637      4.67e-05   Normal BFGS step
   14    -454.7880953992      1.66e-05   Normal BFGS step
   15    -454.7880954044      9.97e-06   Normal BFGS step
   16    -454.7880954050      3.93e-06   Normal BFGS step
   17    -454.7880954052      2.25e-06   Normal BFGS step
   18    -454.7880954052      6.61e-07   Normal BFGS step
   19    -454.7880954052      1.54e-07   Normal BFGS step
   20    -454.7880954052      7.16e-08  Convergence criterion met
 ---------------------------------------
 SCF time:   CPU 767.88s  wall 97.00s 
<S^2> =          0.754987760
(3)  G-ENP(liq) elect-nuc-pol free energy of system     -454.788095405 a.u.
(4)  G-CDS(liq) cavity-dispersion-solvent structure 
     free energy                                                2.6849 kcal/mol
(6)  G-S(liq) free energy of system                     -454.783816681 a.u.
 SCF   energy in the final basis set =     -454.7838166812
 Total energy in the final basis set =     -454.7838166812
 
 --------------------------------------------------------------
 
                    Orbital Energies (a.u.)
 --------------------------------------------------------------
 
 Alpha MOs
 -- Occupied --
-19.4079 -19.3792 -19.3412 -19.3402 -19.2725 -10.4342 -10.4185  -1.2940
 -1.1965  -1.1303  -1.1112  -0.9324  -0.8207  -0.6919  -0.6490  -0.6436
 -0.5940  -0.5774  -0.5707  -0.5452  -0.5176  -0.4979  -0.4781  -0.4126
 -0.4079  -0.4021  -0.3659  -0.3373  -0.3289
 -- Virtual --
  0.0292   0.0498   0.0598   0.0616   0.0928   0.1061   0.1112   0.1261
  0.1361   0.1446   0.1556   0.1666   0.1738   0.1958   0.2164   0.2306
  0.2399   0.2524   0.2702   0.2742   0.2790   0.2846   0.2937   0.2992
  0.3102   0.3145   0.3315   0.3373   0.3405   0.3561   0.3681   0.3718
  0.3780   0.3833   0.3897   0.3968   0.4061   0.4348   0.4521   0.4761
  0.4843   0.5341   0.5751   0.5958   0.6183   0.6364   0.6476   0.6848
  0.6989   0.7200   0.7479   0.7577   0.7958   0.8166   0.8786   0.8983
  0.9079   0.9290   0.9621   1.0071   1.0398   1.0702   1.0788   1.1165
  1.1281   1.1359   1.1515   1.1608   1.1742   1.1811   1.1851   1.2033
  1.2181   1.2266   1.2442   1.2639   1.2657   1.2806   1.3032   1.3205
  1.3374   1.3881   1.4103   1.4494   1.4611   1.4911   1.5103   1.5340
  1.5484   1.5853   1.5901   1.6090   1.6354   1.6499   1.6626   1.6827
  1.7133   1.7285   1.7701   1.8383   1.8536   1.8972   1.9251   1.9542
  2.0015   2.0650   2.1105   2.1131   2.2225   2.2314   2.2646   2.2939
  2.3392   2.3604   2.4047   2.4329   2.4684   2.4878   2.5462   2.5778
  2.6542   2.7042   2.7225   2.8128   2.8632   2.9339   2.9673   3.0560
  3.1508   3.2388   3.2704   3.3158   3.3206   3.3791   3.4050   3.4235
  3.4697   3.5303   3.5642   3.5983   3.6061   3.6275   3.6637   3.7007
  3.7439   3.7752   3.8076   3.8568   3.8767   3.8902   3.9677   4.0312
  4.0716   4.0999   4.1767   4.1989   4.2232   4.3009   4.3199   4.3498
  4.3940   4.4607   4.5391   4.5913   4.6081   4.6859   4.7302   4.7946
  4.8727   4.9197   5.0863   5.0925   5.1029   5.1445   5.1732   5.2020
  5.2108   5.2315   5.2403   5.2492   5.2562   5.2605   5.2741   5.2958
  5.3049   5.3213   5.3348   5.3411   5.3787   5.4087   5.4324   5.4553
  5.4955   5.5283   5.5495   5.5782   5.6244   5.6455   5.6602   5.6723
  5.7287   5.7570   5.8539   5.9228   6.0515   6.0685   6.1288   6.2970
  6.4412   6.5001   6.5483   6.6352   6.7199   6.8176   6.8713   6.9494
  7.0189   7.0315   7.0600   7.0786   7.1179   7.1346   7.1546   7.1721
  7.2472   7.2651   7.2862   7.3300   7.3634   7.3774   7.4383   7.4959
  7.5216   7.5822   7.6610   7.7062   7.7227   7.7937   7.8495   7.8804
  8.0192   8.1157  24.7440  24.8894  50.4543  50.5399  50.5954  50.6220
 50.7289
 
 Beta MOs
 -- Occupied --
-19.3949 -19.3626 -19.3412 -19.3402 -19.2726 -10.4340 -10.4187  -1.2657
 -1.1963  -1.1302  -1.1108  -0.8990  -0.8135  -0.6871  -0.6464  -0.6434
 -0.5716  -0.5659  -0.5522  -0.5201  -0.4979  -0.4810  -0.4753  -0.4120
 -0.4072  -0.3959  -0.3357  -0.3216
 -- Virtual --
  0.0071   0.0293   0.0501   0.0600   0.0619   0.0933   0.1071   0.1120
  0.1279   0.1366   0.1458   0.1572   0.1681   0.1747   0.1988   0.2179
  0.2317   0.2414   0.2552   0.2723   0.2752   0.2815   0.2887   0.2961
  0.3021   0.3116   0.3164   0.3330   0.3400   0.3437   0.3575   0.3692
  0.3735   0.3812   0.3870   0.3912   0.3984   0.4076   0.4367   0.4526
  0.4769   0.4851   0.5353   0.5754   0.5962   0.6186   0.6371   0.6485
  0.6849   0.6994   0.7208   0.7480   0.7584   0.7969   0.8173   0.8793
  0.8995   0.9094   0.9299   0.9634   1.0080   1.0420   1.0721   1.0850
  1.1228   1.1315   1.1470   1.1568   1.1637   1.1769   1.1871   1.1953
  1.2067   1.2224   1.2275   1.2476   1.2677   1.2798   1.2847   1.3055
  1.3237   1.3401   1.3897   1.4124   1.4541   1.4646   1.4961   1.5136
  1.5417   1.5550   1.5929   1.5967   1.6208   1.6413   1.6523   1.6740
  1.6890   1.7253   1.7338   1.7838   1.8429   1.8588   1.8986   1.9272
  1.9578   2.0060   2.0725   2.1120   2.1193   2.2252   2.2350   2.2747
  2.3047   2.3450   2.3704   2.4069   2.4342   2.4702   2.4895   2.5474
  2.5783   2.6613   2.7082   2.7230   2.8142   2.8642   2.9337   2.9672
  3.0563   3.1513   3.2388   3.2708   3.3159   3.3204   3.3791   3.4049
  3.4234   3.4700   3.5304   3.5644   3.5989   3.6057   3.6273   3.6644
  3.7007   3.7442   3.7752   3.8076   3.8568   3.8769   3.8904   3.9681
  4.0313   4.0713   4.0998   4.1768   4.1992   4.2236   4.3016   4.3203
  4.3499   4.3947   4.4609   4.5396   4.6014   4.6346   4.6986   4.7388
  4.8214   4.8913   4.9317   5.1288   5.1408   5.1567   5.1768   5.1849
  5.2103   5.2180   5.2391   5.2529   5.2598   5.2793   5.2852   5.2959
  5.3040   5.3127   5.3398   5.3450   5.3541   5.3843   5.4170   5.4344
  5.4587   5.4963   5.5328   5.5514   5.5849   5.6296   5.6532   5.6707
  5.6796   5.7387   5.7621   5.8546   5.9332   6.0522   6.0688   6.1288
  6.2974   6.4419   6.5010   6.5953   6.6458   6.7215   6.8881   6.9476
  6.9892   7.0257   7.0507   7.0684   7.1029   7.1254   7.1423   7.1874
  7.2055   7.2546   7.2674   7.2865   7.3464   7.3724   7.3903   7.4681
  7.5014   7.5340   7.5901   7.6627   7.7073   7.7295   7.7945   7.8515
  7.8805   8.0343   8.1356  24.7441  24.8893  50.4663  50.5493  50.5956
 50.6232  50.7289
 --------------------------------------------------------------
 
          Ground-State Mulliken Net Atomic Charges

     Atom                 Charge (a.u.)    Spin (a.u.)
  --------------------------------------------------------
      1 C                    -0.047221      -0.015135
      2 C                    -0.055340       0.011483
      3 O                    -0.456324       0.000485
      4 O                    -0.451210      -0.000194
      5 O                    -0.726725      -0.005856
      6 H                     0.333968      -0.000001
      7 H                     0.339873       0.000055
      8 H                     0.230176       0.006106
      9 H                     0.249919       0.000072
     10 O                    -0.088163       0.414036
     11 O                    -0.328953       0.588949
  --------------------------------------------------------
  Sum of atomic charges =    -1.000000
  Sum of spin   charges =     1.000000

 -----------------------------------------------------------------
                    Cartesian Multipole Moments
 -----------------------------------------------------------------
    Charge (ESU x 10^10)
                -4.8032
    Dipole Moment (Debye)
         X     -17.3831      Y      -6.0237      Z       9.9911
       Tot      20.9351
    Quadrupole Moments (Debye-Ang)
        XX     -83.5400     XY      -8.4292     YY     -60.5917
        XZ      41.6622     YZ      10.9618     ZZ     -63.6389
    Octopole Moments (Debye-Ang^2)
       XXX    -305.1883    XXY     -41.5786    XYY    -103.2072
       YYY     -89.9269    XXZ     179.1167    XYZ      12.0125
       YYZ     117.5916    XZZ    -167.5920    YZZ     -37.9699
       ZZZ     313.6927
    Hexadecapole Moments (Debye-Ang^3)
      XXXX   -1150.6368   XXXY    -197.2911   XXYY    -290.8963
      XYYY    -200.4895   YYYY    -632.5893   XXXZ     605.5589
      XXYZ      62.5321   XYYZ     193.7884   YYYZ     124.6983
      XXZZ    -550.4196   XYZZ     -60.8649   YYZZ    -352.0403
      XZZZ     647.9622   YZZZ     100.6573   ZZZZ   -1406.9061
 -----------------------------------------------------------------
 Calculating analytic gradient of the SCF energy
 Gradient of CDS energy
            1           2           3           4           5           6
    1   0.0029414  -0.0000995   0.0000697   0.0000275  -0.0021260  -0.0002264
    2  -0.0003088  -0.0001206   0.0009797  -0.0008307   0.0001947  -0.0004821
    3  -0.0007553  -0.0017660  -0.0001482   0.0021020   0.0008622   0.0000124
            7           8           9          10          11
    1  -0.0002132  -0.0002130  -0.0000707   0.0000035  -0.0000934
    2   0.0001898   0.0000645   0.0001671   0.0000583   0.0000882
    3  -0.0004474   0.0001476   0.0000446  -0.0000711   0.0000193
 Gradient of SCF Energy
            1           2           3           4           5           6
    1   0.0285494  -0.0521642   0.0069499   0.0082610  -0.0067992   0.0011758
    2  -0.0195169   0.0113031  -0.0146877   0.0084687   0.0037219   0.0073760
    3   0.0333751   0.0234754  -0.0025476  -0.0150753  -0.0003839   0.0014371
            7           8           9          10          11
    1   0.0026062  -0.0043935   0.0189972  -0.0055403   0.0023577
    2  -0.0044688   0.0100017  -0.0129454   0.0101090   0.0006384
    3   0.0097788  -0.0355927  -0.0135572   0.0003851  -0.0012948
 Max gradient component =       5.216E-02
 RMS gradient           =       1.636E-02
 Computing fast CPCM-SWIG gradient
 Updating gradient with PCM contributions...
 -- total gradient after adding PCM contribution --
---------------------------------------------------
  Atom         X              Y              Z     
---------------------------------------------------
   1       0.000457      -0.000702      -0.000146
   2       0.000108       0.000038      -0.000384
   3      -0.000282       0.000023       0.000228
   4      -0.000382       0.000192       0.000327
   5      -0.000393      -0.000067       0.000012
   6       0.000267       0.000025      -0.000057
   7       0.000259      -0.000123       0.000055
   8      -0.000079       0.000165      -0.000203
   9       0.000111       0.000059       0.000097
  10       0.000403       0.000783      -0.000156
  11      -0.000470      -0.000394       0.000227
---------------------------------------------------
 Number of fixed atoms: 0
 Gradient time:  CPU 95.86 s  wall 14.53 s
 Geometry Optimization Parameters
   NAtoms,    NIC,     NZ,  NCons,   NDum,   NFix, NCnnct, MaxDiis
       11      65       0       0       0       0       0       0

 Cartesian Hessian Update
 Hessian updated using BFGS update


** GEOMETRY OPTIMIZATION IN DELOCALIZED INTERNAL COORDINATES **
   Searching for a Minimum

   Optimization Cycle:   4

                       Coordinates (Angstroms)
     ATOM                X               Y               Z
      1  C         1.8100943721    0.1570408580   -1.5213430297
      2  C         0.5767227552   -0.2966892248   -2.3008007564
      3  O         0.6156066620   -1.7101476919   -2.2860431361
      4  O         0.6595188164    0.2118756104   -3.6112629150
      5  O         2.9477231196    0.0883435806   -2.0793286586
      6  H        -0.2534640069   -2.0426563478   -2.5353840726
      7  H        -0.2063927525    0.1251902603   -4.0236980559
      8  H         1.7163786160   -0.1302491042   -0.4625577509
      9  H        -0.3378638862    0.0504794493   -1.8178487786
     10  O         1.3266867116    1.7879661901   -1.2719602907
     11  O         2.2230615926    2.6253624196   -1.6789399558
   Point Group: c1    Number of degrees of freedom:    27


   Energy is   -454.783816681

 Hessian updated using BFGS update

 27 Hessian modes will be used to form the next step
  Hessian Eigenvalues:
     0.001895    0.004314    0.009528    0.013782    0.052647    0.058290
     0.070163    0.077377    0.096120    0.116182    0.155101    0.159989
     0.160772    0.177187    0.195724    0.205180    0.238269    0.257830
     0.314984    0.324430    0.343334    0.430618    0.438193    0.519471
     0.531661    0.653692    0.757965

 Minimum search - taking simple RFO step
 Searching for Lamda that Minimizes Along All modes
 Value Taken    Lamda =  -0.00001616
 Step Taken.  Stepsize is  0.045924

                             Maximum     Tolerance    Cnvgd?
         Gradient           0.000648      0.000300      NO
         Displacement       0.018082      0.001200      NO
         Energy change     -0.000030      0.000001      NO


 New Cartesian Coordinates Obtained by Inverse Iteration

 Displacement from previous Coordinates is:  0.044446
 ----------------------------------------------------------------
             Standard Nuclear Orientation (Angstroms)
    I     Atom           X                Y                Z
 ----------------------------------------------------------------
    1      C       1.8113331759     0.1580439360    -1.5233331526
    2      C       0.5784237207    -0.2976921265    -2.3034337824
    3      O       0.6138321271    -1.7112435508    -2.2848186306
    4      O       0.6636315520     0.2054750271    -3.6162640691
    5      O       2.9501399774     0.0947152873    -2.0809535919
    6      H      -0.2595686341    -2.0415110510    -2.5229395989
    7      H      -0.2057070073     0.1311085437    -4.0246528222
    8      H       1.7201602378    -0.1341829943    -0.4651395378
    9      H      -0.3367924639     0.0523471702    -1.8234113980
   10      O       1.3224709427     1.7844828114    -1.2728213614
   11      O       2.2201483718     2.6249729467    -1.6713994554
 ----------------------------------------------------------------
 Nuclear Repulsion Energy =         321.77796656 hartrees
 There are       29 alpha and       28 beta electrons
 Discretize the solute cavity surface with Lebedev spheres
	Using 110 Lebedev grid points for each H atom
	Using 194 Lebedev grid points for other atoms
	Atomic van der Waals radii will be scaled by 1.20
 Remove points where switching function is < 1.0e-08
[...]
  4.3925   4.4610   4.5360   4.5906   4.6070   4.6853   4.7301   4.7962
  4.8749   4.9197   5.0862   5.0926   5.1027   5.1442   5.1734   5.2016
  5.2133   5.2328   5.2416   5.2501   5.2559   5.2617   5.2740   5.2974
  5.3042   5.3229   5.3343   5.3433   5.3785   5.4089   5.4337   5.4545
  5.4884   5.5283   5.5531   5.5780   5.6251   5.6495   5.6565   5.6738
  5.7276   5.7561   5.8537   5.9327   6.0505   6.0655   6.1317   6.2937
  6.4345   6.5009   6.5449   6.6343   6.7185   6.8172   6.8714   6.9491
  7.0160   7.0318   7.0608   7.0791   7.1183   7.1351   7.1554   7.1703
  7.2475   7.2630   7.2853   7.3310   7.3639   7.3791   7.4383   7.5017
  7.5258   7.5817   7.6606   7.7042   7.7242   7.7898   7.8505   7.8812
  8.0188   8.1144  24.7417  24.8858  50.4531  50.5390  50.5952  50.6216
 50.7282
 
 Beta MOs
 -- Occupied --
-19.3960 -19.3632 -19.3411 -19.3401 -19.2717 -10.4339 -10.4187  -1.2662
 -1.1959  -1.1301  -1.1096  -0.9006  -0.8131  -0.6873  -0.6460  -0.6435
 -0.5724  -0.5662  -0.5529  -0.5192  -0.4987  -0.4804  -0.4735  -0.4131
 -0.4070  -0.3948  -0.3351  -0.3228
 -- Virtual --
  0.0063   0.0293   0.0501   0.0599   0.0620   0.0934   0.1071   0.1120
  0.1282   0.1359   0.1464   0.1577   0.1682   0.1748   0.2001   0.2175
  0.2319   0.2408   0.2552   0.2718   0.2763   0.2811   0.2892   0.2958
  0.3021   0.3109   0.3158   0.3330   0.3400   0.3428   0.3571   0.3690
  0.3735   0.3822   0.3859   0.3912   0.3980   0.4071   0.4368   0.4530
  0.4778   0.4867   0.5349   0.5750   0.5963   0.6178   0.6367   0.6490
  0.6846   0.6982   0.7209   0.7471   0.7577   0.7962   0.8206   0.8800
  0.9016   0.9074   0.9280   0.9639   1.0097   1.0409   1.0738   1.0848
  1.1222   1.1313   1.1482   1.1568   1.1641   1.1778   1.1875   1.1961
  1.2066   1.2222   1.2278   1.2478   1.2686   1.2793   1.2842   1.3053
  1.3210   1.3378   1.3910   1.4111   1.4531   1.4652   1.4914   1.5142
  1.5431   1.5549   1.5935   1.5968   1.6203   1.6417   1.6534   1.6734
  1.6899   1.7270   1.7374   1.7841   1.8421   1.8598   1.8967   1.9231
  1.9611   2.0082   2.0746   2.1098   2.1187   2.2261   2.2363   2.2755
  2.3030   2.3440   2.3697   2.4063   2.4346   2.4683   2.4900   2.5446
  2.5760   2.6596   2.7096   2.7203   2.8191   2.8613   2.9339   2.9685
  3.0547   3.1536   3.2439   3.2698   3.3178   3.3232   3.3791   3.4029
  3.4261   3.4702   3.5316   3.5666   3.5997   3.6063   3.6285   3.6677
  3.7024   3.7429   3.7767   3.8078   3.8568   3.8775   3.8899   3.9711
  4.0297   4.0717   4.1013   4.1789   4.1979   4.2242   4.2974   4.3168
  4.3424   4.3933   4.4614   4.5365   4.6001   4.6340   4.6978   4.7390
  4.8229   4.8930   4.9319   5.1289   5.1415   5.1564   5.1764   5.1851
  5.2116   5.2190   5.2416   5.2554   5.2594   5.2792   5.2846   5.2969
  5.3041   5.3131   5.3401   5.3446   5.3566   5.3837   5.4174   5.4359
  5.4577   5.4893   5.5330   5.5548   5.5847   5.6318   5.6556   5.6684
  5.6796   5.7378   5.7615   5.8544   5.9431   6.0513   6.0659   6.1317
  6.2942   6.4352   6.5018   6.5918   6.6448   6.7202   6.8879   6.9479
  6.9892   7.0237   7.0497   7.0690   7.1027   7.1276   7.1405   7.1877
  7.2049   7.2552   7.2656   7.2856   7.3472   7.3732   7.3919   7.4682
  7.5070   7.5383   7.5895   7.6623   7.7052   7.7311   7.7906   7.8527
  7.8813   8.0338   8.1343  24.7418  24.8857  50.4651  50.5484  50.5954
 50.6228  50.7282
 --------------------------------------------------------------
 
          Ground-State Mulliken Net Atomic Charges

     Atom                 Charge (a.u.)    Spin (a.u.)
  --------------------------------------------------------
      1 C                    -0.044627      -0.014677
      2 C                    -0.056554       0.011503
      3 O                    -0.457361       0.000506
      4 O                    -0.452763      -0.000258
      5 O                    -0.731542      -0.005556
      6 H                     0.334618       0.000025
      7 H                     0.340193       0.000067
      8 H                     0.229167       0.006380
      9 H                     0.249658       0.000051
     10 O                    -0.083374       0.411601
     11 O                    -0.327415       0.590357
  --------------------------------------------------------
  Sum of atomic charges =    -1.000000
  Sum of spin   charges =     1.000000

 -----------------------------------------------------------------
                    Cartesian Multipole Moments
 -----------------------------------------------------------------
    Charge (ESU x 10^10)
                -4.8032
    Dipole Moment (Debye)
         X     -17.4499      Y      -5.9035      Z      10.0759
       Tot      20.9970
    Quadrupole Moments (Debye-Ang)
        XX     -83.6919     XY      -8.3048     YY     -60.4153
        XZ      41.8229     YZ      10.4984     ZZ     -64.1562
    Octopole Moments (Debye-Ang^2)
       XXX    -305.9192    XXY     -41.2481    XYY    -103.0244
       YYY     -89.1448    XXZ     179.5171    XYZ      11.9041
       YYZ     117.6514    XZZ    -168.1200    YZZ     -36.0469
       ZZZ     316.4128
    Hexadecapole Moments (Debye-Ang^3)
      XXXX   -1152.9795   XXXY    -196.1707   XXYY    -289.9226
      XYYY    -198.5200   YYYY    -629.9273   XXXZ     607.3695
      XXYZ      62.0459   XYYZ     193.7287   YYYZ     122.8290
      XXZZ    -551.7244   XYZZ     -60.7725   YYZZ    -353.0382
      XZZZ     650.3385   YZZZ      93.0623   ZZZZ   -1420.5763
 -----------------------------------------------------------------
 Calculating analytic gradient of the SCF energy
 Gradient of CDS energy
            1           2           3           4           5           6
    1   0.0029765  -0.0001007   0.0000732   0.0000345  -0.0021630  -0.0002310
    2  -0.0003045  -0.0001718   0.0009736  -0.0007780   0.0001964  -0.0004787
    3  -0.0007631  -0.0016285  -0.0001529   0.0019656   0.0008715   0.0000146
            7           8           9          10          11
    1  -0.0002176  -0.0002137  -0.0000686   0.0000036  -0.0000933
    2   0.0001916   0.0000599   0.0001653   0.0000589   0.0000873
    3  -0.0004437   0.0001477   0.0000422  -0.0000723   0.0000190
 Gradient of SCF Energy
            1           2           3           4           5           6
    1   0.0278760  -0.0518196   0.0069316   0.0083460  -0.0061848   0.0011170
    2  -0.0199506   0.0116824  -0.0147078   0.0083199   0.0037560   0.0074321
    3   0.0331831   0.0240939  -0.0028466  -0.0153182  -0.0006971   0.0015321
            7           8           9          10          11
    1   0.0025822  -0.0044029   0.0186945  -0.0057382   0.0025981
    2  -0.0044874   0.0102268  -0.0128312   0.0095750   0.0009849
    3   0.0097289  -0.0353685  -0.0133926   0.0004866  -0.0014015
 Max gradient component =       5.182E-02
 RMS gradient           =       1.629E-02
 Computing fast CPCM-SWIG gradient
 Updating gradient with PCM contributions...
 -- total gradient after adding PCM contribution --
---------------------------------------------------
  Atom         X              Y              Z     
---------------------------------------------------
   1       0.000179      -0.000195      -0.000122
   2      -0.000025       0.000007       0.000077
   3      -0.000020       0.000003      -0.000048
   4      -0.000015      -0.000032      -0.000019
   5      -0.000118       0.000019       0.000031
   6      -0.000015       0.000008       0.000053
   7      -0.000030       0.000033       0.000043
   8       0.000015       0.000010      -0.000023
   9       0.000014       0.000010      -0.000002
  10      -0.000089       0.000084       0.000066
  11       0.000105       0.000054      -0.000056
---------------------------------------------------
 Number of fixed atoms: 0
 Gradient time:  CPU 95.23 s  wall 14.16 s
 Geometry Optimization Parameters
   NAtoms,    NIC,     NZ,  NCons,   NDum,   NFix, NCnnct, MaxDiis
       11      65       0       0       0       0       0       0

 Cartesian Hessian Update
 Hessian updated using BFGS update


** GEOMETRY OPTIMIZATION IN DELOCALIZED INTERNAL COORDINATES **
   Searching for a Minimum

   Optimization Cycle:   8

                       Coordinates (Angstroms)
     ATOM                X               Y               Z
      1  C         1.8089773900    0.1597908005   -1.5221501325
      2  C         0.5792040988   -0.2991611523   -2.3054470286
      3  O         0.6197325970   -1.7125805858   -2.2890431111
      4  O         0.6655800822    0.2056558943   -3.6177985492
      5  O         2.9496862201    0.0916683647   -2.0773576167
      6  H        -0.2563330744   -2.0459168085   -2.5118039659
      7  H        -0.2076477017    0.1496441022   -4.0202819741
      8  H         1.7139920902   -0.1336964048   -0.4646467700
      9  H        -0.3383111293    0.0472027698   -1.8278475356
     10  O         1.3247484052    1.7812610481   -1.2728154322
     11  O         2.2184430219    2.6226479715   -1.6799752844
   Point Group: c1    Number of degrees of freedom:    27


   Energy is   -454.783833911

 Hessian updated using BFGS update

 26 Hessian modes will be used to form the next step
  Hessian Eigenvalues:
     0.001769    0.003895    0.004163    0.013670    0.049625    0.059446
     0.071832    0.075117    0.091497    0.103665    0.121361    0.159754
     0.161825    0.178817    0.191313    0.213551    0.232877    0.270532
     0.318625    0.328251    0.344893    0.435367    0.448113    0.526832
     0.638303    0.754961

 Minimum search - taking simple RFO step
 Searching for Lamda that Minimizes Along All modes
 Value Taken    Lamda =  -0.00000064
 Step Taken.  Stepsize is  0.008470

                             Maximum     Tolerance    Cnvgd?
         Gradient           0.000092      0.000300     YES
         Displacement       0.004039      0.001200      NO
         Energy change     -0.000001      0.000001     YES


                       Distance Matrix (Angstroms)
             C (  1)   C (  2)   O (  3)   O (  4)   O (  5)   H (  6)
   C (  2)  1.528572
   O (  3)  2.346956  1.414096
   O (  4)  2.387719  1.408747  2.333950
   O (  5)  1.270477  2.413288  2.954456  2.757371
   H (  6)  3.179633  1.947270  0.963445  2.672588  3.877702
   H (  7)  3.210536  1.939387  2.673879  0.963150  3.707705  2.664275
   H (  8)  1.101576  2.168794  2.649283  3.340164  2.044154  3.424853
   H (  9)  2.171860  1.090827  2.056061  2.058356  3.297751  2.203558
   O ( 10)  1.710500  2.439328  3.706305  2.901031  2.478394  4.322291
   O ( 11)  2.501647  3.408121  4.660584  3.465313  2.664299  5.349014
             H (  7)   H (  8)   H (  9)   O ( 10)
   H (  8)  4.051607
   H (  9)  2.198712  2.470423
   O ( 10)  3.543866  2.114642  2.465925
   O ( 11)  4.180753  3.054329  3.632048  1.293214
 
 Final energy is   -454.783833911374     


 ******************************
 **  OPTIMIZATION CONVERGED  **
 ******************************

                       Coordinates (Angstroms)
     ATOM                X               Y               Z
      1  C         1.8089773900    0.1597908005   -1.5221501325
      2  C         0.5792040988   -0.2991611523   -2.3054470286
      3  O         0.6197325970   -1.7125805858   -2.2890431111
      4  O         0.6655800822    0.2056558943   -3.6177985492
      5  O         2.9496862201    0.0916683647   -2.0773576167
      6  H        -0.2563330744   -2.0459168085   -2.5118039659
      7  H        -0.2076477017    0.1496441022   -4.0202819741
      8  H         1.7139920902   -0.1336964048   -0.4646467700
      9  H        -0.3383111293    0.0472027698   -1.8278475356
     10  O         1.3247484052    1.7812610481   -1.2728154322
     11  O         2.2184430219    2.6226479715   -1.6799752844

Z-matrix Print:
$molecule
-1 2
O 
O  1 1.293214
C  1 1.710500 2 112.038177
H  3 1.101576 1 95.060774 2 122.940818 0
O  3 1.270477 1 111.635868 2 -0.866229 0
C  3 1.528572 1 97.559932 2 -126.040092 0
H  6 1.090827 3 110.916236 1 -45.424420 0
O  6 1.408747 3 108.690236 1 75.903746 0
H  8 0.963150 6 108.231632 3 -163.077835 0
O  6 1.414096 3 105.729903 1 -164.226565 0
H  10 0.963445 6 108.486127 3 161.950839 0
$end

 
 --------------------------------------------------------------
 
                    Orbital Energies (a.u.)
 --------------------------------------------------------------
 
 Alpha MOs
 -- Occupied --
-19.4090 -19.3799 -19.3411 -19.3401 -19.2716 -10.4341 -10.4185  -1.2945
 -1.1961  -1.1302  -1.1100  -0.9340  -0.8202  -0.6923  -0.6485  -0.6440
 -0.5948  -0.5781  -0.5712  -0.5448  -0.5167  -0.4987  -0.4756  -0.4136
 -0.4078  -0.4012  -0.3666  -0.3382  -0.3284
 -- Virtual --
  0.0292   0.0498   0.0597   0.0617   0.0929   0.1062   0.1112   0.1264
  0.1354   0.1451   0.1562   0.1666   0.1738   0.1970   0.2161   0.2308
  0.2393   0.2523   0.2698   0.2750   0.2786   0.2849   0.2936   0.2993
  0.3097   0.3136   0.3315   0.3370   0.3398   0.3558   0.3678   0.3721
  0.3792   0.3828   0.3890   0.3960   0.4056   0.4351   0.4524   0.4770
  0.4860   0.5337   0.5747   0.5959   0.6175   0.6360   0.6480   0.6845
  0.6978   0.7200   0.7470   0.7570   0.7952   0.8199   0.8794   0.9000
  0.9064   0.9268   0.9625   1.0087   1.0387   1.0717   1.0787   1.1160
  1.1280   1.1368   1.1517   1.1610   1.1751   1.1809   1.1862   1.2036
  1.2178   1.2269   1.2441   1.2637   1.2663   1.2804   1.3030   1.3180
  1.3349   1.3894   1.4090   1.4485   1.4617   1.4863   1.5111   1.5353
  1.5481   1.5853   1.5909   1.6084   1.6355   1.6505   1.6624   1.6835
  1.7135   1.7335   1.7706   1.8375   1.8550   1.8952   1.9213   1.9569
  2.0040   2.0670   2.1080   2.1126   2.2233   2.2325   2.2654   2.2921
  2.3387   2.3597   2.4040   2.4333   2.4664   2.4884   2.5433   2.5753
  2.6525   2.7055   2.7199   2.8176   2.8602   2.9341   2.9686   3.0543
  3.1531   3.2439   3.2694   3.3178   3.3233   3.3790   3.4030   3.4261
  3.4699   3.5316   3.5667   3.5990   3.6066   3.6288   3.6669   3.7024
  3.7426   3.7766   3.8078   3.8568   3.8773   3.8896   3.9707   4.0296
  4.0720   4.1014   4.1786   4.1977   4.2238   4.2967   4.3163   4.3424
  4.3925   4.4610   4.5360   4.5906   4.6070   4.6853   4.7301   4.7962
  4.8749   4.9197   5.0862   5.0926   5.1027   5.1442   5.1734   5.2016
  5.2133   5.2328   5.2416   5.2501   5.2559   5.2617   5.2740   5.2974
  5.3042   5.3229   5.3343   5.3433   5.3785   5.4089   5.4337   5.4545
  5.4884   5.5283   5.5531   5.5780   5.6251   5.6495   5.6565   5.6738
  5.7276   5.7561   5.8537   5.9327   6.0505   6.0655   6.1317   6.2937
  6.4345   6.5009   6.5449   6.6343   6.7185   6.8172   6.8714   6.9491
  7.0160   7.0318   7.0608   7.0791   7.1183   7.1351   7.1554   7.1703
  7.2475   7.2630   7.2853   7.3310   7.3639   7.3791   7.4383   7.5017
  7.5258   7.5817   7.6606   7.7042   7.7242   7.7898   7.8505   7.8812
  8.0188   8.1144  24.7417  24.8858  50.4531  50.5390  50.5952  50.6216
 50.7282
 
 Beta MOs
 -- Occupied --
-19.3960 -19.3632 -19.3411 -19.3401 -19.2717 -10.4339 -10.4187  -1.2662
 -1.1959  -1.1301  -1.1096  -0.9006  -0.8131  -0.6873  -0.6460  -0.6435
 -0.5724  -0.5662  -0.5529  -0.5192  -0.4987  -0.4804  -0.4735  -0.4131
 -0.4070  -0.3948  -0.3351  -0.3228
 -- Virtual --
  0.0063   0.0293   0.0501   0.0599   0.0620   0.0934   0.1071   0.1120
  0.1282   0.1359   0.1464   0.1577   0.1682   0.1748   0.2001   0.2175
  0.2319   0.2408   0.2552   0.2718   0.2763   0.2811   0.2892   0.2958
  0.3021   0.3109   0.3158   0.3330   0.3400   0.3428   0.3571   0.3690
  0.3735   0.3822   0.3859   0.3912   0.3980   0.4071   0.4368   0.4530
  0.4778   0.4867   0.5349   0.5750   0.5963   0.6178   0.6367   0.6490
  0.6846   0.6982   0.7209   0.7471   0.7577   0.7962   0.8206   0.8800
  0.9016   0.9074   0.9280   0.9639   1.0097   1.0409   1.0738   1.0848
  1.1222   1.1313   1.1482   1.1568   1.1641   1.1778   1.1875   1.1961
  1.2066   1.2222   1.2278   1.2478   1.2686   1.2793   1.2842   1.3053
  1.3210   1.3378   1.3910   1.4111   1.4531   1.4652   1.4914   1.5142
  1.5431   1.5549   1.5935   1.5968   1.6203   1.6417   1.6534   1.6734
  1.6899   1.7270   1.7374   1.7841   1.8421   1.8598   1.8967   1.9231
  1.9611   2.0082   2.0746   2.1098   2.1187   2.2261   2.2363   2.2755
  2.3030   2.3440   2.3697   2.4063   2.4346   2.4683   2.4900   2.5446
  2.5760   2.6596   2.7096   2.7203   2.8191   2.8613   2.9339   2.9685
  3.0547   3.1536   3.2439   3.2698   3.3178   3.3232   3.3791   3.4029
  3.4261   3.4702   3.5316   3.5666   3.5997   3.6063   3.6285   3.6677
  3.7024   3.7429   3.7767   3.8078   3.8568   3.8775   3.8899   3.9711
  4.0297   4.0717   4.1013   4.1789   4.1979   4.2242   4.2974   4.3168
  4.3424   4.3933   4.4614   4.5365   4.6001   4.6340   4.6978   4.7390
  4.8229   4.8930   4.9319   5.1289   5.1415   5.1564   5.1764   5.1851
  5.2116   5.2190   5.2416   5.2554   5.2594   5.2792   5.2846   5.2969
  5.3041   5.3131   5.3401   5.3446   5.3566   5.3837   5.4174   5.4359
  5.4577   5.4893   5.5330   5.5548   5.5847   5.6318   5.6556   5.6684
  5.6796   5.7378   5.7615   5.8544   5.9431   6.0513   6.0659   6.1317
  6.2942   6.4352   6.5018   6.5918   6.6448   6.7202   6.8879   6.9479
  6.9892   7.0237   7.0497   7.0690   7.1027   7.1276   7.1405   7.1877
  7.2049   7.2552   7.2656   7.2856   7.3472   7.3732   7.3919   7.4682
  7.5070   7.5383   7.5895   7.6623   7.7052   7.7311   7.7906   7.8527
  7.8813   8.0338   8.1343  24.7418  24.8857  50.4651  50.5484  50.5954
 50.6228  50.7282
 --------------------------------------------------------------
 
          Ground-State Mulliken Net Atomic Charges

     Atom                 Charge (a.u.)    Spin (a.u.)
  --------------------------------------------------------
      1 C                    -0.044627      -0.014677
      2 C                    -0.056554       0.011503
      3 O                    -0.457361       0.000506
      4 O                    -0.452763      -0.000258
      5 O                    -0.731542      -0.005556
      6 H                     0.334618       0.000025
      7 H                     0.340193       0.000067
      8 H                     0.229167       0.006380
      9 H                     0.249658       0.000051
     10 O                    -0.083374       0.411601
     11 O                    -0.327415       0.590357
  --------------------------------------------------------
  Sum of atomic charges =    -1.000000
  Sum of spin   charges =     1.000000

 -----------------------------------------------------------------
                    Cartesian Multipole Moments
 -----------------------------------------------------------------
    Charge (ESU x 10^10)
                -4.8032
    Dipole Moment (Debye)
         X     -17.4499      Y      -5.9035      Z      10.0759
       Tot      20.9970
    Quadrupole Moments (Debye-Ang)
        XX     -83.6919     XY      -8.3048     YY     -60.4153
        XZ      41.8229     YZ      10.4984     ZZ     -64.1562
    Octopole Moments (Debye-Ang^2)
       XXX    -305.9192    XXY     -41.2481    XYY    -103.0244
       YYY     -89.1448    XXZ     179.5171    XYZ      11.9041
       YYZ     117.6514    XZZ    -168.1200    YZZ     -36.0469
       ZZZ     316.4128
    Hexadecapole Moments (Debye-Ang^3)
      XXXX   -1152.9795   XXXY    -196.1707   XXYY    -289.9226
      XYYY    -198.5200   YYYY    -629.9273   XXXZ     607.3695
      XXYZ      62.0459   XYYZ     193.7287   YYYZ     122.8290
      XXZZ    -551.7244   XYZZ     -60.7725   YYZZ    -353.0382
      XZZZ     650.3385   YZZZ      93.0623   ZZZZ   -1420.5763
 -----------------------------------------------------------------
 Total job time:  891.41s(wall), 6911.46s(cpu) 
 Mon Oct  2 09:51:53 2023

        *************************************************************
        *                                                           *
        *  Thank you very much for using Q-Chem.  Have a nice day.  *
        *                                                           *
        *************************************************************


