
Running Job 1 of 1 Q_in.in
qchem Q_in.in_62429.0 /scratch/ari.fischer/qChem1913941.hpc-mn1/qchem62429/ 0
/usr/local/qchem-5.4.1/exe/qcprog.exe_s Q_in.in_62429.0 /scratch/ari.fischer/qChem1913941.hpc-mn1/qchem62429/
                  Welcome to Q-Chem
     A Quantum Leap Into The Future Of Chemistry


 Q-Chem 5.4, Q-Chem, Inc., Pleasanton, CA (2021)

 License issued to: Nanyang Technological University (site)

 E. Epifanovsky,  A. T. B. Gilbert,  Xintian Feng,  Joonho Lee,  Yuezhi Mao,  
 N. Mardirossian,  P. Pokhilko,  A. White,  M. Wormit,  M. P. Coons,  
 A. L. Dempwolff,  Zhengting Gan,  D. Hait,  P. R. Horn,  L. D. Jacobson,  
 I. Kaliman,  J. Kussmann,  A. W. Lange,  Ka Un Lao,  D. S. Levine,  Jie Liu,  
 S. C. McKenzie,  A. F. Morrison,  K. Nanda,  F. Plasser,  D. R. Rehn,  
 M. L. Vidal,  Zhi-Qiang You,  Ying Zhu,  B. Alam,  B. Albrecht,  
 A. Aldossary,  E. Alguire,  J. H. Andersen,  D. Barton,  K. Begam,  A. Behn,  
 Y. A. Bernard,  E. J. Berquist,  H. Burton,  A. Carreras,  K. Carter-Fenk,  
 R. Chakraborty,  A. D. Chien,  K. D. Closser,  V. Cofer-Shabica,  
 S. Dasgupta,  Jia Deng,  M. de Wergifosse,  M. Diedenhofen,  Hainam Do,  
 S. Ehlert,  Po-Tung Fang,  S. Fatehi,  Qingguo Feng,  T. Friedhoff,  
 J. Gayvert,  Qinghui Ge,  G. Gidofalvi,  M. Goldey,  J. Gomes,  
 C. Gonzalez-Espinoza,  S. Gulania,  A. Gunina,  M. W. D. Hanson-Heine,  
 P. H. P. Harbach,  A. W. Hauser,  M. F. Herbst,  M. Hernandez Vera,  
 M. Hodecker,  Z. C. Holden,  S. Houck,  Xunkun Huang,  Kerwin Hui,  
 B. C. Huynh,  M. Ivanov,  Hyunjun Ji,  Hanjie Jiang,  B. Kaduk,  S. Kaehler,  
 K. Khistyaev,  Jaehoon Kim,  P. Klunzinger,  Z. Koczor-Benda,  
 Joong Hoon Koh,  D. Kosenkov,  L. Koulias,  T. Kowalczyk,  C. M. Krauter,  
 K. Kue,  A. Kunitsa,  T. Kus,  A. Landau,  K. V. Lawler,  D. Lefrancois,  
 S. Lehtola,  Rain Li,  Yi-Pei Li,  Jiashu Liang,  M. Liebenthal,  
 Hung-Hsuan Lin,  You-Sheng Lin,  Fenglai Liu,  Kuan-Yu Liu,  
 M. Loipersberger,  A. Luenser,  A. Manjanath,  P. Manohar,  E. Mansoor,  
 S. F. Manzer,  Shan-Ping Mao,  A. V. Marenich,  T. Markovich,  S. Mason,  
 S. A. Maurer,  P. F. McLaughlin,  M. F. S. J. Menger,  J.-M. Mewes,  
 S. A. Mewes,  P. Morgante,  J. W. Mullinax,  K. J. Oosterbaan,  G. Paran,  
 Alexander C. Paul,  Suranjan K. Paul,  F. Pavosevic,  Zheng Pei,  S. Prager,  
 E. I. Proynov,  E. Ramos,  B. Rana,  A. E. Rask,  A. Rettig,  R. M. Richard,  
 F. Rob,  E. Rossomme,  T. Scheele,  M. Scheurer,  M. Schneider,  
 N. Sergueev,  S. M. Sharada,  W. Skomorowski,  D. W. Small,  C. J. Stein,  
 Yu-Chuan Su,  E. J. Sundstrom,  Zhen Tao,  J. Thirman,  T. Tsuchimochi,  
 N. M. Tubman,  S. P. Veccham,  O. Vydrov,  J. Wenzel,  J. Witte,  A. Yamada,  
 Kun Yao,  S. Yeganeh,  S. R. Yost,  A. Zech,  Igor Ying Zhang,  Xing Zhang,  
 Yu Zhang,  D. Zuev,  A. Aspuru-Guzik,  A. T. Bell,  N. A. Besley,  
 K. B. Bravaya,  B. R. Brooks,  D. Casanova,  Jeng-Da Chai,  S. Coriani,  
 C. J. Cramer,  A. E. DePrince, III,  R. A. DiStasio Jr.,  A. Dreuw,  
 B. D. Dunietz,  T. R. Furlani,  W. A. Goddard III,  S. Grimme,  
 S. Hammes-Schiffer,  T. Head-Gordon,  W. J. Hehre,  Chao-Ping Hsu,  
 T.-C. Jagau,  Yousung Jung,  A. Klamt,  Jing Kong,  D. S. Lambrecht,  
 WanZhen Liang,  N. J. Mayhall,  C. W. McCurdy,  J. B. Neaton,  
 C. Ochsenfeld,  J. A. Parkhill,  R. Peverati,  V. A. Rassolov,  Yihan Shao,  
 L. V. Slipchenko,  T. Stauch,  R. P. Steele,  J. E. Subotnik,  
 A. J. W. Thom,  A. Tkatchenko,  D. G. Truhlar,  T. Van Voorhis,  
 T. A. Wesolowski,  K. B. Whaley,  H. L. Woodcock III,  P. M. Zimmerman,  
 S. Faraji,  P. M. W. Gill,  M. Head-Gordon,  J. M. Herbert,  A. I. Krylov

 Additional authors for Version 5.4.1: 
 S. Kotaru,  Shaozhi Li,  Xiangyuan Li,  F. Matz,  A. Molle,  Haisheng Ren,  
 Yingli Su,  Hung-Yi Tsai,  C. Utku,  Fang Wang

 Contributors to earlier versions of Q-Chem not listed above: 
 R. D. Adamson,  B. Austin,  R. Baer,  J. Baker,  G. J. O. Beran,  
 K. Brandhorst,  S. T. Brown,  E. F. C. Byrd,  A. K. Chakraborty,  
 G. K. L. Chan,  Chun-Min Chang,  Yunqing Chen,  C.-L. Cheng,  
 Siu Hung Chien,  D. M. Chipman,  D. L. Crittenden,  H. Dachsel,  
 R. J. Doerksen,  A. D. Dutoi,  R. G. Edgar,  J. Fosso-Tande,  
 L. Fusti-Molnar,  D. Ghosh,  A. Ghysels,  A. Golubeva-Zadorozhnaya,  
 J. Gonthier,  M. S. Gordon,  S. R. Gwaltney,  G. Hawkins,  J. E. Herr,  
 A. Heyden,  S. Hirata,  E. G. Hohenstein,  G. Kedziora,  F. J. Keil,  
 C. Kelley,  Jihan Kim,  R. A. King,  R. Z. Khaliullin,  P. P. Korambath,  
 W. Kurlancheek,  A. Laurent,  A. M. Lee,  M. S. Lee,  S. V. Levchenko,  
 Ching Yeh Lin,  D. Liotard,  E. Livshits,  R. C. Lochan,  I. Lotan,  
 L. A. Martinez-Martinez,  P. E. Maslen,  N. Nair,  D. P. O'Neill,  
 D. Neuhauser,  E. Neuscamman,  C. M. Oana,  R. Olivares-Amaya,  R. Olson,  
 T. M. Perrine,  B. Peters,  P. A. Pieniazek,  A. Prociuk,  Y. M. Rhee,  
 J. Ritchie,  M. A. Rohrdanz,  E. Rosta,  N. J. Russ,  H. F. Schaefer III,  
 M. W. Schmidt,  N. E. Schultz,  S. Sharma,  N. Shenvi,  C. D. Sherrill,  
 A. C. Simmonett,  A. Sodt,  T. Stein,  D. Stuck,  K. S. Thanthiriwatte,  
 V. Vanovschi,  L. Vogt,  Tao Wang,  A. Warshel,  M. A. Watson,  
 C. F. Williams,  Q. Wu,  X. Xu,  Jun Yang,  W. Zhang,  Yan Zhao

 Please cite Q-Chem as follows:
 Y. Shao et al., Mol. Phys. 113, 184-215 (2015)
 DOI: 10.1080/00268976.2014.952696

 Q-Chem 5.4.1 for Intel X86 EM64T Linux

 Parts of Q-Chem use Armadillo 9.800.1 (Horizon Scraper).
 http://arma.sourceforge.net/

 Q-Chem begins on Mon Feb  5 17:31:44 2024  

 Host: 
0

     Scratch files written to /scratch/ari.fischer/qChem1913941.hpc-mn1/qchem62429//
 Aug1521 |scratch|qcdevops|jenkins|workspace|build_RNUM 8249   
 Processing $rem in /usr/local/qchem-5.4.1/config/preferences:
 Processing $rem in /home/ari.fischer/.qchemrc:
 Symmetry turned off for PCM/SM12/SMD calculation

 Checking the input file for inconsistencies... 	...done.

--------------------------------------------------------------
User input:
--------------------------------------------------------------
$molecule
0 2
O        -0.7265937369    0.9841477964    0.4577690803
C        -0.2402478792   -0.2480819922    0.2787714565
O        -1.0332743381   -1.2873550349    0.0253175921
C         1.1606206866   -0.4586142849    0.3412688524
O         1.9284314593    0.6167230263    0.6653942023
O         1.7012960441   -1.5446342061    0.1197841305
H        -1.6551020347    0.9778739983    0.7336224659
H        -1.9370777822   -1.0038659970   -0.1746886398
H         1.3743443810    1.3906540943    0.8401361600
$end

$rem
BASIS = def2-TZVP
JOB_TYPE = SP
METHOD = wB97M-V
SCF_ALGORITHM = DIIS_GDM
MAX_SCF_CYCLES = 400
SCF_CONVERGENCE = 7
THRESH = 12
Solvent_method = SMD
$end
--------------------------------------------------------------
 ----------------------------------------------------------------
             Standard Nuclear Orientation (Angstroms)
    I     Atom           X                Y                Z
 ----------------------------------------------------------------
    1      O      -0.7265937369     0.9841477964     0.4577690803
    2      C      -0.2402478792    -0.2480819922     0.2787714565
    3      O      -1.0332743381    -1.2873550349     0.0253175921
    4      C       1.1606206866    -0.4586142849     0.3412688524
    5      O       1.9284314593     0.6167230263     0.6653942023
    6      O       1.7012960441    -1.5446342061     0.1197841305
    7      H      -1.6551020347     0.9778739983     0.7336224659
    8      H      -1.9370777822    -1.0038659970    -0.1746886398
    9      H       1.3743443810     1.3906540943     0.8401361600
 ----------------------------------------------------------------
 Nuclear Repulsion Energy =         241.63915279 hartrees
 There are       24 alpha and       23 beta electrons
 Requested basis set is def2-TZVP
 There are 78 shells and 204 basis functions

 Total QAlloc Memory Limit 288000 MB
 Mega-Array Size       188 MB
 MEM_STATIC part       192 MB
 
 Citation of the SMD model:
 Marenich, A.V.; Cramer, C.J.; Truhlar, D.G.
 J. Phys. Chem. B 2009, 113, 6378-6396.
 iSolventCode=           1
 Solvent: water                                                           
 
 vradii
            1           2           3           4           5           6
    1   1.5200000   1.8500000   1.5200000   1.8500000   1.5200000   1.5200000
            7           8           9
    1   1.2000000   1.2000000   1.2000000
 Changing PCM_VDW_RADII to SMD_RADIUS
 Discretize the solute cavity surface with Lebedev spheres
	Using 110 Lebedev grid points for each H atom
	Using 194 Lebedev grid points for other atoms
	Atomic van der Waals radii will be scaled by 1.20
 Remove points where switching function is < 1.0e-08
 Keep 817 surface tesserae and discard 677 interior tesserae
 Molecular Surface Area = 98.014 Angst**2

                       Distance Matrix (Angstroms)
             O (  1)   C (  2)   O (  3)   C (  4)   O (  5)   O (  6)
   C (  2)  1.336773
   O (  3)  2.332551  1.331622
   C (  4)  2.378385  1.417978  2.366392
   O (  5)  2.688358  2.366545  3.578675  1.360493
   O (  6)  3.521877  2.340068  2.748271  1.233217  2.240702
   H (  7)  0.968639  1.926569  2.453493  3.185237  3.602332  4.243260
   H (  8)  2.411944  1.912085  0.968106  3.187357  4.274834  3.690110
   H (  9)  2.173797  2.368015  3.692193  1.927262  0.967738  3.040020
             H (  7)   H (  8)
   H (  8)  2.198143
   H (  9)  3.059294  4.210595
 
 A cutoff of  1.0D-12 yielded   2884 shell pairs
 There are     20158 function pairs (     26552 Cartesian)
 Smallest overlap matrix eigenvalue = 2.17E-04

 Scale SEOQF with 1.000000e-01/1.000000e-01/1.000000e+00

 Standard Electronic Orientation quadrupole field applied
 Nucleus-field energy     =    -0.0000000019 hartrees
 Guess from superposition of atomic densities
 Warning:  Energy on first SCF cycle will be non-variational
 SAD guess density has 47.000000 electrons

 -----------------------------------------------------------------------
  General SCF calculation program by
  Eric Jon Sundstrom, Paul Horn, Yuezhi Mao, Dmitri Zuev, Alec White,
  David Stuck, Shaama M.S., Shane Yost, Joonho Lee, David Small,
  Daniel Levine, Susi Lehtola, Hugh Burton, Evgeny Epifanovsky,
  Bang C. Huynh
 -----------------------------------------------------------------------
 Exchange:     0.1500 Hartree-Fock + 1.0000 wB97M-V + LR-HF
 Correlation:  1.0000 wB97M-V
 Using SG-2 standard quadrature grid
 Nonlocal Correlation:  VV10 with C = 0.0100 and b = 6.00 and scale = 1.00000
 Grid used for NLC:  SG-1 standard quadrature
 
 Citation of the SMD model:
 Marenich, A.V.; Cramer, C.J.; Truhlar, D.G.
 J. Phys. Chem. B 2009, 113, 6378-6396.
 iSolventCode=           1
 Solvent: water                                                           
 
 vradii
            1           2           3           4           5           6
    1   1.5200000   1.8500000   1.5200000   1.8500000   1.5200000   1.5200000
            7           8           9
    1   1.2000000   1.2000000   1.2000000
 using 4 threads for integral computing
 -------------------------------------------------------
 OpenMP Integral computing Module                
 Release: version 1.0, May 2013, Q-Chem Inc. Pittsburgh 
 -------------------------------------------------------
 -------------------------------------------------------
 OpenMP BLAS3 based DFT computing Module                
 Release: version 1.0, May 2013, Q-Chem Inc. Pittsburgh 
 -------------------------------------------------------
 A unrestricted SCF calculation will be
 performed using DIIS, GDM
 SCF converges when RMS gradient is below 1.0e-07
 ---------------------------------------
  Cycle       Energy         DIIS error
 ---------------------------------------
    1    -380.1869738415      2.01e-02  
    2    -378.7906954662      3.24e-03  Done DIIS. Switching to GDM
 ---------------------------------------
  Cycle       Energy        RMS Gradient
 ---------------------------------------
    1    -378.7906954662      1.69e-01   Descent step
    2    -378.9445087185      2.85e-02   Normal BFGS step
    3    -378.9585098262      1.51e-02   Normal BFGS step
    4    -378.9594781594      1.30e-02   Normal BFGS step
    5    -378.9601826585      3.96e-03   Normal BFGS step
    6    -378.9602356582      2.22e-03   Normal BFGS step
    7    -378.9602545796      6.74e-04   Normal BFGS step
    8    -378.9602564632      2.28e-04   Normal BFGS step
    9    -378.9602570445      9.82e-05   Normal BFGS step
   10    -378.9602570813      6.08e-05   Normal BFGS step
   11    -378.9602570925      2.47e-05   Normal BFGS step
   12    -378.9602570942      1.20e-05   Normal BFGS step
   13    -378.9602570947      5.16e-06   Normal BFGS step
   14    -378.9602570948      1.09e-06   Normal BFGS step
   15    -378.9602570948      7.61e-07   Normal BFGS step
   16    -378.9602570948      1.74e-07   Normal BFGS step
   17    -378.9602570948      6.95e-08  Convergence criterion met
 ---------------------------------------
 SCF time:   CPU 288.26s  wall 73.00s 
<S^2> =          0.754006715
(3)  G-ENP(liq) elect-nuc-pol free energy of system     -378.960257095 a.u.
(4)  G-CDS(liq) cavity-dispersion-solvent structure 
     free energy                                                5.2038 kcal/mol
(6)  G-S(liq) free energy of system                     -378.951964382 a.u.
 SCF   energy in the final basis set =     -378.9519643819
 Total energy in the final basis set =     -378.9519643819
 
 --------------------------------------------------------------
 
                    Orbital Energies (a.u.)
 --------------------------------------------------------------
 
 Alpha MOs
 -- Occupied --
-19.3929 -19.3916 -19.3701 -19.3151 -10.4822 -10.4742  -1.2660  -1.2203
 -1.1918  -1.1407  -0.8728  -0.7307  -0.7206  -0.6802  -0.6107  -0.5882
 -0.5651  -0.5393  -0.5172  -0.4925  -0.4845  -0.4382  -0.4033  -0.2743
 -- Virtual --
  0.0962   0.1333   0.1477   0.1575   0.1951   0.2332   0.2664   0.2787
  0.3182   0.3244   0.3379   0.3606   0.3789   0.4023   0.4287   0.4532
  0.4718   0.4805   0.4948   0.5292   0.5478   0.5583   0.5681   0.5893
  0.6003   0.6241   0.6333   0.6569   0.7047   0.7323   0.7406   0.7509
  0.7854   0.8172   0.8467   0.8670   0.9105   0.9774   1.0174   1.0364
  1.0583   1.1150   1.1548   1.2433   1.3499   1.3731   1.3949   1.4071
  1.4251   1.4525   1.5186   1.5559   1.5643   1.6313   1.6739   1.7369
  1.7777   1.8023   1.8139   1.8466   1.8754   1.9061   1.9449   1.9629
  1.9779   1.9969   2.0400   2.0791   2.1125   2.1677   2.1767   2.1883
  2.2522   2.2899   2.3150   2.3249   2.3276   2.3589   2.3803   2.4532
  2.4987   2.5416   2.6014   2.6636   2.6889   2.6926   2.7540   2.8261
  2.8700   2.8926   2.9214   2.9527   2.9940   2.9964   3.0267   3.1019
  3.1157   3.1440   3.1739   3.2011   3.2696   3.2722   3.3048   3.3252
  3.3421   3.4085   3.4097   3.4324   3.4384   3.4994   3.5927   3.6446
  3.7311   3.8777   3.9341   3.9617   4.0607   4.0877   4.2033   4.2274
  4.4113   4.4460   4.5121   4.7118   4.7494   4.8924   5.2244   5.2580
  5.2980   5.3042   5.3238   5.4107   5.4297   5.4318   5.4610   5.5081
  5.5463   5.6292   5.6491   5.7644   5.7931   5.8502   5.8559   5.9054
  5.9699   6.0606   6.1156   6.2193   6.2740   6.3589   6.3693   6.4260
  6.4620   6.4788   6.5076   6.5504   6.5683   6.6372   6.7313   6.7705
  6.7794   6.8410   6.8865   6.9121   6.9398   6.9751   7.0303   7.0367
  7.0642   7.1917   7.2313   7.3180   7.3842   7.6071  23.1717  23.6202
 44.0839  44.2172  44.3413  44.4665
 
 Beta MOs
 -- Occupied --
-19.3898 -19.3881 -19.3689 -19.3099 -10.4739 -10.4730  -1.2578  -1.2160
 -1.1844  -1.1334  -0.8544  -0.7262  -0.7145  -0.6739  -0.5864  -0.5803
 -0.5583  -0.5224  -0.5116  -0.4872  -0.4588  -0.4142  -0.3962
 -- Virtual --
  0.0046   0.0975   0.1345   0.1579   0.1952   0.1969   0.2377   0.2690
  0.2806   0.3236   0.3277   0.3433   0.3648   0.3836   0.4080   0.4346
  0.4586   0.4770   0.4831   0.5000   0.5322   0.5502   0.5645   0.5708
  0.5934   0.6043   0.6271   0.6356   0.6601   0.7092   0.7354   0.7502
  0.7606   0.7900   0.8208   0.8557   0.8699   0.9112   0.9881   1.0200
  1.0414   1.0639   1.1256   1.1628   1.2494   1.3624   1.3795   1.4087
  1.4161   1.4322   1.4697   1.5224   1.5621   1.5824   1.6378   1.6775
  1.7420   1.7821   1.8079   1.8257   1.8551   1.8845   1.9142   1.9538
  1.9685   1.9828   2.0029   2.0477   2.0861   2.1204   2.1733   2.1840
  2.1969   2.2591   2.2963   2.3212   2.3319   2.3331   2.3632   2.3831
  2.4620   2.5100   2.5466   2.6164   2.6839   2.7011   2.7172   2.7692
  2.8382   2.8818   2.9148   2.9284   2.9695   3.0100   3.0158   3.0364
  3.1249   3.1335   3.1552   3.1865   3.2117   3.2843   3.2892   3.3283
  3.3424   3.3514   3.4168   3.4269   3.4452   3.4507   3.5125   3.6012
  3.6633   3.7447   3.8895   3.9462   3.9750   4.0719   4.1285   4.2154
  4.2368   4.4223   4.4540   4.5222   4.7485   4.7606   4.9037   5.2304
  5.2694   5.3077   5.3166   5.3314   5.4192   5.4355   5.4377   5.4704
  5.5156   5.5534   5.6365   5.6564   5.7706   5.8036   5.8610   5.8655
  5.9144   5.9801   6.0733   6.1217   6.2318   6.2844   6.3687   6.3798
  6.4388   6.4767   6.4900   6.5196   6.5587   6.5793   6.6536   6.7404
  6.7806   6.7920   6.8489   6.8938   6.9232   6.9541   6.9817   7.0350
  7.0415   7.0693   7.2000   7.2371   7.3219   7.3882   7.6145  23.1775
 23.6248  44.0867  44.2202  44.3441  44.4696
 --------------------------------------------------------------
 
          Ground-State Mulliken Net Atomic Charges

     Atom                 Charge (a.u.)    Spin (a.u.)
  --------------------------------------------------------
      1 O                    -0.439944       0.083062
      2 C                     0.312639       0.492808
      3 O                    -0.418314       0.095814
      4 C                     0.303955       0.107762
      5 O                    -0.437363       0.034113
      6 O                    -0.526025       0.186276
      7 H                     0.410904       0.002422
      8 H                     0.408020      -0.001078
      9 H                     0.386129      -0.001180
  --------------------------------------------------------
  Sum of atomic charges =     0.000000
  Sum of spin   charges =     1.000000

 -----------------------------------------------------------------
                    Cartesian Multipole Moments
 -----------------------------------------------------------------
    Charge (ESU x 10^10)
                 0.0000
    Dipole Moment (Debye)
         X      -9.2437      Y       5.3003      Z       0.9572
       Tot      10.6984
    Quadrupole Moments (Debye-Ang)
        XX     -34.3015     XY       6.7847     YY     -40.3325
        XZ      -2.0732     YZ       2.4420     ZZ     -32.8525
    Octopole Moments (Debye-Ang^2)
       XXX     -99.1804    XXY      21.5843    XYY     -25.5038
       YYY      52.5417    XXZ     -11.8766    XYZ      -1.2377
       YYZ      -8.2752    XZZ     -17.4408    YZZ      12.4016
       ZZZ     -31.6670
    Hexadecapole Moments (Debye-Ang^3)
      XXXX    -387.4594   XXXY      42.6980   XXYY    -109.5596
      XYYY      45.1732   YYYY    -253.7816   XXXZ     -40.1781
      XXYZ       4.8934   XYYZ      -6.5889   YYYZ      -2.1604
      XXZZ     -71.7961   XYZZ       6.6279   YYZZ     -46.7853
      XZZZ     -26.9120   YZZZ      -8.3585   ZZZZ     -60.8903
 -----------------------------------------------------------------
 Total job time:  73.51s(wall), 290.28s(cpu) 
 Mon Feb  5 17:32:57 2024

        *************************************************************
        *                                                           *
        *  Thank you very much for using Q-Chem.  Have a nice day.  *
        *                                                           *
        *************************************************************


