
Running Job 1 of 2 Q_in.in
qchem Q_in.in_28335.0 /scratch/ari.fischer/qChem1630575.hpc-mn1/qchem28335/ 0
/usr/local/qchem-5.4.1/exe/qcprog.exe_s Q_in.in_28335.0 /scratch/ari.fischer/qChem1630575.hpc-mn1/qchem28335/
                  Welcome to Q-Chem
     A Quantum Leap Into The Future Of Chemistry


 Q-Chem 5.4, Q-Chem, Inc., Pleasanton, CA (2021)

 License issued to: Nanyang Technological University (site)

 E. Epifanovsky,  A. T. B. Gilbert,  Xintian Feng,  Joonho Lee,  Yuezhi Mao,  
 N. Mardirossian,  P. Pokhilko,  A. White,  M. Wormit,  M. P. Coons,  
 A. L. Dempwolff,  Zhengting Gan,  D. Hait,  P. R. Horn,  L. D. Jacobson,  
 I. Kaliman,  J. Kussmann,  A. W. Lange,  Ka Un Lao,  D. S. Levine,  Jie Liu,  
 S. C. McKenzie,  A. F. Morrison,  K. Nanda,  F. Plasser,  D. R. Rehn,  
 M. L. Vidal,  Zhi-Qiang You,  Ying Zhu,  B. Alam,  B. Albrecht,  
 A. Aldossary,  E. Alguire,  J. H. Andersen,  D. Barton,  K. Begam,  A. Behn,  
 Y. A. Bernard,  E. J. Berquist,  H. Burton,  A. Carreras,  K. Carter-Fenk,  
 R. Chakraborty,  A. D. Chien,  K. D. Closser,  V. Cofer-Shabica,  
 S. Dasgupta,  Jia Deng,  M. de Wergifosse,  M. Diedenhofen,  Hainam Do,  
 S. Ehlert,  Po-Tung Fang,  S. Fatehi,  Qingguo Feng,  T. Friedhoff,  
 J. Gayvert,  Qinghui Ge,  G. Gidofalvi,  M. Goldey,  J. Gomes,  
 C. Gonzalez-Espinoza,  S. Gulania,  A. Gunina,  M. W. D. Hanson-Heine,  
 P. H. P. Harbach,  A. W. Hauser,  M. F. Herbst,  M. Hernandez Vera,  
 M. Hodecker,  Z. C. Holden,  S. Houck,  Xunkun Huang,  Kerwin Hui,  
 B. C. Huynh,  M. Ivanov,  Hyunjun Ji,  Hanjie Jiang,  B. Kaduk,  S. Kaehler,  
 K. Khistyaev,  Jaehoon Kim,  P. Klunzinger,  Z. Koczor-Benda,  
 Joong Hoon Koh,  D. Kosenkov,  L. Koulias,  T. Kowalczyk,  C. M. Krauter,  
 K. Kue,  A. Kunitsa,  T. Kus,  A. Landau,  K. V. Lawler,  D. Lefrancois,  
 S. Lehtola,  Rain Li,  Yi-Pei Li,  Jiashu Liang,  M. Liebenthal,  
 Hung-Hsuan Lin,  You-Sheng Lin,  Fenglai Liu,  Kuan-Yu Liu,  
 M. Loipersberger,  A. Luenser,  A. Manjanath,  P. Manohar,  E. Mansoor,  
 S. F. Manzer,  Shan-Ping Mao,  A. V. Marenich,  T. Markovich,  S. Mason,  
 S. A. Maurer,  P. F. McLaughlin,  M. F. S. J. Menger,  J.-M. Mewes,  
 S. A. Mewes,  P. Morgante,  J. W. Mullinax,  K. J. Oosterbaan,  G. Paran,  
 Alexander C. Paul,  Suranjan K. Paul,  F. Pavosevic,  Zheng Pei,  S. Prager,  
 E. I. Proynov,  E. Ramos,  B. Rana,  A. E. Rask,  A. Rettig,  R. M. Richard,  
 F. Rob,  E. Rossomme,  T. Scheele,  M. Scheurer,  M. Schneider,  
 N. Sergueev,  S. M. Sharada,  W. Skomorowski,  D. W. Small,  C. J. Stein,  
 Yu-Chuan Su,  E. J. Sundstrom,  Zhen Tao,  J. Thirman,  T. Tsuchimochi,  
 N. M. Tubman,  S. P. Veccham,  O. Vydrov,  J. Wenzel,  J. Witte,  A. Yamada,  
 Kun Yao,  S. Yeganeh,  S. R. Yost,  A. Zech,  Igor Ying Zhang,  Xing Zhang,  
 Yu Zhang,  D. Zuev,  A. Aspuru-Guzik,  A. T. Bell,  N. A. Besley,  
 K. B. Bravaya,  B. R. Brooks,  D. Casanova,  Jeng-Da Chai,  S. Coriani,  
 C. J. Cramer,  A. E. DePrince, III,  R. A. DiStasio Jr.,  A. Dreuw,  
 B. D. Dunietz,  T. R. Furlani,  W. A. Goddard III,  S. Grimme,  
 S. Hammes-Schiffer,  T. Head-Gordon,  W. J. Hehre,  Chao-Ping Hsu,  
 T.-C. Jagau,  Yousung Jung,  A. Klamt,  Jing Kong,  D. S. Lambrecht,  
 WanZhen Liang,  N. J. Mayhall,  C. W. McCurdy,  J. B. Neaton,  
 C. Ochsenfeld,  J. A. Parkhill,  R. Peverati,  V. A. Rassolov,  Yihan Shao,  
 L. V. Slipchenko,  T. Stauch,  R. P. Steele,  J. E. Subotnik,  
 A. J. W. Thom,  A. Tkatchenko,  D. G. Truhlar,  T. Van Voorhis,  
 T. A. Wesolowski,  K. B. Whaley,  H. L. Woodcock III,  P. M. Zimmerman,  
 S. Faraji,  P. M. W. Gill,  M. Head-Gordon,  J. M. Herbert,  A. I. Krylov

 Additional authors for Version 5.4.1: 
 S. Kotaru,  Shaozhi Li,  Xiangyuan Li,  F. Matz,  A. Molle,  Haisheng Ren,  
 Yingli Su,  Hung-Yi Tsai,  C. Utku,  Fang Wang

 Contributors to earlier versions of Q-Chem not listed above: 
 R. D. Adamson,  B. Austin,  R. Baer,  J. Baker,  G. J. O. Beran,  
 K. Brandhorst,  S. T. Brown,  E. F. C. Byrd,  A. K. Chakraborty,  
 G. K. L. Chan,  Chun-Min Chang,  Yunqing Chen,  C.-L. Cheng,  
 Siu Hung Chien,  D. M. Chipman,  D. L. Crittenden,  H. Dachsel,  
 R. J. Doerksen,  A. D. Dutoi,  R. G. Edgar,  J. Fosso-Tande,  
 L. Fusti-Molnar,  D. Ghosh,  A. Ghysels,  A. Golubeva-Zadorozhnaya,  
 J. Gonthier,  M. S. Gordon,  S. R. Gwaltney,  G. Hawkins,  J. E. Herr,  
 A. Heyden,  S. Hirata,  E. G. Hohenstein,  G. Kedziora,  F. J. Keil,  
 C. Kelley,  Jihan Kim,  R. A. King,  R. Z. Khaliullin,  P. P. Korambath,  
 W. Kurlancheek,  A. Laurent,  A. M. Lee,  M. S. Lee,  S. V. Levchenko,  
 Ching Yeh Lin,  D. Liotard,  E. Livshits,  R. C. Lochan,  I. Lotan,  
 L. A. Martinez-Martinez,  P. E. Maslen,  N. Nair,  D. P. O'Neill,  
 D. Neuhauser,  E. Neuscamman,  C. M. Oana,  R. Olivares-Amaya,  R. Olson,  
 T. M. Perrine,  B. Peters,  P. A. Pieniazek,  A. Prociuk,  Y. M. Rhee,  
 J. Ritchie,  M. A. Rohrdanz,  E. Rosta,  N. J. Russ,  H. F. Schaefer III,  
 M. W. Schmidt,  N. E. Schultz,  S. Sharma,  N. Shenvi,  C. D. Sherrill,  
 A. C. Simmonett,  A. Sodt,  T. Stein,  D. Stuck,  K. S. Thanthiriwatte,  
 V. Vanovschi,  L. Vogt,  Tao Wang,  A. Warshel,  M. A. Watson,  
 C. F. Williams,  Q. Wu,  X. Xu,  Jun Yang,  W. Zhang,  Yan Zhao

 Please cite Q-Chem as follows:
 Y. Shao et al., Mol. Phys. 113, 184-215 (2015)
 DOI: 10.1080/00268976.2014.952696

 Q-Chem 5.4.1 for Intel X86 EM64T Linux

 Parts of Q-Chem use Armadillo 9.800.1 (Horizon Scraper).
 http://arma.sourceforge.net/

 Q-Chem begins on Tue Jul 18 17:17:04 2023  

 Host: 
0

     Scratch files written to /scratch/ari.fischer/qChem1630575.hpc-mn1/qchem28335//
 Aug1521 |scratch|qcdevops|jenkins|workspace|build_RNUM 8249   
 Processing $rem in /usr/local/qchem-5.4.1/config/preferences:
 Processing $rem in /home/ari.fischer/.qchemrc:
 Symmetry turned off for PCM/SM12/SMD calculation


!!********************************************.
!!******************Warning*******************.
!!Desired Analytical derivatives not available.
!!Finite difference job might take a long time.
!!********************************************.
!!********************************************.


 2-order derivative to be evaluated numerically with 1-order analytical derivatives

 Checking the input file for inconsistencies... 	...done.

--------------------------------------------------------------
User input:
--------------------------------------------------------------
$molecule
0 2
C         1.1615807636   -0.4074924836   -0.5150054710
O         1.8213677505   -1.2727594109   -1.4073207325
C        -0.2462547288   -0.2583139380   -1.0850301505
O        -1.0133241650   -1.3464294414   -1.1122229812
O        -0.4690515222    0.6252861311   -1.9847555968
O         1.7838563449    0.8381822799   -0.4082250798
H         1.1195300393   -0.8326475168    0.4870387697
H         2.6071645074   -1.6173517013   -0.9668740601
H        -0.6944474561   -2.0145927183   -0.4878923877
H        -1.0189267514    1.4576357197   -1.3587879502
H         1.6613901978    1.3100819932   -1.2442186843
O        -0.9871073900    0.7206179258    0.3594779241
O        -1.4241427901    1.7735829607   -0.2276536999
$end

$rem
BASIS = 6-311++G(2df,2p)
GUI = 2
JOB_TYPE = Frequency
METHOD = wB97M-V
SOLVENT_METHOD = SMD
SCF_ALGORITHM = DIIS_GDM
MAX_SCF_CYCLES = 400
SCF_CONVERGENCE = 7
THRESH = 12
UNRESTRICTED = 1
SYMMETRY_IGNORE = 1
$end

--------------------------------------------------------------
 ----------------------------------------------------------------
             Standard Nuclear Orientation (Angstroms)
    I     Atom           X                Y                Z
 ----------------------------------------------------------------
    1      C       1.1615807636    -0.4074924836    -0.5150054710
    2      O       1.8213677505    -1.2727594109    -1.4073207325
    3      C      -0.2462547288    -0.2583139380    -1.0850301505
    4      O      -1.0133241650    -1.3464294414    -1.1122229812
    5      O      -0.4690515222     0.6252861311    -1.9847555968
    6      O       1.7838563449     0.8381822799    -0.4082250798
    7      H       1.1195300393    -0.8326475168     0.4870387697
    8      H       2.6071645074    -1.6173517013    -0.9668740601
    9      H      -0.6944474561    -2.0145927183    -0.4878923877
   10      H      -1.0189267514     1.4576357197    -1.3587879502
   11      H       1.6613901978     1.3100819932    -1.2442186843
   12      O      -0.9871073900     0.7206179258     0.3594779241
   13      O      -1.4241427901     1.7735829607    -0.2276536999
 ----------------------------------------------------------------
 Nuclear Repulsion Energy =         435.03663878 hartrees
 There are       33 alpha and       32 beta electrons
 Requested basis set is 6-311++G(2df,2p)
 There are 94 shells and 322 basis functions

 Total QAlloc Memory Limit 288000 MB
 Mega-Array Size       188 MB
 MEM_STATIC part       192 MB
 
 Citation of the SMD model:
 Marenich, A.V.; Cramer, C.J.; Truhlar, D.G.
 J. Phys. Chem. B 2009, 113, 6378-6396.
 iSolventCode=           1
 Solvent: water                                                           
 
 vradii
            1           2           3           4           5           6
    1   1.8500000   1.5200000   1.8500000   1.5200000   1.5200000   1.5200000
            7           8           9          10          11          12
    1   1.2000000   1.2000000   1.2000000   1.2000000   1.2000000   1.5200000
           13
    1   1.5200000
 Changing PCM_VDW_RADII to SMD_RADIUS
 Discretize the solute cavity surface with Lebedev spheres
	Using 110 Lebedev grid points for each H atom
	Using 194 Lebedev grid points for other atoms
	Atomic van der Waals radii will be scaled by 1.20
 Remove points where switching function is < 1.0e-08
 Keep 1080 surface tesserae and discard 1022 interior tesserae
 Molecular Surface Area = 124.142 Angst**2

                       Distance Matrix (Angstroms)
             C (  1)   O (  2)   C (  3)   O (  4)   O (  5)   O (  6)
   O (  2)  1.407207
   C (  3)  1.526166  2.325518
   O (  4)  2.443048  2.850963  1.331589
   O (  5)  2.426058  3.030186  1.280583  2.223782
   O (  6)  1.396544  2.335738  2.404521  3.618337  2.757964
   H (  7)  1.089320  2.067576  2.160238  2.714899  3.280081  2.008606
   H (  8)  1.938468  0.964476  3.162743  3.633519  3.940636  2.649448
   H (  9)  2.455269  2.779387  1.908393  0.968459  3.043084  3.779770
   H ( 10)  2.990867  3.940138  1.901696  2.814890  1.177711  3.023720
   H ( 11)  1.931741  2.592926  2.474736  3.772078  2.357143  0.967767
   O ( 12)  2.579577  3.870745  1.895725  2.537573  2.402686  2.877747
   O ( 13)  3.394941  4.604906  2.500224  3.268901  2.306121  3.346467
             H (  7)   H (  8)   H (  9)   H ( 10)   H ( 11)   O ( 12)
   H (  8)  2.223214
   H (  9)  2.374447  3.359742
   H ( 10)  3.636684  4.770501  3.594456
   H ( 11)  2.807518  3.088896  4.144329  2.686819
   O ( 12)  2.620463  4.488218  2.878379  1.869932  3.151801
   O ( 13)  3.711266  5.319429  3.866582  1.242372  3.281578  1.282365

 
 A cutoff of  1.0D-12 yielded   4127 shell pairs
 There are     48802 function pairs (     61599 Cartesian)
 Smallest overlap matrix eigenvalue = 4.08E-05
 Guess from superposition of atomic densities
 Warning:  Energy on first SCF cycle will be non-variational
 SAD guess density has 65.000000 electrons

 -----------------------------------------------------------------------
  General SCF calculation program by
  Eric Jon Sundstrom, Paul Horn, Yuezhi Mao, Dmitri Zuev, Alec White,
  David Stuck, Shaama M.S., Shane Yost, Joonho Lee, David Small,
  Daniel Levine, Susi Lehtola, Hugh Burton, Evgeny Epifanovsky,
  Bang C. Huynh
 -----------------------------------------------------------------------
 Exchange:     0.1500 Hartree-Fock + 1.0000 wB97M-V + LR-HF
 Correlation:  1.0000 wB97M-V
 Using SG-2 standard quadrature grid
 Nonlocal Correlation:  VV10 with C = 0.0100 and b = 6.00 and scale = 1.00000
 Grid used for NLC:  SG-1 standard quadrature
 using 8 threads for integral computing
 -------------------------------------------------------
 OpenMP Integral computing Module                
 Release: version 1.0, May 2013, Q-Chem Inc. Pittsburgh 
 -------------------------------------------------------
 
 Citation of the SMD model:
 Marenich, A.V.; Cramer, C.J.; Truhlar, D.G.
 J. Phys. Chem. B 2009, 113, 6378-6396.
 iSolventCode=           1
 Solvent: water                                                           
 
 vradii
            1           2           3           4           5           6
    1   1.8500000   1.5200000   1.8500000   1.5200000   1.5200000   1.5200000
            7           8           9          10          11          12
    1   1.2000000   1.2000000   1.2000000   1.2000000   1.2000000   1.5200000
           13
    1   1.5200000
 -------------------------------------------------------
 OpenMP BLAS3 based DFT computing Module                
 Release: version 1.0, May 2013, Q-Chem Inc. Pittsburgh 
 -------------------------------------------------------
 A unrestricted SCF calculation will be
 performed using DIIS, GDM
 SCF converges when RMS gradient is below 1.0e-07
 ---------------------------------------
  Cycle       Energy         DIIS error
 ---------------------------------------
    1    -531.8845560943      1.40e-02  
    2    -530.3160103428      2.12e-03  Done DIIS. Switching to GDM
 ---------------------------------------
  Cycle       Energy        RMS Gradient
 ---------------------------------------
    1    -530.3160103428      7.94e-02   Descent step
    2    -530.4727114401      1.55e-02   Normal BFGS step
    3    -530.4911254140      1.00e-02   Normal BFGS step
    4    -530.4919059240      1.15e-02   Normal BFGS step
    5    -530.4924000726      2.95e-03   Normal BFGS step
    6    -530.4924580551      7.34e-04   Normal BFGS step
    7    -530.4924723982      5.15e-04   Normal BFGS step
    8    -530.4924759783      3.42e-04   Normal BFGS step
    9    -530.4924768593      1.49e-04   Normal BFGS step
   10    -530.4924770841      5.16e-05   Normal BFGS step
   11    -530.4924771125      3.35e-05   Normal BFGS step
   12    -530.4924771197      2.85e-05   Normal BFGS step
   13    -530.4924771221      2.15e-05   Normal BFGS step
   14    -530.4924771231      1.26e-05   Normal BFGS step
   15    -530.4924771236      6.34e-06   Normal BFGS step
   16    -530.4924771238      2.65e-06   Normal BFGS step
   17    -530.4924771238      1.68e-06   Normal BFGS step
   18    -530.4924771238      7.13e-07   Normal BFGS step
   19    -530.4924771238      4.08e-07   Normal BFGS step
   20    -530.4924771238      1.07e-07   Normal BFGS step
   21    -530.4924771238      6.25e-08  Convergence criterion met
 ---------------------------------------
 SCF time:   CPU 1035.65s  wall 131.00s 
<S^2> =          0.755305077
(3)  G-ENP(liq) elect-nuc-pol free energy of system     -530.492477124 a.u.
(4)  G-CDS(liq) cavity-dispersion-solvent structure 
     free energy                                                3.2930 kcal/mol
(6)  G-S(liq) free energy of system                     -530.487229329 a.u.
 SCF   energy in the final basis set =     -530.4872293285
 Total energy in the final basis set =     -530.4872293285
 
 --------------------------------------------------------------
 
                    Orbital Energies (a.u.)
 --------------------------------------------------------------
 
 Alpha MOs
 -- Occupied --
-19.4467 -19.4428 -19.3905 -19.3554 -19.3543 -19.3535 -10.5200 -10.4643
 -1.3603  -1.2584  -1.2097  -1.1769  -1.1453  -0.9727  -0.8494  -0.7598
 -0.7240  -0.7023  -0.6577  -0.6311  -0.6235  -0.6124  -0.5816  -0.5484
 -0.5409  -0.5204  -0.4821  -0.4684  -0.4428  -0.4292  -0.4169  -0.3998
 -0.3973
 -- Virtual --
  0.0272   0.0429   0.0505   0.0590   0.0684   0.0833   0.0984   0.1004
  0.1204   0.1268   0.1388   0.1467   0.1517   0.1638   0.1851   0.2041
  0.2188   0.2324   0.2352   0.2409   0.2520   0.2630   0.2696   0.2834
  0.2871   0.2936   0.3019   0.3116   0.3171   0.3198   0.3351   0.3404
  0.3425   0.3462   0.3550   0.3605   0.3688   0.3745   0.3874   0.3909
  0.3995   0.4097   0.4265   0.4300   0.4482   0.4689   0.4989   0.5105
  0.5260   0.5673   0.5849   0.6064   0.6104   0.6509   0.6606   0.6720
  0.6972   0.7090   0.7235   0.7845   0.7902   0.8295   0.8328   0.8494
  0.8677   0.8990   0.9392   0.9696   0.9830   0.9958   1.0357   1.0503
  1.0581   1.0715   1.0829   1.1058   1.1177   1.1354   1.1473   1.1602
  1.1673   1.1761   1.1886   1.1999   1.2154   1.2206   1.2342   1.2438
  1.2585   1.2856   1.3033   1.3197   1.3393   1.3741   1.3802   1.4154
  1.4204   1.4577   1.4835   1.5068   1.5265   1.5321   1.5530   1.5850
  1.5973   1.6168   1.6356   1.6769   1.6805   1.7206   1.7231   1.7607
  1.7803   1.8194   1.8345   1.8908   1.9743   1.9789   1.9976   2.0101
  2.0732   2.1023   2.1624   2.1818   2.2170   2.2469   2.2622   2.2905
  2.3035   2.3658   2.3806   2.4031   2.4112   2.4400   2.4584   2.4937
  2.5262   2.5555   2.6201   2.6664   2.6934   2.7078   2.8041   2.8489
  2.9138   2.9365   2.9962   3.0360   3.1321   3.1530   3.2377   3.2920
  3.3136   3.3431   3.4080   3.4177   3.4358   3.4631   3.5254   3.5545
  3.5702   3.6076   3.6196   3.6774   3.6849   3.7406   3.8032   3.8104
  3.8466   3.8557   3.8625   3.8815   3.8928   3.9273   3.9715   4.0020
  4.0452   4.0713   4.1374   4.1704   4.2122   4.2206   4.2652   4.2968
  4.3151   4.3581   4.3821   4.4626   4.5320   4.5592   4.6915   4.6972
  4.7715   4.8051   4.8985   5.0200   5.0651   5.1212   5.1544   5.1733
  5.1914   5.1968   5.2197   5.2227   5.2430   5.2484   5.2525   5.2549
  5.2741   5.2866   5.3065   5.3166   5.3322   5.3413   5.3485   5.3627
  5.4184   5.4348   5.4684   5.4705   5.4987   5.5163   5.5360   5.5593
  5.5987   5.6156   5.6413   5.6528   5.6609   5.6882   5.7108   5.7640
  5.8221   6.0123   6.0413   6.0670   6.1339   6.1673   6.2430   6.4794
  6.5007   6.5352   6.6389   6.6838   6.6882   6.7523   6.8356   6.9373
  7.0136   7.0317   7.0531   7.0894   7.1165   7.1225   7.1258   7.1446
  7.2452   7.2622   7.2672   7.2915   7.2976   7.3115   7.3515   7.3783
  7.3947   7.4201   7.4579   7.5033   7.5153   7.5567   7.5676   7.6484
  7.6693   7.7782   7.8105   7.8373   7.8511   7.9004   8.0063   8.0496
  8.1564  24.7767  25.0291  50.4855  50.5196  50.5912  50.6094  50.6315
 50.7233
 
 Beta MOs
 -- Occupied --
-19.4307 -19.4282 -19.3905 -19.3554 -19.3543 -19.3537 -10.5204 -10.4642
 -1.3332  -1.2568  -1.2097  -1.1766  -1.1452  -0.9341  -0.8466  -0.7590
 -0.7180  -0.7006  -0.6543  -0.6272  -0.5947  -0.5819  -0.5512  -0.5479
 -0.5287  -0.5132  -0.4762  -0.4674  -0.4425  -0.4254  -0.4153  -0.3830
 -- Virtual --
 -0.0322   0.0274   0.0430   0.0507   0.0594   0.0696   0.0854   0.0990
  0.1009   0.1213   0.1277   0.1391   0.1473   0.1520   0.1649   0.1882
  0.2067   0.2195   0.2336   0.2365   0.2444   0.2534   0.2654   0.2708
  0.2842   0.2887   0.2980   0.3032   0.3122   0.3183   0.3205   0.3358
  0.3413   0.3458   0.3480   0.3556   0.3626   0.3707   0.3750   0.3882
  0.3928   0.4009   0.4129   0.4276   0.4307   0.4486   0.4689   0.4998
  0.5109   0.5264   0.5677   0.5853   0.6070   0.6113   0.6511   0.6609
  0.6723   0.6974   0.7103   0.7235   0.7846   0.7903   0.8298   0.8360
  0.8501   0.8684   0.9006   0.9396   0.9708   0.9843   0.9976   1.0382
  1.0529   1.0586   1.0747   1.0868   1.1086   1.1264   1.1467   1.1484
  1.1664   1.1692   1.1776   1.1904   1.2039   1.2174   1.2253   1.2380
  1.2511   1.2802   1.2868   1.3040   1.3203   1.3406   1.3756   1.3824
  1.4187   1.4258   1.4608   1.4870   1.5090   1.5308   1.5410   1.5555
  1.5884   1.5994   1.6302   1.6381   1.6816   1.6936   1.7268   1.7302
  1.7672   1.7849   1.8263   1.8385   1.8913   1.9753   1.9816   2.0027
  2.0119   2.0835   2.1030   2.1723   2.1845   2.2194   2.2506   2.2712
  2.2980   2.3193   2.3679   2.3852   2.4036   2.4131   2.4418   2.4585
  2.4943   2.5265   2.5595   2.6237   2.6680   2.6959   2.7163   2.8044
  2.8490   2.9133   2.9367   2.9956   3.0358   3.1314   3.1516   3.2371
  3.2930   3.3135   3.3430   3.4079   3.4173   3.4355   3.4637   3.5253
  3.5533   3.5696   3.6070   3.6198   3.6770   3.6846   3.7405   3.8029
  3.8104   3.8471   3.8553   3.8623   3.8811   3.8925   3.9270   3.9715
  4.0019   4.0450   4.0711   4.1362   4.1702   4.2114   4.2206   4.2654
  4.2967   4.3151   4.3582   4.3822   4.4630   4.5340   4.5966   4.7124
  4.7159   4.7906   4.8119   4.9101   5.0528   5.1284   5.1490   5.1651
  5.1894   5.2027   5.2270   5.2370   5.2486   5.2506   5.2590   5.2706
  5.2716   5.2826   5.3079   5.3145   5.3178   5.3365   5.3474   5.3570
  5.3716   5.4197   5.4410   5.4712   5.4801   5.5038   5.5167   5.5379
  5.5651   5.5996   5.6241   5.6482   5.6626   5.6708   5.6895   5.7313
  5.7655   5.8238   6.0130   6.0414   6.0672   6.1342   6.1678   6.2440
  6.4849   6.5028   6.5849   6.6391   6.6882   6.6949   6.7539   6.8867
  6.9920   7.0275   7.0582   7.0708   7.1178   7.1253   7.1478   7.1579
  7.1610   7.2472   7.2684   7.2823   7.2934   7.3014   7.3258   7.3694
  7.3938   7.4118   7.4386   7.4695   7.5054   7.5265   7.5656   7.5746
  7.6490   7.6698   7.7812   7.8107   7.8393   7.8561   7.9008   8.0082
  8.0626   8.1752  24.7767  25.0289  50.4968  50.5306  50.5915  50.6101
 50.6315  50.7236
 --------------------------------------------------------------
 
          Ground-State Mulliken Net Atomic Charges

     Atom                 Charge (a.u.)    Spin (a.u.)
  --------------------------------------------------------
      1 C                    -0.033233       0.000589
      2 O                    -0.410802      -0.000304
      3 C                     0.124582      -0.016915
      4 O                    -0.327943       0.000843
      5 O                    -0.481577      -0.002312
      6 O                    -0.417005      -0.001677
      7 H                     0.319713       0.000279
      8 H                     0.340435      -0.000171
      9 H                     0.367856      -0.000518
     10 H                     0.382055      -0.008452
     11 H                     0.344895       0.000368
     12 O                    -0.103280       0.534436
     13 O                    -0.105694       0.493834
  --------------------------------------------------------
  Sum of atomic charges =     0.000000
  Sum of spin   charges =     1.000000

 -----------------------------------------------------------------
                    Cartesian Multipole Moments
 -----------------------------------------------------------------
    Charge (ESU x 10^10)
                 0.0000
    Dipole Moment (Debye)
         X       2.3985      Y      -3.4239      Z       1.8970
       Tot       4.5907
    Quadrupole Moments (Debye-Ang)
        XX     -46.1760     XY      -2.7296     YY     -40.3521
        XZ      -1.1150     YZ      -6.4240     ZZ     -54.9241
    Octopole Moments (Debye-Ang^2)
       XXX       0.4559    XXY     -18.0032    XYY       2.4193
       YYY     -22.5431    XXZ      35.5609    XYZ      -0.8871
       YYZ      33.7127    XZZ      -3.4218    YZZ       6.4917
       ZZZ     133.3757
    Hexadecapole Moments (Debye-Ang^3)
      XXXX    -448.5785   XXXY      12.6386   XXYY    -118.9240
      XYYY      64.7248   YYYY    -319.2202   XXXZ      16.2137
      XXYZ     -19.7783   XYYZ       5.4532   YYYZ     -48.0589
      XXZZ    -147.4648   XYZZ      26.5303   YYZZ    -120.6990
      XZZZ      29.8319   YZZZ     -45.4853   ZZZZ    -412.9464
 -----------------------------------------------------------------
 Calculating analytic gradient of the SCF energy
 Gradient of CDS energy
            1           2           3           4           5           6
    1   0.0033891  -0.0011819  -0.0026224   0.0020263   0.0003155  -0.0021838
    2   0.0024764   0.0016663  -0.0016265   0.0030429  -0.0014572  -0.0040769
    3  -0.0009179   0.0015150  -0.0018408   0.0000684   0.0013385  -0.0003338
            7           8           9          10          11          12
    1  -0.0001651   0.0003760  -0.0001172  -0.0001556   0.0003029   0.0000061
    2   0.0000596  -0.0003438  -0.0003617   0.0002440   0.0003505   0.0000909
    3   0.0001495  -0.0000958   0.0001626  -0.0001537  -0.0001407  -0.0000112
           13
    1   0.0000100
    2  -0.0000646
    3   0.0002599
 Gradient of SCF Energy
            1           2           3           4           5           6
    1  -0.0002616  -0.0136556   0.0029027  -0.0085947  -0.0017332   0.0018075
    2   0.0091976   0.0072201   0.0019920   0.0145833  -0.0058547  -0.0011254
    3  -0.0174380  -0.0130516   0.0067713  -0.0159534  -0.0052249   0.0095403
            7           8           9          10          11          12
    1  -0.0010011   0.0131348   0.0079445   0.0009052  -0.0007766  -0.0003150
    2  -0.0101869  -0.0078509  -0.0145325   0.0017706   0.0041293   0.0013640
    3   0.0131825   0.0107417   0.0156506   0.0003176  -0.0066333  -0.0006735
           13
    1  -0.0003567
    2  -0.0007064
    3   0.0027707
 Max gradient component =       1.744E-02
 RMS gradient           =       8.444E-03
 Computing fast CPCM-SWIG gradient
 Updating gradient with PCM contributions...
 -- total gradient after adding PCM contribution --
---------------------------------------------------
  Atom         X              Y              Z     
---------------------------------------------------
   1       0.000007      -0.000003      -0.000006
   2      -0.000014      -0.000013      -0.000002
   3      -0.000017       0.000021      -0.000015
   4      -0.000005       0.000012       0.000022
   5      -0.000003      -0.000033       0.000019
   6       0.000014      -0.000007      -0.000022
   7       0.000006       0.000010       0.000004
   8      -0.000004      -0.000012       0.000000
   9      -0.000001       0.000003       0.000037
  10       0.000001      -0.000010      -0.000007
  11      -0.000005      -0.000006      -0.000033
  12      -0.000019       0.000108      -0.000048
  13       0.000040      -0.000070       0.000052
---------------------------------------------------
 Number of fixed atoms: 0
 Gradient time:  CPU 143.06 s  wall 20.87 s
 ######################################################
 ######################################################
 # Starting finite difference calculation for IDERIV  #
 Finite diff step size:  1.88973e-03 a.u.
 ----------------------------------------------------------------
             Standard Nuclear Orientation (Angstroms)
    I     Atom           X                Y                Z
 ----------------------------------------------------------------
    1      C       1.1625807636    -0.4074924836    -0.5150054710
    2      O       1.8213677505    -1.2727594109    -1.4073207325
    3      C      -0.2462547288    -0.2583139380    -1.0850301505
    4      O      -1.0133241650    -1.3464294414    -1.1122229812
    5      O      -0.4690515222     0.6252861311    -1.9847555968
    6      O       1.7838563449     0.8381822799    -0.4082250798
    7      H       1.1195300393    -0.8326475168     0.4870387697
    8      H       2.6071645074    -1.6173517013    -0.9668740601
    9      H      -0.6944474561    -2.0145927183    -0.4878923877
   10      H      -1.0189267514     1.4576357197    -1.3587879502
   11      H       1.6613901978     1.3100819932    -1.2442186843
   12      O      -0.9871073900     0.7206179258     0.3594779241
   13      O      -1.4241427901     1.7735829607    -0.2276536999
 ----------------------------------------------------------------
 Nuclear Repulsion Energy =         435.02945593 hartrees
 There are       33 alpha and       32 beta electrons
 Discretize the solute cavity surface with Lebedev spheres
	Using 110 Lebedev grid points for each H atom
	Using 194 Lebedev grid points for other atoms
	Atomic van der Waals radii will be scaled by 1.20
 Remove points where switching function is < 1.0e-08
 Keep 1080 surface tesserae and discard 1022 interior tesserae
 Molecular Surface Area = 124.144 Angst**2

                       Distance Matrix (Angstroms)
             C (  1)   O (  2)   C (  3)   O (  4)   O (  5)   O (  6)
   O (  2)  1.406739
   C (  3)  1.527089  2.325518
   O (  4)  2.443938  2.850963  1.331589
   O (  5)  2.426731  3.030186  1.280583  2.223782
   O (  6)  1.396098  2.335738  2.404521  3.618337  2.757964
   H (  7)  1.089359  2.067576  2.160238  2.714899  3.280081  2.008606
   H (  8)  1.937722  0.964476  3.162743  3.633519  3.940636  2.649448
   H (  9)  2.456025  2.779387  1.908393  0.968459  3.043084  3.779770
   H ( 10)  2.991596  3.940138  1.901696  2.814890  1.177711  3.023720
   H ( 11)  1.931483  2.592926  2.474736  3.772078  2.357143  0.967767
   O ( 12)  2.580410  3.870745  1.895725  2.537573  2.402686  2.877747
   O ( 13)  3.395703  4.604906  2.500224  3.268901  2.306121  3.346467
             H (  7)   H (  8)   H (  9)   H ( 10)   H ( 11)   O ( 12)
   H (  8)  2.223214
   H (  9)  2.374447  3.359742
   H ( 10)  3.636684  4.770501  3.594456
   H ( 11)  2.807518  3.088896  4.144329  2.686819
   O ( 12)  2.620463  4.488218  2.878379  1.869932  3.151801
   O ( 13)  3.711266  5.319429  3.866582  1.242372  3.281578  1.282365

 
 Requested basis set is 6-311++G(2df,2p)
 There are 94 shells and 322 basis functions
 A cutoff of  1.0D-12 yielded   4127 shell pairs
 There are     48802 function pairs (     61599 Cartesian)
 Smallest overlap matrix eigenvalue = 4.10E-05
 Guess MOs from SCF MO coefficient file

 -----------------------------------------------------------------------
  General SCF calculation program by
  Eric Jon Sundstrom, Paul Horn, Yuezhi Mao, Dmitri Zuev, Alec White,
  David Stuck, Shaama M.S., Shane Yost, Joonho Lee, David Small,
  Daniel Levine, Susi Lehtola, Hugh Burton, Evgeny Epifanovsky,
  Bang C. Huynh
 -----------------------------------------------------------------------
 Exchange:     0.1500 Hartree-Fock + 1.0000 wB97M-V + LR-HF
 Correlation:  1.0000 wB97M-V
 Using SG-2 standard quadrature grid
 Nonlocal Correlation:  VV10 with C = 0.0100 and b = 6.00 and scale = 1.00000
 Grid used for NLC:  SG-1 standard quadrature
 
 Citation of the SMD model:
 Marenich, A.V.; Cramer, C.J.; Truhlar, D.G.
 J. Phys. Chem. B 2009, 113, 6378-6396.
 iSolventCode=           1
 Solvent: water                                                           
 
 vradii
            1           2           3           4           5           6
    1   1.8500000   1.5200000   1.8500000   1.5200000   1.5200000   1.5200000
            7           8           9          10          11          12
    1   1.2000000   1.2000000   1.2000000   1.2000000   1.2000000   1.5200000
           13
    1   1.5200000
 -------------------------------------------------------
 OpenMP BLAS3 based DFT computing Module                
 Release: version 1.0, May 2013, Q-Chem Inc. Pittsburgh 
 -------------------------------------------------------
 A unrestricted SCF calculation will be
 performed using Roothaan-Hall, DIIS, GDM
 SCF converges when RMS gradient is below 1.0e-07
 ---------------------------------------
  Cycle       Energy         DIIS error
 ---------------------------------------
    1    -530.4518007331      2.74e-04  Roothaan Step
 ---------------------------------------
  Cycle       Energy         DIIS error
 ---------------------------------------
    1    -530.4859426569      2.96e-04  
    2    -530.4909150076      2.06e-04  Done DIIS. Switching to GDM
 ---------------------------------------
  Cycle       Energy        RMS Gradient
 ---------------------------------------
    1    -530.4909150076      7.16e-03   Normal BFGS step
    2    -530.4908768304      1.16e-02  Line search: overstep
    3    -530.4923278458      2.05e-03   Normal BFGS step
    4    -530.4924518234      1.97e-03   Normal BFGS step
    5    -530.4924704876      1.58e-03   Normal BFGS step
    6    -530.4924820372      9.15e-05   Normal BFGS step
    7    -530.4924824615      1.06e-04   Normal BFGS step
    8    -530.4924825856      3.21e-05   Normal BFGS step
    9    -530.4924826007      2.73e-05   Normal BFGS step
   10    -530.4924826065      1.59e-05   Normal BFGS step
   11    -530.4924826081      8.47e-06   Normal BFGS step
   12    -530.4924826085      5.27e-06   Normal BFGS step
   13    -530.4924826087      3.83e-06   Normal BFGS step
   14    -530.4924826087      2.82e-06   Normal BFGS step
   15    -530.4924826087      1.63e-06   Normal BFGS step
   16    -530.4924826087      7.33e-07   Normal BFGS step
   17    -530.4924826087      3.74e-07   Normal BFGS step
   18    -530.4924826087      1.16e-07   Normal BFGS step
   19    -530.4924826087      7.26e-08  Convergence criterion met
 ---------------------------------------
 SCF time:   CPU 1004.70s  wall 127.00s 
<S^2> =          0.755303914
(3)  G-ENP(liq) elect-nuc-pol free energy of system     -530.492482609 a.u.
(4)  G-CDS(liq) cavity-dispersion-solvent structure 
     free energy                                                3.2971 kcal/mol
(6)  G-S(liq) free energy of system                     -530.487228337 a.u.
 SCF   energy in the final basis set =     -530.4872283374
 Total energy in the final basis set =     -530.4872283374
 
 --------------------------------------------------------------
 
                    Orbital Energies (a.u.)
 --------------------------------------------------------------
 
 Alpha MOs
 -- Occupied --
-19.4467 -19.4428 -19.3905 -19.3554 -19.3543 -19.3535 -10.5200 -10.4642
 -1.3603  -1.2584  -1.2099  -1.1769  -1.1454  -0.9727  -0.8492  -0.7597
 -0.7240  -0.7024  -0.6577  -0.6311  -0.6235  -0.6124  -0.5817  -0.5485
 -0.5410  -0.5204  -0.4820  -0.4684  -0.4428  -0.4292  -0.4169  -0.3998
 -0.3973
 -- Virtual --
  0.0272   0.0429   0.0505   0.0590   0.0685   0.0834   0.0984   0.1004
  0.1204   0.1268   0.1387   0.1467   0.1517   0.1638   0.1851   0.2041
  0.2188   0.2324   0.2352   0.2409   0.2521   0.2630   0.2696   0.2834
  0.2872   0.2936   0.3019   0.3117   0.3172   0.3198   0.3351   0.3404
  0.3425   0.3462   0.3549   0.3605   0.3688   0.3745   0.3874   0.3909
  0.3995   0.4097   0.4265   0.4300   0.4482   0.4689   0.4988   0.5105
  0.5260   0.5672   0.5848   0.6064   0.6104   0.6509   0.6606   0.6721
  0.6972   0.7090   0.7234   0.7845   0.7901   0.8295   0.8328   0.8494
  0.8677   0.8991   0.9392   0.9696   0.9830   0.9958   1.0358   1.0503
  1.0581   1.0715   1.0829   1.1058   1.1177   1.1353   1.1473   1.1601
  1.1674   1.1760   1.1886   1.1999   1.2155   1.2206   1.2342   1.2438
  1.2586   1.2856   1.3033   1.3197   1.3392   1.3741   1.3803   1.4154
  1.4202   1.4576   1.4834   1.5068   1.5265   1.5320   1.5530   1.5849
  1.5972   1.6168   1.6355   1.6770   1.6804   1.7206   1.7231   1.7606
  1.7803   1.8194   1.8344   1.8907   1.9743   1.9789   1.9976   2.0102
  2.0732   2.1023   2.1624   2.1818   2.2172   2.2469   2.2623   2.2905
  2.3034   2.3659   2.3805   2.4032   2.4113   2.4399   2.4583   2.4938
  2.5261   2.5555   2.6202   2.6664   2.6933   2.7078   2.8041   2.8490
  2.9137   2.9365   2.9958   3.0360   3.1322   3.1531   3.2376   3.2921
  3.3135   3.3433   3.4082   3.4178   3.4362   3.4633   3.5254   3.5542
  3.5704   3.6077   3.6194   3.6773   3.6848   3.7406   3.8033   3.8104
  3.8464   3.8557   3.8626   3.8815   3.8927   3.9275   3.9714   4.0019
  4.0448   4.0708   4.1374   4.1700   4.2120   4.2202   4.2646   4.2968
  4.3146   4.3580   4.3819   4.4626   4.5313   4.5591   4.6914   4.6972
  4.7715   4.8046   4.8985   5.0200   5.0651   5.1212   5.1544   5.1733
  5.1914   5.1967   5.2197   5.2227   5.2430   5.2484   5.2525   5.2549
  5.2741   5.2866   5.3065   5.3167   5.3321   5.3414   5.3485   5.3627
  5.4184   5.4348   5.4685   5.4705   5.4988   5.5162   5.5363   5.5593
  5.5987   5.6155   5.6414   5.6528   5.6611   5.6882   5.7109   5.7641
  5.8223   6.0125   6.0418   6.0671   6.1347   6.1686   6.2434   6.4796
  6.5011   6.5352   6.6385   6.6840   6.6880   6.7531   6.8357   6.9373
  7.0136   7.0317   7.0531   7.0895   7.1165   7.1225   7.1258   7.1446
  7.2452   7.2623   7.2672   7.2916   7.2976   7.3116   7.3516   7.3782
  7.3948   7.4201   7.4579   7.5033   7.5153   7.5566   7.5678   7.6485
  7.6695   7.7782   7.8105   7.8373   7.8510   7.9005   8.0063   8.0495
  8.1564  24.7778  25.0283  50.4855  50.5196  50.5913  50.6096  50.6315
 50.7233
 
 Beta MOs
 -- Occupied --
-19.4307 -19.4282 -19.3905 -19.3554 -19.3543 -19.3536 -10.5203 -10.4642
 -1.3332  -1.2567  -1.2098  -1.1766  -1.1453  -0.9341  -0.8464  -0.7590
 -0.7180  -0.7006  -0.6543  -0.6272  -0.5947  -0.5819  -0.5512  -0.5479
 -0.5287  -0.5132  -0.4762  -0.4674  -0.4425  -0.4254  -0.4153  -0.3830
 -- Virtual --
 -0.0322   0.0274   0.0430   0.0507   0.0594   0.0696   0.0854   0.0990
  0.1009   0.1212   0.1277   0.1391   0.1473   0.1520   0.1649   0.1882
  0.2067   0.2195   0.2337   0.2365   0.2444   0.2534   0.2654   0.2708
  0.2842   0.2888   0.2980   0.3032   0.3122   0.3183   0.3205   0.3357
  0.3413   0.3458   0.3479   0.3556   0.3626   0.3707   0.3749   0.3882
  0.3928   0.4009   0.4130   0.4277   0.4307   0.4486   0.4689   0.4998
  0.5108   0.5264   0.5676   0.5853   0.6069   0.6113   0.6511   0.6609
  0.6724   0.6974   0.7103   0.7235   0.7846   0.7902   0.8297   0.8360
  0.8501   0.8684   0.9006   0.9397   0.9708   0.9843   0.9977   1.0383
  1.0529   1.0586   1.0747   1.0868   1.1086   1.1264   1.1467   1.1484
  1.1664   1.1693   1.1776   1.1903   1.2039   1.2175   1.2253   1.2380
  1.2511   1.2802   1.2867   1.3040   1.3203   1.3405   1.3756   1.3825
  1.4187   1.4256   1.4607   1.4870   1.5090   1.5307   1.5410   1.5554
  1.5883   1.5993   1.6302   1.6380   1.6816   1.6936   1.7268   1.7302
  1.7671   1.7849   1.8264   1.8384   1.8913   1.9752   1.9816   2.0027
  2.0120   2.0835   2.1030   2.1723   2.1846   2.2196   2.2506   2.2713
  2.2980   2.3192   2.3679   2.3852   2.4038   2.4133   2.4417   2.4585
  2.4943   2.5264   2.5595   2.6237   2.6680   2.6959   2.7163   2.8044
  2.8491   2.9132   2.9366   2.9952   3.0357   3.1315   3.1517   3.2371
  3.2930   3.3133   3.3432   3.4082   3.4174   3.4359   3.4640   3.5252
  3.5530   3.5698   3.6070   3.6196   3.6769   3.6845   3.7405   3.8030
  3.8104   3.8469   3.8553   3.8623   3.8811   3.8925   3.9272   3.9714
  4.0017   4.0446   4.0707   4.1362   4.1698   4.2112   4.2202   4.2649
  4.2968   4.3147   4.3581   4.3819   4.4630   4.5332   4.5965   4.7124
  4.7158   4.7905   4.8116   4.9101   5.0528   5.1284   5.1491   5.1651
  5.1893   5.2027   5.2270   5.2369   5.2486   5.2506   5.2590   5.2706
  5.2716   5.2826   5.3079   5.3145   5.3178   5.3364   5.3475   5.3570
  5.3717   5.4197   5.4410   5.4713   5.4801   5.5039   5.5166   5.5382
  5.5650   5.5995   5.6241   5.6482   5.6628   5.6708   5.6895   5.7313
  5.7657   5.8239   6.0131   6.0419   6.0673   6.1350   6.1691   6.2443
  6.4851   6.5032   6.5849   6.6387   6.6881   6.6949   6.7547   6.8867
  6.9920   7.0275   7.0581   7.0708   7.1177   7.1254   7.1478   7.1579
  7.1610   7.2472   7.2685   7.2823   7.2935   7.3015   7.3258   7.3694
  7.3938   7.4118   7.4386   7.4695   7.5053   7.5265   7.5657   7.5746
  7.6491   7.6699   7.7812   7.8107   7.8393   7.8560   7.9009   8.0082
  8.0626   8.1752  24.7778  25.0281  50.4969  50.5306  50.5916  50.6103
 50.6316  50.7235
 --------------------------------------------------------------
 
          Ground-State Mulliken Net Atomic Charges

     Atom                 Charge (a.u.)    Spin (a.u.)
  --------------------------------------------------------
      1 C                    -0.033280       0.000592
      2 O                    -0.410535      -0.000303
      3 C                     0.124439      -0.016910
      4 O                    -0.327984       0.000847
      5 O                    -0.481563      -0.002313
      6 O                    -0.416778      -0.001681
      7 H                     0.319559       0.000280
      8 H                     0.340421      -0.000171
      9 H                     0.367844      -0.000519
     10 H                     0.382040      -0.008451
     11 H                     0.344926       0.000368
     12 O                    -0.103315       0.534452
     13 O                    -0.105773       0.493808
  --------------------------------------------------------
  Sum of atomic charges =     0.000000
  Sum of spin   charges =     1.000000

 -----------------------------------------------------------------
                    Cartesian Multipole Moments
 -----------------------------------------------------------------
    Charge (ESU x 10^10)
                 0.0000
    Dipole Moment (Debye)
         X       2.4035      Y      -3.4246      Z       1.8957
       Tot       4.5932
    Quadrupole Moments (Debye-Ang)
        XX     -46.1691     XY      -2.7301     YY     -40.3513
        XZ      -1.1208     YZ      -6.4216     ZZ     -54.9233
    Octopole Moments (Debye-Ang^2)
       XXX       0.4649    XXY     -18.0079    XYY       2.4233
       YYY     -22.5485    XXZ      35.5518    XYZ      -0.8828
       YYZ      33.7088    XZZ      -3.4176    YZZ       6.4872
       ZZZ     133.3727
    Hexadecapole Moments (Debye-Ang^3)
      XXXX    -448.6143   XXXY      12.6385   XXYY    -118.9336
      XYYY      64.7272   YYYY    -319.2103   XXXZ      16.1988
      XXYZ     -19.7716   XYYZ       5.4450   YYYZ     -48.0482
      XXZZ    -147.4666   XYZZ      26.5274   YYZZ    -120.6929
      XZZZ      29.8193   YZZZ     -45.4723   ZZZZ    -412.9448
 -----------------------------------------------------------------
 Calculating analytic gradient of the SCF energy
 Gradient of CDS energy
            1           2           3           4           5           6
    1   0.0034645  -0.0012329  -0.0026228   0.0020263   0.0003155  -0.0022057
    2   0.0024587   0.0017352  -0.0016265   0.0030429  -0.0014571  -0.0041277
    3  -0.0009842   0.0015863  -0.0018410   0.0000685   0.0013386  -0.0003381
            7           8           9          10          11          12
    1  -0.0001660   0.0003758  -0.0001173  -0.0001556   0.0003024   0.0000060
    2   0.0000596  -0.0003438  -0.0003616   0.0002440   0.0003501   0.0000908
    3   0.0001491  -0.0000960   0.0001626  -0.0001537  -0.0001408  -0.0000113
           13
    1   0.0000099
    2  -0.0000646
    3   0.0002599
 Gradient of SCF Energy
            1           2           3           4           5           6
    1   0.0008112  -0.0139657   0.0025564  -0.0086037  -0.0017292   0.0015668
    2   0.0091957   0.0073744   0.0020095   0.0145810  -0.0058592  -0.0013399
    3  -0.0174769  -0.0129471   0.0066563  -0.0159577  -0.0052250   0.0095380
            7           8           9          10          11          12
    1  -0.0011360   0.0131071   0.0079401   0.0009058  -0.0007735  -0.0003288
    2  -0.0101873  -0.0078050  -0.0145347   0.0017739   0.0041329   0.0013825
    3   0.0131810   0.0108053   0.0156475   0.0003186  -0.0066359  -0.0006771
           13
    1  -0.0003506
    2  -0.0007237
    3   0.0027730
 Max gradient component =       1.748E-02
 RMS gradient           =       8.455E-03
 Computing fast CPCM-SWIG gradient
 Updating gradient with PCM contributions...
 -- total gradient after adding PCM contribution --
---------------------------------------------------
  Atom         X              Y              Z     
---------------------------------------------------
   1       0.001041      -0.000006      -0.000049
   2      -0.000304       0.000140       0.000105
   3      -0.000365       0.000044      -0.000128
   4      -0.000015       0.000011       0.000015
   5       0.000006      -0.000037       0.000016
   6      -0.000217      -0.000218      -0.000034
   7      -0.000105       0.000007       0.000007
   8      -0.000040       0.000035       0.000060
   9      -0.000007      -0.000003       0.000038
  10      -0.000001      -0.000005      -0.000006
  11      -0.000005      -0.000006      -0.000029
  12      -0.000031       0.000125      -0.000050
  13       0.000045      -0.000085       0.000055
---------------------------------------------------
 Number of fixed atoms: 0
 Gradient time:  CPU 140.69 s  wall 20.53 s
 ----------------------------------------------------------------
             Standard Nuclear Orientation (Angstroms)
    I     Atom           X                Y                Z
 ----------------------------------------------------------------
    1      C       1.1605807636    -0.4074924836    -0.5150054710
    2      O       1.8213677505    -1.2727594109    -1.4073207325
    3      C      -0.2462547288    -0.2583139380    -1.0850301505
    4      O      -1.0133241650    -1.3464294414    -1.1122229812
    5      O      -0.4690515222     0.6252861311    -1.9847555968
    6      O       1.7838563449     0.8381822799    -0.4082250798
    7      H       1.1195300393    -0.8326475168     0.4870387697
    8      H       2.6071645074    -1.6173517013    -0.9668740601
    9      H      -0.6944474561    -2.0145927183    -0.4878923877
   10      H      -1.0189267514     1.4576357197    -1.3587879502
   11      H       1.6613901978     1.3100819932    -1.2442186843
   12      O      -0.9871073900     0.7206179258     0.3594779241
   13      O      -1.4241427901     1.7735829607    -0.2276536999
 ----------------------------------------------------------------
 Nuclear Repulsion Energy =         435.04382590 hartrees
 There are       33 alpha and       32 beta electrons
 Discretize the solute cavity surface with Lebedev spheres
	Using 110 Lebedev grid points for each H atom
	Using 194 Lebedev grid points for other atoms
	Atomic van der Waals radii will be scaled by 1.20
 Remove points where switching function is < 1.0e-08
 Keep 1080 surface tesserae and discard 1022 interior tesserae
 Molecular Surface Area = 124.140 Angst**2

                       Distance Matrix (Angstroms)
             C (  1)   O (  2)   C (  3)   O (  4)   O (  5)   O (  6)
   O (  2)  1.407676
   C (  3)  1.525244  2.325518
   O (  4)  2.442158  2.850963  1.331589
   O (  5)  2.425386  3.030186  1.280583  2.223782
   O (  6)  1.396990  2.335738  2.404521  3.618337  2.757964
   H (  7)  1.089282  2.067576  2.160238  2.714899  3.280081  2.008606
   H (  8)  1.939214  0.964476  3.162743  3.633519  3.940636  2.649448
   H (  9)  2.454513  2.779387  1.908393  0.968459  3.043084  3.779770
   H ( 10)  2.990138  3.940138  1.901696  2.814890  1.177711  3.023720
   H ( 11)  1.932000  2.592926  2.474736  3.772078  2.357143  0.967767
   O ( 12)  2.578744  3.870745  1.895725  2.537573  2.402686  2.877747
   O ( 13)  3.394180  4.604906  2.500224  3.268901  2.306121  3.346467
             H (  7)   H (  8)   H (  9)   H ( 10)   H ( 11)   O ( 12)
   H (  8)  2.223214
   H (  9)  2.374447  3.359742
   H ( 10)  3.636684  4.770501  3.594456
   H ( 11)  2.807518  3.088896  4.144329  2.686819
   O ( 12)  2.620463  4.488218  2.878379  1.869932  3.151801
   O ( 13)  3.711266  5.319429  3.866582  1.242372  3.281578  1.282365

 
 Requested basis set is 6-311++G(2df,2p)
 There are 94 shells and 322 basis functions
 A cutoff of  1.0D-12 yielded   4128 shell pairs
 There are     48830 function pairs (     61639 Cartesian)
 Smallest overlap matrix eigenvalue = 4.07E-05
 Guess MOs from SCF MO coefficient file

 -----------------------------------------------------------------------
  General SCF calculation program by
  Eric Jon Sundstrom, Paul Horn, Yuezhi Mao, Dmitri Zuev, Alec White,
  David Stuck, Shaama M.S., Shane Yost, Joonho Lee, David Small,
  Daniel Levine, Susi Lehtola, Hugh Burton, Evgeny Epifanovsky,
  Bang C. Huynh
 -----------------------------------------------------------------------
 Exchange:     0.1500 Hartree-Fock + 1.0000 wB97M-V + LR-HF
 Correlation:  1.0000 wB97M-V
 Using SG-2 standard quadrature grid
 Nonlocal Correlation:  VV10 with C = 0.0100 and b = 6.00 and scale = 1.00000
 Grid used for NLC:  SG-1 standard quadrature
 
 Citation of the SMD model:
 Marenich, A.V.; Cramer, C.J.; Truhlar, D.G.
 J. Phys. Chem. B 2009, 113, 6378-6396.
 iSolventCode=           1
 Solvent: water                                                           
 
 vradii
            1           2           3           4           5           6
    1   1.8500000   1.5200000   1.8500000   1.5200000   1.5200000   1.5200000
            7           8           9          10          11          12
    1   1.2000000   1.2000000   1.2000000   1.2000000   1.2000000   1.5200000
           13
    1   1.5200000
 -------------------------------------------------------
 OpenMP BLAS3 based DFT computing Module                
 Release: version 1.0, May 2013, Q-Chem Inc. Pittsburgh 
 -------------------------------------------------------
 A unrestricted SCF calculation will be
 performed using Roothaan-Hall, DIIS, GDM
 SCF converges when RMS gradient is below 1.0e-07
 ---------------------------------------
  Cycle       Energy         DIIS error
 ---------------------------------------
    1    -530.4517770514      2.74e-04  Roothaan Step
 ---------------------------------------
  Cycle       Energy         DIIS error
 ---------------------------------------
    1    -530.4859076759      2.97e-04  
    2    -530.4908759084      2.08e-04  Done DIIS. Switching to GDM
 ---------------------------------------
  Cycle       Energy        RMS Gradient
 ---------------------------------------
    1    -530.4908759084      7.22e-03   Normal BFGS step
    2    -530.4908301735      1.17e-02  Line search: overstep
    3    -530.4923149230      2.04e-03   Normal BFGS step
    4    -530.4924388985      1.98e-03   Normal BFGS step
    5    -530.4924576443      1.58e-03   Normal BFGS step
    6    -530.4924692608      9.11e-05   Normal BFGS step
    7    -530.4924696803      1.07e-04   Normal BFGS step
    8    -530.4924698037      3.12e-05   Normal BFGS step
    9    -530.4924698185      2.68e-05   Normal BFGS step
   10    -530.4924698241      1.57e-05   Normal BFGS step
   11    -530.4924698256      7.65e-06   Normal BFGS step
   12    -530.4924698260      4.77e-06   Normal BFGS step
   13    -530.4924698261      3.54e-06   Normal BFGS step
   14    -530.4924698262      2.63e-06   Normal BFGS step
   15    -530.4924698262      1.59e-06   Normal BFGS step
   16    -530.4924698262      6.90e-07   Normal BFGS step
   17    -530.4924698262      3.58e-07   Normal BFGS step
   18    -530.4924698262      1.09e-07   Normal BFGS step
   19    -530.4924698262      7.08e-08  Convergence criterion met
 ---------------------------------------
 SCF time:   CPU 1005.52s  wall 127.00s 
<S^2> =          0.755306266
(3)  G-ENP(liq) elect-nuc-pol free energy of system     -530.492469826 a.u.
(4)  G-CDS(liq) cavity-dispersion-solvent structure 
     free energy                                                3.2891 kcal/mol
(6)  G-S(liq) free energy of system                     -530.487228363 a.u.
 SCF   energy in the final basis set =     -530.4872283628
 Total energy in the final basis set =     -530.4872283628
 
 --------------------------------------------------------------
 
                    Orbital Energies (a.u.)
 --------------------------------------------------------------
 
 Alpha MOs
 -- Occupied --
-19.4468 -19.4428 -19.3905 -19.3553 -19.3543 -19.3536 -10.5201 -10.4643
 -1.3603  -1.2584  -1.2096  -1.1770  -1.1451  -0.9727  -0.8496  -0.7598
 -0.7240  -0.7023  -0.6577  -0.6311  -0.6236  -0.6124  -0.5816  -0.5484
 -0.5409  -0.5204  -0.4821  -0.4684  -0.4427  -0.4293  -0.4169  -0.3999
 -0.3974
 -- Virtual --
  0.0272   0.0429   0.0505   0.0590   0.0684   0.0833   0.0984   0.1004
  0.1204   0.1268   0.1388   0.1467   0.1517   0.1638   0.1851   0.2041
  0.2188   0.2323   0.2351   0.2409   0.2520   0.2630   0.2696   0.2834
  0.2871   0.2936   0.3019   0.3116   0.3171   0.3198   0.3351   0.3403
  0.3425   0.3463   0.3550   0.3605   0.3688   0.3746   0.3874   0.3909
  0.3995   0.4096   0.4265   0.4299   0.4482   0.4689   0.4989   0.5105
  0.5260   0.5673   0.5849   0.6065   0.6104   0.6508   0.6605   0.6719
  0.6972   0.7090   0.7235   0.7844   0.7902   0.8296   0.8329   0.8494
  0.8678   0.8990   0.9392   0.9696   0.9830   0.9957   1.0357   1.0503
  1.0580   1.0715   1.0829   1.1058   1.1177   1.1354   1.1473   1.1603
  1.1673   1.1761   1.1887   1.1999   1.2153   1.2207   1.2343   1.2438
  1.2585   1.2857   1.3033   1.3197   1.3394   1.3741   1.3802   1.4155
  1.4205   1.4577   1.4835   1.5069   1.5266   1.5321   1.5531   1.5850
  1.5974   1.6168   1.6356   1.6769   1.6806   1.7206   1.7231   1.7607
  1.7804   1.8193   1.8346   1.8909   1.9743   1.9790   1.9976   2.0100
  2.0732   2.1023   2.1624   2.1818   2.2169   2.2469   2.2621   2.2904
  2.3036   2.3658   2.3806   2.4029   2.4110   2.4402   2.4584   2.4937
  2.5263   2.5555   2.6201   2.6664   2.6934   2.7078   2.8041   2.8487
  2.9139   2.9366   2.9966   3.0360   3.1320   3.1529   3.2377   3.2920
  3.3137   3.3429   3.4077   3.4175   3.4355   3.4628   3.5255   3.5548
  3.5700   3.6075   3.6197   3.6775   3.6849   3.7405   3.8031   3.8104
  3.8468   3.8557   3.8625   3.8815   3.8928   3.9271   3.9715   4.0022
  4.0456   4.0717   4.1373   4.1707   4.2124   4.2210   4.2657   4.2967
  4.3155   4.3581   4.3824   4.4626   4.5327   4.5593   4.6915   4.6972
  4.7716   4.8056   4.8985   5.0200   5.0652   5.1212   5.1544   5.1733
  5.1915   5.1968   5.2197   5.2227   5.2430   5.2483   5.2525   5.2549
  5.2741   5.2866   5.3064   5.3166   5.3324   5.3412   5.3485   5.3626
  5.4185   5.4349   5.4683   5.4705   5.4987   5.5163   5.5357   5.5594
  5.5988   5.6156   5.6412   5.6527   5.6608   5.6883   5.7108   5.7638
  5.8220   6.0122   6.0408   6.0669   6.1330   6.1660   6.2427   6.4793
  6.5002   6.5352   6.6393   6.6837   6.6884   6.7514   6.8356   6.9373
  7.0137   7.0317   7.0531   7.0894   7.1166   7.1225   7.1258   7.1445
  7.2452   7.2621   7.2671   7.2915   7.2975   7.3115   7.3515   7.3784
  7.3946   7.4201   7.4579   7.5033   7.5153   7.5567   7.5675   7.6483
  7.6692   7.7782   7.8104   7.8372   7.8512   7.9003   8.0063   8.0496
  8.1563  24.7756  25.0300  50.4854  50.5195  50.5911  50.6092  50.6315
 50.7234
 
 Beta MOs
 -- Occupied --
-19.4308 -19.4282 -19.3905 -19.3553 -19.3542 -19.3537 -10.5204 -10.4642
 -1.3332  -1.2568  -1.2096  -1.1766  -1.1451  -0.9341  -0.8468  -0.7590
 -0.7181  -0.7006  -0.6542  -0.6272  -0.5947  -0.5818  -0.5512  -0.5478
 -0.5287  -0.5133  -0.4762  -0.4675  -0.4425  -0.4255  -0.4153  -0.3830
 -- Virtual --
 -0.0323   0.0274   0.0430   0.0507   0.0594   0.0696   0.0853   0.0990
  0.1009   0.1213   0.1277   0.1392   0.1473   0.1520   0.1649   0.1883
  0.2067   0.2195   0.2336   0.2364   0.2444   0.2534   0.2654   0.2708
  0.2842   0.2887   0.2981   0.3031   0.3122   0.3182   0.3206   0.3358
  0.3412   0.3458   0.3480   0.3556   0.3627   0.3707   0.3750   0.3882
  0.3929   0.4009   0.4129   0.4276   0.4306   0.4486   0.4690   0.4998
  0.5109   0.5265   0.5677   0.5853   0.6070   0.6113   0.6510   0.6609
  0.6722   0.6974   0.7103   0.7235   0.7846   0.7903   0.8300   0.8360
  0.8501   0.8685   0.9005   0.9396   0.9709   0.9843   0.9976   1.0381
  1.0529   1.0585   1.0747   1.0868   1.1086   1.1264   1.1467   1.1484
  1.1665   1.1692   1.1777   1.1904   1.2040   1.2173   1.2253   1.2381
  1.2510   1.2802   1.2868   1.3041   1.3203   1.3407   1.3756   1.3823
  1.4188   1.4259   1.4608   1.4871   1.5090   1.5308   1.5410   1.5556
  1.5884   1.5994   1.6302   1.6381   1.6816   1.6937   1.7268   1.7302
  1.7673   1.7850   1.8262   1.8386   1.8914   1.9753   1.9816   2.0027
  2.0117   2.0836   2.1030   2.1723   2.1845   2.2193   2.2506   2.2711
  2.2979   2.3193   2.3678   2.3852   2.4035   2.4130   2.4420   2.4585
  2.4942   2.5266   2.5595   2.6237   2.6680   2.6960   2.7163   2.8045
  2.8488   2.9133   2.9367   2.9960   3.0358   3.1313   3.1515   3.2372
  3.2929   3.3136   3.3428   3.4076   3.4172   3.4352   3.4635   3.5254
  3.5535   3.5694   3.6069   3.6200   3.6771   3.6846   3.7404   3.8028
  3.8103   3.8474   3.8552   3.8622   3.8811   3.8926   3.9268   3.9716
  4.0020   4.0454   4.0716   4.1361   4.1705   4.2115   4.2210   4.2660
  4.2967   4.3155   4.3583   4.3824   4.4630   4.5348   4.5966   4.7124
  4.7159   4.7908   4.8123   4.9101   5.0528   5.1284   5.1490   5.1651
  5.1894   5.2028   5.2270   5.2370   5.2486   5.2506   5.2590   5.2706
  5.2717   5.2826   5.3079   5.3145   5.3177   5.3366   5.3473   5.3570
  5.3716   5.4197   5.4410   5.4710   5.4801   5.5038   5.5167   5.5376
  5.5651   5.5997   5.6241   5.6481   5.6624   5.6708   5.6895   5.7313
  5.7654   5.8237   6.0128   6.0409   6.0671   6.1333   6.1665   6.2436
  6.4847   6.5025   6.5849   6.6395   6.6883   6.6948   6.7531   6.8867
  6.9920   7.0276   7.0582   7.0709   7.1178   7.1253   7.1478   7.1579
  7.1610   7.2472   7.2683   7.2823   7.2934   7.3014   7.3258   7.3694
  7.3938   7.4118   7.4386   7.4695   7.5054   7.5265   7.5656   7.5745
  7.6489   7.6697   7.7812   7.8106   7.8393   7.8562   7.9007   8.0082
  8.0626   8.1751  24.7756  25.0297  50.4968  50.5305  50.5915  50.6099
 50.6315  50.7236
 --------------------------------------------------------------
 
          Ground-State Mulliken Net Atomic Charges

     Atom                 Charge (a.u.)    Spin (a.u.)
  --------------------------------------------------------
      1 C                    -0.033187       0.000586
      2 O                    -0.411068      -0.000305
      3 C                     0.124724      -0.016920
      4 O                    -0.327902       0.000838
      5 O                    -0.481591      -0.002311
      6 O                    -0.417232      -0.001672
      7 H                     0.319867       0.000278
      8 H                     0.340448      -0.000171
      9 H                     0.367868      -0.000517
     10 H                     0.382071      -0.008453
     11 H                     0.344864       0.000369
     12 O                    -0.103245       0.534419
     13 O                    -0.105616       0.493861
  --------------------------------------------------------
  Sum of atomic charges =     0.000000
  Sum of spin   charges =     1.000000

 -----------------------------------------------------------------
                    Cartesian Multipole Moments
 -----------------------------------------------------------------
    Charge (ESU x 10^10)
                 0.0000
    Dipole Moment (Debye)
         X       2.3935      Y      -3.4233      Z       1.8984
       Tot       4.5882
    Quadrupole Moments (Debye-Ang)
        XX     -46.1829     XY      -2.7291     YY     -40.3529
        XZ      -1.1091     YZ      -6.4264     ZZ     -54.9249
    Octopole Moments (Debye-Ang^2)
       XXX       0.4470    XXY     -17.9986    XYY       2.4152
       YYY     -22.5378    XXZ      35.5700    XYZ      -0.8914
       YYZ      33.7166    XZZ      -3.4260    YZZ       6.4962
       ZZZ     133.3787
    Hexadecapole Moments (Debye-Ang^3)
      XXXX    -448.5426   XXXY      12.6387   XXYY    -118.9145
      XYYY      64.7224   YYYY    -319.2301   XXXZ      16.2286
      XXYZ     -19.7850   XYYZ       5.4614   YYYZ     -48.0695
      XXZZ    -147.4629   XYZZ      26.5331   YYZZ    -120.7051
      XZZZ      29.8445   YZZZ     -45.4983   ZZZZ    -412.9481
 -----------------------------------------------------------------
 Calculating analytic gradient of the SCF energy
 Gradient of CDS energy
            1           2           3           4           5           6
    1   0.0033119  -0.0011303  -0.0026221   0.0020264   0.0003156  -0.0021606
    2   0.0024926   0.0015968  -0.0016265   0.0030429  -0.0014573  -0.0040239
    3  -0.0008511   0.0014430  -0.0018407   0.0000683   0.0013385  -0.0003293
            7           8           9          10          11          12
    1  -0.0001643   0.0003762  -0.0001171  -0.0001556   0.0003034   0.0000062
    2   0.0000597  -0.0003439  -0.0003617   0.0002440   0.0003510   0.0000909
    3   0.0001500  -0.0000956   0.0001625  -0.0001537  -0.0001406  -0.0000112
           13
    1   0.0000101
    2  -0.0000646
    3   0.0002599
 Gradient of SCF Energy
            1           2           3           4           5           6
    1  -0.0013381  -0.0133452   0.0032508  -0.0085855  -0.0017372   0.0020492
    2   0.0091983   0.0070653   0.0019745   0.0145856  -0.0058503  -0.0009092
    3  -0.0174005  -0.0131564   0.0068871  -0.0159489  -0.0052248   0.0095428
            7           8           9          10          11          12
    1  -0.0008663   0.0131623   0.0079489   0.0009046  -0.0007797  -0.0003011
    2  -0.0101867  -0.0078966  -0.0145303   0.0017673   0.0041258   0.0013454
    3   0.0131843   0.0106781   0.0156537   0.0003167  -0.0066307  -0.0006700
           13
    1  -0.0003629
    2  -0.0006891
    3   0.0027683
 Max gradient component =       1.740E-02
 RMS gradient           =       8.439E-03
 Computing fast CPCM-SWIG gradient
 Updating gradient with PCM contributions...
 -- total gradient after adding PCM contribution --
---------------------------------------------------
  Atom         X              Y              Z     
---------------------------------------------------
   1      -0.001030      -0.000002       0.000035
   2       0.000276      -0.000166      -0.000109
   3       0.000334      -0.000002       0.000099
   4       0.000005       0.000015       0.000028
   5      -0.000012      -0.000028       0.000021
   6       0.000246       0.000206      -0.000011
   7       0.000118       0.000014       0.000001
   8       0.000032      -0.000059      -0.000059
   9       0.000005       0.000008       0.000036
  10       0.000003      -0.000014      -0.000007
  11      -0.000004      -0.000006      -0.000036
  12      -0.000006       0.000090      -0.000047
  13       0.000035      -0.000055       0.000049
---------------------------------------------------
 Number of fixed atoms: 0
 Gradient time:  CPU 141.84 s  wall 20.47 s
 ----------------------------------------------------------------
             Standard Nuclear Orientation (Angstroms)
    I     Atom           X                Y                Z
 ----------------------------------------------------------------
    1      C       1.1615807636    -0.4064924836    -0.5150054710
    2      O       1.8213677505    -1.2727594109    -1.4073207325
    3      C      -0.2462547288    -0.2583139380    -1.0850301505
    4      O      -1.0133241650    -1.3464294414    -1.1122229812
    5      O      -0.4690515222     0.6252861311    -1.9847555968
    6      O       1.7838563449     0.8381822799    -0.4082250798
    7      H       1.1195300393    -0.8326475168     0.4870387697
    8      H       2.6071645074    -1.6173517013    -0.9668740601
    9      H      -0.6944474561    -2.0145927183    -0.4878923877
   10      H      -1.0189267514     1.4576357197    -1.3587879502
   11      H       1.6613901978     1.3100819932    -1.2442186843
   12      O      -0.9871073900     0.7206179258     0.3594779241
   13      O      -1.4241427901     1.7735829607    -0.2276536999
 ----------------------------------------------------------------
 Nuclear Repulsion Energy =         435.04351909 hartrees
 There are       33 alpha and       32 beta electrons
 Discretize the solute cavity surface with Lebedev spheres
	Using 110 Lebedev grid points for each H atom
	Using 194 Lebedev grid points for other atoms
	Atomic van der Waals radii will be scaled by 1.20
 Remove points where switching function is < 1.0e-08
 Keep 1080 surface tesserae and discard 1022 interior tesserae
 Molecular Surface Area = 124.142 Angst**2

                       Distance Matrix (Angstroms)
             C (  1)   O (  2)   C (  3)   O (  4)   O (  5)   O (  6)
   O (  2)  1.407822
   C (  3)  1.526069  2.325518
   O (  4)  2.443432  2.850963  1.331589
   O (  5)  2.425633  3.030186  1.280583  2.223782
   O (  6)  1.395652  2.335738  2.404521  3.618337  2.757964
   H (  7)  1.089711  2.067576  2.160238  2.714899  3.280081  2.008606
   H (  8)  1.939092  0.964476  3.162743  3.633519  3.940636  2.649448
   H (  9)  2.455924  2.779387  1.908393  0.968459  3.043084  3.779770
   H ( 10)  2.990243  3.940138  1.901696  2.814890  1.177711  3.023720
   H ( 11)  1.930852  2.592926  2.474736  3.772078  2.357143  0.967767
   O ( 12)  2.579139  3.870745  1.895725  2.537573  2.402686  2.877747
   O ( 13)  3.394299  4.604906  2.500224  3.268901  2.306121  3.346467
             H (  7)   H (  8)   H (  9)   H ( 10)   H ( 11)   O ( 12)
   H (  8)  2.223214
   H (  9)  2.374447  3.359742
   H ( 10)  3.636684  4.770501  3.594456
   H ( 11)  2.807518  3.088896  4.144329  2.686819
   O ( 12)  2.620463  4.488218  2.878379  1.869932  3.151801
   O ( 13)  3.711266  5.319429  3.866582  1.242372  3.281578  1.282365

 
 Requested basis set is 6-311++G(2df,2p)
 There are 94 shells and 322 basis functions
 A cutoff of  1.0D-12 yielded   4128 shell pairs
 There are     48830 function pairs (     61639 Cartesian)
 Smallest overlap matrix eigenvalue = 4.08E-05
 Guess MOs from SCF MO coefficient file

 -----------------------------------------------------------------------
  General SCF calculation program by
  Eric Jon Sundstrom, Paul Horn, Yuezhi Mao, Dmitri Zuev, Alec White,
  David Stuck, Shaama M.S., Shane Yost, Joonho Lee, David Small,
  Daniel Levine, Susi Lehtola, Hugh Burton, Evgeny Epifanovsky,
  Bang C. Huynh
 -----------------------------------------------------------------------
 Exchange:     0.1500 Hartree-Fock + 1.0000 wB97M-V + LR-HF
 Correlation:  1.0000 wB97M-V
 Using SG-2 standard quadrature grid
 Nonlocal Correlation:  VV10 with C = 0.0100 and b = 6.00 and scale = 1.00000
 Grid used for NLC:  SG-1 standard quadrature
 
 Citation of the SMD model:
 Marenich, A.V.; Cramer, C.J.; Truhlar, D.G.
 J. Phys. Chem. B 2009, 113, 6378-6396.
 iSolventCode=           1
 Solvent: water                                                           
 
 vradii
            1           2           3           4           5           6
    1   1.8500000   1.5200000   1.8500000   1.5200000   1.5200000   1.5200000
            7           8           9          10          11          12
    1   1.2000000   1.2000000   1.2000000   1.2000000   1.2000000   1.5200000
           13
    1   1.5200000
 -------------------------------------------------------
 OpenMP BLAS3 based DFT computing Module                
 Release: version 1.0, May 2013, Q-Chem Inc. Pittsburgh 
 -------------------------------------------------------
 A unrestricted SCF calculation will be
 performed using Roothaan-Hall, DIIS, GDM
 SCF converges when RMS gradient is below 1.0e-07
 ---------------------------------------
  Cycle       Energy         DIIS error
 ---------------------------------------
    1    -530.4517986220      2.74e-04  Roothaan Step
 ---------------------------------------
  Cycle       Energy         DIIS error
 ---------------------------------------
    1    -530.4859452747      2.96e-04  
    2    -530.4909144206      2.06e-04  Done DIIS. Switching to GDM
 ---------------------------------------
  Cycle       Energy        RMS Gradient
 ---------------------------------------
    1    -530.4909144206      7.18e-03   Normal BFGS step
    2    -530.4908745121      1.16e-02  Line search: overstep
    3    -530.4923262634      2.05e-03   Normal BFGS step
    4    -530.4924501467      1.97e-03   Normal BFGS step
    5    -530.4924688454      1.58e-03   Normal BFGS step
    6    -530.4924803808      9.13e-05   Normal BFGS step
    7    -530.4924808050      1.06e-04   Normal BFGS step
    8    -530.4924809286      3.20e-05   Normal BFGS step
    9    -530.4924809437      2.73e-05   Normal BFGS step
   10    -530.4924809495      1.59e-05   Normal BFGS step
   11    -530.4924809511      8.95e-06   Normal BFGS step
   12    -530.4924809516      5.55e-06   Normal BFGS step
   13    -530.4924809517      3.98e-06   Normal BFGS step
   14    -530.4924809518      2.90e-06   Normal BFGS step
   15    -530.4924809518      1.64e-06   Normal BFGS step
   16    -530.4924809518      7.51e-07   Normal BFGS step
   17    -530.4924809518      3.74e-07   Normal BFGS step
   18    -530.4924809518      1.15e-07   Normal BFGS step
   19    -530.4924809518      7.23e-08  Convergence criterion met
 ---------------------------------------
 SCF time:   CPU 1001.71s  wall 127.00s 
<S^2> =          0.755304899
(3)  G-ENP(liq) elect-nuc-pol free energy of system     -530.492480952 a.u.
(4)  G-CDS(liq) cavity-dispersion-solvent structure 
     free energy                                                3.2961 kcal/mol
(6)  G-S(liq) free energy of system                     -530.487228295 a.u.
 SCF   energy in the final basis set =     -530.4872282947
 Total energy in the final basis set =     -530.4872282947
 
 --------------------------------------------------------------
 
                    Orbital Energies (a.u.)
 --------------------------------------------------------------
 
 Alpha MOs
 -- Occupied --
-19.4467 -19.4428 -19.3905 -19.3553 -19.3544 -19.3535 -10.5200 -10.4643
 -1.3603  -1.2584  -1.2098  -1.1769  -1.1453  -0.9727  -0.8494  -0.7598
 -0.7240  -0.7025  -0.6576  -0.6311  -0.6235  -0.6124  -0.5816  -0.5485
 -0.5409  -0.5204  -0.4821  -0.4684  -0.4427  -0.4292  -0.4169  -0.3998
 -0.3973
 -- Virtual --
  0.0272   0.0429   0.0505   0.0590   0.0684   0.0833   0.0984   0.1004
  0.1204   0.1268   0.1387   0.1467   0.1517   0.1638   0.1851   0.2041
  0.2188   0.2324   0.2351   0.2409   0.2520   0.2630   0.2696   0.2835
  0.2872   0.2936   0.3019   0.3116   0.3171   0.3198   0.3350   0.3403
  0.3425   0.3462   0.3549   0.3605   0.3688   0.3746   0.3874   0.3909
  0.3995   0.4096   0.4265   0.4300   0.4481   0.4689   0.4989   0.5107
  0.5260   0.5673   0.5849   0.6064   0.6104   0.6509   0.6605   0.6721
  0.6972   0.7090   0.7235   0.7845   0.7902   0.8295   0.8328   0.8495
  0.8677   0.8990   0.9392   0.9696   0.9830   0.9958   1.0357   1.0503
  1.0581   1.0715   1.0829   1.1058   1.1177   1.1354   1.1473   1.1602
  1.1674   1.1760   1.1886   1.1999   1.2154   1.2206   1.2343   1.2437
  1.2584   1.2856   1.3033   1.3197   1.3393   1.3742   1.3802   1.4154
  1.4204   1.4578   1.4835   1.5068   1.5265   1.5320   1.5531   1.5849
  1.5974   1.6168   1.6354   1.6770   1.6805   1.7206   1.7231   1.7607
  1.7804   1.8195   1.8345   1.8909   1.9741   1.9790   1.9977   2.0101
  2.0732   2.1023   2.1625   2.1819   2.2171   2.2469   2.2621   2.2905
  2.3036   2.3660   2.3806   2.4030   2.4112   2.4402   2.4584   2.4938
  2.5264   2.5554   2.6202   2.6664   2.6934   2.7078   2.8042   2.8490
  2.9139   2.9365   2.9962   3.0361   3.1320   3.1530   3.2376   3.2918
  3.3136   3.3436   3.4079   3.4179   3.4358   3.4630   3.5256   3.5545
  3.5700   3.6074   3.6196   3.6776   3.6848   3.7406   3.8030   3.8107
  3.8465   3.8556   3.8625   3.8816   3.8927   3.9271   3.9714   4.0023
  4.0452   4.0713   4.1373   4.1705   4.2122   4.2206   4.2650   4.2968
  4.3155   4.3581   4.3819   4.4619   4.5317   4.5592   4.6914   4.6972
  4.7716   4.8052   4.8985   5.0200   5.0652   5.1212   5.1544   5.1732
  5.1914   5.1968   5.2197   5.2227   5.2430   5.2484   5.2524   5.2549
  5.2741   5.2866   5.3064   5.3167   5.3321   5.3413   5.3484   5.3628
  5.4186   5.4350   5.4683   5.4704   5.4988   5.5162   5.5360   5.5596
  5.5987   5.6156   5.6412   5.6528   5.6608   5.6882   5.7108   5.7639
  5.8225   6.0119   6.0418   6.0671   6.1344   6.1676   6.2432   6.4794
  6.5004   6.5352   6.6390   6.6839   6.6885   6.7529   6.8357   6.9373
  7.0136   7.0318   7.0531   7.0895   7.1166   7.1225   7.1258   7.1445
  7.2452   7.2622   7.2672   7.2917   7.2975   7.3116   7.3516   7.3782
  7.3947   7.4201   7.4579   7.5033   7.5154   7.5567   7.5677   7.6485
  7.6693   7.7782   7.8105   7.8372   7.8511   7.9004   8.0063   8.0496
  8.1564  24.7767  25.0293  50.4855  50.5196  50.5912  50.6096  50.6314
 50.7233
 
 Beta MOs
 -- Occupied --
-19.4307 -19.4282 -19.3905 -19.3553 -19.3544 -19.3537 -10.5204 -10.4642
 -1.3332  -1.2568  -1.2098  -1.1766  -1.1453  -0.9341  -0.8466  -0.7590
 -0.7180  -0.7007  -0.6542  -0.6272  -0.5947  -0.5819  -0.5512  -0.5479
 -0.5287  -0.5132  -0.4762  -0.4675  -0.4425  -0.4254  -0.4154  -0.3830
 -- Virtual --
 -0.0322   0.0274   0.0430   0.0507   0.0594   0.0696   0.0854   0.0990
  0.1009   0.1213   0.1276   0.1391   0.1473   0.1520   0.1649   0.1883
  0.2067   0.2195   0.2336   0.2365   0.2444   0.2534   0.2654   0.2708
  0.2843   0.2887   0.2980   0.3032   0.3122   0.3183   0.3205   0.3357
  0.3412   0.3458   0.3480   0.3556   0.3626   0.3707   0.3750   0.3881
  0.3928   0.4009   0.4129   0.4276   0.4308   0.4486   0.4689   0.4998
  0.5110   0.5264   0.5677   0.5854   0.6069   0.6113   0.6511   0.6608
  0.6724   0.6974   0.7103   0.7235   0.7846   0.7903   0.8298   0.8360
  0.8502   0.8684   0.9005   0.9396   0.9709   0.9843   0.9976   1.0382
  1.0529   1.0585   1.0747   1.0868   1.1087   1.1264   1.1467   1.1484
  1.1664   1.1693   1.1776   1.1903   1.2039   1.2174   1.2253   1.2380
  1.2510   1.2801   1.2868   1.3041   1.3203   1.3406   1.3756   1.3824
  1.4187   1.4259   1.4609   1.4870   1.5090   1.5307   1.5410   1.5555
  1.5883   1.5994   1.6302   1.6380   1.6816   1.6937   1.7268   1.7302
  1.7672   1.7850   1.8264   1.8385   1.8914   1.9752   1.9817   2.0028
  2.0118   2.0835   2.1030   2.1724   2.1846   2.2195   2.2506   2.2711
  2.2981   2.3193   2.3680   2.3852   2.4036   2.4131   2.4420   2.4585
  2.4943   2.5267   2.5594   2.6238   2.6681   2.6960   2.7163   2.8046
  2.8491   2.9134   2.9366   2.9955   3.0358   3.1313   3.1517   3.2371
  3.2927   3.3135   3.3435   3.4078   3.4176   3.4355   3.4637   3.5254
  3.5533   3.5694   3.6068   3.6198   3.6771   3.6845   3.7404   3.8027
  3.8107   3.8471   3.8552   3.8622   3.8811   3.8925   3.9269   3.9714
  4.0021   4.0450   4.0712   4.1361   4.1702   4.2113   4.2206   4.2652
  4.2968   4.3155   4.3582   4.3820   4.4623   4.5336   4.5966   4.7124
  4.7158   4.7907   4.8120   4.9101   5.0528   5.1284   5.1491   5.1650
  5.1893   5.2027   5.2270   5.2370   5.2486   5.2507   5.2591   5.2706
  5.2716   5.2826   5.3079   5.3144   5.3178   5.3364   5.3474   5.3570
  5.3717   5.4198   5.4412   5.4711   5.4800   5.5039   5.5166   5.5379
  5.5653   5.5995   5.6241   5.6481   5.6624   5.6708   5.6894   5.7313
  5.7655   5.8242   6.0125   6.0418   6.0673   6.1347   6.1681   6.2442
  6.4848   6.5026   6.5849   6.6392   6.6885   6.6949   6.7545   6.8867
  6.9920   7.0276   7.0582   7.0708   7.1178   7.1253   7.1478   7.1579
  7.1610   7.2472   7.2684   7.2824   7.2936   7.3013   7.3258   7.3694
  7.3939   7.4118   7.4386   7.4695   7.5054   7.5266   7.5657   7.5746
  7.6491   7.6698   7.7812   7.8107   7.8393   7.8561   7.9008   8.0082
  8.0627   8.1752  24.7767  25.0290  50.4968  50.5306  50.5915  50.6104
 50.6314  50.7236
 --------------------------------------------------------------
 
          Ground-State Mulliken Net Atomic Charges

     Atom                 Charge (a.u.)    Spin (a.u.)
  --------------------------------------------------------
      1 C                    -0.033282       0.000590
      2 O                    -0.411241      -0.000304
      3 C                     0.124738      -0.016912
      4 O                    -0.327992       0.000846
      5 O                    -0.481547      -0.002310
      6 O                    -0.416452      -0.001679
      7 H                     0.319525       0.000278
      8 H                     0.340403      -0.000171
      9 H                     0.367865      -0.000519
     10 H                     0.382044      -0.008452
     11 H                     0.344943       0.000368
     12 O                    -0.103325       0.534426
     13 O                    -0.105679       0.493839
  --------------------------------------------------------
  Sum of atomic charges =     0.000000
  Sum of spin   charges =     1.000000

 -----------------------------------------------------------------
                    Cartesian Multipole Moments
 -----------------------------------------------------------------
    Charge (ESU x 10^10)
                 0.0000
    Dipole Moment (Debye)
         X       2.3988      Y      -3.4163      Z       1.8990
       Tot       4.5860
    Quadrupole Moments (Debye-Ang)
        XX     -46.1750     XY      -2.7143     YY     -40.3551
        XZ      -1.1108     YZ      -6.4298     ZZ     -54.9299
    Octopole Moments (Debye-Ang^2)
       XXX       0.4573    XXY     -17.9793    XYY       2.4134
       YYY     -22.5386    XXZ      35.5706    XYZ      -0.9002
       YYZ      33.7192    XZZ      -3.4308    YZZ       6.4979
       ZZZ     133.3895
    Hexadecapole Moments (Debye-Ang^3)
      XXXX    -448.5712   XXXY      12.6977   XXYY    -118.9299
      XYYY      64.7481   YYYY    -319.2110   XXXZ      16.2413
      XXYZ     -19.8009   XYYZ       5.4661   YYYZ     -48.0677
      XXZZ    -147.4876   XYZZ      26.5501   YYZZ    -120.7073
      XZZZ      29.8551   YZZZ     -45.4970   ZZZZ    -412.9877
 -----------------------------------------------------------------
 Calculating analytic gradient of the SCF energy
 Gradient of CDS energy
            1           2           3           4           5           6
    1   0.0033697  -0.0011125  -0.0026223   0.0020264   0.0003156  -0.0022326
    2   0.0026678   0.0015761  -0.0016266   0.0030429  -0.0014572  -0.0041747
    3  -0.0008145   0.0014206  -0.0018409   0.0000683   0.0013385  -0.0003421
            7           8           9          10          11          12
    1  -0.0001650   0.0003759  -0.0001169  -0.0001556   0.0003019   0.0000056
    2   0.0000584  -0.0003444  -0.0003618   0.0002440   0.0003494   0.0000907
    3   0.0001494  -0.0000958   0.0001626  -0.0001537  -0.0001410  -0.0000114
           13
    1   0.0000097
    2  -0.0000646
    3   0.0002599
 Gradient of SCF Energy
            1           2           3           4           5           6
    1  -0.0002633  -0.0134877   0.0029147  -0.0086544  -0.0017001   0.0016588
    2   0.0103196   0.0069384   0.0018825   0.0145563  -0.0058817  -0.0015817
    3  -0.0175401  -0.0131849   0.0068157  -0.0159684  -0.0051977   0.0095953
            7           8           9          10          11          12
    1  -0.0009947   0.0131395   0.0079302   0.0009129  -0.0007999  -0.0002986
    2  -0.0103511  -0.0078644  -0.0145242   0.0017729   0.0040903   0.0013506
    3   0.0133555   0.0107121   0.0156443   0.0003209  -0.0066425  -0.0006811
           13
    1  -0.0003575
    2  -0.0007074
    3   0.0027710
 Max gradient component =       1.754E-02
 RMS gradient           =       8.490E-03
 Computing fast CPCM-SWIG gradient
 Updating gradient with PCM contributions...
 -- total gradient after adding PCM contribution --
---------------------------------------------------
  Atom         X              Y              Z     
---------------------------------------------------
   1       0.000004       0.001097      -0.000115
   2       0.000142      -0.000277      -0.000139
   3      -0.000003      -0.000088       0.000021
   4      -0.000070      -0.000005       0.000005
   5       0.000034      -0.000051       0.000051
   6      -0.000137      -0.000435       0.000019
   7       0.000009      -0.000151       0.000195
   8       0.000014      -0.000040      -0.000027
   9      -0.000007       0.000001       0.000034
  10       0.000004      -0.000011      -0.000005
  11      -0.000029      -0.000064      -0.000033
  12      -0.000003       0.000099      -0.000058
  13       0.000042      -0.000075       0.000052
---------------------------------------------------
 Number of fixed atoms: 0
 Gradient time:  CPU 142.53 s  wall 20.62 s
 ----------------------------------------------------------------
             Standard Nuclear Orientation (Angstroms)
    I     Atom           X                Y                Z
 ----------------------------------------------------------------
    1      C       1.1615807636    -0.4084924836    -0.5150054710
[...]
 ----------------------------------------------------------------
    1      C       1.1435283616    -0.3784028635    -0.4786372175
    2      O       1.7412913618    -1.2458335264    -1.4071177218
    3      C      -0.3108027895    -0.1657068105    -0.9201485995
    4      O      -1.0277535466    -1.3189119865    -1.0809696025
    5      O      -0.4410194761     0.6327338393    -2.0065037598
    6      O       1.7987732709     0.8562721218    -0.3950180159
    7      H       1.1519773904    -0.8122303255     0.5213233032
    8      H       2.5464254430    -1.5950287257    -1.0040167706
    9      H      -0.6920482543    -2.0102746170    -0.4944211013
   10      H      -0.9237460445     1.4332977053    -1.7029509869
   11      H       1.6730723754     1.3165896128    -1.2372233613
   12      O      -0.9301449022     0.5547985686     0.2778906458
   13      O      -1.4279188316     1.7084972552    -0.0236771384
 ----------------------------------------------------------------
 Nuclear Repulsion Energy =         439.51178201 hartrees
 There are       33 alpha and       32 beta electrons
 Discretize the solute cavity surface with Lebedev spheres
	Using 110 Lebedev grid points for each H atom
	Using 194 Lebedev grid points for other atoms
	Atomic van der Waals radii will be scaled by 1.20
 Remove points where switching function is < 1.0e-08
 Keep 1076 surface tesserae and discard 1026 interior tesserae
 Molecular Surface Area = 123.854 Angst**2

                       Distance Matrix (Angstroms)
             C (  1)   O (  2)   C (  3)   O (  4)   O (  5)   O (  6)
   O (  2)  1.404220
   C (  3)  1.534683  2.369579
   O (  4)  2.441685  2.789144  1.367393
   O (  5)  2.422306  2.941217  1.354486  2.238256
   O (  6)  1.400272  2.333773  2.402189  3.631970  2.768308
   H (  7)  1.090045  2.062568  2.153035  2.752326  3.318956  2.010454
   H (  8)  1.929850  0.965748  3.195896  3.585654  3.859110  2.634149
   H (  9)  2.456134  2.708972  1.931068  0.966809  3.055307  3.798837
   H ( 10)  3.009124  3.790473  1.882895  2.823533  0.982889  3.075022
   H ( 11)  1.931028  2.568955  2.496698  3.776870  2.351348  0.967989
   O ( 12)  2.396523  3.635671  1.529055  2.316640  2.337472  2.826780
   O ( 13)  3.342825  4.548172  2.358866  3.231595  2.462283  3.357934
             H (  7)   H (  8)   H (  9)   H ( 10)   H ( 11)   O ( 12)
   H (  8)  2.209960
   H (  9)  2.422288  3.304516
   H ( 10)  3.781325  4.658472  3.656832
   H ( 11)  2.809965  3.048713  4.148925  2.640831
   O ( 12)  2.502651  4.283875  2.689378  2.166918  3.106869
   O ( 13)  3.647870  5.260206  3.819996  1.774792  3.352974  1.292185

 
 Applying Cartesian multipole field
    Component          Value
    ---------          -----
     (2,0,0)        1.00000E-11
     (0,2,0)        2.00000E-11
     (0,0,2)       -3.00000E-11
 Nucleus-field energy     =     0.0000000013 hartrees
 Requested basis set is 6-311++G(2df,2p)
 There are 94 shells and 322 basis functions
 A cutoff of  1.0D-12 yielded   4140 shell pairs
 There are     48974 function pairs (     61835 Cartesian)
 Smallest overlap matrix eigenvalue = 4.29E-05
 Guess MOs from SCF MO coefficient file

 -----------------------------------------------------------------------
  General SCF calculation program by
  Eric Jon Sundstrom, Paul Horn, Yuezhi Mao, Dmitri Zuev, Alec White,
  David Stuck, Shaama M.S., Shane Yost, Joonho Lee, David Small,
  Daniel Levine, Susi Lehtola, Hugh Burton, Evgeny Epifanovsky,
  Bang C. Huynh
 -----------------------------------------------------------------------
 Exchange:     0.1500 Hartree-Fock + 1.0000 wB97M-V + LR-HF
 Correlation:  1.0000 wB97M-V
 Using SG-2 standard quadrature grid
 Nonlocal Correlation:  VV10 with C = 0.0100 and b = 6.00 and scale = 1.00000
 Grid used for NLC:  SG-1 standard quadrature
 
 Citation of the SMD model:
 Marenich, A.V.; Cramer, C.J.; Truhlar, D.G.
 J. Phys. Chem. B 2009, 113, 6378-6396.
 iSolventCode=           1
 Solvent: water                                                           
 
 vradii
            1           2           3           4           5           6
    1   1.8500000   1.5200000   1.8500000   1.5200000   1.5200000   1.5200000
            7           8           9          10          11          12
    1   1.2000000   1.2000000   1.2000000   1.2000000   1.2000000   1.5200000
           13
    1   1.5200000
 -------------------------------------------------------
 OpenMP BLAS3 based DFT computing Module                
 Release: version 1.0, May 2013, Q-Chem Inc. Pittsburgh 
 -------------------------------------------------------
 A unrestricted SCF calculation will be
 performed using Roothaan-Hall, DIIS, GDM
 SCF converges when RMS gradient is below 1.0e-07
 ---------------------------------------
  Cycle       Energy         DIIS error
 ---------------------------------------
    1    -530.4646985483      2.85e-04  Roothaan Step
 ---------------------------------------
  Cycle       Energy         DIIS error
 ---------------------------------------
    1    -530.4991902084      3.06e-04  
    2    -530.5039918729      2.31e-04  Done DIIS. Switching to GDM
 ---------------------------------------
  Cycle       Energy        RMS Gradient
 ---------------------------------------
    1    -530.5039918729      1.25e-02   Normal BFGS step
    2    -530.5037076687      2.05e-02  Line search: overstep
    3    -530.5057251357      3.14e-03   Normal BFGS step
    4    -530.5058441941      1.91e-03   Normal BFGS step
    5    -530.5058716815      1.21e-03   Normal BFGS step
    6    -530.5058802972      1.63e-04   Normal BFGS step
    7    -530.5058806579      9.45e-05   Normal BFGS step
    8    -530.5058807267      7.42e-05   Normal BFGS step
    9    -530.5058807529      3.79e-05   Normal BFGS step
   10    -530.5058807596      1.41e-05   Normal BFGS step
   11    -530.5058807613      1.16e-05   Normal BFGS step
   12    -530.5058807617      9.74e-06   Normal BFGS step
   13    -530.5058807619      5.79e-06   Normal BFGS step
   14    -530.5058807621      2.08e-06   Normal BFGS step
   15    -530.5058807621      6.37e-07   Normal BFGS step
   16    -530.5058807622      3.18e-07   Normal BFGS step
   17    -530.5058807622      1.70e-07   Normal BFGS step
   18    -530.5058807622      9.21e-08  Convergence criterion met
 ---------------------------------------
 SCF time:   CPU 961.23s  wall 121.00s 
<S^2> =          0.754135851
(3)  G-ENP(liq) elect-nuc-pol free energy of system     -530.505880762 a.u.
(4)  G-CDS(liq) cavity-dispersion-solvent structure 
     free energy                                                2.8803 kcal/mol
(6)  G-S(liq) free energy of system                     -530.501290688 a.u.
 SCF   energy in the final basis set =     -530.5012906879
 Total energy in the final basis set =     -530.5012906879
 
 --------------------------------------------------------------
 
                    Orbital Energies (a.u.)
 --------------------------------------------------------------
 
 Alpha MOs
 -- Occupied --
-19.4720 -19.4349 -19.3735 -19.3679 -19.3547 -19.3536 -10.5259 -10.4610
 -1.3670  -1.2464  -1.2061  -1.1758  -1.1442  -1.0093  -0.8492  -0.7674
 -0.7238  -0.6988  -0.6670  -0.6451  -0.6221  -0.6070  -0.5816  -0.5474
 -0.5334  -0.5154  -0.4858  -0.4680  -0.4440  -0.4386  -0.4197  -0.4030
 -0.4020
 -- Virtual --
  0.0273   0.0415   0.0513   0.0591   0.0716   0.0966   0.0991   0.1163
  0.1254   0.1332   0.1409   0.1502   0.1635   0.1676   0.1872   0.2112
  0.2236   0.2293   0.2360   0.2476   0.2505   0.2549   0.2645   0.2744
  0.2841   0.2948   0.3056   0.3128   0.3191   0.3255   0.3308   0.3371
  0.3422   0.3488   0.3559   0.3665   0.3710   0.3729   0.3818   0.3877
  0.3949   0.4085   0.4143   0.4375   0.4446   0.4550   0.4779   0.4958
  0.5179   0.5668   0.5790   0.5991   0.6212   0.6540   0.6611   0.6737
  0.7034   0.7106   0.7335   0.7677   0.7925   0.8237   0.8345   0.8477
  0.8719   0.9159   0.9472   0.9783   0.9887   1.0066   1.0428   1.0529
  1.0611   1.0961   1.1041   1.1095   1.1278   1.1317   1.1449   1.1601
  1.1641   1.1805   1.1889   1.1986   1.2215   1.2299   1.2325   1.2404
  1.2644   1.2767   1.2964   1.3146   1.3316   1.3502   1.3883   1.4131
  1.4244   1.4410   1.4887   1.4992   1.5199   1.5523   1.5598   1.5710
  1.5980   1.6106   1.6358   1.6744   1.6829   1.7139   1.7405   1.7579
  1.7879   1.8023   1.8397   1.8942   1.9163   1.9455   1.9788   2.0150
  2.0240   2.0795   2.1614   2.1796   2.1981   2.2157   2.2332   2.2705
  2.3008   2.3160   2.3660   2.3864   2.4185   2.4326   2.4517   2.4715
  2.5255   2.5287   2.5665   2.6564   2.6596   2.7164   2.7933   2.8821
  2.9101   2.9308   3.0076   3.0698   3.1365   3.2018   3.2333   3.3450
  3.3511   3.3740   3.3890   3.4641   3.5109   3.5334   3.5745   3.6031
  3.6113   3.6223   3.6396   3.6804   3.7313   3.7558   3.7927   3.8068
  3.8320   3.8521   3.8757   3.8945   3.9201   3.9405   3.9501   4.0467
  4.0726   4.1352   4.1749   4.2154   4.2312   4.2652   4.2831   4.2933
  4.3207   4.3624   4.3848   4.4524   4.5468   4.5733   4.6856   4.7447
  4.7974   4.8708   4.9588   5.0542   5.0817   5.1250   5.1561   5.1693
  5.1900   5.1939   5.2074   5.2175   5.2375   5.2520   5.2534   5.2791
  5.2841   5.2998   5.3024   5.3261   5.3343   5.3618   5.3682   5.3903
  5.4174   5.4304   5.4780   5.4909   5.5235   5.5453   5.5825   5.5895
  5.6194   5.6530   5.6609   5.6666   5.6967   5.7301   5.8132   5.8237
  5.8941   6.0065   6.0335   6.0764   6.0994   6.1797   6.2006   6.2904
  6.5093   6.5213   6.5966   6.6403   6.7424   6.7967   6.8858   6.9389
  6.9749   7.0311   7.0676   7.0913   7.1105   7.1169   7.1477   7.1996
  7.2351   7.2506   7.2683   7.2804   7.2980   7.3296   7.3501   7.3680
  7.4036   7.4441   7.4488   7.4936   7.5581   7.5689   7.6357   7.6570
  7.6655   7.7309   7.8048   7.8512   7.8637   7.9006   7.9459   8.0697
  8.1374  24.7478  24.8776  50.4526  50.5203  50.5865  50.6027  50.6229
 50.6628
 
 Beta MOs
 -- Occupied --
-19.4607 -19.4164 -19.3732 -19.3680 -19.3546 -19.3536 -10.5263 -10.4609
 -1.3421  -1.2430  -1.2058  -1.1754  -1.1440  -0.9760  -0.8431  -0.7657
 -0.7137  -0.6954  -0.6615  -0.6373  -0.5988  -0.5828  -0.5516  -0.5471
 -0.5224  -0.5113  -0.4761  -0.4670  -0.4438  -0.4308  -0.4149  -0.3908
 -- Virtual --
 -0.0383   0.0276   0.0417   0.0516   0.0593   0.0722   0.0972   0.0997
  0.1170   0.1267   0.1352   0.1410   0.1521   0.1642   0.1705   0.1906
  0.2123   0.2271   0.2300   0.2373   0.2518   0.2545   0.2563   0.2660
  0.2763   0.2857   0.2967   0.3060   0.3136   0.3200   0.3264   0.3317
  0.3378   0.3429   0.3505   0.3577   0.3688   0.3723   0.3738   0.3846
  0.3888   0.3967   0.4093   0.4166   0.4382   0.4456   0.4553   0.4785
  0.4967   0.5191   0.5671   0.5797   0.5994   0.6218   0.6542   0.6617
  0.6739   0.7036   0.7115   0.7341   0.7682   0.7928   0.8242   0.8351
  0.8519   0.8728   0.9168   0.9476   0.9799   0.9904   1.0074   1.0435
  1.0551   1.0649   1.1007   1.1060   1.1116   1.1315   1.1456   1.1515
  1.1622   1.1649   1.1867   1.2001   1.2005   1.2236   1.2359   1.2383
  1.2465   1.2685   1.2802   1.3030   1.3161   1.3335   1.3522   1.3908
  1.4173   1.4276   1.4421   1.4910   1.5021   1.5212   1.5581   1.5677
  1.5755   1.6032   1.6206   1.6431   1.6760   1.7013   1.7192   1.7459
  1.7630   1.7946   1.8046   1.8503   1.8959   1.9224   1.9495   1.9815
  2.0170   2.0271   2.0828   2.1645   2.1856   2.2012   2.2247   2.2371
  2.2804   2.3096   2.3239   2.3676   2.3877   2.4191   2.4337   2.4535
  2.4726   2.5267   2.5306   2.5691   2.6595   2.6683   2.7196   2.7941
  2.8828   2.9109   2.9324   3.0084   3.0704   3.1371   3.2025   3.2334
  3.3451   3.3516   3.3741   3.3891   3.4642   3.5107   3.5347   3.5750
  3.6038   3.6110   3.6222   3.6401   3.6803   3.7331   3.7568   3.7927
  3.8068   3.8322   3.8522   3.8757   3.8945   3.9204   3.9408   3.9504
  4.0470   4.0728   4.1356   4.1753   4.2155   4.2315   4.2655   4.2833
  4.2936   4.3205   4.3629   4.3852   4.4528   4.5470   4.6078   4.7014
  4.7581   4.8174   4.8835   4.9730   5.1175   5.1495   5.1692   5.1710
  5.1719   5.1991   5.2165   5.2222   5.2397   5.2553   5.2608   5.2682
  5.2827   5.2941   5.3068   5.3077   5.3312   5.3428   5.3666   5.3771
  5.3959   5.4240   5.4452   5.4797   5.4946   5.5253   5.5501   5.5827
  5.5965   5.6248   5.6561   5.6627   5.6750   5.6998   5.7406   5.8158
  5.8343   5.8972   6.0073   6.0343   6.0784   6.1003   6.1838   6.2033
  6.2919   6.5215   6.5577   6.6013   6.6519   6.7452   6.8669   6.8930
  6.9964   7.0333   7.0461   7.0767   7.1014   7.1220   7.1435   7.1673
  7.2201   7.2370   7.2534   7.2747   7.2834   7.2993   7.3314   7.3569
  7.3889   7.4261   7.4535   7.4632   7.4992   7.5616   7.5786   7.6419
  7.6586   7.6686   7.7333   7.8051   7.8559   7.8673   7.9031   7.9491
  8.0833   8.1552  24.7477  24.8774  50.4656  50.5289  50.5871  50.6029
 50.6232  50.6633
 --------------------------------------------------------------
 
          Ground-State Mulliken Net Atomic Charges

     Atom                 Charge (a.u.)    Spin (a.u.)
  --------------------------------------------------------
      1 C                    -0.071080       0.000712
      2 O                    -0.418321       0.000762
      3 C                     0.189544      -0.005970
      4 O                    -0.404210       0.012573
      5 O                    -0.415648      -0.001087
      6 O                    -0.429070      -0.001770
      7 H                     0.314515       0.000075
      8 H                     0.340677       0.000147
      9 H                     0.358080      -0.001099
     10 H                     0.345164      -0.004323
     11 H                     0.346601       0.000429
     12 O                    -0.012423       0.342702
     13 O                    -0.143827       0.656849
  --------------------------------------------------------
  Sum of atomic charges =     0.000000
  Sum of spin   charges =     1.000000

 -----------------------------------------------------------------
                    Cartesian Multipole Moments
 -----------------------------------------------------------------
    Charge (ESU x 10^10)
                 0.0000
    Dipole Moment (Debye)
         X       2.2780      Y      -2.2850      Z       1.6894
       Tot       3.6420
    Quadrupole Moments (Debye-Ang)
        XX     -46.2848     XY      -3.8607     YY     -40.3982
        XZ      -0.7771     YZ      -8.2154     ZZ     -54.0985
    Octopole Moments (Debye-Ang^2)
       XXX       0.9828    XXY     -16.5969    XYY       2.5919
       YYY     -18.9660    XXZ      32.2099    XYZ       1.4127
       YYZ      30.0134    XZZ      -4.1423    YZZ      10.5146
       ZZZ     126.8976
    Hexadecapole Moments (Debye-Ang^3)
      XXXX    -441.0915   XXXY       2.2894   XXYY    -114.6123
      XYYY      52.0252   YYYY    -297.5848   XXXZ      14.7744
      XXYZ     -20.1068   XYYZ       6.3845   YYYZ     -50.7468
      XXZZ    -139.8861   XYZZ      19.0721   YYZZ    -111.4656
      XZZZ      33.4061   YZZZ     -53.3646   ZZZZ    -398.0957
 -----------------------------------------------------------------
 Calculating analytic gradient of the SCF energy
 Gradient of CDS energy
            1           2           3           4           5           6
    1   0.0033870  -0.0013911  -0.0032241   0.0026539   0.0004575  -0.0020465
    2   0.0016364   0.0020624  -0.0018649   0.0043650  -0.0025622  -0.0036049
    3  -0.0014798   0.0019249  -0.0039959   0.0005443   0.0032632  -0.0002297
            7           8           9          10          11          12
    1  -0.0001489   0.0003669  -0.0001554  -0.0001975   0.0002820   0.0000069
    2   0.0000394  -0.0003444  -0.0004074   0.0002938   0.0003583   0.0000790
    3   0.0001616  -0.0001116   0.0001380  -0.0002228  -0.0001736  -0.0000166
           13
    1   0.0000092
    2  -0.0000504
    3   0.0001980
 Gradient of SCF Energy
            1           2           3           4           5           6
    1  -0.0010611  -0.0136396   0.0025484  -0.0080078   0.0008510   0.0028460
    2   0.0090829   0.0059886   0.0018962   0.0117156  -0.0115363  -0.0014507
    3  -0.0167717  -0.0133871   0.0059216  -0.0150017  -0.0056136   0.0099068
            7           8           9          10          11          12
    1  -0.0004115   0.0142840   0.0072215  -0.0026166  -0.0017204  -0.0000705
    2  -0.0098759  -0.0076566  -0.0119765   0.0074796   0.0048001   0.0016416
    3   0.0118488   0.0112969   0.0134647   0.0044386  -0.0074466   0.0004013
           13
    1  -0.0002234
    2  -0.0001086
    3   0.0009421
 Max gradient component =       1.677E-02
 RMS gradient           =       8.296E-03
 Computing fast CPCM-SWIG gradient
 Updating gradient with PCM contributions...
 -- total gradient after adding PCM contribution --
---------------------------------------------------
  Atom         X              Y              Z     
---------------------------------------------------
   1      -0.000903       0.000009      -0.000425
   2       0.000994      -0.000701      -0.000475
   3       0.000356       0.000864      -0.001174
   4      -0.000206      -0.000105      -0.000210
   5      -0.000350      -0.000646       0.000504
   6       0.000315       0.000083      -0.000062
   7      -0.000297      -0.000465      -0.000186
   8       0.001095      -0.000253       0.001183
   9      -0.000059      -0.000071      -0.000106
  10      -0.001086       0.000387       0.002651
  11      -0.000291      -0.000092      -0.000332
  12       0.000262       0.001041      -0.000249
  13       0.000171      -0.000051      -0.001118
---------------------------------------------------
 Number of fixed atoms: 0
 Gradient time:  CPU 134.76 s  wall 19.76 s
rPathMan2.  file_steps = 952
 IRC --- Status = 4.  Checking bisector search.
 IRC --- Bisector search finished successfully.
 ------------------------------------------------------------------------
 Reaction path following.  The coordinates are cartesian              
 Step  10 E=    -530.501291 |G|=  0.004475 S_lin= 0.9881 S_tot= 1.0424
 ------------------------------------------------------------------------
  IRC -- convergence criterion reached.
 ----------------------------------------------------------------
             Standard Nuclear Orientation (Angstroms)
    I     Atom           X                Y                Z
 ----------------------------------------------------------------
    1      C       1.1615807636    -0.4074924836    -0.5150054710
    2      O       1.8213677505    -1.2727594109    -1.4073207325
    3      C      -0.2462547288    -0.2583139380    -1.0850301505
    4      O      -1.0133241650    -1.3464294414    -1.1122229812
    5      O      -0.4690515222     0.6252861311    -1.9847555968
    6      O       1.7838563449     0.8381822799    -0.4082250798
    7      H       1.1195300393    -0.8326475168     0.4870387697
    8      H       2.6071645074    -1.6173517013    -0.9668740601
    9      H      -0.6944474561    -2.0145927183    -0.4878923877
   10      H      -1.0189267514     1.4576357197    -1.3587879502
   11      H       1.6613901978     1.3100819932    -1.2442186843
   12      O      -0.9871073900     0.7206179258     0.3594779241
   13      O      -1.4241427901     1.7735829607    -0.2276536999
 ----------------------------------------------------------------
 Nuclear Repulsion Energy =         435.03663878 hartrees
 There are       33 alpha and       32 beta electrons
 Here is where we should summarize the reaction path
 Total job time:  10510.57s(wall), 81537.90s(cpu) 
 Tue Jul 18 23:15:36 2023

        *************************************************************
        *                                                           *
        *  Thank you very much for using Q-Chem.  Have a nice day.  *
        *                                                           *
        *************************************************************


