
Running Job 1 of 2 Q_in.in
qchem Q_in.in_98186.0 /scratch/ari.fischer/qChem1629181.hpc-mn1/qchem98186/ 0
/usr/local/qchem-5.4.1/exe/qcprog.exe_s Q_in.in_98186.0 /scratch/ari.fischer/qChem1629181.hpc-mn1/qchem98186/
                  Welcome to Q-Chem
     A Quantum Leap Into The Future Of Chemistry


 Q-Chem 5.4, Q-Chem, Inc., Pleasanton, CA (2021)

 License issued to: Nanyang Technological University (site)

 E. Epifanovsky,  A. T. B. Gilbert,  Xintian Feng,  Joonho Lee,  Yuezhi Mao,  
 N. Mardirossian,  P. Pokhilko,  A. White,  M. Wormit,  M. P. Coons,  
 A. L. Dempwolff,  Zhengting Gan,  D. Hait,  P. R. Horn,  L. D. Jacobson,  
 I. Kaliman,  J. Kussmann,  A. W. Lange,  Ka Un Lao,  D. S. Levine,  Jie Liu,  
 S. C. McKenzie,  A. F. Morrison,  K. Nanda,  F. Plasser,  D. R. Rehn,  
 M. L. Vidal,  Zhi-Qiang You,  Ying Zhu,  B. Alam,  B. Albrecht,  
 A. Aldossary,  E. Alguire,  J. H. Andersen,  D. Barton,  K. Begam,  A. Behn,  
 Y. A. Bernard,  E. J. Berquist,  H. Burton,  A. Carreras,  K. Carter-Fenk,  
 R. Chakraborty,  A. D. Chien,  K. D. Closser,  V. Cofer-Shabica,  
 S. Dasgupta,  Jia Deng,  M. de Wergifosse,  M. Diedenhofen,  Hainam Do,  
 S. Ehlert,  Po-Tung Fang,  S. Fatehi,  Qingguo Feng,  T. Friedhoff,  
 J. Gayvert,  Qinghui Ge,  G. Gidofalvi,  M. Goldey,  J. Gomes,  
 C. Gonzalez-Espinoza,  S. Gulania,  A. Gunina,  M. W. D. Hanson-Heine,  
 P. H. P. Harbach,  A. W. Hauser,  M. F. Herbst,  M. Hernandez Vera,  
 M. Hodecker,  Z. C. Holden,  S. Houck,  Xunkun Huang,  Kerwin Hui,  
 B. C. Huynh,  M. Ivanov,  Hyunjun Ji,  Hanjie Jiang,  B. Kaduk,  S. Kaehler,  
 K. Khistyaev,  Jaehoon Kim,  P. Klunzinger,  Z. Koczor-Benda,  
 Joong Hoon Koh,  D. Kosenkov,  L. Koulias,  T. Kowalczyk,  C. M. Krauter,  
 K. Kue,  A. Kunitsa,  T. Kus,  A. Landau,  K. V. Lawler,  D. Lefrancois,  
 S. Lehtola,  Rain Li,  Yi-Pei Li,  Jiashu Liang,  M. Liebenthal,  
 Hung-Hsuan Lin,  You-Sheng Lin,  Fenglai Liu,  Kuan-Yu Liu,  
 M. Loipersberger,  A. Luenser,  A. Manjanath,  P. Manohar,  E. Mansoor,  
 S. F. Manzer,  Shan-Ping Mao,  A. V. Marenich,  T. Markovich,  S. Mason,  
 S. A. Maurer,  P. F. McLaughlin,  M. F. S. J. Menger,  J.-M. Mewes,  
 S. A. Mewes,  P. Morgante,  J. W. Mullinax,  K. J. Oosterbaan,  G. Paran,  
 Alexander C. Paul,  Suranjan K. Paul,  F. Pavosevic,  Zheng Pei,  S. Prager,  
 E. I. Proynov,  E. Ramos,  B. Rana,  A. E. Rask,  A. Rettig,  R. M. Richard,  
 F. Rob,  E. Rossomme,  T. Scheele,  M. Scheurer,  M. Schneider,  
 N. Sergueev,  S. M. Sharada,  W. Skomorowski,  D. W. Small,  C. J. Stein,  
 Yu-Chuan Su,  E. J. Sundstrom,  Zhen Tao,  J. Thirman,  T. Tsuchimochi,  
 N. M. Tubman,  S. P. Veccham,  O. Vydrov,  J. Wenzel,  J. Witte,  A. Yamada,  
 Kun Yao,  S. Yeganeh,  S. R. Yost,  A. Zech,  Igor Ying Zhang,  Xing Zhang,  
 Yu Zhang,  D. Zuev,  A. Aspuru-Guzik,  A. T. Bell,  N. A. Besley,  
 K. B. Bravaya,  B. R. Brooks,  D. Casanova,  Jeng-Da Chai,  S. Coriani,  
 C. J. Cramer,  A. E. DePrince, III,  R. A. DiStasio Jr.,  A. Dreuw,  
 B. D. Dunietz,  T. R. Furlani,  W. A. Goddard III,  S. Grimme,  
 S. Hammes-Schiffer,  T. Head-Gordon,  W. J. Hehre,  Chao-Ping Hsu,  
 T.-C. Jagau,  Yousung Jung,  A. Klamt,  Jing Kong,  D. S. Lambrecht,  
 WanZhen Liang,  N. J. Mayhall,  C. W. McCurdy,  J. B. Neaton,  
 C. Ochsenfeld,  J. A. Parkhill,  R. Peverati,  V. A. Rassolov,  Yihan Shao,  
 L. V. Slipchenko,  T. Stauch,  R. P. Steele,  J. E. Subotnik,  
 A. J. W. Thom,  A. Tkatchenko,  D. G. Truhlar,  T. Van Voorhis,  
 T. A. Wesolowski,  K. B. Whaley,  H. L. Woodcock III,  P. M. Zimmerman,  
 S. Faraji,  P. M. W. Gill,  M. Head-Gordon,  J. M. Herbert,  A. I. Krylov

 Additional authors for Version 5.4.1: 
 S. Kotaru,  Shaozhi Li,  Xiangyuan Li,  F. Matz,  A. Molle,  Haisheng Ren,  
 Yingli Su,  Hung-Yi Tsai,  C. Utku,  Fang Wang

 Contributors to earlier versions of Q-Chem not listed above: 
 R. D. Adamson,  B. Austin,  R. Baer,  J. Baker,  G. J. O. Beran,  
 K. Brandhorst,  S. T. Brown,  E. F. C. Byrd,  A. K. Chakraborty,  
 G. K. L. Chan,  Chun-Min Chang,  Yunqing Chen,  C.-L. Cheng,  
 Siu Hung Chien,  D. M. Chipman,  D. L. Crittenden,  H. Dachsel,  
 R. J. Doerksen,  A. D. Dutoi,  R. G. Edgar,  J. Fosso-Tande,  
 L. Fusti-Molnar,  D. Ghosh,  A. Ghysels,  A. Golubeva-Zadorozhnaya,  
 J. Gonthier,  M. S. Gordon,  S. R. Gwaltney,  G. Hawkins,  J. E. Herr,  
 A. Heyden,  S. Hirata,  E. G. Hohenstein,  G. Kedziora,  F. J. Keil,  
 C. Kelley,  Jihan Kim,  R. A. King,  R. Z. Khaliullin,  P. P. Korambath,  
 W. Kurlancheek,  A. Laurent,  A. M. Lee,  M. S. Lee,  S. V. Levchenko,  
 Ching Yeh Lin,  D. Liotard,  E. Livshits,  R. C. Lochan,  I. Lotan,  
 L. A. Martinez-Martinez,  P. E. Maslen,  N. Nair,  D. P. O'Neill,  
 D. Neuhauser,  E. Neuscamman,  C. M. Oana,  R. Olivares-Amaya,  R. Olson,  
 T. M. Perrine,  B. Peters,  P. A. Pieniazek,  A. Prociuk,  Y. M. Rhee,  
 J. Ritchie,  M. A. Rohrdanz,  E. Rosta,  N. J. Russ,  H. F. Schaefer III,  
 M. W. Schmidt,  N. E. Schultz,  S. Sharma,  N. Shenvi,  C. D. Sherrill,  
 A. C. Simmonett,  A. Sodt,  T. Stein,  D. Stuck,  K. S. Thanthiriwatte,  
 V. Vanovschi,  L. Vogt,  Tao Wang,  A. Warshel,  M. A. Watson,  
 C. F. Williams,  Q. Wu,  X. Xu,  Jun Yang,  W. Zhang,  Yan Zhao

 Please cite Q-Chem as follows:
 Y. Shao et al., Mol. Phys. 113, 184-215 (2015)
 DOI: 10.1080/00268976.2014.952696

 Q-Chem 5.4.1 for Intel X86 EM64T Linux

 Parts of Q-Chem use Armadillo 9.800.1 (Horizon Scraper).
 http://arma.sourceforge.net/

 Q-Chem begins on Mon Jul 17 19:21:16 2023  

 Host: 
0

     Scratch files written to /scratch/ari.fischer/qChem1629181.hpc-mn1/qchem98186//
 Aug1521 |scratch|qcdevops|jenkins|workspace|build_RNUM 8249   
 Processing $rem in /usr/local/qchem-5.4.1/config/preferences:
 Processing $rem in /home/ari.fischer/.qchemrc:
 Symmetry turned off for PCM/SM12/SMD calculation


!!********************************************.
!!******************Warning*******************.
!!Desired Analytical derivatives not available.
!!Finite difference job might take a long time.
!!********************************************.
!!********************************************.


 2-order derivative to be evaluated numerically with 1-order analytical derivatives

 Checking the input file for inconsistencies... 	...done.

--------------------------------------------------------------
User input:
--------------------------------------------------------------
$molecule
0 2
C    1.2777911   -0.3060398   -0.4739894
O    2.0092673   -0.9429561   -1.4922058
C   -0.2154340   -0.2156908   -0.8457810
O   -0.7723751   -1.4875899   -1.0510245
O   -0.3852480    0.5433223   -1.9922977
O    1.8121165    0.9709684   -0.2357782
H    1.3853771   -0.8828487    0.4738621
H    1.8811285   -1.9202013   -1.3722899
H   -0.7985605   -1.9390882   -0.1669553
H   -1.0917685    1.4175331   -1.5284994
H    1.8995485    1.4246694   -1.1146290
O   -1.1157607    0.6192267    0.3096402
O   -1.5844474    1.6944947   -0.4615222
$end

$rem
BASIS = 6-311++G(2df,2p)
GUI = 2
JOB_TYPE = Frequency
METHOD = wB97M-V
SCF_ALGORITHM = DIIS_GDM
MAX_SCF_CYCLES = 400
SCF_CONVERGENCE = 6
THRESH = 11
SYMMETRY_IGNORE = 1
solvent_method = SMD
$end

--------------------------------------------------------------
 ----------------------------------------------------------------
             Standard Nuclear Orientation (Angstroms)
    I     Atom           X                Y                Z
 ----------------------------------------------------------------
    1      C       1.2777911000    -0.3060398000    -0.4739894000
    2      O       2.0092673000    -0.9429561000    -1.4922058000
    3      C      -0.2154340000    -0.2156908000    -0.8457810000
    4      O      -0.7723751000    -1.4875899000    -1.0510245000
    5      O      -0.3852480000     0.5433223000    -1.9922977000
    6      O       1.8121165000     0.9709684000    -0.2357782000
    7      H       1.3853771000    -0.8828487000     0.4738621000
    8      H       1.8811285000    -1.9202013000    -1.3722899000
    9      H      -0.7985605000    -1.9390882000    -0.1669553000
   10      H      -1.0917685000     1.4175331000    -1.5284994000
   11      H       1.8995485000     1.4246694000    -1.1146290000
   12      O      -1.1157607000     0.6192267000     0.3096402000
   13      O      -1.5844474000     1.6944947000    -0.4615222000
 ----------------------------------------------------------------
 Nuclear Repulsion Energy =         429.04497802 hartrees
 There are       33 alpha and       32 beta electrons
 Requested basis set is 6-311++G(2df,2p)
 There are 94 shells and 322 basis functions

 Total QAlloc Memory Limit 288000 MB
 Mega-Array Size       188 MB
 MEM_STATIC part       192 MB
 
 Citation of the SMD model:
 Marenich, A.V.; Cramer, C.J.; Truhlar, D.G.
 J. Phys. Chem. B 2009, 113, 6378-6396.
 iSolventCode=           1
 Solvent: water                                                           
 
 vradii
            1           2           3           4           5           6
    1   1.8500000   1.5200000   1.8500000   1.5200000   1.5200000   1.5200000
            7           8           9          10          11          12
    1   1.2000000   1.2000000   1.2000000   1.2000000   1.2000000   1.5200000
           13
    1   1.5200000
 Changing PCM_VDW_RADII to SMD_RADIUS
 Discretize the solute cavity surface with Lebedev spheres
	Using 110 Lebedev grid points for each H atom
	Using 194 Lebedev grid points for other atoms
	Atomic van der Waals radii will be scaled by 1.20
 Remove points where switching function is < 1.0e-08
 Keep 1110 surface tesserae and discard 992 interior tesserae
 Molecular Surface Area = 127.090 Angst**2

                       Distance Matrix (Angstroms)
             C (  1)   O (  2)   C (  3)   O (  4)   O (  5)   O (  6)
   O (  2)  1.406231
   C (  3)  1.541465  2.428184
   O (  4)  2.435613  2.868589  1.403580
   O (  5)  2.406735  2.862310  1.385438  2.271666
   O (  6)  1.404635  2.297953  2.427184  3.659062  2.845462
   H (  7)  1.114767  2.063559  2.179255  2.710514  3.354254  2.030353
   H (  8)  1.943316  0.992878  2.752843  2.707664  3.404383  3.107295
   H (  9)  2.659390  3.260746  1.941891  0.993033  3.108869  3.910090
   H ( 10)  3.114082  3.897390  1.975218  2.961374  1.215946  3.209844
   H ( 11)  1.947397  2.400053  2.690021  3.952781  2.601417  0.992909
   O ( 12)  2.683148  3.931013  1.686023  2.531402  2.416263  2.998945
   O ( 13)  3.492091  4.575286  2.381315  3.336561  2.259768  3.480100
             H (  7)   H (  8)   H (  9)   H ( 10)   H ( 11)   O ( 12)
   H (  8)  2.174890
   H (  9)  2.509158  2.938354
   H ( 10)  3.929053  4.472470  3.634100
   H ( 11)  2.848213  3.354831  4.415059  3.019821
   O ( 12)  2.922138  4.273047  2.621590  2.004152  3.430652
   O ( 13)  4.041967  5.089768  3.729251  1.207427  3.554938  1.403766

 
 A cutoff of  1.0D-11 yielded   4062 shell pairs
 There are     48016 function pairs (     60519 Cartesian)
 Smallest overlap matrix eigenvalue = 3.01E-05
 Guess from superposition of atomic densities
 Warning:  Energy on first SCF cycle will be non-variational
 SAD guess density has 65.000000 electrons

 -----------------------------------------------------------------------
  General SCF calculation program by
  Eric Jon Sundstrom, Paul Horn, Yuezhi Mao, Dmitri Zuev, Alec White,
  David Stuck, Shaama M.S., Shane Yost, Joonho Lee, David Small,
  Daniel Levine, Susi Lehtola, Hugh Burton, Evgeny Epifanovsky,
  Bang C. Huynh
 -----------------------------------------------------------------------
 Exchange:     0.1500 Hartree-Fock + 1.0000 wB97M-V + LR-HF
 Correlation:  1.0000 wB97M-V
 Using SG-2 standard quadrature grid
 Nonlocal Correlation:  VV10 with C = 0.0100 and b = 6.00 and scale = 1.00000
 Grid used for NLC:  SG-1 standard quadrature
 using 16 threads for integral computing
 -------------------------------------------------------
 OpenMP Integral computing Module                
 Release: version 1.0, May 2013, Q-Chem Inc. Pittsburgh 
 -------------------------------------------------------
 
 Citation of the SMD model:
 Marenich, A.V.; Cramer, C.J.; Truhlar, D.G.
 J. Phys. Chem. B 2009, 113, 6378-6396.
 iSolventCode=           1
 Solvent: water                                                           
 
 vradii
            1           2           3           4           5           6
    1   1.8500000   1.5200000   1.8500000   1.5200000   1.5200000   1.5200000
            7           8           9          10          11          12
    1   1.2000000   1.2000000   1.2000000   1.2000000   1.2000000   1.5200000
           13
    1   1.5200000
 -------------------------------------------------------
 OpenMP BLAS3 based DFT computing Module                
 Release: version 1.0, May 2013, Q-Chem Inc. Pittsburgh 
 -------------------------------------------------------
 A unrestricted SCF calculation will be
 performed using DIIS, GDM
 SCF converges when RMS gradient is below 1.0e-06
 ---------------------------------------
  Cycle       Energy         DIIS error
 ---------------------------------------
    1    -531.3673094206      1.28e-02  
    2    -530.2310494839      2.32e-03  Done DIIS. Switching to GDM
 ---------------------------------------
  Cycle       Energy        RMS Gradient
 ---------------------------------------
    1    -530.2310494839      7.50e-02   Descent step
    2    -530.4206700779      3.52e-02   Normal BFGS step
    3    -530.4462419453      4.17e-02   Normal BFGS step
    4    -530.4481632966      3.50e-02   Normal BFGS step
    5    -530.4516413321      1.36e-02   Normal BFGS step
    6    -530.4519213575      6.53e-03   Normal BFGS step
    7    -530.4521269314      3.65e-03   Normal BFGS step
    8    -530.4521685745      1.12e-03   Normal BFGS step
    9    -530.4521771826      6.55e-04   Normal BFGS step
   10    -530.4521802556      4.26e-04   Normal BFGS step
   11    -530.4521812821      3.34e-04   Normal BFGS step
   12    -530.4521817112      1.73e-04   Normal BFGS step
   13    -530.4521818334      7.38e-05   Normal BFGS step
   14    -530.4521818581      4.14e-05   Normal BFGS step
   15    -530.4521818669      3.75e-05   Normal BFGS step
   16    -530.4521818706      1.98e-05   Normal BFGS step
   17    -530.4521818719      6.80e-06   Normal BFGS step
   18    -530.4521818724      4.62e-06   Normal BFGS step
   19    -530.4521818726      2.87e-06   Normal BFGS step
   20    -530.4521818727      1.36e-06   Normal BFGS step
   21    -530.4521818729      8.80e-07  Convergence criterion met
 ---------------------------------------
 SCF time:   CPU 1199.38s  wall 81.00s 
<S^2> =          0.754979232
(3)  G-ENP(liq) elect-nuc-pol free energy of system     -530.452181873 a.u.
(4)  G-CDS(liq) cavity-dispersion-solvent structure 
     free energy                                                2.4613 kcal/mol
(6)  G-S(liq) free energy of system                     -530.448259558 a.u.
 SCF   energy in the final basis set =     -530.4482595580
 Total energy in the final basis set =     -530.4482595580
 
 --------------------------------------------------------------
 
                    Orbital Energies (a.u.)
 --------------------------------------------------------------
 
 Alpha MOs
 -- Occupied --
-19.4966 -19.4784 -19.3789 -19.3597 -19.3564 -19.3307 -10.5267 -10.4674
 -1.3276  -1.2220  -1.1955  -1.1405  -1.1226  -1.0404  -0.8391  -0.7357
 -0.7206  -0.6684  -0.6633  -0.6320  -0.6185  -0.6097  -0.5660  -0.5532
 -0.5105  -0.4938  -0.4841  -0.4681  -0.4591  -0.4371  -0.4268  -0.4202
 -0.3867
 -- Virtual --
  0.0274   0.0370   0.0511   0.0564   0.0633   0.0810   0.1017   0.1027
  0.1140   0.1222   0.1259   0.1364   0.1465   0.1557   0.1638   0.1946
  0.2139   0.2252   0.2271   0.2311   0.2422   0.2518   0.2672   0.2757
  0.2847   0.2871   0.3023   0.3046   0.3065   0.3245   0.3321   0.3368
  0.3397   0.3413   0.3489   0.3535   0.3574   0.3605   0.3776   0.3813
  0.3945   0.4016   0.4082   0.4257   0.4338   0.4563   0.4588   0.4812
  0.5107   0.5750   0.5880   0.5995   0.6211   0.6301   0.6575   0.6705
  0.6913   0.6993   0.7173   0.7570   0.7898   0.8099   0.8313   0.8399
  0.8670   0.8985   0.9452   0.9658   1.0124   1.0144   1.0312   1.0570
  1.0683   1.0839   1.0918   1.1065   1.1164   1.1228   1.1390   1.1523
  1.1710   1.1747   1.1895   1.1976   1.2041   1.2226   1.2332   1.2399
  1.2643   1.2755   1.2935   1.3079   1.3573   1.3690   1.3945   1.4106
  1.4255   1.4528   1.4633   1.4872   1.4914   1.5123   1.5372   1.5563
  1.5800   1.5979   1.6220   1.6464   1.6537   1.6786   1.7018   1.7164
  1.7665   1.8522   1.8809   1.8935   1.9078   1.9339   1.9753   2.0126
  2.0471   2.0682   2.1045   2.1298   2.1462   2.1640   2.2133   2.2242
  2.2832   2.3188   2.3326   2.3591   2.3847   2.4414   2.4509   2.4775
  2.4999   2.5627   2.5839   2.6196   2.7118   2.7204   2.7422   2.7854
  2.8988   2.9184   2.9987   3.0473   3.1384   3.1692   3.1957   3.2708
  3.3174   3.3530   3.3702   3.4272   3.4599   3.4849   3.5247   3.5457
  3.5820   3.6266   3.6398   3.6601   3.6992   3.7496   3.7905   3.7950
  3.8002   3.8260   3.8518   3.8727   3.8904   3.9008   3.9231   3.9467
  4.0465   4.0675   4.1005   4.1494   4.1581   4.2039   4.2094   4.2286
  4.2694   4.2938   4.3288   4.4031   4.4987   4.5294   4.5893   4.7001
  4.7763   4.7911   4.9189   5.0138   5.0655   5.0705   5.1170   5.1483
  5.1732   5.2115   5.2156   5.2282   5.2390   5.2532   5.2600   5.2608
  5.2790   5.2900   5.2962   5.3052   5.3292   5.3432   5.3520   5.3605
  5.3892   5.4018   5.4242   5.4385   5.4447   5.4692   5.5016   5.5064
  5.5338   5.5496   5.6057   5.6154   5.6346   5.6514   5.6931   5.7730
  5.8546   5.9108   5.9330   5.9439   5.9884   6.0180   6.0622   6.1036
  6.1195   6.1733   6.4276   6.5143   6.5301   6.7438   6.7954   6.8055
  6.8328   6.8441   7.0147   7.0462   7.0618   7.0714   7.0910   7.1074
  7.1438   7.1611   7.1914   7.2219   7.2647   7.2916   7.3051   7.3422
  7.3511   7.3974   7.4130   7.4552   7.4758   7.4839   7.5479   7.6057
  7.6826   7.7274   7.7338   7.7784   7.8415   7.8677   7.8982   7.9947
  8.0222  24.6020  24.7754  50.4017  50.4421  50.5416  50.5765  50.5868
 50.6910
 
 Beta MOs
 -- Occupied --
-19.4836 -19.4613 -19.3786 -19.3597 -19.3564 -19.3307 -10.5271 -10.4673
 -1.3004  -1.2202  -1.1947  -1.1404  -1.1214  -1.0016  -0.8371  -0.7343
 -0.7119  -0.6643  -0.6608  -0.6217  -0.6023  -0.5656  -0.5534  -0.5264
 -0.5087  -0.4882  -0.4796  -0.4633  -0.4330  -0.4229  -0.4201  -0.3875
 -- Virtual --
 -0.0887   0.0276   0.0390   0.0519   0.0574   0.0659   0.0858   0.1024
  0.1038   0.1196   0.1263   0.1277   0.1375   0.1470   0.1582   0.1649
  0.1971   0.2143   0.2266   0.2276   0.2325   0.2443   0.2539   0.2702
  0.2767   0.2869   0.2877   0.3045   0.3052   0.3080   0.3256   0.3325
  0.3375   0.3405   0.3418   0.3498   0.3552   0.3584   0.3615   0.3787
  0.3819   0.3952   0.4028   0.4094   0.4262   0.4343   0.4566   0.4592
  0.4825   0.5115   0.5755   0.5885   0.6005   0.6215   0.6309   0.6582
  0.6706   0.6926   0.7002   0.7179   0.7573   0.7908   0.8106   0.8335
  0.8407   0.8672   0.9009   0.9467   0.9667   1.0139   1.0160   1.0353
  1.0585   1.0700   1.0868   1.0992   1.1156   1.1212   1.1321   1.1428
  1.1588   1.1734   1.1810   1.1941   1.2009   1.2091   1.2258   1.2343
  1.2500   1.2683   1.2782   1.2957   1.3096   1.3622   1.3707   1.3953
  1.4120   1.4285   1.4566   1.4702   1.4878   1.4932   1.5143   1.5384
  1.5600   1.5837   1.6032   1.6371   1.6531   1.6600   1.6865   1.7110
  1.7218   1.7718   1.8563   1.8822   1.9013   1.9097   1.9361   1.9860
  2.0220   2.0482   2.0725   2.1118   2.1344   2.1600   2.1658   2.2193
  2.2315   2.2852   2.3192   2.3352   2.3614   2.3864   2.4420   2.4528
  2.4793   2.5036   2.5641   2.5886   2.6211   2.7126   2.7299   2.7433
  2.7860   2.8990   2.9182   2.9990   3.0472   3.1384   3.1691   3.1955
  3.2706   3.3169   3.3533   3.3701   3.4272   3.4598   3.4850   3.5247
  3.5478   3.5820   3.6264   3.6389   3.6607   3.6991   3.7492   3.7904
  3.7945   3.8005   3.8264   3.8518   3.8720   3.8905   3.9009   3.9240
  3.9466   4.0469   4.0669   4.1007   4.1499   4.1576   4.2034   4.2095
  4.2285   4.2697   4.2938   4.3291   4.4041   4.4993   4.5649   4.6027
  4.7136   4.7814   4.8162   4.9355   5.0637   5.0927   5.1213   5.1596
  5.1884   5.2005   5.2178   5.2235   5.2396   5.2462   5.2570   5.2660
  5.2716   5.2824   5.2954   5.3022   5.3141   5.3329   5.3548   5.3605
  5.3761   5.3943   5.4084   5.4278   5.4454   5.4627   5.4746   5.5065
  5.5138   5.5399   5.5539   5.6081   5.6189   5.6376   5.6568   5.6963
  5.7794   5.8553   5.9119   5.9342   5.9443   5.9911   6.0187   6.0988
  6.1062   6.1249   6.1778   6.4291   6.5160   6.5378   6.7451   6.8123
  6.8587   6.8738   6.8977   7.0378   7.0533   7.0686   7.0874   7.1023
  7.1284   7.1504   7.1629   7.2002   7.2417   7.2881   7.3061   7.3295
  7.3509   7.3577   7.4020   7.4243   7.4682   7.4850   7.5078   7.5539
  7.6063   7.6877   7.7277   7.7394   7.7795   7.8463   7.8722   7.9103
  7.9972   8.0361  24.6018  24.7754  50.4146  50.4525  50.5417  50.5765
 50.5868  50.6912
 --------------------------------------------------------------
 
          Ground-State Mulliken Net Atomic Charges

     Atom                 Charge (a.u.)    Spin (a.u.)
  --------------------------------------------------------
      1 C                     0.101706       0.003051
      2 O                    -0.421427       0.000613
      3 C                     0.017832      -0.015171
      4 O                    -0.376203       0.008498
      5 O                    -0.589298       0.002664
      6 O                    -0.428543      -0.002041
      7 H                     0.277079      -0.000094
      8 H                     0.354943       0.000144
      9 H                     0.357554      -0.000881
     10 H                     0.386474      -0.006598
     11 H                     0.350257       0.000343
     12 O                    -0.025861       0.419857
     13 O                    -0.004513       0.589614
  --------------------------------------------------------
  Sum of atomic charges =     0.000000
  Sum of spin   charges =     1.000000

 -----------------------------------------------------------------
                    Cartesian Multipole Moments
 -----------------------------------------------------------------
    Charge (ESU x 10^10)
                 0.0000
    Dipole Moment (Debye)
         X      -0.4145      Y      -3.0056      Z       3.2283
       Tot       4.4303
    Quadrupole Moments (Debye-Ang)
        XX     -51.6549     XY      -3.2105     YY     -36.4464
        XZ      -1.1319     YZ      -5.8124     ZZ     -56.7789
    Octopole Moments (Debye-Ang^2)
       XXX     -36.9343    XXY      -7.4664    XYY       2.2133
       YYY     -27.0493    XXZ      38.0954    XYZ       3.0316
       YYZ      27.4270    XZZ      -7.2397    YZZ       2.5157
       ZZZ     137.9681
    Hexadecapole Moments (Debye-Ang^3)
      XXXX    -580.0142   XXXY      46.3252   XXYY    -120.1134
      XYYY      35.2226   YYYY    -276.7201   XXXZ      43.1941
      XXYZ     -24.1849   XYYZ      -7.7194   YYYZ     -28.4663
      XXZZ    -154.1705   XYZZ      11.6425   YYZZ    -102.0620
      XZZZ      36.7937   YZZZ     -29.2189   ZZZZ    -423.1523
 -----------------------------------------------------------------
 Calculating analytic gradient of the SCF energy
 Gradient of CDS energy
            1           2           3           4           5           6
    1   0.0029662  -0.0015668  -0.0020581   0.0012997   0.0006779  -0.0013528
    2   0.0016538   0.0013634  -0.0000975   0.0030595  -0.0029637  -0.0028830
    3  -0.0010460   0.0018332  -0.0046617   0.0003861   0.0041524  -0.0005565
            7           8           9          10          11          12
    1  -0.0000678   0.0002381  -0.0002052  -0.0001128   0.0002326  -0.0000448
    2  -0.0000796  -0.0004162  -0.0004346   0.0003047   0.0004112   0.0001451
    3   0.0001234  -0.0001602   0.0001693  -0.0002950  -0.0001531  -0.0000592
           13
    1  -0.0000063
    2  -0.0000631
    3   0.0002674
 Gradient of SCF Energy
            1           2           3           4           5           6
    1  -0.0009678   0.0146159   0.0050962  -0.0021127   0.0068704   0.0008563
    2   0.0064386   0.0394051  -0.0026927  -0.0090410   0.0037442  -0.0043742
    3  -0.0528084  -0.0095698   0.0838538  -0.0681315  -0.0505936   0.0315299
            7           8           9          10          11          12
    1   0.0017168  -0.0068127   0.0004866  -0.0246037   0.0045941   0.0100039
    2  -0.0193780  -0.0410986  -0.0156294   0.0345442   0.0132979  -0.0541240
    3   0.0209939   0.0113653   0.0424870   0.0094685  -0.0241257   0.0790977
           13
    1  -0.0097432
    2   0.0489079
    3  -0.0735672
 Max gradient component =       8.385E-02
 RMS gradient           =       3.386E-02
 Computing fast CPCM-SWIG gradient
 Updating gradient with PCM contributions...
 -- total gradient after adding PCM contribution --
---------------------------------------------------
  Atom         X              Y              Z     
---------------------------------------------------
   1      -0.003620      -0.001612      -0.040022
   2       0.012669       0.021464      -0.003684
   3       0.005205      -0.003699       0.078999
   4       0.000807      -0.020365      -0.041840
   5       0.005574       0.009786      -0.043062
   6      -0.000700      -0.002330       0.024496
   7       0.002703      -0.008723       0.010642
   8      -0.004276      -0.024091       0.004961
   9      -0.001874      -0.004537       0.019946
  10      -0.023083       0.031521       0.008318
  11       0.004448       0.009409      -0.020321
  12       0.010381      -0.054324       0.076672
  13      -0.008233       0.047501      -0.075107
---------------------------------------------------
 Number of fixed atoms: 0
 Gradient time:  CPU 139.34 s  wall 11.74 s
 ######################################################
 ######################################################
 # Starting finite difference calculation for IDERIV  #
 Finite diff step size:  1.88973e-03 a.u.
 ----------------------------------------------------------------
             Standard Nuclear Orientation (Angstroms)
    I     Atom           X                Y                Z
 ----------------------------------------------------------------
    1      C       1.2787911000    -0.3060398000    -0.4739894000
    2      O       2.0092673000    -0.9429561000    -1.4922058000
    3      C      -0.2154340000    -0.2156908000    -0.8457810000
    4      O      -0.7723751000    -1.4875899000    -1.0510245000
    5      O      -0.3852480000     0.5433223000    -1.9922977000
    6      O       1.8121165000     0.9709684000    -0.2357782000
    7      H       1.3853771000    -0.8828487000     0.4738621000
    8      H       1.8811285000    -1.9202013000    -1.3722899000
    9      H      -0.7985605000    -1.9390882000    -0.1669553000
   10      H      -1.0917685000     1.4175331000    -1.5284994000
   11      H       1.8995485000     1.4246694000    -1.1146290000
   12      O      -1.1157607000     0.6192267000     0.3096402000
   13      O      -1.5844474000     1.6944947000    -0.4615222000
 ----------------------------------------------------------------
 Nuclear Repulsion Energy =         429.03747915 hartrees
 There are       33 alpha and       32 beta electrons
 Discretize the solute cavity surface with Lebedev spheres
	Using 110 Lebedev grid points for each H atom
	Using 194 Lebedev grid points for other atoms
	Atomic van der Waals radii will be scaled by 1.20
 Remove points where switching function is < 1.0e-08
 Keep 1109 surface tesserae and discard 993 interior tesserae
 Molecular Surface Area = 127.088 Angst**2

                       Distance Matrix (Angstroms)
             C (  1)   O (  2)   C (  3)   O (  4)   O (  5)   O (  6)
   O (  2)  1.405711
   C (  3)  1.542433  2.428184
   O (  4)  2.436455  2.868589  1.403580
   O (  5)  2.407426  2.862310  1.385438  2.271666
   O (  6)  1.404254  2.297953  2.427184  3.659062  2.845462
   H (  7)  1.114671  2.063559  2.179255  2.710514  3.354254  2.030353
   H (  8)  1.943006  0.992878  2.752843  2.707664  3.404383  3.107295
   H (  9)  2.660170  3.260746  1.941891  0.993033  3.108869  3.910090
   H ( 10)  3.114843  3.897390  1.975218  2.961374  1.215946  3.209844
   H ( 11)  1.947078  2.400053  2.690021  3.952781  2.601417  0.992909
   O ( 12)  2.684040  3.931013  1.686023  2.531402  2.416263  2.998945
   O ( 13)  3.492911  4.575286  2.381315  3.336561  2.259768  3.480100
             H (  7)   H (  8)   H (  9)   H ( 10)   H ( 11)   O ( 12)
   H (  8)  2.174890
   H (  9)  2.509158  2.938354
   H ( 10)  3.929053  4.472470  3.634100
   H ( 11)  2.848213  3.354831  4.415059  3.019821
   O ( 12)  2.922138  4.273047  2.621590  2.004152  3.430652
   O ( 13)  4.041967  5.089768  3.729251  1.207427  3.554938  1.403766

 
 Requested basis set is 6-311++G(2df,2p)
 There are 94 shells and 322 basis functions
 A cutoff of  1.0D-11 yielded   4062 shell pairs
 There are     48016 function pairs (     60519 Cartesian)
 Smallest overlap matrix eigenvalue = 3.02E-05
 Guess MOs from SCF MO coefficient file

 -----------------------------------------------------------------------
  General SCF calculation program by
  Eric Jon Sundstrom, Paul Horn, Yuezhi Mao, Dmitri Zuev, Alec White,
  David Stuck, Shaama M.S., Shane Yost, Joonho Lee, David Small,
  Daniel Levine, Susi Lehtola, Hugh Burton, Evgeny Epifanovsky,
  Bang C. Huynh
 -----------------------------------------------------------------------
 Exchange:     0.1500 Hartree-Fock + 1.0000 wB97M-V + LR-HF
 Correlation:  1.0000 wB97M-V
 Using SG-2 standard quadrature grid
 Nonlocal Correlation:  VV10 with C = 0.0100 and b = 6.00 and scale = 1.00000
 Grid used for NLC:  SG-1 standard quadrature
 
 Citation of the SMD model:
 Marenich, A.V.; Cramer, C.J.; Truhlar, D.G.
 J. Phys. Chem. B 2009, 113, 6378-6396.
 iSolventCode=           1
 Solvent: water                                                           
 
 vradii
            1           2           3           4           5           6
    1   1.8500000   1.5200000   1.8500000   1.5200000   1.5200000   1.5200000
            7           8           9          10          11          12
    1   1.2000000   1.2000000   1.2000000   1.2000000   1.2000000   1.5200000
           13
    1   1.5200000
 -------------------------------------------------------
 OpenMP BLAS3 based DFT computing Module                
 Release: version 1.0, May 2013, Q-Chem Inc. Pittsburgh 
 -------------------------------------------------------
 A unrestricted SCF calculation will be
 performed using Roothaan-Hall, DIIS, GDM
 SCF converges when RMS gradient is below 1.0e-06
 ---------------------------------------
  Cycle       Energy         DIIS error
 ---------------------------------------
    1    -530.4035955070      3.29e-04  Roothaan Step
 ---------------------------------------
  Cycle       Energy         DIIS error
 ---------------------------------------
    1    -530.4413476898      3.89e-04  
    2    -530.4476725669      3.58e-04  Done DIIS. Switching to GDM
 ---------------------------------------
  Cycle       Energy        RMS Gradient
 ---------------------------------------
    1    -530.4476725669      1.86e-02   Normal BFGS step
    2    -530.4455410393      3.34e-02  Line search: overstep
    3    -530.4519125531      5.23e-03   Normal BFGS step
    4    -530.4520724917      6.72e-03   Normal BFGS step
    5    -530.4521788322      1.51e-03   Normal BFGS step
    6    -530.4521914859      2.69e-04   Normal BFGS step
    7    -530.4521930425      1.25e-04   Normal BFGS step
    8    -530.4521934098      1.10e-04   Normal BFGS step
    9    -530.4521934824      7.40e-05   Normal BFGS step
   10    -530.4521935046      4.10e-05   Normal BFGS step
   11    -530.4521935157      1.71e-05   Normal BFGS step
   12    -530.4521935174      1.17e-05   Normal BFGS step
   13    -530.4521935181      8.86e-06   Normal BFGS step
   14    -530.4521935183      4.48e-06   Normal BFGS step
   15    -530.4521935185      1.77e-06   Normal BFGS step
   16    -530.4521935186      1.07e-06   Normal BFGS step
   17    -530.4521935187      6.12e-07  Convergence criterion met
 ---------------------------------------
 SCF time:   CPU 1048.21s  wall 71.00s 
<S^2> =          0.754979192
(3)  G-ENP(liq) elect-nuc-pol free energy of system     -530.452193519 a.u.
(4)  G-CDS(liq) cavity-dispersion-solvent structure 
     free energy                                                2.4649 kcal/mol
(6)  G-S(liq) free energy of system                     -530.448265508 a.u.
 SCF   energy in the final basis set =     -530.4482655075
 Total energy in the final basis set =     -530.4482655075
 
 --------------------------------------------------------------
 
                    Orbital Energies (a.u.)
 --------------------------------------------------------------
 
 Alpha MOs
 -- Occupied --
-19.4966 -19.4783 -19.3788 -19.3597 -19.3564 -19.3307 -10.5267 -10.4674
 -1.3275  -1.2220  -1.1956  -1.1406  -1.1225  -1.0403  -0.8389  -0.7357
 -0.7206  -0.6684  -0.6635  -0.6320  -0.6185  -0.6097  -0.5660  -0.5532
 -0.5105  -0.4937  -0.4841  -0.4681  -0.4591  -0.4371  -0.4269  -0.4202
 -0.3865
 -- Virtual --
  0.0274   0.0370   0.0511   0.0564   0.0633   0.0810   0.1017   0.1027
  0.1141   0.1222   0.1259   0.1363   0.1465   0.1557   0.1638   0.1946
  0.2139   0.2253   0.2271   0.2311   0.2422   0.2518   0.2672   0.2758
  0.2847   0.2871   0.3023   0.3046   0.3064   0.3245   0.3322   0.3367
  0.3397   0.3413   0.3489   0.3535   0.3573   0.3604   0.3776   0.3813
  0.3945   0.4016   0.4082   0.4257   0.4339   0.4562   0.4588   0.4812
  0.5107   0.5750   0.5880   0.5995   0.6211   0.6301   0.6576   0.6705
  0.6913   0.6993   0.7174   0.7570   0.7897   0.8100   0.8313   0.8399
  0.8670   0.8984   0.9452   0.9659   1.0124   1.0143   1.0313   1.0571
  1.0684   1.0839   1.0917   1.1065   1.1164   1.1228   1.1390   1.1523
  1.1709   1.1747   1.1895   1.1977   1.2041   1.2226   1.2333   1.2400
  1.2643   1.2755   1.2934   1.3079   1.3571   1.3689   1.3943   1.4105
  1.4254   1.4527   1.4632   1.4872   1.4914   1.5121   1.5373   1.5562
  1.5800   1.5978   1.6220   1.6463   1.6538   1.6785   1.7018   1.7165
  1.7665   1.8523   1.8809   1.8936   1.9077   1.9340   1.9754   2.0127
  2.0469   2.0683   2.1044   2.1300   2.1462   2.1640   2.2133   2.2243
  2.2833   2.3189   2.3327   2.3591   2.3848   2.4413   2.4510   2.4773
  2.5000   2.5628   2.5839   2.6195   2.7118   2.7205   2.7421   2.7854
  2.8988   2.9184   2.9988   3.0472   3.1379   3.1694   3.1959   3.2707
  3.3177   3.3531   3.3700   3.4272   3.4604   3.4847   3.5249   3.5457
  3.5818   3.6267   3.6398   3.6600   3.6992   3.7497   3.7907   3.7950
  3.8002   3.8260   3.8519   3.8727   3.8904   3.9009   3.9232   3.9467
  4.0463   4.0668   4.0995   4.1494   4.1581   4.2038   4.2095   4.2286
  4.2690   4.2932   4.3287   4.4033   4.4981   4.5294   4.5893   4.7000
  4.7759   4.7910   4.9189   5.0138   5.0655   5.0705   5.1170   5.1482
  5.1732   5.2115   5.2158   5.2282   5.2389   5.2532   5.2599   5.2608
  5.2790   5.2900   5.2963   5.3052   5.3292   5.3431   5.3520   5.3605
  5.3892   5.4018   5.4243   5.4385   5.4447   5.4692   5.5015   5.5064
  5.5339   5.5495   5.6058   5.6154   5.6347   5.6515   5.6932   5.7729
  5.8549   5.9109   5.9333   5.9443   5.9888   6.0182   6.0622   6.1043
  6.1199   6.1737   6.4275   6.5148   6.5302   6.7450   6.7954   6.8055
  6.8328   6.8441   7.0147   7.0462   7.0617   7.0714   7.0910   7.1074
  7.1438   7.1613   7.1915   7.2219   7.2647   7.2917   7.3051   7.3423
  7.3511   7.3976   7.4130   7.4552   7.4758   7.4839   7.5479   7.6058
  7.6825   7.7275   7.7337   7.7786   7.8415   7.8677   7.8982   7.9946
  8.0223  24.6025  24.7752  50.4018  50.4421  50.5417  50.5766  50.5868
 50.6911
 
 Beta MOs
 -- Occupied --
-19.4836 -19.4613 -19.3786 -19.3597 -19.3564 -19.3307 -10.5271 -10.4673
 -1.3003  -1.2202  -1.1947  -1.1405  -1.1213  -1.0016  -0.8369  -0.7343
 -0.7118  -0.6642  -0.6609  -0.6217  -0.6023  -0.5656  -0.5534  -0.5264
 -0.5087  -0.4882  -0.4796  -0.4633  -0.4331  -0.4229  -0.4200  -0.3873
 -- Virtual --
 -0.0887   0.0276   0.0390   0.0519   0.0574   0.0659   0.0859   0.1024
  0.1038   0.1195   0.1263   0.1277   0.1375   0.1470   0.1582   0.1649
  0.1971   0.2143   0.2267   0.2277   0.2325   0.2443   0.2539   0.2702
  0.2767   0.2869   0.2877   0.3045   0.3052   0.3080   0.3256   0.3325
  0.3374   0.3405   0.3418   0.3498   0.3552   0.3583   0.3615   0.3787
  0.3819   0.3953   0.4027   0.4094   0.4262   0.4343   0.4566   0.4592
  0.4825   0.5115   0.5755   0.5884   0.6005   0.6215   0.6309   0.6582
  0.6706   0.6926   0.7002   0.7179   0.7573   0.7908   0.8106   0.8335
  0.8407   0.8672   0.9009   0.9467   0.9668   1.0139   1.0159   1.0353
  1.0585   1.0701   1.0869   1.0991   1.1157   1.1212   1.1320   1.1428
  1.1588   1.1733   1.1810   1.1942   1.2009   1.2092   1.2258   1.2343
  1.2501   1.2683   1.2781   1.2957   1.3096   1.3621   1.3707   1.3952
  1.4120   1.4284   1.4566   1.4701   1.4878   1.4932   1.5142   1.5384
  1.5599   1.5837   1.6032   1.6371   1.6531   1.6601   1.6864   1.7111
  1.7218   1.7718   1.8563   1.8821   1.9015   1.9097   1.9361   1.9861
  2.0220   2.0479   2.0725   2.1118   2.1345   2.1601   2.1659   2.2193
  2.2315   2.2853   2.3194   2.3353   2.3614   2.3865   2.4420   2.4529
  2.4791   2.5037   2.5642   2.5886   2.6210   2.7127   2.7299   2.7433
  2.7859   2.8990   2.9182   2.9991   3.0471   3.1379   3.1694   3.1956
  3.2706   3.3173   3.3534   3.3699   3.4272   3.4603   3.4848   3.5248
  3.5478   3.5818   3.6264   3.6389   3.6605   3.6991   3.7493   3.7906
  3.7945   3.8005   3.8264   3.8519   3.8719   3.8906   3.9010   3.9241
  3.9465   4.0467   4.0662   4.0996   4.1498   4.1576   4.2034   4.2095
  4.2285   4.2693   4.2932   4.3290   4.4043   4.4987   4.5649   4.6027
  4.7135   4.7809   4.8162   4.9355   5.0637   5.0927   5.1213   5.1596
  5.1884   5.2005   5.2180   5.2235   5.2397   5.2462   5.2570   5.2660
  5.2714   5.2824   5.2954   5.3023   5.3141   5.3329   5.3548   5.3604
  5.3761   5.3944   5.4084   5.4279   5.4453   5.4627   5.4746   5.5063
  5.5138   5.5400   5.5539   5.6082   5.6189   5.6377   5.6569   5.6964
  5.7793   5.8556   5.9120   5.9346   5.9447   5.9916   6.0190   6.0989
  6.1069   6.1253   6.1781   6.4290   6.5165   6.5379   6.7463   6.8123
  6.8587   6.8738   6.8977   7.0378   7.0533   7.0687   7.0875   7.1023
  7.1284   7.1504   7.1630   7.2003   7.2417   7.2880   7.3061   7.3295
  7.3511   7.3578   7.4021   7.4243   7.4682   7.4850   7.5078   7.5539
  7.6064   7.6876   7.7278   7.7394   7.7798   7.8463   7.8723   7.9103
  7.9972   8.0361  24.6023  24.7752  50.4146  50.4525  50.5418  50.5767
 50.5869  50.6912
 --------------------------------------------------------------
 
          Ground-State Mulliken Net Atomic Charges

     Atom                 Charge (a.u.)    Spin (a.u.)
  --------------------------------------------------------
      1 C                     0.101313       0.003064
      2 O                    -0.421192       0.000620
      3 C                     0.018096      -0.015164
      4 O                    -0.376271       0.008501
      5 O                    -0.589339       0.002670
      6 O                    -0.428339      -0.002042
      7 H                     0.277033      -0.000093
      8 H                     0.354983       0.000143
      9 H                     0.357532      -0.000879
     10 H                     0.386455      -0.006599
     11 H                     0.350268       0.000343
     12 O                    -0.025908       0.419905
     13 O                    -0.004630       0.589529
  --------------------------------------------------------
  Sum of atomic charges =     0.000000
  Sum of spin   charges =     1.000000

 -----------------------------------------------------------------
                    Cartesian Multipole Moments
 -----------------------------------------------------------------
    Charge (ESU x 10^10)
                 0.0000
    Dipole Moment (Debye)
         X      -0.4085      Y      -3.0064      Z       3.2274
       Tot       4.4296
    Quadrupole Moments (Debye-Ang)
        XX     -51.6467     XY      -3.2106     YY     -36.4463
        XZ      -1.1380     YZ      -5.8100     ZZ     -56.7783
    Octopole Moments (Debye-Ang^2)
       XXX     -36.9183    XXY      -7.4717    XYY       2.2191
       YYY     -27.0531    XXZ      38.0865    XYZ       3.0355
       YYZ      27.4249    XZZ      -7.2352    YZZ       2.5115
       ZZZ     137.9666
    Hexadecapole Moments (Debye-Ang^3)
      XXXX    -580.0443   XXXY      46.3251   XXYY    -120.1247
      XYYY      35.2253   YYYY    -276.7184   XXXZ      43.1755
      XXYZ     -24.1774   XYYZ      -7.7288   YYYZ     -28.4576
      XXZZ    -154.1752   XYZZ      11.6398   YYZZ    -102.0582
      XZZZ      36.7803   YZZZ     -29.2066   ZZZZ    -423.1505
 -----------------------------------------------------------------
 Calculating analytic gradient of the SCF energy
 Gradient of CDS energy
            1           2           3           4           5           6
    1   0.0030620  -0.0016285  -0.0020585   0.0012997   0.0006778  -0.0013842
    2   0.0016777   0.0014187  -0.0000975   0.0030595  -0.0029636  -0.0029623
    3  -0.0011188   0.0019207  -0.0046617   0.0003861   0.0041525  -0.0005714
            7           8           9          10          11          12
    1  -0.0000692   0.0002378  -0.0002051  -0.0001128   0.0002323  -0.0000448
    2  -0.0000793  -0.0004161  -0.0004346   0.0003047   0.0004109   0.0001450
    3   0.0001231  -0.0001599   0.0001693  -0.0002950  -0.0001531  -0.0000592
           13
    1  -0.0000064
    2  -0.0000631
    3   0.0002674
 Gradient of SCF Energy
            1           2           3           4           5           6
    1  -0.0000023   0.0143372   0.0047813  -0.0021192   0.0068610   0.0006325
    2   0.0065059   0.0395282  -0.0026761  -0.0090385   0.0037500  -0.0045816
    3  -0.0528838  -0.0093436   0.0837668  -0.0681249  -0.0505959   0.0315270
            7           8           9          10          11          12
    1   0.0015750  -0.0068111   0.0004855  -0.0245998   0.0045933   0.0100057
    2  -0.0193502  -0.0411149  -0.0156311   0.0345446   0.0132869  -0.0541123
    3   0.0209492   0.0113589   0.0424839   0.0094666  -0.0241348   0.0790916
           13
    1  -0.0097391
    2   0.0488891
    3  -0.0735611
 Max gradient component =       8.377E-02
 RMS gradient           =       3.385E-02
 Computing fast CPCM-SWIG gradient
 Updating gradient with PCM contributions...
 -- total gradient after adding PCM contribution --
---------------------------------------------------
  Atom         X              Y              Z     
---------------------------------------------------
   1      -0.002678      -0.001554      -0.040091
   2       0.012399       0.021579      -0.003461
   3       0.004884      -0.003679       0.078909
   4       0.000802      -0.020364      -0.041839
   5       0.005572       0.009791      -0.043066
   6      -0.000912      -0.002531       0.024483
   7       0.002579      -0.008697       0.010597
   8      -0.004279      -0.024097       0.004957
   9      -0.001877      -0.004541       0.019948
  10      -0.023083       0.031524       0.008315
  11       0.004441       0.009397      -0.020322
  12       0.010384      -0.054316       0.076673
  13      -0.008232       0.047488      -0.075103
---------------------------------------------------
 Number of fixed atoms: 0
 Gradient time:  CPU 138.86 s  wall 11.80 s
 ----------------------------------------------------------------
             Standard Nuclear Orientation (Angstroms)
    I     Atom           X                Y                Z
 ----------------------------------------------------------------
    1      C       1.2767911000    -0.3060398000    -0.4739894000
    2      O       2.0092673000    -0.9429561000    -1.4922058000
    3      C      -0.2154340000    -0.2156908000    -0.8457810000
    4      O      -0.7723751000    -1.4875899000    -1.0510245000
    5      O      -0.3852480000     0.5433223000    -1.9922977000
    6      O       1.8121165000     0.9709684000    -0.2357782000
    7      H       1.3853771000    -0.8828487000     0.4738621000
    8      H       1.8811285000    -1.9202013000    -1.3722899000
    9      H      -0.7985605000    -1.9390882000    -0.1669553000
   10      H      -1.0917685000     1.4175331000    -1.5284994000
   11      H       1.8995485000     1.4246694000    -1.1146290000
   12      O      -1.1157607000     0.6192267000     0.3096402000
   13      O      -1.5844474000     1.6944947000    -0.4615222000
 ----------------------------------------------------------------
 Nuclear Repulsion Energy =         429.05248199 hartrees
 There are       33 alpha and       32 beta electrons
 Discretize the solute cavity surface with Lebedev spheres
	Using 110 Lebedev grid points for each H atom
	Using 194 Lebedev grid points for other atoms
	Atomic van der Waals radii will be scaled by 1.20
 Remove points where switching function is < 1.0e-08
 Keep 1110 surface tesserae and discard 992 interior tesserae
 Molecular Surface Area = 127.092 Angst**2

                       Distance Matrix (Angstroms)
             C (  1)   O (  2)   C (  3)   O (  4)   O (  5)   O (  6)
   O (  2)  1.406751
   C (  3)  1.540496  2.428184
   O (  4)  2.434772  2.868589  1.403580
   O (  5)  2.406044  2.862310  1.385438  2.271666
   O (  6)  1.405015  2.297953  2.427184  3.659062  2.845462
   H (  7)  1.114864  2.063559  2.179255  2.710514  3.354254  2.030353
   H (  8)  1.943627  0.992878  2.752843  2.707664  3.404383  3.107295
   H (  9)  2.658609  3.260746  1.941891  0.993033  3.108869  3.910090
   H ( 10)  3.113321  3.897390  1.975218  2.961374  1.215946  3.209844
   H ( 11)  1.947717  2.400053  2.690021  3.952781  2.601417  0.992909
   O ( 12)  2.682256  3.931013  1.686023  2.531402  2.416263  2.998945
   O ( 13)  3.491272  4.575286  2.381315  3.336561  2.259768  3.480100
             H (  7)   H (  8)   H (  9)   H ( 10)   H ( 11)   O ( 12)
   H (  8)  2.174890
   H (  9)  2.509158  2.938354
   H ( 10)  3.929053  4.472470  3.634100
   H ( 11)  2.848213  3.354831  4.415059  3.019821
   O ( 12)  2.922138  4.273047  2.621590  2.004152  3.430652
   O ( 13)  4.041967  5.089768  3.729251  1.207427  3.554938  1.403766

 
 Requested basis set is 6-311++G(2df,2p)
 There are 94 shells and 322 basis functions
 A cutoff of  1.0D-11 yielded   4062 shell pairs
 There are     48016 function pairs (     60519 Cartesian)
 Smallest overlap matrix eigenvalue = 3.00E-05
 Guess MOs from SCF MO coefficient file

 -----------------------------------------------------------------------
  General SCF calculation program by
  Eric Jon Sundstrom, Paul Horn, Yuezhi Mao, Dmitri Zuev, Alec White,
  David Stuck, Shaama M.S., Shane Yost, Joonho Lee, David Small,
  Daniel Levine, Susi Lehtola, Hugh Burton, Evgeny Epifanovsky,
  Bang C. Huynh
 -----------------------------------------------------------------------
 Exchange:     0.1500 Hartree-Fock + 1.0000 wB97M-V + LR-HF
 Correlation:  1.0000 wB97M-V
 Using SG-2 standard quadrature grid
 Nonlocal Correlation:  VV10 with C = 0.0100 and b = 6.00 and scale = 1.00000
 Grid used for NLC:  SG-1 standard quadrature
 
 Citation of the SMD model:
 Marenich, A.V.; Cramer, C.J.; Truhlar, D.G.
 J. Phys. Chem. B 2009, 113, 6378-6396.
 iSolventCode=           1
 Solvent: water                                                           
 
 vradii
            1           2           3           4           5           6
    1   1.8500000   1.5200000   1.8500000   1.5200000   1.5200000   1.5200000
            7           8           9          10          11          12
    1   1.2000000   1.2000000   1.2000000   1.2000000   1.2000000   1.5200000
           13
    1   1.5200000
 -------------------------------------------------------
 OpenMP BLAS3 based DFT computing Module                
 Release: version 1.0, May 2013, Q-Chem Inc. Pittsburgh 
 -------------------------------------------------------
 A unrestricted SCF calculation will be
 performed using Roothaan-Hall, DIIS, GDM
 SCF converges when RMS gradient is below 1.0e-06
 ---------------------------------------
  Cycle       Energy         DIIS error
 ---------------------------------------
    1    -530.4035602263      3.29e-04  Roothaan Step
 ---------------------------------------
  Cycle       Energy         DIIS error
 ---------------------------------------
    1    -530.4412886217      3.90e-04  
    2    -530.4476056916      3.60e-04  Done DIIS. Switching to GDM
 ---------------------------------------
  Cycle       Energy        RMS Gradient
 ---------------------------------------
    1    -530.4476056916      1.87e-02   Normal BFGS step
    2    -530.4454568998      3.34e-02  Line search: overstep
    3    -530.4518872758      5.23e-03   Normal BFGS step
    4    -530.4520469197      6.77e-03   Normal BFGS step
    5    -530.4521539859      1.49e-03   Normal BFGS step
    6    -530.4521665838      2.66e-04   Normal BFGS step
    7    -530.4521681505      1.32e-04   Normal BFGS step
    8    -530.4521685175      1.12e-04   Normal BFGS step
    9    -530.4521685903      7.20e-05   Normal BFGS step
   10    -530.4521686119      3.96e-05   Normal BFGS step
   11    -530.4521686224      1.64e-05   Normal BFGS step
   12    -530.4521686239      1.08e-05   Normal BFGS step
   13    -530.4521686245      8.25e-06   Normal BFGS step
   14    -530.4521686247      4.16e-06   Normal BFGS step
   15    -530.4521686249      1.59e-06   Normal BFGS step
   16    -530.4521686252      9.44e-07  Convergence criterion met
 ---------------------------------------
 SCF time:   CPU 1004.81s  wall 68.00s 
<S^2> =          0.754979302
(3)  G-ENP(liq) elect-nuc-pol free energy of system     -530.452168625 a.u.
(4)  G-CDS(liq) cavity-dispersion-solvent structure 
     free energy                                                2.4578 kcal/mol
(6)  G-S(liq) free energy of system                     -530.448251824 a.u.
 SCF   energy in the final basis set =     -530.4482518236
 Total energy in the final basis set =     -530.4482518236
 
 --------------------------------------------------------------
 
                    Orbital Energies (a.u.)
 --------------------------------------------------------------
 
 Alpha MOs
 -- Occupied --
-19.4967 -19.4784 -19.3789 -19.3597 -19.3564 -19.3308 -10.5268 -10.4674
 -1.3276  -1.2220  -1.1955  -1.1404  -1.1226  -1.0404  -0.8393  -0.7357
 -0.7207  -0.6685  -0.6631  -0.6321  -0.6185  -0.6097  -0.5659  -0.5532
 -0.5105  -0.4938  -0.4840  -0.4681  -0.4591  -0.4371  -0.4268  -0.4202
 -0.3868
 -- Virtual --
  0.0274   0.0370   0.0511   0.0564   0.0633   0.0810   0.1016   0.1027
  0.1140   0.1222   0.1259   0.1364   0.1465   0.1557   0.1638   0.1946
  0.2138   0.2251   0.2271   0.2310   0.2422   0.2518   0.2672   0.2757
  0.2847   0.2871   0.3022   0.3046   0.3065   0.3244   0.3321   0.3369
  0.3397   0.3414   0.3489   0.3535   0.3574   0.3605   0.3776   0.3813
  0.3945   0.4016   0.4082   0.4257   0.4338   0.4564   0.4588   0.4812
  0.5107   0.5750   0.5880   0.5994   0.6211   0.6301   0.6575   0.6704
  0.6913   0.6993   0.7173   0.7570   0.7898   0.8099   0.8314   0.8399
  0.8671   0.8985   0.9452   0.9658   1.0124   1.0145   1.0312   1.0570
  1.0682   1.0839   1.0918   1.1065   1.1164   1.1228   1.1390   1.1524
  1.1710   1.1746   1.1894   1.1976   1.2041   1.2226   1.2331   1.2399
  1.2642   1.2756   1.2936   1.3079   1.3574   1.3690   1.3946   1.4106
  1.4256   1.4528   1.4634   1.4873   1.4914   1.5124   1.5372   1.5564
  1.5801   1.5980   1.6220   1.6465   1.6536   1.6787   1.7017   1.7163
  1.7665   1.8522   1.8810   1.8933   1.9078   1.9338   1.9753   2.0125
  2.0474   2.0681   2.1045   2.1297   2.1462   2.1639   2.2132   2.2242
  2.2831   2.3186   2.3326   2.3591   2.3846   2.4415   2.4509   2.4777
  2.4998   2.5626   2.5839   2.6197   2.7118   2.7204   2.7422   2.7855
  2.8987   2.9185   2.9986   3.0473   3.1389   3.1689   3.1955   3.2709
  3.3170   3.3529   3.3704   3.4272   3.4595   3.4852   3.5245   3.5457
  3.5821   3.6266   3.6397   3.6603   3.6993   3.7495   3.7904   3.7949
  3.8002   3.8260   3.8517   3.8728   3.8903   3.9008   3.9230   3.9468
  4.0467   4.0681   4.1016   4.1495   4.1581   4.2039   4.2094   4.2286
  4.2698   4.2943   4.3289   4.4029   4.4993   4.5294   4.5894   4.7002
  4.7767   4.7913   4.9189   5.0137   5.0655   5.0705   5.1170   5.1483
  5.1732   5.2115   5.2154   5.2281   5.2390   5.2532   5.2600   5.2609
  5.2791   5.2900   5.2961   5.3052   5.3292   5.3432   5.3520   5.3605
  5.3892   5.4019   5.4241   5.4386   5.4446   5.4692   5.5018   5.5064
  5.5338   5.5496   5.6056   5.6154   5.6346   5.6514   5.6930   5.7730
  5.8543   5.9108   5.9327   5.9435   5.9879   6.0177   6.0622   6.1027
  6.1191   6.1729   6.4277   6.5139   6.5301   6.7427   6.7953   6.8055
  6.8328   6.8441   7.0147   7.0461   7.0618   7.0713   7.0911   7.1075
  7.1438   7.1610   7.1913   7.2219   7.2646   7.2916   7.3051   7.3421
  7.3510   7.3973   7.4130   7.4552   7.4758   7.4839   7.5478   7.6055
  7.6827   7.7272   7.7338   7.7782   7.8415   7.8676   7.8982   7.9947
  8.0222  24.6015  24.7756  50.4017  50.4421  50.5416  50.5763  50.5867
 50.6910
 
 Beta MOs
 -- Occupied --
-19.4836 -19.4613 -19.3787 -19.3596 -19.3564 -19.3307 -10.5272 -10.4673
 -1.3004  -1.2201  -1.1946  -1.1402  -1.1214  -1.0017  -0.8373  -0.7343
 -0.7119  -0.6643  -0.6607  -0.6217  -0.6023  -0.5656  -0.5534  -0.5264
 -0.5087  -0.4882  -0.4795  -0.4633  -0.4330  -0.4229  -0.4201  -0.3877
 -- Virtual --
 -0.0887   0.0276   0.0390   0.0519   0.0574   0.0659   0.0858   0.1024
  0.1038   0.1196   0.1262   0.1277   0.1375   0.1470   0.1582   0.1649
  0.1970   0.2143   0.2265   0.2276   0.2325   0.2443   0.2539   0.2702
  0.2766   0.2868   0.2877   0.3044   0.3052   0.3081   0.3256   0.3325
  0.3375   0.3405   0.3418   0.3498   0.3552   0.3584   0.3616   0.3787
  0.3819   0.3952   0.4028   0.4093   0.4262   0.4342   0.4567   0.4592
  0.4825   0.5115   0.5755   0.5885   0.6005   0.6215   0.6309   0.6581
  0.6705   0.6926   0.7002   0.7178   0.7573   0.7909   0.8106   0.8336
  0.8407   0.8673   0.9010   0.9467   0.9667   1.0139   1.0160   1.0352
  1.0584   1.0699   1.0868   1.0993   1.1156   1.1211   1.1321   1.1428
  1.1589   1.1734   1.1809   1.1940   1.2009   1.2091   1.2258   1.2342
  1.2500   1.2682   1.2782   1.2958   1.3096   1.3624   1.3708   1.3955
  1.4121   1.4286   1.4567   1.4703   1.4878   1.4932   1.5144   1.5384
  1.5601   1.5838   1.6033   1.6371   1.6532   1.6600   1.6866   1.7110
  1.7217   1.7718   1.8563   1.8822   1.9012   1.9098   1.9360   1.9860
  2.0219   2.0485   2.0724   2.1119   2.1342   2.1600   2.1658   2.2192
  2.2314   2.2851   2.3191   2.3352   2.3614   2.3863   2.4421   2.4527
  2.4794   2.5036   2.5640   2.5886   2.6212   2.7126   2.7298   2.7433
  2.7860   2.8989   2.9183   2.9990   3.0472   3.1389   3.1689   3.1953
  3.2707   3.3166   3.3532   3.3703   3.4272   3.4594   3.4853   3.5245
  3.5478   3.5821   3.6264   3.6389   3.6608   3.6992   3.7492   3.7903
  3.7945   3.8004   3.8264   3.8517   3.8720   3.8905   3.9009   3.9240
  3.9466   4.0471   4.0675   4.1017   4.1499   4.1576   4.2035   4.2094
  4.2285   4.2701   4.2943   4.3292   4.4039   4.4998   4.5649   4.6027
  4.7137   4.7818   4.8163   4.9355   5.0636   5.0927   5.1213   5.1596
  5.1883   5.2005   5.2177   5.2235   5.2396   5.2462   5.2570   5.2660
  5.2717   5.2825   5.2954   5.3022   5.3141   5.3329   5.3548   5.3605
  5.3761   5.3943   5.4085   5.4277   5.4454   5.4627   5.4746   5.5066
  5.5138   5.5399   5.5539   5.6080   5.6188   5.6376   5.6567   5.6962
  5.7794   5.8550   5.9119   5.9339   5.9440   5.9907   6.0184   6.0986
  6.1054   6.1245   6.1774   6.4292   6.5155   6.5378   6.7439   6.8123
  6.8587   6.8737   6.8976   7.0378   7.0533   7.0686   7.0874   7.1023
  7.1285   7.1504   7.1627   7.2001   7.2416   7.2881   7.3061   7.3294
  7.3508   7.3577   7.4019   7.4243   7.4682   7.4850   7.5078   7.5538
  7.6062   7.6878   7.7275   7.7394   7.7793   7.8462   7.8722   7.9103
  7.9973   8.0361  24.6013  24.7756  50.4146  50.4525  50.5417  50.5764
 50.5868  50.6911
 --------------------------------------------------------------
 
          Ground-State Mulliken Net Atomic Charges

     Atom                 Charge (a.u.)    Spin (a.u.)
  --------------------------------------------------------
      1 C                     0.102098       0.003038
      2 O                    -0.421660       0.000606
      3 C                     0.017566      -0.015177
      4 O                    -0.376135       0.008495
      5 O                    -0.589257       0.002659
      6 O                    -0.428747      -0.002040
      7 H                     0.277126      -0.000094
      8 H                     0.354903       0.000144
      9 H                     0.357576      -0.000883
     10 H                     0.386494      -0.006598
     11 H                     0.350247       0.000343
     12 O                    -0.025812       0.419814
     13 O                    -0.004398       0.589695
  --------------------------------------------------------
  Sum of atomic charges =     0.000000
  Sum of spin   charges =     1.000000

 -----------------------------------------------------------------
                    Cartesian Multipole Moments
 -----------------------------------------------------------------
    Charge (ESU x 10^10)
                 0.0000
    Dipole Moment (Debye)
         X      -0.4206      Y      -3.0048      Z       3.2291
       Tot       4.4309
    Quadrupole Moments (Debye-Ang)
        XX     -51.6630     XY      -3.2104     YY     -36.4465
        XZ      -1.1259     YZ      -5.8147     ZZ     -56.7794
    Octopole Moments (Debye-Ang^2)
       XXX     -36.9501    XXY      -7.4611    XYY       2.2075
       YYY     -27.0455    XXZ      38.1042    XYZ       3.0277
       YYZ      27.4290    XZZ      -7.2443    YZZ       2.5199
       ZZZ     137.9697
    Hexadecapole Moments (Debye-Ang^3)
      XXXX    -579.9841   XXXY      46.3255   XXYY    -120.1023
      XYYY      35.2198   YYYY    -276.7219   XXXZ      43.2124
      XXYZ     -24.1923   XYYZ      -7.7100   YYYZ     -28.4749
      XXZZ    -154.1657   XYZZ      11.6451   YYZZ    -102.0658
      XZZZ      36.8070   YZZZ     -29.2312   ZZZZ    -423.1541
 -----------------------------------------------------------------
 Calculating analytic gradient of the SCF energy
 Gradient of CDS energy
            1           2           3           4           5           6
    1   0.0028685  -0.0015038  -0.0020577   0.0012997   0.0006780  -0.0013207
    2   0.0016294   0.0013072  -0.0000975   0.0030595  -0.0029638  -0.0028022
    3  -0.0009721   0.0017441  -0.0046616   0.0003860   0.0041523  -0.0005413
            7           8           9          10          11          12
    1  -0.0000664   0.0002385  -0.0002052  -0.0001128   0.0002328  -0.0000448
    2  -0.0000799  -0.0004163  -0.0004345   0.0003047   0.0004114   0.0001452
    3   0.0001237  -0.0001605   0.0001693  -0.0002950  -0.0001531  -0.0000593
           13
    1  -0.0000062
    2  -0.0000631
    3   0.0002674
 Gradient of SCF Energy
            1           2           3           4           5           6
    1  -0.0019375   0.0148955   0.0054129  -0.0021061   0.0068798   0.0010807
    2   0.0063711   0.0392814  -0.0027093  -0.0090435   0.0037384  -0.0041656
    3  -0.0527332  -0.0097970   0.0839411  -0.0681381  -0.0505911   0.0315331
            7           8           9          10          11          12
    1   0.0018587  -0.0068143   0.0004876  -0.0246077   0.0045949   0.0100024
    2  -0.0194060  -0.0410823  -0.0156277   0.0345436   0.0133088  -0.0541357
    3   0.0210389   0.0113717   0.0424903   0.0094701  -0.0241166   0.0791039
           13
    1  -0.0097471
    2   0.0489269
    3  -0.0735731
 Max gradient component =       8.394E-02
 RMS gradient           =       3.386E-02
 Computing fast CPCM-SWIG gradient
 Updating gradient with PCM contributions...
 -- total gradient after adding PCM contribution --
---------------------------------------------------
  Atom         X              Y              Z     
---------------------------------------------------
   1      -0.004567      -0.001671      -0.039954
   2       0.012941       0.021347      -0.003907
   3       0.005527      -0.003719       0.079089
   4       0.000812      -0.020365      -0.041841
   5       0.005576       0.009781      -0.043057
   6      -0.000488      -0.002129       0.024509
   7       0.002827      -0.008749       0.010688
   8      -0.004273      -0.024085       0.004966
   9      -0.001871      -0.004533       0.019945
  10      -0.023084       0.031519       0.008321
  11       0.004454       0.009421      -0.020319
  12       0.010380      -0.054332       0.076672
  13      -0.008235       0.047515      -0.075110
---------------------------------------------------
 Number of fixed atoms: 0
 Gradient time:  CPU 138.89 s  wall 11.78 s
 ----------------------------------------------------------------
             Standard Nuclear Orientation (Angstroms)
    I     Atom           X                Y                Z
 ----------------------------------------------------------------
    1      C       1.2777911000    -0.3050398000    -0.4739894000
    2      O       2.0092673000    -0.9429561000    -1.4922058000
    3      C      -0.2154340000    -0.2156908000    -0.8457810000
    4      O      -0.7723751000    -1.4875899000    -1.0510245000
    5      O      -0.3852480000     0.5433223000    -1.9922977000
    6      O       1.8121165000     0.9709684000    -0.2357782000
    7      H       1.3853771000    -0.8828487000     0.4738621000
    8      H       1.8811285000    -1.9202013000    -1.3722899000
    9      H      -0.7985605000    -1.9390882000    -0.1669553000
   10      H      -1.0917685000     1.4175331000    -1.5284994000
   11      H       1.8995485000     1.4246694000    -1.1146290000
   12      O      -1.1157607000     0.6192267000     0.3096402000
   13      O      -1.5844474000     1.6944947000    -0.4615222000
 ----------------------------------------------------------------
 Nuclear Repulsion Energy =         429.05184561 hartrees
 There are       33 alpha and       32 beta electrons
 Discretize the solute cavity surface with Lebedev spheres
	Using 110 Lebedev grid points for each H atom
	Using 194 Lebedev grid points for other atoms
	Atomic van der Waals radii will be scaled by 1.20
 Remove points where switching function is < 1.0e-08
 Keep 1110 surface tesserae and discard 992 interior tesserae
 Molecular Surface Area = 127.089 Angst**2

                       Distance Matrix (Angstroms)
             C (  1)   O (  2)   C (  3)   O (  4)   O (  5)   O (  6)
   O (  2)  1.406684
   C (  3)  1.541406  2.428184
   O (  4)  2.436098  2.868589  1.403580
   O (  5)  2.406383  2.862310  1.385438  2.271666
   O (  6)  1.403725  2.297953  2.427184  3.659062  2.845462
   H (  7)  1.115285  2.063559  2.179255  2.710514  3.354254  2.030353
   H (  8)  1.944147  0.992878  2.752843  2.707664  3.404383  3.107295
   H (  9)  2.660004  3.260746  1.941891  0.993033  3.108869  3.910090
   H ( 10)  3.113529  3.897390  1.975218  2.961374  1.215946  3.209844
   H ( 11)  1.946508  2.400053  2.690021  3.952781  2.601417  0.992909
   O ( 12)  2.682803  3.931013  1.686023  2.531402  2.416263  2.998945
   O ( 13)  3.491519  4.575286  2.381315  3.336561  2.259768  3.480100
             H (  7)   H (  8)   H (  9)   H ( 10)   H ( 11)   O ( 12)
   H (  8)  2.174890
   H (  9)  2.509158  2.938354
   H ( 10)  3.929053  4.472470  3.634100
   H ( 11)  2.848213  3.354831  4.415059  3.019821
   O ( 12)  2.922138  4.273047  2.621590  2.004152  3.430652
   O ( 13)  4.041967  5.089768  3.729251  1.207427  3.554938  1.403766

 
 Requested basis set is 6-311++G(2df,2p)
 There are 94 shells and 322 basis functions
 A cutoff of  1.0D-11 yielded   4062 shell pairs
 There are     48016 function pairs (     60519 Cartesian)
 Smallest overlap matrix eigenvalue = 3.01E-05
 Guess MOs from SCF MO coefficient file

 -----------------------------------------------------------------------
  General SCF calculation program by
  Eric Jon Sundstrom, Paul Horn, Yuezhi Mao, Dmitri Zuev, Alec White,
  David Stuck, Shaama M.S., Shane Yost, Joonho Lee, David Small,
  Daniel Levine, Susi Lehtola, Hugh Burton, Evgeny Epifanovsky,
  Bang C. Huynh
 -----------------------------------------------------------------------
 Exchange:     0.1500 Hartree-Fock + 1.0000 wB97M-V + LR-HF
 Correlation:  1.0000 wB97M-V
 Using SG-2 standard quadrature grid
 Nonlocal Correlation:  VV10 with C = 0.0100 and b = 6.00 and scale = 1.00000
 Grid used for NLC:  SG-1 standard quadrature
 
 Citation of the SMD model:
 Marenich, A.V.; Cramer, C.J.; Truhlar, D.G.
 J. Phys. Chem. B 2009, 113, 6378-6396.
 iSolventCode=           1
 Solvent: water                                                           
 
 vradii
            1           2           3           4           5           6
    1   1.8500000   1.5200000   1.8500000   1.5200000   1.5200000   1.5200000
            7           8           9          10          11          12
    1   1.2000000   1.2000000   1.2000000   1.2000000   1.2000000   1.5200000
           13
    1   1.5200000
 -------------------------------------------------------
 OpenMP BLAS3 based DFT computing Module                
 Release: version 1.0, May 2013, Q-Chem Inc. Pittsburgh 
 -------------------------------------------------------
 A unrestricted SCF calculation will be
 performed using Roothaan-Hall, DIIS, GDM
 SCF converges when RMS gradient is below 1.0e-06
 ---------------------------------------
  Cycle       Energy         DIIS error
 ---------------------------------------
    1    -530.4035835506      3.29e-04  Roothaan Step
 ---------------------------------------
  Cycle       Energy         DIIS error
 ---------------------------------------
    1    -530.4413403722      3.89e-04  
    2    -530.4476619693      3.58e-04  Done DIIS. Switching to GDM
 ---------------------------------------
  Cycle       Energy        RMS Gradient
 ---------------------------------------
    1    -530.4476619693      1.86e-02   Normal BFGS step
    2    -530.4455244430      3.34e-02  Line search: overstep
    3    -530.4519061118      5.23e-03   Normal BFGS step
    4    -530.4520659772      6.72e-03   Normal BFGS step
    5    -530.4521724422      1.50e-03   Normal BFGS step
    6    -530.4521850790      2.69e-04   Normal BFGS step
    7    -530.4521866394      1.25e-04   Normal BFGS step
    8    -530.4521870050      1.10e-04   Normal BFGS step
    9    -530.4521870777      7.45e-05   Normal BFGS step
   10    -530.4521870999      4.15e-05   Normal BFGS step
   11    -530.4521871111      1.71e-05   Normal BFGS step
   12    -530.4521871128      1.18e-05   Normal BFGS step
   13    -530.4521871135      8.99e-06   Normal BFGS step
   14    -530.4521871137      4.55e-06   Normal BFGS step
   15    -530.4521871139      1.81e-06   Normal BFGS step
   16    -530.4521871140      1.10e-06   Normal BFGS step
   17    -530.4521871141      6.25e-07  Convergence criterion met
 ---------------------------------------
 SCF time:   CPU 1044.60s  wall 70.00s 
<S^2> =          0.754979205
(3)  G-ENP(liq) elect-nuc-pol free energy of system     -530.452187114 a.u.
(4)  G-CDS(liq) cavity-dispersion-solvent structure 
     free energy                                                2.4634 kcal/mol
(6)  G-S(liq) free energy of system                     -530.448261449 a.u.
 SCF   energy in the final basis set =     -530.4482614488
 Total energy in the final basis set =     -530.4482614488
 
 --------------------------------------------------------------
 
                    Orbital Energies (a.u.)
 --------------------------------------------------------------
 
 Alpha MOs
 -- Occupied --
-19.4966 -19.4784 -19.3789 -19.3596 -19.3565 -19.3307 -10.5267 -10.4674
 -1.3275  -1.2220  -1.1956  -1.1405  -1.1226  -1.0404  -0.8391  -0.7357
 -0.7206  -0.6685  -0.6633  -0.6320  -0.6185  -0.6097  -0.5660  -0.5531
 -0.5106  -0.4938  -0.4839  -0.4681  -0.4591  -0.4371  -0.4268  -0.4202
 -0.3866
 -- Virtual --
  0.0274   0.0370   0.0511   0.0564   0.0633   0.0810   0.1017   0.1027
  0.1140   0.1222   0.1259   0.1364   0.1465   0.1557   0.1638   0.1946
  0.2138   0.2252   0.2271   0.2311   0.2422   0.2519   0.2672   0.2758
  0.2847   0.2871   0.3023   0.3046   0.3065   0.3244   0.3321   0.3368
  0.3397   0.3413   0.3489   0.3535   0.3574   0.3605   0.3776   0.3814
  0.3945   0.4016   0.4083   0.4257   0.4338   0.4563   0.4589   0.4811
  0.5107   0.5750   0.5880   0.5994   0.6211   0.6301   0.6576   0.6704
  0.6913   0.6993   0.7174   0.7570   0.7898   0.8099   0.8313   0.8399
  0.8670   0.8985   0.9452   0.9658   1.0124   1.0144   1.0313   1.0570
  1.0683   1.0839   1.0918   1.1065   1.1164   1.1228   1.1390   1.1523
  1.1710   1.1746   1.1894   1.1976   1.2041   1.2226   1.2332   1.2399
  1.2643   1.2756   1.2935   1.3079   1.3572   1.3689   1.3945   1.4107
  1.4255   1.4528   1.4633   1.4872   1.4914   1.5122   1.5373   1.5564
  1.5801   1.5978   1.6220   1.6463   1.6539   1.6786   1.7018   1.7164
  1.7665   1.8522   1.8809   1.8935   1.9078   1.9339   1.9754   2.0126
  2.0472   2.0682   2.1044   2.1299   2.1462   2.1641   2.2134   2.2244
  2.2832   2.3189   2.3325   2.3591   2.3847   2.4415   2.4511   2.4775
  2.5001   2.5627   2.5840   2.6197   2.7119   2.7204   2.7423   2.7855
  2.8992   2.9186   2.9987   3.0472   3.1382   3.1691   3.1958   3.2710
  3.3171   3.3530   3.3702   3.4272   3.4600   3.4849   3.5249   3.5458
  3.5822   3.6267   3.6399   3.6599   3.6992   3.7495   3.7905   3.7948
  3.8001   3.8259   3.8518   3.8726   3.8905   3.9008   3.9231   3.9467
  4.0465   4.0675   4.1007   4.1494   4.1580   4.2040   4.2094   4.2286
  4.2692   4.2938   4.3289   4.4025   4.4981   4.5294   4.5894   4.7002
  4.7762   4.7912   4.9189   5.0138   5.0655   5.0705   5.1170   5.1482
  5.1732   5.2114   5.2154   5.2282   5.2391   5.2532   5.2599   5.2608
  5.2790   5.2899   5.2958   5.3053   5.3292   5.3432   5.3520   5.3605
  5.3894   5.4019   5.4241   5.4385   5.4446   5.4692   5.5015   5.5063
  5.5341   5.5495   5.6056   5.6154   5.6346   5.6514   5.6934   5.7731
  5.8542   5.9109   5.9331   5.9446   5.9881   6.0186   6.0622   6.1044
  6.1196   6.1735   6.4276   6.5143   6.5302   6.7445   6.7955   6.8055
  6.8328   6.8441   7.0147   7.0462   7.0618   7.0714   7.0910   7.1075
  7.1438   7.1612   7.1915   7.2218   7.2646   7.2917   7.3050   7.3424
  7.3509   7.3976   7.4130   7.4553   7.4758   7.4839   7.5479   7.6059
  7.6827   7.7273   7.7337   7.7787   7.8414   7.8678   7.8982   7.9946
  8.0222  24.6020  24.7756  50.4018  50.4421  50.5416  50.5767  50.5867
 50.6911
 
 Beta MOs
 -- Occupied --
-19.4836 -19.4613 -19.3787 -19.3596 -19.3565 -19.3307 -10.5271 -10.4673
 -1.3004  -1.2202  -1.1947  -1.1404  -1.1214  -1.0016  -0.8371  -0.7343
 -0.7119  -0.6643  -0.6608  -0.6217  -0.6023  -0.5656  -0.5534  -0.5264
 -0.5087  -0.4882  -0.4795  -0.4633  -0.4330  -0.4229  -0.4201  -0.3875
 -- Virtual --
 -0.0887   0.0276   0.0390   0.0519   0.0574   0.0659   0.0859   0.1024
  0.1038   0.1195   0.1263   0.1277   0.1375   0.1470   0.1582   0.1649
  0.1971   0.2142   0.2266   0.2277   0.2325   0.2443   0.2539   0.2702
  0.2767   0.2869   0.2877   0.3045   0.3053   0.3080   0.3256   0.3324
  0.3375   0.3405   0.3418   0.3498   0.3552   0.3584   0.3615   0.3787
  0.3820   0.3953   0.4028   0.4094   0.4263   0.4342   0.4566   0.4593
  0.4825   0.5116   0.5755   0.5885   0.6005   0.6215   0.6309   0.6582
  0.6706   0.6926   0.7002   0.7179   0.7572   0.7909   0.8106   0.8335
  0.8407   0.8672   0.9010   0.9466   0.9667   1.0139   1.0160   1.0353
  1.0584   1.0700   1.0868   1.0992   1.1157   1.1212   1.1321   1.1428
  1.1588   1.1734   1.1809   1.1940   1.2009   1.2091   1.2258   1.2343
  1.2500   1.2683   1.2782   1.2957   1.3096   1.3622   1.3707   1.3953
  1.4121   1.4285   1.4566   1.4703   1.4877   1.4932   1.5142   1.5384
  1.5600   1.5838   1.6032   1.6370   1.6531   1.6602   1.6865   1.7110
  1.7218   1.7717   1.8563   1.8822   1.9014   1.9097   1.9361   1.9861
  2.0220   2.0482   2.0725   2.1118   2.1344   2.1601   2.1659   2.2194
  2.2316   2.2852   2.3194   2.3351   2.3614   2.3864   2.4421   2.4530
  2.4793   2.5038   2.5641   2.5887   2.6212   2.7127   2.7298   2.7435
  2.7860   2.8994   2.9184   2.9990   3.0471   3.1382   3.1691   3.1956
  3.2709   3.3167   3.3533   3.3702   3.4272   3.4599   3.4850   3.5248
  3.5479   3.5822   3.6264   3.6390   3.6604   3.6991   3.7492   3.7904
  3.7944   3.8004   3.8263   3.8519   3.8719   3.8907   3.9009   3.9240
  3.9465   4.0470   4.0669   4.1008   4.1498   4.1575   4.2036   4.2095
  4.2285   4.2695   4.2938   4.3292   4.4035   4.4986   4.5649   4.6027
  4.7137   4.7813   4.8163   4.9355   5.0637   5.0927   5.1214   5.1596
  5.1884   5.2005   5.2178   5.2233   5.2398   5.2462   5.2571   5.2660
  5.2715   5.2824   5.2951   5.3022   5.3141   5.3330   5.3548   5.3605
  5.3761   5.3945   5.4085   5.4277   5.4453   5.4627   5.4747   5.5062
  5.5137   5.5402   5.5538   5.6080   5.6189   5.6376   5.6568   5.6966
  5.7795   5.8549   5.9120   5.9343   5.9451   5.9909   6.0193   6.0989
  6.1069   6.1251   6.1779   6.4291   6.5159   6.5378   6.7458   6.8124
  6.8587   6.8738   6.8977   7.0377   7.0533   7.0687   7.0874   7.1023
  7.1284   7.1504   7.1629   7.2003   7.2416   7.2881   7.3061   7.3295
  7.3509   7.3577   7.4022   7.4243   7.4683   7.4850   7.5078   7.5539
  7.6066   7.6877   7.7277   7.7394   7.7799   7.8462   7.8724   7.9103
  7.9972   8.0361  24.6018  24.7756  50.4146  50.4525  50.5417  50.5768
 50.5867  50.6912
 --------------------------------------------------------------
 
          Ground-State Mulliken Net Atomic Charges

     Atom                 Charge (a.u.)    Spin (a.u.)
  --------------------------------------------------------
      1 C                     0.101769       0.003051
      2 O                    -0.421845       0.000614
      3 C                     0.017833      -0.015171
      4 O                    -0.376174       0.008497
      5 O                    -0.589279       0.002673
      6 O                    -0.428029      -0.002041
      7 H                     0.276867      -0.000094
      8 H                     0.354941       0.000143
      9 H                     0.357534      -0.000879
     10 H                     0.386486      -0.006599
     11 H                     0.350291       0.000344
     12 O                    -0.025883       0.419864
     13 O                    -0.004512       0.589598
  --------------------------------------------------------
  Sum of atomic charges =     0.000000
  Sum of spin   charges =     1.000000

 -----------------------------------------------------------------
                    Cartesian Multipole Moments
 -----------------------------------------------------------------
    Charge (ESU x 10^10)
                 0.0000
    Dipole Moment (Debye)
         X      -0.4141      Y      -2.9992      Z       3.2301
       Tot       4.4272
    Quadrupole Moments (Debye-Ang)
        XX     -51.6547     XY      -3.1966     YY     -36.4460
        XZ      -1.1278     YZ      -5.8155     ZZ     -56.7851
    Octopole Moments (Debye-Ang^2)
       XXX     -36.9334    XXY      -7.4459    XYY       2.2138
       YYY     -27.0513    XXZ      38.1067    XYZ       3.0226
       YYZ      27.4295    XZZ      -7.2498    YZZ       2.5191
       ZZZ     137.9828
    Hexadecapole Moments (Debye-Ang^3)
      XXXX    -580.0150   XXXY      46.3759   XXYY    -120.1081
      XYYY      35.2362   YYYY    -276.6993   XXXZ      43.2268
      XXYZ     -24.1988   XYYZ      -7.7131   YYYZ     -28.4642
      XXZZ    -154.1977   XYZZ      11.6571   YYZZ    -102.0647
      XZZZ      36.8189   YZZZ     -29.2232   ZZZZ    -423.1985
 -----------------------------------------------------------------
 Calculating analytic gradient of the SCF energy
 Gradient of CDS energy
            1           2           3           4           5           6
    1   0.0029884  -0.0015109  -0.0020581   0.0012996   0.0006780  -0.0014309
    2   0.0018909   0.0013158  -0.0000976   0.0030595  -0.0029638  -0.0030698
    3  -0.0009323   0.0017554  -0.0046617   0.0003860   0.0041523  -0.0005913
            7           8           9          10          11          12
    1  -0.0000672   0.0002383  -0.0002050  -0.0001128   0.0002321  -0.0000451
    2  -0.0000809  -0.0004164  -0.0004346   0.0003047   0.0004103   0.0001449
    3   0.0001232  -0.0001603   0.0001693  -0.0002950  -0.0001536  -0.0000594
           13
    1  -0.0000065
    2  -0.0000631
    3   0.0002674
 Gradient of SCF Energy
            1           2           3           4           5           6
    1  -0.0009126   0.0146790   0.0051190  -0.0021746   0.0069022   0.0006588
    2   0.0076866   0.0391494  -0.0027905  -0.0090818   0.0037212  -0.0049288
    3  -0.0528432  -0.0096631   0.0838839  -0.0681528  -0.0505665   0.0315452
            7           8           9          10          11          12
    1   0.0017523  -0.0067647   0.0004804  -0.0245974   0.0045809   0.0100205
    2  -0.0195828  -0.0411243  -0.0156265   0.0345474   0.0132538  -0.0541307
    3   0.0211498   0.0113043   0.0424820   0.0094715  -0.0241397   0.0790967
           13
    1  -0.0097439
    2   0.0489070
    3  -0.0735680
 Max gradient component =       8.388E-02
 RMS gradient           =       3.387E-02
 Computing fast CPCM-SWIG gradient
 Updating gradient with PCM contributions...
 -- total gradient after adding PCM contribution --
---------------------------------------------------
  Atom         X              Y              Z     
---------------------------------------------------
   1      -0.003563      -0.000390      -0.040069
   2       0.012735       0.021230      -0.003779
   3       0.005221      -0.003796       0.079022
   4       0.000743      -0.020397      -0.041863
   5       0.005608       0.009771      -0.043028
   6      -0.000892      -0.002860       0.024495
   7       0.002737      -0.008929       0.010820
   8      -0.004229      -0.024132       0.004901
   9      -0.001877      -0.004537       0.019944
  10      -0.023080       0.031521       0.008320
  11       0.004432       0.009349      -0.020325
  12       0.010397      -0.054327       0.076669
  13      -0.008233       0.047498      -0.075106
---------------------------------------------------
 Number of fixed atoms: 0
 Gradient time:  CPU 143.45 s  wall 12.14 s
 ----------------------------------------------------------------
             Standard Nuclear Orientation (Angstroms)
    I     Atom           X                Y                Z
 ----------------------------------------------------------------
    1      C       1.2777911000    -0.3070398000    -0.4739894000
    2      O       2.0092673000    -0.9429561000    -1.4922058000
    3      C      -0.2154340000    -0.2156908000    -0.8457810000
    4      O      -0.7723751000    -1.4875899000    -1.0510245000
    5      O      -0.3852480000     0.5433223000    -1.9922977000
    6      O       1.8121165000     0.9709684000    -0.2357782000
    7      H       1.3853771000    -0.8828487000     0.4738621000
    8      H       1.8811285000    -1.9202013000    -1.3722899000
    9      H      -0.7985605000    -1.9390882000    -0.1669553000
   10      H      -1.0917685000     1.4175331000    -1.5284994000
   11      H       1.8995485000     1.4246694000    -1.1146290000
[...]
  4.2967   4.3151   4.3582   4.3822   4.4630   4.5340   4.5966   4.7124
  4.7159   4.7906   4.8119   4.9101   5.0528   5.1284   5.1490   5.1651
  5.1894   5.2027   5.2270   5.2370   5.2486   5.2506   5.2590   5.2706
  5.2716   5.2826   5.3079   5.3145   5.3178   5.3365   5.3474   5.3570
  5.3716   5.4197   5.4410   5.4712   5.4801   5.5038   5.5167   5.5379
  5.5651   5.5996   5.6241   5.6482   5.6626   5.6708   5.6895   5.7313
  5.7655   5.8238   6.0130   6.0414   6.0672   6.1342   6.1678   6.2440
  6.4849   6.5028   6.5849   6.6391   6.6882   6.6949   6.7539   6.8867
  6.9920   7.0275   7.0582   7.0708   7.1178   7.1253   7.1478   7.1579
  7.1610   7.2472   7.2684   7.2823   7.2934   7.3014   7.3258   7.3694
  7.3938   7.4118   7.4386   7.4695   7.5054   7.5265   7.5656   7.5746
  7.6490   7.6698   7.7812   7.8107   7.8393   7.8561   7.9008   8.0082
  8.0626   8.1752  24.7767  25.0289  50.4968  50.5306  50.5915  50.6101
 50.6315  50.7236
 --------------------------------------------------------------
 
          Ground-State Mulliken Net Atomic Charges

     Atom                 Charge (a.u.)    Spin (a.u.)
  --------------------------------------------------------
      1 C                    -0.033234       0.000589
      2 O                    -0.410802      -0.000304
      3 C                     0.124582      -0.016915
      4 O                    -0.327943       0.000843
      5 O                    -0.481577      -0.002312
      6 O                    -0.417005      -0.001677
      7 H                     0.319713       0.000279
      8 H                     0.340435      -0.000171
      9 H                     0.367856      -0.000518
     10 H                     0.382055      -0.008452
     11 H                     0.344895       0.000368
     12 O                    -0.103280       0.534436
     13 O                    -0.105694       0.493835
  --------------------------------------------------------
  Sum of atomic charges =     0.000000
  Sum of spin   charges =     1.000000

 -----------------------------------------------------------------
                    Cartesian Multipole Moments
 -----------------------------------------------------------------
    Charge (ESU x 10^10)
                 0.0000
    Dipole Moment (Debye)
         X       2.3985      Y      -3.4239      Z       1.8970
       Tot       4.5907
    Quadrupole Moments (Debye-Ang)
        XX     -46.1760     XY      -2.7296     YY     -40.3521
        XZ      -1.1150     YZ      -6.4240     ZZ     -54.9241
    Octopole Moments (Debye-Ang^2)
       XXX       0.4559    XXY     -18.0032    XYY       2.4193
       YYY     -22.5431    XXZ      35.5609    XYZ      -0.8871
       YYZ      33.7127    XZZ      -3.4218    YZZ       6.4917
       ZZZ     133.3757
    Hexadecapole Moments (Debye-Ang^3)
      XXXX    -448.5785   XXXY      12.6386   XXYY    -118.9240
      XYYY      64.7248   YYYY    -319.2202   XXXZ      16.2137
      XXYZ     -19.7783   XYYZ       5.4532   YYYZ     -48.0589
      XXZZ    -147.4648   XYZZ      26.5303   YYZZ    -120.6990
      XZZZ      29.8319   YZZZ     -45.4853   ZZZZ    -412.9464
 -----------------------------------------------------------------
 Calculating analytic gradient of the SCF energy
 Gradient of CDS energy
            1           2           3           4           5           6
    1   0.0033891  -0.0011819  -0.0026224   0.0020263   0.0003155  -0.0021838
    2   0.0024764   0.0016663  -0.0016265   0.0030429  -0.0014572  -0.0040769
    3  -0.0009179   0.0015150  -0.0018408   0.0000684   0.0013385  -0.0003338
            7           8           9          10          11          12
    1  -0.0001651   0.0003760  -0.0001172  -0.0001556   0.0003029   0.0000061
    2   0.0000596  -0.0003438  -0.0003617   0.0002440   0.0003505   0.0000909
    3   0.0001495  -0.0000958   0.0001626  -0.0001537  -0.0001407  -0.0000112
           13
    1   0.0000100
    2  -0.0000646
    3   0.0002599
 Gradient of SCF Energy
            1           2           3           4           5           6
    1  -0.0002616  -0.0136556   0.0029027  -0.0085947  -0.0017332   0.0018075
    2   0.0091976   0.0072201   0.0019920   0.0145833  -0.0058547  -0.0011254
    3  -0.0174380  -0.0130516   0.0067713  -0.0159534  -0.0052249   0.0095403
            7           8           9          10          11          12
    1  -0.0010011   0.0131348   0.0079445   0.0009052  -0.0007766  -0.0003150
    2  -0.0101869  -0.0078509  -0.0145325   0.0017706   0.0041293   0.0013640
    3   0.0131824   0.0107417   0.0156506   0.0003176  -0.0066333  -0.0006735
           13
    1  -0.0003567
    2  -0.0007064
    3   0.0027707
 Max gradient component =       1.744E-02
 RMS gradient           =       8.444E-03
 Computing fast CPCM-SWIG gradient
 Updating gradient with PCM contributions...
 -- total gradient after adding PCM contribution --
---------------------------------------------------
  Atom         X              Y              Z     
---------------------------------------------------
   1       0.000007      -0.000003      -0.000006
   2      -0.000014      -0.000013      -0.000002
   3      -0.000017       0.000021      -0.000015
   4      -0.000005       0.000012       0.000022
   5      -0.000003      -0.000033       0.000019
   6       0.000014      -0.000007      -0.000022
   7       0.000006       0.000010       0.000004
   8      -0.000004      -0.000012       0.000000
   9      -0.000001       0.000003       0.000037
  10       0.000001      -0.000010      -0.000007
  11      -0.000005      -0.000006      -0.000033
  12      -0.000019       0.000108      -0.000048
  13       0.000040      -0.000070       0.000052
---------------------------------------------------
 Number of fixed atoms: 0
 Gradient time:  CPU 139.39 s  wall 11.48 s
 Geometry Optimization Parameters
   NAtoms,    NIC,     NZ,  NCons,   NDum,   NFix, NCnnct, MaxDiis
       13      85       0       0       0       0       0       0

 Cartesian Hessian Update
 Hessian updated using Powell/Murtagh-Sargent update
  Mixing factors:     0.999918 Powell                      0.000082 Murtagh-Sargent


** GEOMETRY OPTIMIZATION IN DELOCALIZED INTERNAL COORDINATES **
   Searching for a Transition State

   Optimization Cycle:  79

                       Coordinates (Angstroms)
     ATOM                X               Y               Z
      1  C         1.1615807636   -0.4074924836   -0.5150054710
      2  O         1.8213677505   -1.2727594109   -1.4073207325
      3  C        -0.2462547288   -0.2583139380   -1.0850301505
      4  O        -1.0133241650   -1.3464294414   -1.1122229812
      5  O        -0.4690515222    0.6252861311   -1.9847555968
      6  O         1.7838563449    0.8381822799   -0.4082250798
      7  H         1.1195300393   -0.8326475168    0.4870387697
      8  H         2.6071645074   -1.6173517013   -0.9668740601
      9  H        -0.6944474561   -2.0145927183   -0.4878923877
     10  H        -1.0189267514    1.4576357197   -1.3587879502
     11  H         1.6613901978    1.3100819932   -1.2442186843
     12  O        -0.9871073900    0.7206179258    0.3594779241
     13  O        -1.4241427901    1.7735829607   -0.2276536999
   Point Group: c1    Number of degrees of freedom:    33


   Energy is   -530.487229328

 Hessian updated using Powell/Murtagh-Sargent update
  Mixing factors:     0.999912 Powell                      0.000088 Murtagh-Sargent

 33 Hessian modes will be used to form the next step
  Hessian Eigenvalues:
    -0.038689    0.002210    0.008152    0.009993    0.015632    0.018467
     0.028697    0.032461    0.065756    0.073357    0.080759    0.085721
     0.097969    0.107361    0.133914    0.172482    0.194464    0.199758
     0.203381    0.211187    0.215596    0.224237    0.269606    0.292981
     0.304303    0.322492    0.400086    0.426031    0.430537    0.433017
     0.449864    0.464844    0.527434

 Transition state search - taking P-RFO step
 Searching for Lamda that Maximizes Along the Lowest mode
 Value Taken    Lamda =   0.00000000
 Searching for Lamda that Minimizes Along All other modes
 Value Taken    Lamda =  -0.00000004
 Step Taken.  Stepsize is  0.001488

                             Maximum     Tolerance    Cnvgd?
         Gradient           0.000077      0.000300     YES
         Displacement       0.000626      0.001200     YES
         Energy change     -0.000007      0.000001      NO


                       Distance Matrix (Angstroms)
             C (  1)   O (  2)   C (  3)   O (  4)   O (  5)   O (  6)
   O (  2)  1.407207
   C (  3)  1.526166  2.325518
   O (  4)  2.443048  2.850963  1.331589
   O (  5)  2.426058  3.030186  1.280583  2.223782
   O (  6)  1.396544  2.335738  2.404521  3.618337  2.757964
   H (  7)  1.089320  2.067576  2.160238  2.714899  3.280081  2.008606
   H (  8)  1.938468  0.964476  3.162743  3.633519  3.940636  2.649448
   H (  9)  2.455269  2.779387  1.908393  0.968459  3.043084  3.779770
   H ( 10)  2.990867  3.940138  1.901696  2.814890  1.177711  3.023720
   H ( 11)  1.931741  2.592926  2.474736  3.772078  2.357143  0.967767
   O ( 12)  2.579577  3.870745  1.895725  2.537573  2.402686  2.877747
   O ( 13)  3.394941  4.604906  2.500224  3.268901  2.306121  3.346467
             H (  7)   H (  8)   H (  9)   H ( 10)   H ( 11)   O ( 12)
   H (  8)  2.223214
   H (  9)  2.374447  3.359742
   H ( 10)  3.636684  4.770501  3.594456
   H ( 11)  2.807518  3.088896  4.144329  2.686819
   O ( 12)  2.620463  4.488218  2.878379  1.869932  3.151801
   O ( 13)  3.711266  5.319429  3.866582  1.242372  3.281578  1.282365

 
 Final energy is   -530.487229328229     


 ******************************
 **  OPTIMIZATION CONVERGED  **
 ******************************

                       Coordinates (Angstroms)
     ATOM                X               Y               Z
      1  C         1.1615807636   -0.4074924836   -0.5150054710
      2  O         1.8213677505   -1.2727594109   -1.4073207325
      3  C        -0.2462547288   -0.2583139380   -1.0850301505
      4  O        -1.0133241650   -1.3464294414   -1.1122229812
      5  O        -0.4690515222    0.6252861311   -1.9847555968
      6  O         1.7838563449    0.8381822799   -0.4082250798
      7  H         1.1195300393   -0.8326475168    0.4870387697
      8  H         2.6071645074   -1.6173517013   -0.9668740601
      9  H        -0.6944474561   -2.0145927183   -0.4878923877
     10  H        -1.0189267514    1.4576357197   -1.3587879502
     11  H         1.6613901978    1.3100819932   -1.2442186843
     12  O        -0.9871073900    0.7206179258    0.3594779241
     13  O        -1.4241427901    1.7735829607   -0.2276536999

Z-matrix Print:
$molecule
0 2
O 
H  1 1.177711
O  2 1.242372 1 144.680640
C  1 1.280583 2 101.271253 3 0.679955 0
O  3 1.282365 2 95.559640 1 1.763272 0
O  4 1.331589 1 116.696560 2 105.327889 0
H  6 0.968459 4 111.157760 1 171.540465 0
C  4 1.526166 1 119.363909 2 -103.906575 0
H  8 1.089320 4 110.249989 1 154.689734 0
O  8 1.396544 4 110.634486 1 36.336465 0
H  10 0.967767 8 108.210199 4 -47.797836 0
O  8 1.407207 4 104.819470 1 -85.568883 0
H  12 0.964476 8 108.186629 4 -162.770473 0
$end

 
 --------------------------------------------------------------
 
                    Orbital Energies (a.u.)
 --------------------------------------------------------------
 
 Alpha MOs
 -- Occupied --
-19.4467 -19.4428 -19.3905 -19.3554 -19.3543 -19.3535 -10.5200 -10.4643
 -1.3603  -1.2584  -1.2097  -1.1769  -1.1453  -0.9727  -0.8494  -0.7598
 -0.7240  -0.7023  -0.6577  -0.6311  -0.6235  -0.6124  -0.5816  -0.5484
 -0.5409  -0.5204  -0.4821  -0.4684  -0.4428  -0.4292  -0.4169  -0.3998
 -0.3973
 -- Virtual --
  0.0272   0.0429   0.0505   0.0590   0.0684   0.0833   0.0984   0.1004
  0.1204   0.1268   0.1388   0.1467   0.1517   0.1638   0.1851   0.2041
  0.2188   0.2324   0.2352   0.2409   0.2520   0.2630   0.2696   0.2834
  0.2871   0.2936   0.3019   0.3116   0.3171   0.3198   0.3351   0.3404
  0.3425   0.3462   0.3550   0.3605   0.3688   0.3745   0.3874   0.3909
  0.3995   0.4097   0.4265   0.4300   0.4482   0.4689   0.4989   0.5105
  0.5260   0.5673   0.5849   0.6064   0.6104   0.6509   0.6606   0.6720
  0.6972   0.7090   0.7235   0.7845   0.7902   0.8295   0.8328   0.8494
  0.8677   0.8990   0.9392   0.9696   0.9830   0.9958   1.0357   1.0503
  1.0581   1.0715   1.0829   1.1058   1.1177   1.1354   1.1473   1.1602
  1.1673   1.1761   1.1886   1.1999   1.2154   1.2206   1.2342   1.2438
  1.2585   1.2856   1.3033   1.3197   1.3393   1.3741   1.3802   1.4154
  1.4204   1.4577   1.4835   1.5068   1.5265   1.5321   1.5530   1.5850
  1.5973   1.6168   1.6356   1.6769   1.6805   1.7206   1.7231   1.7607
  1.7803   1.8194   1.8345   1.8908   1.9743   1.9789   1.9976   2.0101
  2.0732   2.1023   2.1624   2.1818   2.2170   2.2469   2.2622   2.2905
  2.3035   2.3658   2.3806   2.4031   2.4112   2.4400   2.4584   2.4937
  2.5262   2.5555   2.6201   2.6664   2.6934   2.7078   2.8041   2.8489
  2.9138   2.9365   2.9962   3.0360   3.1321   3.1530   3.2377   3.2920
  3.3136   3.3431   3.4080   3.4177   3.4358   3.4631   3.5254   3.5545
  3.5702   3.6076   3.6196   3.6774   3.6849   3.7406   3.8032   3.8104
  3.8466   3.8557   3.8625   3.8815   3.8928   3.9273   3.9715   4.0020
  4.0452   4.0713   4.1374   4.1704   4.2122   4.2206   4.2652   4.2968
  4.3151   4.3581   4.3821   4.4626   4.5320   4.5592   4.6915   4.6972
  4.7715   4.8051   4.8985   5.0200   5.0651   5.1212   5.1544   5.1733
  5.1914   5.1968   5.2197   5.2227   5.2430   5.2484   5.2525   5.2549
  5.2741   5.2866   5.3065   5.3166   5.3322   5.3413   5.3485   5.3627
  5.4184   5.4348   5.4684   5.4705   5.4987   5.5163   5.5360   5.5593
  5.5987   5.6156   5.6413   5.6528   5.6609   5.6882   5.7108   5.7640
  5.8221   6.0123   6.0413   6.0670   6.1339   6.1673   6.2430   6.4794
  6.5007   6.5352   6.6389   6.6838   6.6882   6.7523   6.8356   6.9373
  7.0136   7.0317   7.0531   7.0894   7.1165   7.1225   7.1258   7.1446
  7.2452   7.2622   7.2672   7.2915   7.2976   7.3115   7.3515   7.3783
  7.3947   7.4201   7.4579   7.5033   7.5153   7.5567   7.5676   7.6484
  7.6693   7.7782   7.8105   7.8373   7.8511   7.9004   8.0063   8.0496
  8.1564  24.7767  25.0291  50.4855  50.5196  50.5912  50.6094  50.6315
 50.7233
 
 Beta MOs
 -- Occupied --
-19.4307 -19.4282 -19.3905 -19.3554 -19.3543 -19.3537 -10.5204 -10.4642
 -1.3332  -1.2568  -1.2097  -1.1766  -1.1452  -0.9341  -0.8466  -0.7590
 -0.7180  -0.7006  -0.6543  -0.6272  -0.5947  -0.5819  -0.5512  -0.5479
 -0.5287  -0.5132  -0.4762  -0.4674  -0.4425  -0.4254  -0.4153  -0.3830
 -- Virtual --
 -0.0322   0.0274   0.0430   0.0507   0.0594   0.0696   0.0854   0.0990
  0.1009   0.1213   0.1277   0.1391   0.1473   0.1520   0.1649   0.1882
  0.2067   0.2195   0.2336   0.2365   0.2444   0.2534   0.2654   0.2708
  0.2842   0.2887   0.2980   0.3032   0.3122   0.3183   0.3205   0.3358
  0.3413   0.3458   0.3480   0.3556   0.3626   0.3707   0.3750   0.3882
  0.3928   0.4009   0.4129   0.4276   0.4307   0.4486   0.4689   0.4998
  0.5109   0.5264   0.5677   0.5853   0.6070   0.6113   0.6511   0.6609
  0.6723   0.6974   0.7103   0.7235   0.7846   0.7903   0.8298   0.8360
  0.8501   0.8684   0.9006   0.9396   0.9708   0.9843   0.9976   1.0382
  1.0529   1.0586   1.0747   1.0868   1.1086   1.1264   1.1467   1.1484
  1.1664   1.1692   1.1776   1.1904   1.2039   1.2174   1.2253   1.2380
  1.2511   1.2802   1.2868   1.3040   1.3203   1.3406   1.3756   1.3824
  1.4187   1.4258   1.4608   1.4870   1.5090   1.5308   1.5410   1.5555
  1.5884   1.5994   1.6302   1.6381   1.6816   1.6936   1.7268   1.7302
  1.7672   1.7849   1.8263   1.8385   1.8913   1.9753   1.9816   2.0027
  2.0119   2.0835   2.1030   2.1723   2.1845   2.2194   2.2506   2.2712
  2.2980   2.3193   2.3679   2.3852   2.4036   2.4131   2.4418   2.4585
  2.4943   2.5265   2.5595   2.6237   2.6680   2.6959   2.7163   2.8044
  2.8490   2.9133   2.9367   2.9956   3.0358   3.1314   3.1516   3.2371
  3.2930   3.3135   3.3430   3.4079   3.4173   3.4355   3.4637   3.5253
  3.5533   3.5696   3.6070   3.6198   3.6770   3.6846   3.7405   3.8029
  3.8104   3.8471   3.8553   3.8623   3.8811   3.8925   3.9270   3.9715
  4.0019   4.0450   4.0711   4.1362   4.1702   4.2114   4.2206   4.2654
  4.2967   4.3151   4.3582   4.3822   4.4630   4.5340   4.5966   4.7124
  4.7159   4.7906   4.8119   4.9101   5.0528   5.1284   5.1490   5.1651
  5.1894   5.2027   5.2270   5.2370   5.2486   5.2506   5.2590   5.2706
  5.2716   5.2826   5.3079   5.3145   5.3178   5.3365   5.3474   5.3570
  5.3716   5.4197   5.4410   5.4712   5.4801   5.5038   5.5167   5.5379
  5.5651   5.5996   5.6241   5.6482   5.6626   5.6708   5.6895   5.7313
  5.7655   5.8238   6.0130   6.0414   6.0672   6.1342   6.1678   6.2440
  6.4849   6.5028   6.5849   6.6391   6.6882   6.6949   6.7539   6.8867
  6.9920   7.0275   7.0582   7.0708   7.1178   7.1253   7.1478   7.1579
  7.1610   7.2472   7.2684   7.2823   7.2934   7.3014   7.3258   7.3694
  7.3938   7.4118   7.4386   7.4695   7.5054   7.5265   7.5656   7.5746
  7.6490   7.6698   7.7812   7.8107   7.8393   7.8561   7.9008   8.0082
  8.0626   8.1752  24.7767  25.0289  50.4968  50.5306  50.5915  50.6101
 50.6315  50.7236
 --------------------------------------------------------------
 
          Ground-State Mulliken Net Atomic Charges

     Atom                 Charge (a.u.)    Spin (a.u.)
  --------------------------------------------------------
      1 C                    -0.033234       0.000589
      2 O                    -0.410802      -0.000304
      3 C                     0.124582      -0.016915
      4 O                    -0.327943       0.000843
      5 O                    -0.481577      -0.002312
      6 O                    -0.417005      -0.001677
      7 H                     0.319713       0.000279
      8 H                     0.340435      -0.000171
      9 H                     0.367856      -0.000518
     10 H                     0.382055      -0.008452
     11 H                     0.344895       0.000368
     12 O                    -0.103280       0.534436
     13 O                    -0.105694       0.493835
  --------------------------------------------------------
  Sum of atomic charges =     0.000000
  Sum of spin   charges =     1.000000

 -----------------------------------------------------------------
                    Cartesian Multipole Moments
 -----------------------------------------------------------------
    Charge (ESU x 10^10)
                 0.0000
    Dipole Moment (Debye)
         X       2.3985      Y      -3.4239      Z       1.8970
       Tot       4.5907
    Quadrupole Moments (Debye-Ang)
        XX     -46.1760     XY      -2.7296     YY     -40.3521
        XZ      -1.1150     YZ      -6.4240     ZZ     -54.9241
    Octopole Moments (Debye-Ang^2)
       XXX       0.4559    XXY     -18.0032    XYY       2.4193
       YYY     -22.5431    XXZ      35.5609    XYZ      -0.8871
       YYZ      33.7127    XZZ      -3.4218    YZZ       6.4917
       ZZZ     133.3757
    Hexadecapole Moments (Debye-Ang^3)
      XXXX    -448.5785   XXXY      12.6386   XXYY    -118.9240
      XYYY      64.7248   YYYY    -319.2202   XXXZ      16.2137
      XXYZ     -19.7783   XYYZ       5.4532   YYYZ     -48.0589
      XXZZ    -147.4648   XYZZ      26.5303   YYZZ    -120.6990
      XZZZ      29.8319   YZZZ     -45.4853   ZZZZ    -412.9464
 -----------------------------------------------------------------
 Total job time:  7077.12s(wall), 102094.15s(cpu) 
 Mon Jul 17 23:07:24 2023

        *************************************************************
        *                                                           *
        *  Thank you very much for using Q-Chem.  Have a nice day.  *
        *                                                           *
        *************************************************************


