
Running Job 1 of 1 Q_in.in
qchem Q_in.in_177058.0 /scratch/ari.fischer/qChem1525670.hpc-mn1/qchem177058/ 0
/usr/local/qchem-5.4.1/exe/qcprog.exe_s Q_in.in_177058.0 /scratch/ari.fischer/qChem1525670.hpc-mn1/qchem177058/
                  Welcome to Q-Chem
     A Quantum Leap Into The Future Of Chemistry


 Q-Chem 5.4, Q-Chem, Inc., Pleasanton, CA (2021)

 License issued to: Nanyang Technological University (site)

 E. Epifanovsky,  A. T. B. Gilbert,  Xintian Feng,  Joonho Lee,  Yuezhi Mao,  
 N. Mardirossian,  P. Pokhilko,  A. White,  M. Wormit,  M. P. Coons,  
 A. L. Dempwolff,  Zhengting Gan,  D. Hait,  P. R. Horn,  L. D. Jacobson,  
 I. Kaliman,  J. Kussmann,  A. W. Lange,  Ka Un Lao,  D. S. Levine,  Jie Liu,  
 S. C. McKenzie,  A. F. Morrison,  K. Nanda,  F. Plasser,  D. R. Rehn,  
 M. L. Vidal,  Zhi-Qiang You,  Ying Zhu,  B. Alam,  B. Albrecht,  
 A. Aldossary,  E. Alguire,  J. H. Andersen,  D. Barton,  K. Begam,  A. Behn,  
 Y. A. Bernard,  E. J. Berquist,  H. Burton,  A. Carreras,  K. Carter-Fenk,  
 R. Chakraborty,  A. D. Chien,  K. D. Closser,  V. Cofer-Shabica,  
 S. Dasgupta,  Jia Deng,  M. de Wergifosse,  M. Diedenhofen,  Hainam Do,  
 S. Ehlert,  Po-Tung Fang,  S. Fatehi,  Qingguo Feng,  T. Friedhoff,  
 J. Gayvert,  Qinghui Ge,  G. Gidofalvi,  M. Goldey,  J. Gomes,  
 C. Gonzalez-Espinoza,  S. Gulania,  A. Gunina,  M. W. D. Hanson-Heine,  
 P. H. P. Harbach,  A. W. Hauser,  M. F. Herbst,  M. Hernandez Vera,  
 M. Hodecker,  Z. C. Holden,  S. Houck,  Xunkun Huang,  Kerwin Hui,  
 B. C. Huynh,  M. Ivanov,  Hyunjun Ji,  Hanjie Jiang,  B. Kaduk,  S. Kaehler,  
 K. Khistyaev,  Jaehoon Kim,  P. Klunzinger,  Z. Koczor-Benda,  
 Joong Hoon Koh,  D. Kosenkov,  L. Koulias,  T. Kowalczyk,  C. M. Krauter,  
 K. Kue,  A. Kunitsa,  T. Kus,  A. Landau,  K. V. Lawler,  D. Lefrancois,  
 S. Lehtola,  Rain Li,  Yi-Pei Li,  Jiashu Liang,  M. Liebenthal,  
 Hung-Hsuan Lin,  You-Sheng Lin,  Fenglai Liu,  Kuan-Yu Liu,  
 M. Loipersberger,  A. Luenser,  A. Manjanath,  P. Manohar,  E. Mansoor,  
 S. F. Manzer,  Shan-Ping Mao,  A. V. Marenich,  T. Markovich,  S. Mason,  
 S. A. Maurer,  P. F. McLaughlin,  M. F. S. J. Menger,  J.-M. Mewes,  
 S. A. Mewes,  P. Morgante,  J. W. Mullinax,  K. J. Oosterbaan,  G. Paran,  
 Alexander C. Paul,  Suranjan K. Paul,  F. Pavosevic,  Zheng Pei,  S. Prager,  
 E. I. Proynov,  E. Ramos,  B. Rana,  A. E. Rask,  A. Rettig,  R. M. Richard,  
 F. Rob,  E. Rossomme,  T. Scheele,  M. Scheurer,  M. Schneider,  
 N. Sergueev,  S. M. Sharada,  W. Skomorowski,  D. W. Small,  C. J. Stein,  
 Yu-Chuan Su,  E. J. Sundstrom,  Zhen Tao,  J. Thirman,  T. Tsuchimochi,  
 N. M. Tubman,  S. P. Veccham,  O. Vydrov,  J. Wenzel,  J. Witte,  A. Yamada,  
 Kun Yao,  S. Yeganeh,  S. R. Yost,  A. Zech,  Igor Ying Zhang,  Xing Zhang,  
 Yu Zhang,  D. Zuev,  A. Aspuru-Guzik,  A. T. Bell,  N. A. Besley,  
 K. B. Bravaya,  B. R. Brooks,  D. Casanova,  Jeng-Da Chai,  S. Coriani,  
 C. J. Cramer,  A. E. DePrince, III,  R. A. DiStasio Jr.,  A. Dreuw,  
 B. D. Dunietz,  T. R. Furlani,  W. A. Goddard III,  S. Grimme,  
 S. Hammes-Schiffer,  T. Head-Gordon,  W. J. Hehre,  Chao-Ping Hsu,  
 T.-C. Jagau,  Yousung Jung,  A. Klamt,  Jing Kong,  D. S. Lambrecht,  
 WanZhen Liang,  N. J. Mayhall,  C. W. McCurdy,  J. B. Neaton,  
 C. Ochsenfeld,  J. A. Parkhill,  R. Peverati,  V. A. Rassolov,  Yihan Shao,  
 L. V. Slipchenko,  T. Stauch,  R. P. Steele,  J. E. Subotnik,  
 A. J. W. Thom,  A. Tkatchenko,  D. G. Truhlar,  T. Van Voorhis,  
 T. A. Wesolowski,  K. B. Whaley,  H. L. Woodcock III,  P. M. Zimmerman,  
 S. Faraji,  P. M. W. Gill,  M. Head-Gordon,  J. M. Herbert,  A. I. Krylov

 Additional authors for Version 5.4.1: 
 S. Kotaru,  Shaozhi Li,  Xiangyuan Li,  F. Matz,  A. Molle,  Haisheng Ren,  
 Yingli Su,  Hung-Yi Tsai,  C. Utku,  Fang Wang

 Contributors to earlier versions of Q-Chem not listed above: 
 R. D. Adamson,  B. Austin,  R. Baer,  J. Baker,  G. J. O. Beran,  
 K. Brandhorst,  S. T. Brown,  E. F. C. Byrd,  A. K. Chakraborty,  
 G. K. L. Chan,  Chun-Min Chang,  Yunqing Chen,  C.-L. Cheng,  
 Siu Hung Chien,  D. M. Chipman,  D. L. Crittenden,  H. Dachsel,  
 R. J. Doerksen,  A. D. Dutoi,  R. G. Edgar,  J. Fosso-Tande,  
 L. Fusti-Molnar,  D. Ghosh,  A. Ghysels,  A. Golubeva-Zadorozhnaya,  
 J. Gonthier,  M. S. Gordon,  S. R. Gwaltney,  G. Hawkins,  J. E. Herr,  
 A. Heyden,  S. Hirata,  E. G. Hohenstein,  G. Kedziora,  F. J. Keil,  
 C. Kelley,  Jihan Kim,  R. A. King,  R. Z. Khaliullin,  P. P. Korambath,  
 W. Kurlancheek,  A. Laurent,  A. M. Lee,  M. S. Lee,  S. V. Levchenko,  
 Ching Yeh Lin,  D. Liotard,  E. Livshits,  R. C. Lochan,  I. Lotan,  
 L. A. Martinez-Martinez,  P. E. Maslen,  N. Nair,  D. P. O'Neill,  
 D. Neuhauser,  E. Neuscamman,  C. M. Oana,  R. Olivares-Amaya,  R. Olson,  
 T. M. Perrine,  B. Peters,  P. A. Pieniazek,  A. Prociuk,  Y. M. Rhee,  
 J. Ritchie,  M. A. Rohrdanz,  E. Rosta,  N. J. Russ,  H. F. Schaefer III,  
 M. W. Schmidt,  N. E. Schultz,  S. Sharma,  N. Shenvi,  C. D. Sherrill,  
 A. C. Simmonett,  A. Sodt,  T. Stein,  D. Stuck,  K. S. Thanthiriwatte,  
 V. Vanovschi,  L. Vogt,  Tao Wang,  A. Warshel,  M. A. Watson,  
 C. F. Williams,  Q. Wu,  X. Xu,  Jun Yang,  W. Zhang,  Yan Zhao

 Please cite Q-Chem as follows:
 Y. Shao et al., Mol. Phys. 113, 184-215 (2015)
 DOI: 10.1080/00268976.2014.952696

 Q-Chem 5.4.1 for Intel X86 EM64T Linux

 Parts of Q-Chem use Armadillo 9.800.1 (Horizon Scraper).
 http://arma.sourceforge.net/

 Q-Chem begins on Sat May  6 18:11:20 2023  

 Host: 
0

     Scratch files written to /scratch/ari.fischer/qChem1525670.hpc-mn1/qchem177058//
 Aug1521 |scratch|qcdevops|jenkins|workspace|build_RNUM 8249   
 Processing $rem in /usr/local/qchem-5.4.1/config/preferences:
 Processing $rem in /home/ari.fischer/.qchemrc:
 Symmetry turned off for PCM/SM12/SMD calculation


!!********************************************.
!!******************Warning*******************.
!!Desired Analytical derivatives not available.
!!Finite difference job might take a long time.
!!********************************************.
!!********************************************.


 2-order derivative to be evaluated numerically with 1-order analytical derivatives

 Checking the input file for inconsistencies... 	...done.

--------------------------------------------------------------
User input:
--------------------------------------------------------------
$molecule
1 1
O         0.2595232765    2.1431453211   -0.0361804989
H        -0.6678320335    1.9569356542    0.2016529386
H         0.8097129852    2.0782319870    0.7664747601
H         0.3176660719    3.0520395376   -0.3849776997
$end

$rem
BASIS = 6-311++G(2df,2p)
GUI = 2
JOB_TYPE = Frequency
METHOD = wB97M-V
SOLVENT_METHOD = SMD
SCF_ALGORITHM = DIIS_GDM
MAX_SCF_CYCLES = 400
SCF_CONVERGENCE = 7
THRESH = 12
SYMMETRY_IGNORE = 1
$end
--------------------------------------------------------------
 ----------------------------------------------------------------
             Standard Nuclear Orientation (Angstroms)
    I     Atom           X                Y                Z
 ----------------------------------------------------------------
    1      O       0.2595232765     2.1431453211    -0.0361804989
    2      H      -0.6678320335     1.9569356542     0.2016529386
    3      H       0.8097129852     2.0782319870     0.7664747601
    4      H       0.3176660719     3.0520395376    -0.3849776997
 ----------------------------------------------------------------
 Nuclear Repulsion Energy =          14.02297889 hartrees
 There are        5 alpha and        5 beta electrons
 Requested basis set is 6-311++G(2df,2p)
 There are 26 shells and 64 basis functions

 Total QAlloc Memory Limit 288000 MB
 Mega-Array Size       188 MB
 MEM_STATIC part       192 MB
 
 Citation of the SMD model:
 Marenich, A.V.; Cramer, C.J.; Truhlar, D.G.
 J. Phys. Chem. B 2009, 113, 6378-6396.
 iSolventCode=           1
 Solvent: water                                                           
 
 vradii
            1           2           3           4
    1   1.5200000   1.2000000   1.2000000   1.2000000
 Changing PCM_VDW_RADII to SMD_RADIUS
 Discretize the solute cavity surface with Lebedev spheres
	Using 110 Lebedev grid points for each H atom
	Using 194 Lebedev grid points for other atoms
	Atomic van der Waals radii will be scaled by 1.20
 Remove points where switching function is < 1.0e-08
 Keep 338 surface tesserae and discard 186 interior tesserae
 Molecular Surface Area = 40.207 Angst**2

                       Distance Matrix (Angstroms)
             O (  1)   H (  2)   H (  3)
   H (  2)  0.975308
   H (  3)  0.975284  1.586466
   H (  4)  0.975258  1.585747  1.586270
 
 A cutoff of  1.0D-12 yielded    351 shell pairs
 There are      2163 function pairs (      2532 Cartesian)
 Smallest overlap matrix eigenvalue = 1.05E-03
 Guess from superposition of atomic densities
 Warning:  Energy on first SCF cycle will be non-variational
 SAD guess density has 11.000000 electrons

 -----------------------------------------------------------------------
  General SCF calculation program by
  Eric Jon Sundstrom, Paul Horn, Yuezhi Mao, Dmitri Zuev, Alec White,
  David Stuck, Shaama M.S., Shane Yost, Joonho Lee, David Small,
  Daniel Levine, Susi Lehtola, Hugh Burton, Evgeny Epifanovsky,
  Bang C. Huynh
 -----------------------------------------------------------------------
 Exchange:     0.1500 Hartree-Fock + 1.0000 wB97M-V + LR-HF
 Correlation:  1.0000 wB97M-V
 Using SG-2 standard quadrature grid
 Nonlocal Correlation:  VV10 with C = 0.0100 and b = 6.00 and scale = 1.00000
 Grid used for NLC:  SG-1 standard quadrature
 using 8 threads for integral computing
 -------------------------------------------------------
 OpenMP Integral computing Module                
 Release: version 1.0, May 2013, Q-Chem Inc. Pittsburgh 
 -------------------------------------------------------
 
 Citation of the SMD model:
 Marenich, A.V.; Cramer, C.J.; Truhlar, D.G.
 J. Phys. Chem. B 2009, 113, 6378-6396.
 iSolventCode=           1
 Solvent: water                                                           
 
 vradii
            1           2           3           4
    1   1.5200000   1.2000000   1.2000000   1.2000000
 -------------------------------------------------------
 OpenMP BLAS3 based DFT computing Module                
 Release: version 1.0, May 2013, Q-Chem Inc. Pittsburgh 
 -------------------------------------------------------
 A restricted SCF calculation will be
 performed using DIIS, GDM
 SCF converges when RMS gradient is below 1.0e-07
 ---------------------------------------
  Cycle       Energy         DIIS error
 ---------------------------------------
    1     -77.1180246602      6.56e-02  
    2     -76.8392833954      5.37e-03  Done DIIS. Switching to GDM
 ---------------------------------------
  Cycle       Energy        RMS Gradient
 ---------------------------------------
    1     -76.8392833954      4.61e-02   Normal BFGS step
    2     -76.8543758838      1.06e-02   Normal BFGS step
    3     -76.8549507661      6.52e-03   Normal BFGS step
    4     -76.8551685394      7.55e-04   Normal BFGS step
    5     -76.8551749007      1.25e-04   Normal BFGS step
    6     -76.8551751129      4.34e-05   Normal BFGS step
    7     -76.8551751201      1.15e-05   Normal BFGS step
    8     -76.8551751205      1.27e-06   Normal BFGS step
    9     -76.8551751205      3.98e-07   Normal BFGS step
   10     -76.8551751205      3.61e-08  Convergence criterion met
 ---------------------------------------
 SCF time:   CPU 29.76s  wall 4.00s 
(3)  G-ENP(liq) elect-nuc-pol free energy of system      -76.855175120 a.u.
(4)  G-CDS(liq) cavity-dispersion-solvent structure 
     free energy                                                2.2004 kcal/mol
(6)  G-S(liq) free energy of system                      -76.851668521 a.u.
 SCF   energy in the final basis set =      -76.8516685209
 Total energy in the final basis set =      -76.8516685209
 
 --------------------------------------------------------------
 
                    Orbital Energies (a.u.)
 --------------------------------------------------------------
 
 Alpha MOs
 -- Occupied --
-19.4745  -1.2921  -0.7488  -0.7486  -0.5785
 -- Virtual --
  0.0164   0.0598   0.0598   0.1791   0.1843   0.2037   0.2038   0.2518
  0.2518   0.2914   0.5285   0.5287   0.6023   0.6401   0.6403   0.8379
  0.9033   0.9035   1.0038   1.1050   1.1050   1.1113   1.3678   1.4095
  1.4096   1.5495   1.9007   1.9008   2.1664   2.1783   2.1785   2.4976
  2.7818   2.7843   3.5581   3.7215   3.7230   3.8888   3.9458   3.9467
  4.0695   4.0706   4.2541   5.0968   5.2857   5.3184   5.3188   5.6877
  5.6881   5.8217   6.8874   7.0345   7.0351   7.1853   7.2484   7.2486
  7.5441   7.5447  50.3905
 --------------------------------------------------------------
 
          Ground-State Mulliken Net Atomic Charges

     Atom                 Charge (a.u.)
  ----------------------------------------
      1 O                    -0.224872
      2 H                     0.408151
      3 H                     0.408395
      4 H                     0.408326
  ----------------------------------------
  Sum of atomic charges =     1.000000

 -----------------------------------------------------------------
                    Cartesian Multipole Moments
 -----------------------------------------------------------------
    Charge (ESU x 10^10)
                 4.8032
    Dipole Moment (Debye)
         X       0.4713      Y      11.8960      Z       1.5117
       Tot      12.0010
    Quadrupole Moments (Debye-Ang)
        XX      -3.1115     XY       2.0570     YY      24.8953
        XZ       1.0880     YZ       1.8076     ZZ      -4.2898
    Octopole Moments (Debye-Ang^2)
       XXX      -3.9519    XXY      -6.9293    XYY       5.7542
       YYY      44.9672    XXZ       1.6434    XYZ       1.9242
       YYZ      -0.0465    XZZ      -0.1840    YZZ      -9.1252
       ZZZ       1.2414
    Hexadecapole Moments (Debye-Ang^3)
      XXXX      -6.2186   XXXY      -8.4485   XXYY     -17.4974
      XYYY      13.8051   YYYY      62.7571   XXXZ       0.9170
      XXYZ       3.2860   XYYZ       2.9275   YYYZ     -11.1342
      XXZZ      -1.0953   XYZZ      -0.4200   YYZZ     -20.9646
      XZZZ       1.0429   YZZZ       2.5215   ZZZZ      -4.6619
 -----------------------------------------------------------------
 Calculating analytic gradient of the SCF energy
 Gradient of CDS energy
            1           2           3           4
    1   0.0000404  -0.0004157   0.0003077   0.0000676
    2  -0.0000841  -0.0001710  -0.0001110   0.0003661
    3  -0.0000897   0.0000337   0.0003101  -0.0002542
 Gradient of SCF Energy
            1           2           3           4
    1   0.0179510  -0.0672659   0.0431249   0.0061900
    2  -0.0369773  -0.0178589  -0.0089265   0.0637627
    3  -0.0386329   0.0132287   0.0557040  -0.0302998
 Max gradient component =       6.727E-02
 RMS gradient           =       3.901E-02
 Computing fast CPCM-SWIG gradient
 Updating gradient with PCM contributions...
 -- total gradient after adding PCM contribution --
---------------------------------------------------
  Atom         X              Y              Z     
---------------------------------------------------
   1       0.000019       0.000021      -0.000001
   2       0.000051      -0.000093      -0.000063
   3      -0.000011       0.000034       0.000004
   4      -0.000060       0.000039       0.000061
---------------------------------------------------
 Number of fixed atoms: 0
 Gradient time:  CPU 6.16 s  wall 0.86 s
 ######################################################
 ######################################################
 # Starting finite difference calculation for IDERIV  #
 Finite diff step size:  1.88973e-03 a.u.
 ----------------------------------------------------------------
             Standard Nuclear Orientation (Angstroms)
    I     Atom           X                Y                Z
 ----------------------------------------------------------------
    1      O       0.2605232765     2.1431453211    -0.0361804989
    2      H      -0.6678320335     1.9569356542     0.2016529386
    3      H       0.8097129852     2.0782319870     0.7664747601
    4      H       0.3176660719     3.0520395376    -0.3849776997
 ----------------------------------------------------------------
 Nuclear Repulsion Energy =          14.02152492 hartrees
 There are        5 alpha and        5 beta electrons
 Discretize the solute cavity surface with Lebedev spheres
	Using 110 Lebedev grid points for each H atom
	Using 194 Lebedev grid points for other atoms
	Atomic van der Waals radii will be scaled by 1.20
 Remove points where switching function is < 1.0e-08
 Keep 338 surface tesserae and discard 186 interior tesserae
 Molecular Surface Area = 40.209 Angst**2

                       Distance Matrix (Angstroms)
             O (  1)   H (  2)   H (  3)
   H (  2)  0.976259
   H (  3)  0.974720  1.586466
   H (  4)  0.975199  1.585747  1.586270
 
 Requested basis set is 6-311++G(2df,2p)
 There are 26 shells and 64 basis functions
 A cutoff of  1.0D-12 yielded    351 shell pairs
 There are      2163 function pairs (      2532 Cartesian)
 Smallest overlap matrix eigenvalue = 1.05E-03
 Guess MOs from SCF MO coefficient file

 -----------------------------------------------------------------------
  General SCF calculation program by
  Eric Jon Sundstrom, Paul Horn, Yuezhi Mao, Dmitri Zuev, Alec White,
  David Stuck, Shaama M.S., Shane Yost, Joonho Lee, David Small,
  Daniel Levine, Susi Lehtola, Hugh Burton, Evgeny Epifanovsky,
  Bang C. Huynh
 -----------------------------------------------------------------------
 Exchange:     0.1500 Hartree-Fock + 1.0000 wB97M-V + LR-HF
 Correlation:  1.0000 wB97M-V
 Using SG-2 standard quadrature grid
 Nonlocal Correlation:  VV10 with C = 0.0100 and b = 6.00 and scale = 1.00000
 Grid used for NLC:  SG-1 standard quadrature
 
 Citation of the SMD model:
 Marenich, A.V.; Cramer, C.J.; Truhlar, D.G.
 J. Phys. Chem. B 2009, 113, 6378-6396.
 iSolventCode=           1
 Solvent: water                                                           
 
 vradii
            1           2           3           4
    1   1.5200000   1.2000000   1.2000000   1.2000000
 -------------------------------------------------------
 OpenMP BLAS3 based DFT computing Module                
 Release: version 1.0, May 2013, Q-Chem Inc. Pittsburgh 
 -------------------------------------------------------
 A restricted SCF calculation will be
 performed using Roothaan-Hall, DIIS, GDM
 SCF converges when RMS gradient is below 1.0e-07
 ---------------------------------------
  Cycle       Energy         DIIS error
 ---------------------------------------
    1     -76.6953488245      1.30e-03  Roothaan Step
 ---------------------------------------
  Cycle       Energy         DIIS error
 ---------------------------------------
    1     -76.8541353203      1.21e-03  
    2     -76.8550951371      3.91e-04  Done DIIS. Switching to GDM
 ---------------------------------------
  Cycle       Energy        RMS Gradient
 ---------------------------------------
    1     -76.8550951371      3.36e-03   Normal BFGS step
    2     -76.8551492408      2.06e-03   Normal BFGS step
    3     -76.8551730788      3.01e-04   Normal BFGS step
    4     -76.8551739130      1.13e-04   Normal BFGS step
    5     -76.8551739614      2.98e-05   Normal BFGS step
    6     -76.8551739637      3.43e-06   Normal BFGS step
    7     -76.8551739637      6.57e-07   Normal BFGS step
    8     -76.8551739637      6.95e-08  Convergence criterion met
 ---------------------------------------
 SCF time:   CPU 27.23s  wall 4.00s 
(3)  G-ENP(liq) elect-nuc-pol free energy of system      -76.855173964 a.u.
(4)  G-CDS(liq) cavity-dispersion-solvent structure 
     free energy                                                2.2005 kcal/mol
(6)  G-S(liq) free energy of system                      -76.851667290 a.u.
 SCF   energy in the final basis set =      -76.8516672901
 Total energy in the final basis set =      -76.8516672901
 
 --------------------------------------------------------------
 
                    Orbital Energies (a.u.)
 --------------------------------------------------------------
 
 Alpha MOs
 -- Occupied --
-19.4745  -1.2920  -0.7490  -0.7482  -0.5785
 -- Virtual --
  0.0164   0.0598   0.0598   0.1791   0.1843   0.2036   0.2039   0.2517
  0.2518   0.2914   0.5281   0.5289   0.6023   0.6399   0.6404   0.8378
  0.9032   0.9038   1.0038   1.1049   1.1049   1.1112   1.3678   1.4089
  1.4100   1.5501   1.9005   1.9008   2.1660   2.1781   2.1787   2.4980
  2.7814   2.7847   3.5581   3.7210   3.7231   3.8886   3.9454   3.9464
  4.0683   4.0715   4.2539   5.0967   5.2854   5.3182   5.3193   5.6864
  5.6887   5.8209   6.8871   7.0344   7.0351   7.1849   7.2450   7.2506
  7.5440   7.5452  50.3904
 --------------------------------------------------------------
 
          Ground-State Mulliken Net Atomic Charges

     Atom                 Charge (a.u.)
  ----------------------------------------
      1 O                    -0.225105
      2 H                     0.408716
      3 H                     0.408083
      4 H                     0.408306
  ----------------------------------------
  Sum of atomic charges =     1.000000

 -----------------------------------------------------------------
                    Cartesian Multipole Moments
 -----------------------------------------------------------------
    Charge (ESU x 10^10)
                 4.8032
    Dipole Moment (Debye)
         X       0.4687      Y      11.8959      Z       1.5116
       Tot      12.0007
    Quadrupole Moments (Debye-Ang)
        XX      -3.1131     XY       2.0511     YY      24.8943
        XZ       1.0878     YZ       1.8073     ZZ      -4.2900
    Octopole Moments (Debye-Ang^2)
       XXX      -3.9681    XXY      -6.9328    XYY       5.7354
       YYY      44.9632    XXZ       1.6435    XYZ       1.9237
       YYZ      -0.0470    XZZ      -0.1894    YZZ      -9.1256
       ZZZ       1.2413
    Hexadecapole Moments (Debye-Ang^3)
      XXXX      -6.2360   XXXY      -8.4834   XXYY     -17.5082
      XYYY      13.7396   YYYY      62.7423   XXXZ       0.9176
      XXYZ       3.2863   XYYZ       2.9269   YYYZ     -11.1346
      XXZZ      -1.0986   XYZZ      -0.4316   YYZZ     -20.9654
      XZZZ       1.0438   YZZZ       2.5214   ZZZZ      -4.6613
 -----------------------------------------------------------------
 Calculating analytic gradient of the SCF energy
 Gradient of CDS energy
            1           2           3           4
    1   0.0000381  -0.0004151   0.0003083   0.0000688
    2  -0.0000842  -0.0001717  -0.0001103   0.0003662
    3  -0.0000898   0.0000335   0.0003101  -0.0002538
 Gradient of SCF Energy
            1           2           3           4
    1   0.0195419  -0.0681137   0.0426798   0.0058920
    2  -0.0367724  -0.0178799  -0.0090214   0.0636737
    3  -0.0384154   0.0134363   0.0553192  -0.0303400
 Max gradient component =       6.811E-02
 RMS gradient           =       3.908E-02
 Computing fast CPCM-SWIG gradient
 Updating gradient with PCM contributions...
 -- total gradient after adding PCM contribution --
---------------------------------------------------
  Atom         X              Y              Z     
---------------------------------------------------
   1       0.001282       0.000211       0.000209
   2      -0.000759      -0.000188       0.000147
   3      -0.000343       0.000002      -0.000402
   4      -0.000180      -0.000025       0.000046
---------------------------------------------------
 Number of fixed atoms: 0
 Gradient time:  CPU 5.31 s  wall 0.69 s
 ----------------------------------------------------------------
             Standard Nuclear Orientation (Angstroms)
    I     Atom           X                Y                Z
 ----------------------------------------------------------------
    1      O       0.2585232765     2.1431453211    -0.0361804989
    2      H      -0.6678320335     1.9569356542     0.2016529386
    3      H       0.8097129852     2.0782319870     0.7664747601
    4      H       0.3176660719     3.0520395376    -0.3849776997
 ----------------------------------------------------------------
 Nuclear Repulsion Energy =          14.02443596 hartrees
 There are        5 alpha and        5 beta electrons
 Discretize the solute cavity surface with Lebedev spheres
	Using 110 Lebedev grid points for each H atom
	Using 194 Lebedev grid points for other atoms
	Atomic van der Waals radii will be scaled by 1.20
 Remove points where switching function is < 1.0e-08
 Keep 338 surface tesserae and discard 186 interior tesserae
 Molecular Surface Area = 40.205 Angst**2

                       Distance Matrix (Angstroms)
             O (  1)   H (  2)   H (  3)
   H (  2)  0.974358
   H (  3)  0.975848  1.586466
   H (  4)  0.975318  1.585747  1.586270
 
 Requested basis set is 6-311++G(2df,2p)
 There are 26 shells and 64 basis functions
 A cutoff of  1.0D-12 yielded    351 shell pairs
 There are      2163 function pairs (      2532 Cartesian)
 Smallest overlap matrix eigenvalue = 1.05E-03
 Guess MOs from SCF MO coefficient file

 -----------------------------------------------------------------------
  General SCF calculation program by
  Eric Jon Sundstrom, Paul Horn, Yuezhi Mao, Dmitri Zuev, Alec White,
  David Stuck, Shaama M.S., Shane Yost, Joonho Lee, David Small,
  Daniel Levine, Susi Lehtola, Hugh Burton, Evgeny Epifanovsky,
  Bang C. Huynh
 -----------------------------------------------------------------------
 Exchange:     0.1500 Hartree-Fock + 1.0000 wB97M-V + LR-HF
 Correlation:  1.0000 wB97M-V
 Using SG-2 standard quadrature grid
 Nonlocal Correlation:  VV10 with C = 0.0100 and b = 6.00 and scale = 1.00000
 Grid used for NLC:  SG-1 standard quadrature
 
 Citation of the SMD model:
 Marenich, A.V.; Cramer, C.J.; Truhlar, D.G.
 J. Phys. Chem. B 2009, 113, 6378-6396.
 iSolventCode=           1
 Solvent: water                                                           
 
 vradii
            1           2           3           4
    1   1.5200000   1.2000000   1.2000000   1.2000000
 -------------------------------------------------------
 OpenMP BLAS3 based DFT computing Module                
 Release: version 1.0, May 2013, Q-Chem Inc. Pittsburgh 
 -------------------------------------------------------
 A restricted SCF calculation will be
 performed using Roothaan-Hall, DIIS, GDM
 SCF converges when RMS gradient is below 1.0e-07
 ---------------------------------------
  Cycle       Energy         DIIS error
 ---------------------------------------
    1     -76.6953557874      1.30e-03  Roothaan Step
 ---------------------------------------
  Cycle       Energy         DIIS error
 ---------------------------------------
    1     -76.8541385756      1.20e-03  
    2     -76.8550962154      3.86e-04  Done DIIS. Switching to GDM
 ---------------------------------------
  Cycle       Energy        RMS Gradient
 ---------------------------------------
    1     -76.8550962154      3.35e-03   Normal BFGS step
    2     -76.8551502205      2.01e-03   Normal BFGS step
    3     -76.8551729819      3.03e-04   Normal BFGS step
    4     -76.8551738302      1.11e-04   Normal BFGS step
    5     -76.8551738783      2.99e-05   Normal BFGS step
    6     -76.8551738806      3.41e-06   Normal BFGS step
    7     -76.8551738806      6.50e-07   Normal BFGS step
    8     -76.8551738806      7.13e-08  Convergence criterion met
 ---------------------------------------
 SCF time:   CPU 26.96s  wall 4.00s 
(3)  G-ENP(liq) elect-nuc-pol free energy of system      -76.855173881 a.u.
(4)  G-CDS(liq) cavity-dispersion-solvent structure 
     free energy                                                2.2004 kcal/mol
(6)  G-S(liq) free energy of system                      -76.851667360 a.u.
 SCF   energy in the final basis set =      -76.8516673596
 Total energy in the final basis set =      -76.8516673596
 
 --------------------------------------------------------------
 
                    Orbital Energies (a.u.)
 --------------------------------------------------------------
 
 Alpha MOs
 -- Occupied --
-19.4744  -1.2921  -0.7490  -0.7485  -0.5785
 -- Virtual --
  0.0164   0.0598   0.0599   0.1791   0.1843   0.2037   0.2039   0.2517
  0.2518   0.2913   0.5284   0.5289   0.6023   0.6402   0.6404   0.8381
  0.9032   0.9035   1.0038   1.1051   1.1051   1.1114   1.3678   1.4092
  1.4101   1.5488   1.9007   1.9009   2.1668   2.1780   2.1787   2.4971
  2.7821   2.7840   3.5580   3.7219   3.7229   3.8889   3.9462   3.9470
  4.0694   4.0710   4.2543   5.0968   5.2859   5.3184   5.3186   5.6873
  5.6891   5.8224   6.8877   7.0345   7.0352   7.1856   7.2463   7.2520
  7.5431   7.5454  50.3905
 --------------------------------------------------------------
 
          Ground-State Mulliken Net Atomic Charges

     Atom                 Charge (a.u.)
  ----------------------------------------
      1 O                    -0.224638
      2 H                     0.407585
      3 H                     0.408707
      4 H                     0.408346
  ----------------------------------------
  Sum of atomic charges =     1.000000

 -----------------------------------------------------------------
                    Cartesian Multipole Moments
 -----------------------------------------------------------------
    Charge (ESU x 10^10)
                 4.8032
    Dipole Moment (Debye)
         X       0.4738      Y      11.8962      Z       1.5119
       Tot      12.0012
    Quadrupole Moments (Debye-Ang)
        XX      -3.1100     XY       2.0629     YY      24.8962
        XZ       1.0882     YZ       1.8079     ZZ      -4.2895
    Octopole Moments (Debye-Ang^2)
       XXX      -3.9357    XXY      -6.9259    XYY       5.7731
       YYY      44.9713    XXZ       1.6432    XYZ       1.9246
       YYZ      -0.0460    XZZ      -0.1787    YZZ      -9.1247
       ZZZ       1.2414
    Hexadecapole Moments (Debye-Ang^3)
      XXXX      -6.2011   XXXY      -8.4136   XXYY     -17.4866
      XYYY      13.8706   YYYY      62.7719   XXXZ       0.9164
      XXYZ       3.2858   XYYZ       2.9281   YYYZ     -11.1338
      XXZZ      -1.0919   XYZZ      -0.4083   YYZZ     -20.9638
      XZZZ       1.0420   YZZZ       2.5217   ZZZZ      -4.6626
 -----------------------------------------------------------------
 Calculating analytic gradient of the SCF energy
 Gradient of CDS energy
            1           2           3           4
    1   0.0000427  -0.0004162   0.0003072   0.0000664
    2  -0.0000840  -0.0001703  -0.0001117   0.0003660
    3  -0.0000896   0.0000340   0.0003101  -0.0002545
 Gradient of SCF Energy
            1           2           3           4
    1   0.0163545  -0.0664124   0.0435697   0.0064883
    2  -0.0371840  -0.0178367  -0.0088315   0.0638522
    3  -0.0388463   0.0130193   0.0560868  -0.0302598
 Max gradient component =       6.641E-02
 RMS gradient           =       3.896E-02
 Computing fast CPCM-SWIG gradient
 Updating gradient with PCM contributions...
 -- total gradient after adding PCM contribution --
---------------------------------------------------
  Atom         X              Y              Z     
---------------------------------------------------
   1      -0.001249      -0.000172      -0.000208
   2       0.000866       0.000002      -0.000275
   3       0.000322       0.000066       0.000407
   4       0.000062       0.000104       0.000076
---------------------------------------------------
 Number of fixed atoms: 0
 Gradient time:  CPU 5.50 s  wall 0.71 s
 ----------------------------------------------------------------
             Standard Nuclear Orientation (Angstroms)
    I     Atom           X                Y                Z
 ----------------------------------------------------------------
    1      O       0.2595232765     2.1441453211    -0.0361804989
    2      H      -0.6678320335     1.9569356542     0.2016529386
    3      H       0.8097129852     2.0782319870     0.7664747601
    4      H       0.3176660719     3.0520395376    -0.3849776997
 ----------------------------------------------------------------
 Nuclear Repulsion Energy =          14.02598041 hartrees
 There are        5 alpha and        5 beta electrons
 Discretize the solute cavity surface with Lebedev spheres
	Using 110 Lebedev grid points for each H atom
	Using 194 Lebedev grid points for other atoms
	Atomic van der Waals radii will be scaled by 1.20
 Remove points where switching function is < 1.0e-08
 Keep 338 surface tesserae and discard 186 interior tesserae
 Molecular Surface Area = 40.202 Angst**2

                       Distance Matrix (Angstroms)
             O (  1)   H (  2)   H (  3)
   H (  2)  0.975500
   H (  3)  0.975351  1.586466
   H (  4)  0.974326  1.585747  1.586270
 
 Requested basis set is 6-311++G(2df,2p)
 There are 26 shells and 64 basis functions
 A cutoff of  1.0D-12 yielded    351 shell pairs
 There are      2163 function pairs (      2532 Cartesian)
 Smallest overlap matrix eigenvalue = 1.05E-03
 Guess MOs from SCF MO coefficient file

 -----------------------------------------------------------------------
  General SCF calculation program by
  Eric Jon Sundstrom, Paul Horn, Yuezhi Mao, Dmitri Zuev, Alec White,
  David Stuck, Shaama M.S., Shane Yost, Joonho Lee, David Small,
  Daniel Levine, Susi Lehtola, Hugh Burton, Evgeny Epifanovsky,
  Bang C. Huynh
 -----------------------------------------------------------------------
 Exchange:     0.1500 Hartree-Fock + 1.0000 wB97M-V + LR-HF
 Correlation:  1.0000 wB97M-V
 Using SG-2 standard quadrature grid
 Nonlocal Correlation:  VV10 with C = 0.0100 and b = 6.00 and scale = 1.00000
 Grid used for NLC:  SG-1 standard quadrature
 
 Citation of the SMD model:
 Marenich, A.V.; Cramer, C.J.; Truhlar, D.G.
 J. Phys. Chem. B 2009, 113, 6378-6396.
 iSolventCode=           1
 Solvent: water                                                           
 
 vradii
            1           2           3           4
    1   1.5200000   1.2000000   1.2000000   1.2000000
 -------------------------------------------------------
 OpenMP BLAS3 based DFT computing Module                
 Release: version 1.0, May 2013, Q-Chem Inc. Pittsburgh 
 -------------------------------------------------------
 A restricted SCF calculation will be
 performed using Roothaan-Hall, DIIS, GDM
 SCF converges when RMS gradient is below 1.0e-07
 ---------------------------------------
  Cycle       Energy         DIIS error
 ---------------------------------------
    1     -76.6953632615      1.29e-03  Roothaan Step
 ---------------------------------------
  Cycle       Energy         DIIS error
 ---------------------------------------
    1     -76.8541401554      1.20e-03  
    2     -76.8550963909      3.86e-04  Done DIIS. Switching to GDM
 ---------------------------------------
  Cycle       Energy        RMS Gradient
 ---------------------------------------
    1     -76.8550963909      3.35e-03   Normal BFGS step
    2     -76.8551503011      2.01e-03   Normal BFGS step
    3     -76.8551731247      3.02e-04   Normal BFGS step
    4     -76.8551739690      1.11e-04   Normal BFGS step
    5     -76.8551740170      2.99e-05   Normal BFGS step
    6     -76.8551740192      3.41e-06   Normal BFGS step
    7     -76.8551740193      6.50e-07   Normal BFGS step
    8     -76.8551740193      7.10e-08  Convergence criterion met
 ---------------------------------------
 SCF time:   CPU 27.37s  wall 4.00s 
(3)  G-ENP(liq) elect-nuc-pol free energy of system      -76.855174019 a.u.
(4)  G-CDS(liq) cavity-dispersion-solvent structure 
     free energy                                                2.2003 kcal/mol
(6)  G-S(liq) free energy of system                      -76.851667581 a.u.
 SCF   energy in the final basis set =      -76.8516675807
 Total energy in the final basis set =      -76.8516675807
 
 --------------------------------------------------------------
 
                    Orbital Energies (a.u.)
 --------------------------------------------------------------
 
 Alpha MOs
 -- Occupied --
-19.4744  -1.2921  -0.7491  -0.7487  -0.5785
 -- Virtual --
  0.0164   0.0598   0.0598   0.1791   0.1843   0.2037   0.2039   0.2518
  0.2518   0.2913   0.5285   0.5289   0.6023   0.6402   0.6404   0.8382
  0.9031   0.9034   1.0038   1.1052   1.1053   1.1115   1.3678   1.4094
  1.4102   1.5482   1.9008   1.9010   2.1672   2.1780   2.1786   2.4966
  2.7818   2.7844   3.5579   3.7218   3.7233   3.8890   3.9465   3.9475
  4.0695   4.0712   4.2545   5.0969   5.2862   5.3180   5.3187   5.6879
  5.6893   5.8232   6.8880   7.0347   7.0351   7.1859   7.2475   7.2522
  7.5433   7.5449  50.3906
 --------------------------------------------------------------
 
          Ground-State Mulliken Net Atomic Charges

     Atom                 Charge (a.u.)
  ----------------------------------------
      1 O                    -0.224396
      2 H                     0.408232
      3 H                     0.408404
      4 H                     0.407760
  ----------------------------------------
  Sum of atomic charges =     1.000000

 -----------------------------------------------------------------
                    Cartesian Multipole Moments
 -----------------------------------------------------------------
    Charge (ESU x 10^10)
                 4.8032
    Dipole Moment (Debye)
         X       0.4711      Y      11.8937      Z       1.5120
       Tot      11.9987
    Quadrupole Moments (Debye-Ang)
        XX      -3.1109     XY       2.0563     YY      24.8856
        XZ       1.0881     YZ       1.8078     ZZ      -4.2891
    Octopole Moments (Debye-Ang^2)
       XXX      -3.9515    XXY      -6.9332    XYY       5.7521
       YYY      44.9213    XXZ       1.6434    XYZ       1.9243
       YYZ      -0.0471    XZZ      -0.1837    YZZ      -9.1289
       ZZZ       1.2411
    Hexadecapole Moments (Debye-Ang^3)
      XXXX      -6.2180   XXXY      -8.4511   XXYY     -17.5159
      XYYY      13.7955   YYYY      62.5389   XXXZ       0.9169
      XXYZ       3.2858   XYYZ       2.9279   YYYZ     -11.1383
      XXZZ      -1.0949   XYZZ      -0.4208   YYZZ     -20.9831
      XZZZ       1.0429   YZZZ       2.5206   ZZZZ      -4.6608
 -----------------------------------------------------------------
 Calculating analytic gradient of the SCF energy
 Gradient of CDS energy
            1           2           3           4
    1   0.0000403  -0.0004158   0.0003082   0.0000674
    2  -0.0000863  -0.0001704  -0.0001101   0.0003668
    3  -0.0000895   0.0000332   0.0003098  -0.0002536
 Gradient of SCF Energy
            1           2           3           4
    1   0.0181567  -0.0674356   0.0431055   0.0061733
    2  -0.0357074  -0.0180869  -0.0091512   0.0629455
    3  -0.0390808   0.0133795   0.0558506  -0.0301493
 Max gradient component =       6.744E-02
 RMS gradient           =       3.890E-02
 Computing fast CPCM-SWIG gradient
 Updating gradient with PCM contributions...
 -- total gradient after adding PCM contribution --
---------------------------------------------------
  Atom         X              Y              Z     
---------------------------------------------------
   1       0.000211       0.000976      -0.000431
   2      -0.000108      -0.000185       0.000036
   3      -0.000011      -0.000044       0.000097
   4      -0.000092      -0.000746       0.000298
---------------------------------------------------
 Number of fixed atoms: 0
 Gradient time:  CPU 5.45 s  wall 0.71 s
 ----------------------------------------------------------------
             Standard Nuclear Orientation (Angstroms)
    I     Atom           X                Y                Z
 ----------------------------------------------------------------
    1      O       0.2595232765     2.1421453211    -0.0361804989
    2      H      -0.6678320335     1.9569356542     0.2016529386
    3      H       0.8097129852     2.0782319870     0.7664747601
    4      H       0.3176660719     3.0520395376    -0.3849776997
 ----------------------------------------------------------------
 Nuclear Repulsion Energy =          14.01997614 hartrees
 There are        5 alpha and        5 beta electrons
 Discretize the solute cavity surface with Lebedev spheres
	Using 110 Lebedev grid points for each H atom
	Using 194 Lebedev grid points for other atoms
	Atomic van der Waals radii will be scaled by 1.20
 Remove points where switching function is < 1.0e-08
 Keep 338 surface tesserae and discard 186 interior tesserae
 Molecular Surface Area = 40.212 Angst**2

                       Distance Matrix (Angstroms)
             O (  1)   H (  2)   H (  3)
   H (  2)  0.975118
   H (  3)  0.975217  1.586466
   H (  4)  0.976190  1.585747  1.586270
 
 Requested basis set is 6-311++G(2df,2p)
 There are 26 shells and 64 basis functions
 A cutoff of  1.0D-12 yielded    351 shell pairs
 There are      2163 function pairs (      2532 Cartesian)
 Smallest overlap matrix eigenvalue = 1.05E-03
 Guess MOs from SCF MO coefficient file

 -----------------------------------------------------------------------
  General SCF calculation program by
  Eric Jon Sundstrom, Paul Horn, Yuezhi Mao, Dmitri Zuev, Alec White,
  David Stuck, Shaama M.S., Shane Yost, Joonho Lee, David Small,
  Daniel Levine, Susi Lehtola, Hugh Burton, Evgeny Epifanovsky,
  Bang C. Huynh
 -----------------------------------------------------------------------
 Exchange:     0.1500 Hartree-Fock + 1.0000 wB97M-V + LR-HF
 Correlation:  1.0000 wB97M-V
 Using SG-2 standard quadrature grid
 Nonlocal Correlation:  VV10 with C = 0.0100 and b = 6.00 and scale = 1.00000
 Grid used for NLC:  SG-1 standard quadrature
 
 Citation of the SMD model:
 Marenich, A.V.; Cramer, C.J.; Truhlar, D.G.
 J. Phys. Chem. B 2009, 113, 6378-6396.
 iSolventCode=           1
 Solvent: water                                                           
 
 vradii
            1           2           3           4
    1   1.5200000   1.2000000   1.2000000   1.2000000
 -------------------------------------------------------
 OpenMP BLAS3 based DFT computing Module                
 Release: version 1.0, May 2013, Q-Chem Inc. Pittsburgh 
 -------------------------------------------------------
 A restricted SCF calculation will be
 performed using Roothaan-Hall, DIIS, GDM
 SCF converges when RMS gradient is below 1.0e-07
 ---------------------------------------
  Cycle       Energy         DIIS error
 ---------------------------------------
    1     -76.6953449819      1.30e-03  Roothaan Step
 ---------------------------------------
  Cycle       Energy         DIIS error
 ---------------------------------------
    1     -76.8541337920      1.21e-03  
    2     -76.8550946052      3.96e-04  Done DIIS. Switching to GDM
 ---------------------------------------
  Cycle       Energy        RMS Gradient
 ---------------------------------------
    1     -76.8550946052      3.36e-03   Normal BFGS step
    2     -76.8551487359      2.10e-03   Normal BFGS step
    3     -76.8551735449      2.99e-04   Normal BFGS step
    4     -76.8551743673      1.14e-04   Normal BFGS step
    5     -76.8551744160      2.95e-05   Normal BFGS step
    6     -76.8551744182      3.44e-06   Normal BFGS step
    7     -76.8551744183      6.63e-07   Normal BFGS step
    8     -76.8551744183      6.79e-08  Convergence criterion met
 ---------------------------------------
 SCF time:   CPU 27.47s  wall 3.00s 
(3)  G-ENP(liq) elect-nuc-pol free energy of system      -76.855174418 a.u.
(4)  G-CDS(liq) cavity-dispersion-solvent structure 
     free energy                                                2.2005 kcal/mol
(6)  G-S(liq) free energy of system                      -76.851667662 a.u.
 SCF   energy in the final basis set =      -76.8516676619
 Total energy in the final basis set =      -76.8516676619
 
 --------------------------------------------------------------
 
                    Orbital Energies (a.u.)
 --------------------------------------------------------------
 
 Alpha MOs
 -- Occupied --
-19.4745  -1.2920  -0.7488  -0.7482  -0.5786
 -- Virtual --
  0.0164   0.0598   0.0598   0.1791   0.1842   0.2035   0.2039   0.2517
  0.2518   0.2915   0.5281   0.5288   0.6023   0.6399   0.6403   0.8376
  0.9033   0.9038   1.0038   1.1047   1.1048   1.1111   1.3677   1.4089
  1.4098   1.5508   1.9005   1.9007   2.1656   2.1783   2.1787   2.4985
  2.7817   2.7843   3.5582   3.7210   3.7227   3.8886   3.9450   3.9459
  4.0685   4.0709   4.2536   5.0966   5.2851   5.3186   5.3193   5.6862
  5.6882   5.8201   6.8869   7.0343   7.0351   7.1846   7.2450   7.2492
  7.5441   7.5454  50.3903
 --------------------------------------------------------------
 
          Ground-State Mulliken Net Atomic Charges

     Atom                 Charge (a.u.)
  ----------------------------------------
      1 O                    -0.225347
      2 H                     0.408070
      3 H                     0.408386
      4 H                     0.408891
  ----------------------------------------
  Sum of atomic charges =     1.000000

 -----------------------------------------------------------------
                    Cartesian Multipole Moments
 -----------------------------------------------------------------
    Charge (ESU x 10^10)
                 4.8032
    Dipole Moment (Debye)
         X       0.4714      Y      11.8983      Z       1.5114
       Tot      12.0032
    Quadrupole Moments (Debye-Ang)
        XX      -3.1121     XY       2.0577     YY      24.9049
        XZ       1.0879     YZ       1.8074     ZZ      -4.2905
    Octopole Moments (Debye-Ang^2)
       XXX      -3.9524    XXY      -6.9255    XYY       5.7564
       YYY      45.0132    XXZ       1.6434    XYZ       1.9240
       YYZ      -0.0458    XZZ      -0.1843    YZZ      -9.1215
       ZZZ       1.2416
    Hexadecapole Moments (Debye-Ang^3)
      XXXX      -6.2191   XXXY      -8.4459   XXYY     -17.4789
      XYYY      13.8147   YYYY      62.9752   XXXZ       0.9171
      XXYZ       3.2862   XYYZ       2.9272   YYYZ     -11.1301
      XXZZ      -1.0956   XYZZ      -0.4191   YYZZ     -20.9461
      XZZZ       1.0429   YZZZ       2.5224   ZZZZ      -4.6631
 -----------------------------------------------------------------
 Calculating analytic gradient of the SCF energy
 Gradient of CDS energy
            1           2           3           4
    1   0.0000405  -0.0004155   0.0003073   0.0000677
    2  -0.0000819  -0.0001717  -0.0001118   0.0003654
    3  -0.0000899   0.0000343   0.0003104  -0.0002548
 Gradient of SCF Energy
            1           2           3           4
    1   0.0177458  -0.0670963   0.0431445   0.0062061
    2  -0.0382416  -0.0176312  -0.0087020   0.0645748
    3  -0.0381883   0.0130780   0.0555579  -0.0304476
 Max gradient component =       6.710E-02
 RMS gradient           =       3.914E-02
 Computing fast CPCM-SWIG gradient
 Updating gradient with PCM contributions...
 -- total gradient after adding PCM contribution --
---------------------------------------------------
  Atom         X              Y              Z     
---------------------------------------------------
   1      -0.000172      -0.000929       0.000425
   2       0.000209      -0.000002      -0.000163
   3      -0.000010       0.000112      -0.000089
   4      -0.000027       0.000819      -0.000173
---------------------------------------------------
 Number of fixed atoms: 0
 Gradient time:  CPU 5.34 s  wall 0.70 s
 ----------------------------------------------------------------
             Standard Nuclear Orientation (Angstroms)
    I     Atom           X                Y                Z
 ----------------------------------------------------------------
    1      O       0.2595232765     2.1431453211    -0.0351804989
    2      H      -0.6678320335     1.9569356542     0.2016529386
    3      H       0.8097129852     2.0782319870     0.7664747601
    4      H       0.3176660719     3.0520395376    -0.3849776997
 ----------------------------------------------------------------
 Nuclear Repulsion Energy =          14.02613430 hartrees
 There are        5 alpha and        5 beta electrons
 Discretize the solute cavity surface with Lebedev spheres
	Using 110 Lebedev grid points for each H atom
	Using 194 Lebedev grid points for other atoms
	Atomic van der Waals radii will be scaled by 1.20
 Remove points where switching function is < 1.0e-08
 Keep 338 surface tesserae and discard 186 interior tesserae
 Molecular Surface Area = 40.203 Angst**2

                       Distance Matrix (Angstroms)
             O (  1)   H (  2)   H (  3)
   H (  2)  0.975065
   H (  3)  0.974461  1.586466
   H (  4)  0.975616  1.585747  1.586270
 
 Requested basis set is 6-311++G(2df,2p)
 There are 26 shells and 64 basis functions
 A cutoff of  1.0D-12 yielded    351 shell pairs
 There are      2163 function pairs (      2532 Cartesian)
 Smallest overlap matrix eigenvalue = 1.05E-03
 Guess MOs from SCF MO coefficient file

 -----------------------------------------------------------------------
  General SCF calculation program by
  Eric Jon Sundstrom, Paul Horn, Yuezhi Mao, Dmitri Zuev, Alec White,
  David Stuck, Shaama M.S., Shane Yost, Joonho Lee, David Small,
  Daniel Levine, Susi Lehtola, Hugh Burton, Evgeny Epifanovsky,
  Bang C. Huynh
 -----------------------------------------------------------------------
 Exchange:     0.1500 Hartree-Fock + 1.0000 wB97M-V + LR-HF
 Correlation:  1.0000 wB97M-V
 Using SG-2 standard quadrature grid
 Nonlocal Correlation:  VV10 with C = 0.0100 and b = 6.00 and scale = 1.00000
 Grid used for NLC:  SG-1 standard quadrature
 
 Citation of the SMD model:
 Marenich, A.V.; Cramer, C.J.; Truhlar, D.G.
 J. Phys. Chem. B 2009, 113, 6378-6396.
 iSolventCode=           1
 Solvent: water                                                           
 
 vradii
            1           2           3           4
    1   1.5200000   1.2000000   1.2000000   1.2000000
 -------------------------------------------------------
 OpenMP BLAS3 based DFT computing Module                
 Release: version 1.0, May 2013, Q-Chem Inc. Pittsburgh 
 -------------------------------------------------------
 A restricted SCF calculation will be
 performed using Roothaan-Hall, DIIS, GDM
 SCF converges when RMS gradient is below 1.0e-07
 ---------------------------------------
  Cycle       Energy         DIIS error
 ---------------------------------------
    1     -76.6953612723      1.29e-03  Roothaan Step
 ---------------------------------------
  Cycle       Energy         DIIS error
 ---------------------------------------
    1     -76.8541406703      1.20e-03  
    2     -76.8550971684      3.82e-04  Done DIIS. Switching to GDM
 ---------------------------------------
  Cycle       Energy        RMS Gradient
 ---------------------------------------
    1     -76.8550971684      3.34e-03   Normal BFGS step
    2     -76.8551511321      1.98e-03   Normal BFGS step
    3     -76.8551731755      3.04e-04   Normal BFGS step
    4     -76.8551740361      1.10e-04   Normal BFGS step
    5     -76.8551740840      3.00e-05   Normal BFGS step
    6     -76.8551740862      3.40e-06   Normal BFGS step
    7     -76.8551740863      6.43e-07   Normal BFGS step
    8     -76.8551740863      7.26e-08  Convergence criterion met
 ---------------------------------------
 SCF time:   CPU 27.12s  wall 4.00s 
(3)  G-ENP(liq) elect-nuc-pol free energy of system      -76.855174086 a.u.
(4)  G-CDS(liq) cavity-dispersion-solvent structure 
     free energy                                                2.2003 kcal/mol
(6)  G-S(liq) free energy of system                      -76.851667658 a.u.
 SCF   energy in the final basis set =      -76.8516676582
 Total energy in the final basis set =      -76.8516676582
 
 --------------------------------------------------------------
 
                    Orbital Energies (a.u.)
 --------------------------------------------------------------
 
 Alpha MOs
 -- Occupied --
-19.4744  -1.2921  -0.7492  -0.7486  -0.5785
 -- Virtual --
  0.0164   0.0598   0.0598   0.1791   0.1843   0.2037   0.2040   0.2518
  0.2518   0.2913   0.5284   0.5291   0.6023   0.6401   0.6406   0.8382
  0.9030   0.9035   1.0038   1.1052   1.1053   1.1115   1.3678   1.4093
  1.4102   1.5481   1.9008   1.9010   2.1672   2.1781   2.1785   2.4966
  2.7816   2.7845   3.5579   3.7217   3.7235   3.8890   3.9466   3.9475
  4.0690   4.0717   4.2546   5.0969   5.2862   5.3179   5.3187   5.6876
  5.6896   5.8233   6.8880   7.0345   7.0353   7.1859   7.2479   7.2520
  7.5436   7.5445  50.3906
 --------------------------------------------------------------
 
          Ground-State Mulliken Net Atomic Charges

     Atom                 Charge (a.u.)
  ----------------------------------------
      1 O                    -0.224374
      2 H                     0.407982
      3 H                     0.407891
      4 H                     0.408502
  ----------------------------------------
  Sum of atomic charges =     1.000000

 -----------------------------------------------------------------
                    Cartesian Multipole Moments
 -----------------------------------------------------------------
    Charge (ESU x 10^10)
                 4.8032
    Dipole Moment (Debye)
         X       0.4711      Y      11.8963      Z       1.5094
       Tot      12.0010
    Quadrupole Moments (Debye-Ang)
        XX      -3.1107     XY       2.0568     YY      24.8973
        XZ       1.0877     YZ       1.8024     ZZ      -4.2894
    Octopole Moments (Debye-Ang^2)
       XXX      -3.9512    XXY      -6.9276    XYY       5.7542
       YYY      44.9758    XXZ       1.6382    XYZ       1.9235
       YYZ      -0.0639    XZZ      -0.1839    YZZ      -9.1248
       ZZZ       1.2255
    Hexadecapole Moments (Debye-Ang^3)
      XXXX      -6.2155   XXXY      -8.4469   XXYY     -17.4933
      XYYY      13.8065   YYYY      62.7877   XXXZ       0.9139
      XXYZ       3.2750   XYYZ       2.9249   YYYZ     -11.1965
      XXZZ      -1.0945   XYZZ      -0.4198   YYZZ     -20.9635
      XZZZ       1.0390   YZZZ       2.4875   ZZZZ      -4.6586
 -----------------------------------------------------------------
 Calculating analytic gradient of the SCF energy
 Gradient of CDS energy
            1           2           3           4
    1   0.0000403  -0.0004155   0.0003072   0.0000680
    2  -0.0000839  -0.0001713  -0.0001108   0.0003660
    3  -0.0000918   0.0000348   0.0003110  -0.0002539
 Gradient of SCF Energy
            1           2           3           4
    1   0.0181677  -0.0671833   0.0428814   0.0061342
    2  -0.0374231  -0.0177717  -0.0089066   0.0641015
    3  -0.0374090   0.0129465   0.0550109  -0.0305483
 Max gradient component =       6.718E-02
 RMS gradient           =       3.889E-02
 Computing fast CPCM-SWIG gradient
 Updating gradient with PCM contributions...
 -- total gradient after adding PCM contribution --
---------------------------------------------------
  Atom         X              Y              Z     
---------------------------------------------------
   1       0.000229      -0.000407       0.000915
   2       0.000207      -0.000022      -0.000199
   3      -0.000355       0.000073      -0.000634
   4      -0.000081       0.000357      -0.000082
---------------------------------------------------
 Number of fixed atoms: 0
 Gradient time:  CPU 5.32 s  wall 0.69 s
 ----------------------------------------------------------------
             Standard Nuclear Orientation (Angstroms)
    I     Atom           X                Y                Z
 ----------------------------------------------------------------
    1      O       0.2595232765     2.1431453211    -0.0371804989
    2      H      -0.6678320335     1.9569356542     0.2016529386
    3      H       0.8097129852     2.0782319870     0.7664747601
    4      H       0.3176660719     3.0520395376    -0.3849776997
 ----------------------------------------------------------------
 Nuclear Repulsion Energy =          14.01982163 hartrees
 There are        5 alpha and        5 beta electrons
 Discretize the solute cavity surface with Lebedev spheres
	Using 110 Lebedev grid points for each H atom
	Using 194 Lebedev grid points for other atoms
	Atomic van der Waals radii will be scaled by 1.20
 Remove points where switching function is < 1.0e-08
 Keep 338 surface tesserae and discard 186 interior tesserae
 Molecular Surface Area = 40.212 Angst**2

                       Distance Matrix (Angstroms)
             O (  1)   H (  2)   H (  3)
   H (  2)  0.975553
   H (  3)  0.976107  1.586466
   H (  4)  0.974901  1.585747  1.586270
 
 Requested basis set is 6-311++G(2df,2p)
 There are 26 shells and 64 basis functions
 A cutoff of  1.0D-12 yielded    351 shell pairs
 There are      2163 function pairs (      2532 Cartesian)
 Smallest overlap matrix eigenvalue = 1.05E-03
 Guess MOs from SCF MO coefficient file

 -----------------------------------------------------------------------
  General SCF calculation program by
  Eric Jon Sundstrom, Paul Horn, Yuezhi Mao, Dmitri Zuev, Alec White,
  David Stuck, Shaama M.S., Shane Yost, Joonho Lee, David Small,
  Daniel Levine, Susi Lehtola, Hugh Burton, Evgeny Epifanovsky,
  Bang C. Huynh
 -----------------------------------------------------------------------
 Exchange:     0.1500 Hartree-Fock + 1.0000 wB97M-V + LR-HF
 Correlation:  1.0000 wB97M-V
 Using SG-2 standard quadrature grid
 Nonlocal Correlation:  VV10 with C = 0.0100 and b = 6.00 and scale = 1.00000
 Grid used for NLC:  SG-1 standard quadrature
 
 Citation of the SMD model:
 Marenich, A.V.; Cramer, C.J.; Truhlar, D.G.
 J. Phys. Chem. B 2009, 113, 6378-6396.
 iSolventCode=           1
 Solvent: water                                                           
 
 vradii
            1           2           3           4
    1   1.5200000   1.2000000   1.2000000   1.2000000
 -------------------------------------------------------
 OpenMP BLAS3 based DFT computing Module                
 Release: version 1.0, May 2013, Q-Chem Inc. Pittsburgh 
 -------------------------------------------------------
 A restricted SCF calculation will be
 performed using Roothaan-Hall, DIIS, GDM
 SCF converges when RMS gradient is below 1.0e-07
 ---------------------------------------
  Cycle       Energy         DIIS error
 ---------------------------------------
    1     -76.6953447312      1.30e-03  Roothaan Step
 ---------------------------------------
  Cycle       Energy         DIIS error
 ---------------------------------------
    1     -76.8541336709      1.21e-03  
    2     -76.8550945402      3.96e-04  Done DIIS. Switching to GDM
 ---------------------------------------
  Cycle       Energy        RMS Gradient
 ---------------------------------------
    1     -76.8550945402      3.36e-03   Normal BFGS step
    2     -76.8551486709      2.10e-03   Normal BFGS step
    3     -76.8551735494      2.98e-04   Normal BFGS step
    4     -76.8551743711      1.14e-04   Normal BFGS step
    5     -76.8551744198      2.95e-05   Normal BFGS step
    6     -76.8551744220      3.44e-06   Normal BFGS step
    7     -76.8551744220      6.63e-07   Normal BFGS step
    8     -76.8551744220      6.78e-08  Convergence criterion met
 ---------------------------------------
 SCF time:   CPU 26.85s  wall 3.00s 
(3)  G-ENP(liq) elect-nuc-pol free energy of system      -76.855174422 a.u.
(4)  G-CDS(liq) cavity-dispersion-solvent structure 
     free energy                                                2.2005 kcal/mol
(6)  G-S(liq) free energy of system                      -76.851667655 a.u.
 SCF   energy in the final basis set =      -76.8516676551
 Total energy in the final basis set =      -76.8516676551
 
 --------------------------------------------------------------
 
                    Orbital Energies (a.u.)
 --------------------------------------------------------------
 
 Alpha MOs
 -- Occupied --
-19.4745  -1.2920  -0.7487  -0.7484  -0.5786
 -- Virtual --
  0.0164   0.0598   0.0598   0.1791   0.1842   0.2036   0.2038   0.2517
  0.2518   0.2915   0.5283   0.5286   0.6023   0.6400   0.6401   0.8376
  0.9034   0.9037   1.0038   1.1047   1.1048   1.1111   1.3677   1.4090
  1.4097   1.5509   1.9005   1.9007   2.1656   2.1782   2.1788   2.4985
  2.7819   2.7842   3.5582   3.7212   3.7224   3.8886   3.9450   3.9458
  4.0692   4.0702   4.2536   5.0966   5.2851   5.3187   5.3192   5.6866
  5.6877   5.8200   6.8868   7.0345   7.0349   7.1846   7.2448   7.2493
  7.5439   7.5457  50.3903
 --------------------------------------------------------------
 
          Ground-State Mulliken Net Atomic Charges

     Atom                 Charge (a.u.)
  ----------------------------------------
      1 O                    -0.225369
      2 H                     0.408321
      3 H                     0.408898
      4 H                     0.408150
  ----------------------------------------
  Sum of atomic charges =     1.000000

 -----------------------------------------------------------------
                    Cartesian Multipole Moments
 -----------------------------------------------------------------
    Charge (ESU x 10^10)
                 4.8032
    Dipole Moment (Debye)
         X       0.4714      Y      11.8957      Z       1.5140
       Tot      12.0010
    Quadrupole Moments (Debye-Ang)
        XX      -3.1124     XY       2.0572     YY      24.8933
        XZ       1.0883     YZ       1.8128     ZZ      -4.2901
    Octopole Moments (Debye-Ang^2)
       XXX      -3.9527    XXY      -6.9311    XYY       5.7543
       YYY      44.9587    XXZ       1.6486    XYZ       1.9248
       YYZ      -0.0291    XZZ      -0.1841    YZZ      -9.1256
       ZZZ       1.2572
    Hexadecapole Moments (Debye-Ang^3)
      XXXX      -6.2216   XXXY      -8.4501   XXYY     -17.5014
      XYYY      13.8037   YYYY      62.7264   XXXZ       0.9201
      XXYZ       3.2971   XYYZ       2.9301   YYYZ     -11.0719
      XXZZ      -1.0960   XYZZ      -0.4201   YYZZ     -20.9658
      XZZZ       1.0468   YZZZ       2.5555   ZZZZ      -4.6653
 -----------------------------------------------------------------
 Calculating analytic gradient of the SCF energy
 Gradient of CDS energy
            1           2           3           4
    1   0.0000405  -0.0004159   0.0003082   0.0000672
    2  -0.0000843  -0.0001708  -0.0001112   0.0003662
    3  -0.0000875   0.0000327   0.0003093  -0.0002545
 Gradient of SCF Energy
            1           2           3           4
    1   0.0177376  -0.0673487   0.0433656   0.0062455
    2  -0.0365318  -0.0179458  -0.0089457   0.0634233
    3  -0.0398537   0.0135110   0.0563939  -0.0300513
 Max gradient component =       6.735E-02
 RMS gradient           =       3.914E-02
 Computing fast CPCM-SWIG gradient
 Updating gradient with PCM contributions...
 -- total gradient after adding PCM contribution --
---------------------------------------------------
  Atom         X              Y              Z     
---------------------------------------------------
   1      -0.000187       0.000448      -0.000914
   2      -0.000105      -0.000164       0.000073
   3       0.000331      -0.000004       0.000639
   4      -0.000038      -0.000279       0.000203
---------------------------------------------------
 Number of fixed atoms: 0
 Gradient time:  CPU 5.33 s  wall 0.69 s
 ----------------------------------------------------------------
             Standard Nuclear Orientation (Angstroms)
    I     Atom           X                Y                Z
 ----------------------------------------------------------------
    1      O       0.2595232765     2.1431453211    -0.0361804989
    2      H      -0.6668320335     1.9569356542     0.2016529386
    3      H       0.8097129852     2.0782319870     0.7664747601
    4      H       0.3176660719     3.0520395376    -0.3849776997
 ----------------------------------------------------------------
 Nuclear Repulsion Energy =          14.02754118 hartrees
 There are        5 alpha and        5 beta electrons
 Discretize the solute cavity surface with Lebedev spheres
	Using 110 Lebedev grid points for each H atom
	Using 194 Lebedev grid points for other atoms
	Atomic van der Waals radii will be scaled by 1.20
 Remove points where switching function is < 1.0e-08
 Keep 338 surface tesserae and discard 186 interior tesserae
 Molecular Surface Area = 40.200 Angst**2

                       Distance Matrix (Angstroms)
             O (  1)   H (  2)   H (  3)
   H (  2)  0.974358
   H (  3)  0.975284  1.585535
   H (  4)  0.975258  1.585126  1.586270
 
 Requested basis set is 6-311++G(2df,2p)
 There are 26 shells and 64 basis functions
 A cutoff of  1.0D-12 yielded    351 shell pairs
 There are      2163 function pairs (      2532 Cartesian)
 Smallest overlap matrix eigenvalue = 1.05E-03
 Guess MOs from SCF MO coefficient file

 -----------------------------------------------------------------------
  General SCF calculation program by
  Eric Jon Sundstrom, Paul Horn, Yuezhi Mao, Dmitri Zuev, Alec White,
  David Stuck, Shaama M.S., Shane Yost, Joonho Lee, David Small,
  Daniel Levine, Susi Lehtola, Hugh Burton, Evgeny Epifanovsky,
  Bang C. Huynh
 -----------------------------------------------------------------------
 Exchange:     0.1500 Hartree-Fock + 1.0000 wB97M-V + LR-HF
 Correlation:  1.0000 wB97M-V
 Using SG-2 standard quadrature grid
 Nonlocal Correlation:  VV10 with C = 0.0100 and b = 6.00 and scale = 1.00000
 Grid used for NLC:  SG-1 standard quadrature
 
 Citation of the SMD model:
 Marenich, A.V.; Cramer, C.J.; Truhlar, D.G.
 J. Phys. Chem. B 2009, 113, 6378-6396.
 iSolventCode=           1
 Solvent: water                                                           
 
 vradii
            1           2           3           4
    1   1.5200000   1.2000000   1.2000000   1.2000000
 -------------------------------------------------------
 OpenMP BLAS3 based DFT computing Module                
 Release: version 1.0, May 2013, Q-Chem Inc. Pittsburgh 
 -------------------------------------------------------
 A restricted SCF calculation will be
 performed using Roothaan-Hall, DIIS, GDM
 SCF converges when RMS gradient is below 1.0e-07
 ---------------------------------------
  Cycle       Energy         DIIS error
 ---------------------------------------
    1     -76.6953403874      1.30e-03  Roothaan Step
 ---------------------------------------
  Cycle       Energy         DIIS error
 ---------------------------------------
    1     -76.8541378930      1.20e-03  
    2     -76.8550966444      3.82e-04  Done DIIS. Switching to GDM
 ---------------------------------------
  Cycle       Energy        RMS Gradient
 ---------------------------------------
    1     -76.8550966444      3.35e-03   Normal BFGS step
    2     -76.8551506584      1.97e-03   Normal BFGS step
    3     -76.8551725208      3.04e-04   Normal BFGS step
    4     -76.8551733864      1.10e-04   Normal BFGS step
    5     -76.8551734342      3.01e-05   Normal BFGS step
    6     -76.8551734365      3.39e-06   Normal BFGS step
    7     -76.8551734365      6.41e-07   Normal BFGS step
    8     -76.8551734365      7.29e-08  Convergence criterion met
 ---------------------------------------
 SCF time:   CPU 27.12s  wall 4.00s 
(3)  G-ENP(liq) elect-nuc-pol free energy of system      -76.855173437 a.u.
(4)  G-CDS(liq) cavity-dispersion-solvent structure 
     free energy                                                2.1999 kcal/mol
(6)  G-S(liq) free energy of system                      -76.851667623 a.u.
 SCF   energy in the final basis set =      -76.8516676229
 Total energy in the final basis set =      -76.8516676229
 
 --------------------------------------------------------------
 
                    Orbital Energies (a.u.)
 --------------------------------------------------------------
 
 Alpha MOs
 -- Occupied --
-19.4745  -1.2923  -0.7490  -0.7488  -0.5786
 -- Virtual --
  0.0165   0.0598   0.0599   0.1791   0.1844   0.2038   0.2039   0.2517
  0.2518   0.2913   0.5286   0.5288   0.6025   0.6402   0.6403   0.8379
  0.9033   0.9034   1.0040   1.1050   1.1051   1.1112   1.3682   1.4096
  1.4101   1.5492   1.9008   1.9009   2.1664   2.1780   2.1783   2.4974
  2.7824   2.7844   3.5580   3.7217   3.7230   3.8892   3.9463   3.9470
  4.0701   4.0711   4.2551   5.0968   5.2862   5.3190   5.3192   5.6882
  5.6893   5.8226   6.8880   7.0347   7.0352   7.1851   7.2485   7.2531
  7.5437   7.5448  50.3910
 --------------------------------------------------------------
 
          Ground-State Mulliken Net Atomic Charges

     Atom                 Charge (a.u.)
  ----------------------------------------
      1 O                    -0.224128
      2 H                     0.407469
      3 H                     0.408344
      4 H                     0.408315
  ----------------------------------------
  Sum of atomic charges =     1.000000

 -----------------------------------------------------------------
                    Cartesian Multipole Moments
 -----------------------------------------------------------------
    Charge (ESU x 10^10)
                 4.8032
    Dipole Moment (Debye)
         X       0.4741      Y      11.8964      Z       1.5116
       Tot      12.0014
    Quadrupole Moments (Debye-Ang)
        XX      -3.1146     XY       2.0626     YY      24.8978
        XZ       1.0886     YZ       1.8074     ZZ      -4.2887
    Octopole Moments (Debye-Ang^2)
       XXX      -3.9487    XXY      -6.9350    XYY       5.7650
       YYY      44.9793    XXZ       1.6425    XYZ       1.9252
       YYZ      -0.0469    XZZ      -0.1842    YZZ      -9.1228
       ZZZ       1.2417
    Hexadecapole Moments (Debye-Ang^3)
      XXXX      -6.2187   XXXY      -8.4420   XXYY     -17.5067
      XYYY      13.8254   YYYY      62.8047   XXXZ       0.9176
      XXYZ       3.2844   XYYZ       2.9292   YYYZ     -11.1352
      XXZZ      -1.0944   XYZZ      -0.4203   YYZZ     -20.9590
      XZZZ       1.0426   YZZZ       2.5222   ZZZZ      -4.6604
 -----------------------------------------------------------------
 Calculating analytic gradient of the SCF energy
 Gradient of CDS energy
            1           2           3           4
    1   0.0000409  -0.0004161   0.0003078   0.0000673
    2  -0.0000842  -0.0001710  -0.0001109   0.0003662
    3  -0.0000895   0.0000336   0.0003100  -0.0002542
 Gradient of SCF Energy
            1           2           3           4
    1   0.0169733  -0.0663552   0.0431317   0.0062502
    2  -0.0370943  -0.0177460  -0.0089371   0.0637774
    3  -0.0384095   0.0130352   0.0557071  -0.0303328
 Max gradient component =       6.636E-02
 RMS gradient           =       3.883E-02
 Computing fast CPCM-SWIG gradient
 Updating gradient with PCM contributions...
 -- total gradient after adding PCM contribution --
---------------------------------------------------
  Atom         X              Y              Z     
---------------------------------------------------
   1      -0.000796      -0.000139       0.000156
   2       0.000901       0.000069      -0.000238
   3      -0.000048       0.000031       0.000017
   4      -0.000057       0.000038       0.000066
---------------------------------------------------
 Number of fixed atoms: 0
 Gradient time:  CPU 5.39 s  wall 0.70 s
 ----------------------------------------------------------------
             Standard Nuclear Orientation (Angstroms)
    I     Atom           X                Y                Z
 ----------------------------------------------------------------
    1      O       0.2595232765     2.1431453211    -0.0361804989
    2      H      -0.6688320335     1.9569356542     0.2016529386
    3      H       0.8097129852     2.0782319870     0.7664747601
    4      H       0.3176660719     3.0520395376    -0.3849776997
 ----------------------------------------------------------------
 Nuclear Repulsion Energy =          14.01842465 hartrees
 There are        5 alpha and        5 beta electrons
 Discretize the solute cavity surface with Lebedev spheres
	Using 110 Lebedev grid points for each H atom
	Using 194 Lebedev grid points for other atoms
	Atomic van der Waals radii will be scaled by 1.20
 Remove points where switching function is < 1.0e-08
 Keep 338 surface tesserae and discard 186 interior tesserae
 Molecular Surface Area = 40.215 Angst**2

                       Distance Matrix (Angstroms)
             O (  1)   H (  2)   H (  3)
   H (  2)  0.976259
   H (  3)  0.975284  1.587398
   H (  4)  0.975258  1.586369  1.586270
 
 Requested basis set is 6-311++G(2df,2p)
 There are 26 shells and 64 basis functions
 A cutoff of  1.0D-12 yielded    351 shell pairs
 There are      2163 function pairs (      2532 Cartesian)
 Smallest overlap matrix eigenvalue = 1.05E-03
 Guess MOs from SCF MO coefficient file

 -----------------------------------------------------------------------
  General SCF calculation program by
  Eric Jon Sundstrom, Paul Horn, Yuezhi Mao, Dmitri Zuev, Alec White,
  David Stuck, Shaama M.S., Shane Yost, Joonho Lee, David Small,
  Daniel Levine, Susi Lehtola, Hugh Burton, Evgeny Epifanovsky,
  Bang C. Huynh
 -----------------------------------------------------------------------
 Exchange:     0.1500 Hartree-Fock + 1.0000 wB97M-V + LR-HF
 Correlation:  1.0000 wB97M-V
 Using SG-2 standard quadrature grid
 Nonlocal Correlation:  VV10 with C = 0.0100 and b = 6.00 and scale = 1.00000
 Grid used for NLC:  SG-1 standard quadrature
 
 Citation of the SMD model:
 Marenich, A.V.; Cramer, C.J.; Truhlar, D.G.
 J. Phys. Chem. B 2009, 113, 6378-6396.
 iSolventCode=           1
 Solvent: water                                                           
 
 vradii
            1           2           3           4
    1   1.5200000   1.2000000   1.2000000   1.2000000
 -------------------------------------------------------
 OpenMP BLAS3 based DFT computing Module                
 Release: version 1.0, May 2013, Q-Chem Inc. Pittsburgh 
 -------------------------------------------------------
 A restricted SCF calculation will be
 performed using Roothaan-Hall, DIIS, GDM
 SCF converges when RMS gradient is below 1.0e-07
 ---------------------------------------
  Cycle       Energy         DIIS error
 ---------------------------------------
    1     -76.6953671090      1.29e-03  Roothaan Step
 ---------------------------------------
  Cycle       Energy         DIIS error
 ---------------------------------------
    1     -76.8541360832      1.21e-03  
    2     -76.8550946903      3.98e-04  Done DIIS. Switching to GDM
 ---------------------------------------
  Cycle       Energy        RMS Gradient
 ---------------------------------------
    1     -76.8550946903      3.36e-03   Normal BFGS step
    2     -76.8551488662      2.13e-03   Normal BFGS step
    3     -76.8551743348      2.97e-04   Normal BFGS step
    4     -76.8551751519      1.15e-04   Normal BFGS step
    5     -76.8551752008      2.93e-05   Normal BFGS step
    6     -76.8551752030      3.46e-06   Normal BFGS step
    7     -76.8551752031      6.64e-07   Normal BFGS step
    8     -76.8551752031      6.71e-08  Convergence criterion met
 ---------------------------------------
 SCF time:   CPU 27.25s  wall 3.00s 
(3)  G-ENP(liq) elect-nuc-pol free energy of system      -76.855175203 a.u.
(4)  G-CDS(liq) cavity-dispersion-solvent structure 
     free energy                                                2.2009 kcal/mol
(6)  G-S(liq) free energy of system                      -76.851667818 a.u.
 SCF   energy in the final basis set =      -76.8516678184
 Total energy in the final basis set =      -76.8516678184
 
 --------------------------------------------------------------
 
                    Orbital Energies (a.u.)
 --------------------------------------------------------------
 
 Alpha MOs
 -- Occupied --
-19.4745  -1.2919  -0.7487  -0.7483  -0.5784
 -- Virtual --
  0.0164   0.0598   0.0598   0.1791   0.1842   0.2036   0.2038   0.2517
  0.2518   0.2914   0.5282   0.5287   0.6021   0.6400   0.6403   0.8379
  0.9033   0.9036   1.0037   1.1048   1.1050   1.1114   1.3674   1.4090
  1.4096   1.5498   1.9005   1.9007   2.1664   2.1784   2.1788   2.4977
  2.7811   2.7843   3.5581   3.7213   3.7229   3.8884   3.9452   3.9464
  4.0685   4.0705   4.2531   5.0968   5.2851   5.3179   5.3185   5.6864
  5.6878   5.8208   6.8868   7.0343   7.0350   7.1854   7.2438   7.2485
  7.5445   7.5447  50.3900
 --------------------------------------------------------------
 
          Ground-State Mulliken Net Atomic Charges

     Atom                 Charge (a.u.)
  ----------------------------------------
      1 O                    -0.225614
      2 H                     0.408832
      3 H                     0.408446
      4 H                     0.408336
  ----------------------------------------
  Sum of atomic charges =     1.000000

 -----------------------------------------------------------------
                    Cartesian Multipole Moments
 -----------------------------------------------------------------
    Charge (ESU x 10^10)
                 4.8032
    Dipole Moment (Debye)
         X       0.4684      Y      11.8957      Z       1.5118
       Tot      12.0005
    Quadrupole Moments (Debye-Ang)
        XX      -3.1084     XY       2.0514     YY      24.8927
        XZ       1.0875     YZ       1.8078     ZZ      -4.2909
    Octopole Moments (Debye-Ang^2)
       XXX      -3.9552    XXY      -6.9236    XYY       5.7434
       YYY      44.9552    XXZ       1.6442    XYZ       1.9231
       YYZ      -0.0460    XZZ      -0.1838    YZZ      -9.1275
       ZZZ       1.2411
    Hexadecapole Moments (Debye-Ang^3)
      XXXX      -6.2184   XXXY      -8.4550   XXYY     -17.4880
      XYYY      13.7847   YYYY      62.7094   XXXZ       0.9164
      XXYZ       3.2877   XYYZ       2.9259   YYYZ     -11.1332
      XXZZ      -1.0961   XYZZ      -0.4196   YYZZ     -20.9702
      XZZZ       1.0432   YZZZ       2.5209   ZZZZ      -4.6635
 -----------------------------------------------------------------
 Calculating analytic gradient of the SCF energy
 Gradient of CDS energy
            1           2           3           4
    1   0.0000398  -0.0004153   0.0003076   0.0000679
    2  -0.0000839  -0.0001711  -0.0001110   0.0003661
    3  -0.0000899   0.0000339   0.0003102  -0.0002542
 Gradient of SCF Energy
            1           2           3           4
    1   0.0189229  -0.0681708   0.0431180   0.0061298
    2  -0.0368615  -0.0179706  -0.0089159   0.0637480
    3  -0.0388543   0.0134203   0.0557009  -0.0302668
 Max gradient component =       6.817E-02
 RMS gradient           =       3.920E-02
 Computing fast CPCM-SWIG gradient
 Updating gradient with PCM contributions...
 -- total gradient after adding PCM contribution --
---------------------------------------------------
  Atom         X              Y              Z     
---------------------------------------------------
   1       0.000829       0.000179      -0.000157
   2      -0.000794      -0.000255       0.000110
   3       0.000027       0.000037      -0.000009
   4      -0.000062       0.000040       0.000056
---------------------------------------------------
 Number of fixed atoms: 0
 Gradient time:  CPU 5.41 s  wall 0.70 s
 ----------------------------------------------------------------
             Standard Nuclear Orientation (Angstroms)
    I     Atom           X                Y                Z
 ----------------------------------------------------------------
    1      O       0.2595232765     2.1431453211    -0.0361804989
[...]
   H (  4)  0.975616  1.586118  1.586997
 
 Requested basis set is 6-311++G(2df,2p)
 There are 26 shells and 64 basis functions
 A cutoff of  1.0D-12 yielded    351 shell pairs
 There are      2163 function pairs (      2532 Cartesian)
 Smallest overlap matrix eigenvalue = 1.05E-03
 Guess MOs from SCF MO coefficient file

 -----------------------------------------------------------------------
  General SCF calculation program by
  Eric Jon Sundstrom, Paul Horn, Yuezhi Mao, Dmitri Zuev, Alec White,
  David Stuck, Shaama M.S., Shane Yost, Joonho Lee, David Small,
  Daniel Levine, Susi Lehtola, Hugh Burton, Evgeny Epifanovsky,
  Bang C. Huynh
 -----------------------------------------------------------------------
 Exchange:     0.1500 Hartree-Fock + 1.0000 wB97M-V + LR-HF
 Correlation:  1.0000 wB97M-V
 Using SG-2 standard quadrature grid
 Nonlocal Correlation:  VV10 with C = 0.0100 and b = 6.00 and scale = 1.00000
 Grid used for NLC:  SG-1 standard quadrature
 
 Citation of the SMD model:
 Marenich, A.V.; Cramer, C.J.; Truhlar, D.G.
 J. Phys. Chem. B 2009, 113, 6378-6396.
 iSolventCode=           1
 Solvent: water                                                           
 
 vradii
            1           2           3           4
    1   1.5200000   1.2000000   1.2000000   1.2000000
 -------------------------------------------------------
 OpenMP BLAS3 based DFT computing Module                
 Release: version 1.0, May 2013, Q-Chem Inc. Pittsburgh 
 -------------------------------------------------------
 A restricted SCF calculation will be
 performed using Roothaan-Hall, DIIS, GDM
 SCF converges when RMS gradient is below 1.0e-07
 ---------------------------------------
  Cycle       Energy         DIIS error
 ---------------------------------------
    1     -76.6953677867      1.29e-03  Roothaan Step
 ---------------------------------------
  Cycle       Energy         DIIS error
 ---------------------------------------
    1     -76.8541387365      1.20e-03  
    2     -76.8550963630      3.92e-04  Done DIIS. Switching to GDM
 ---------------------------------------
  Cycle       Energy        RMS Gradient
 ---------------------------------------
    1     -76.8550963630      3.36e-03   Normal BFGS step
    2     -76.8551504610      2.07e-03   Normal BFGS step
    3     -76.8551746727      3.00e-04   Normal BFGS step
    4     -76.8551755017      1.13e-04   Normal BFGS step
    5     -76.8551755502      2.96e-05   Normal BFGS step
    6     -76.8551755525      3.44e-06   Normal BFGS step
    7     -76.8551755525      6.59e-07   Normal BFGS step
    8     -76.8551755525      6.89e-08  Convergence criterion met
 ---------------------------------------
 SCF time:   CPU 26.97s  wall 4.00s 
(3)  G-ENP(liq) elect-nuc-pol free energy of system      -76.855175553 a.u.
(4)  G-CDS(liq) cavity-dispersion-solvent structure 
     free energy                                                2.2007 kcal/mol
(6)  G-S(liq) free energy of system                      -76.851668473 a.u.
 SCF   energy in the final basis set =      -76.8516684728
 Total energy in the final basis set =      -76.8516684728
 
 --------------------------------------------------------------
 
                    Orbital Energies (a.u.)
 --------------------------------------------------------------
 
 Alpha MOs
 -- Occupied --
-19.4744  -1.2920  -0.7488  -0.7485  -0.5784
 -- Virtual --
  0.0164   0.0598   0.0598   0.1791   0.1842   0.2037   0.2038   0.2517
  0.2518   0.2913   0.5284   0.5287   0.6022   0.6401   0.6404   0.8381
  0.9032   0.9035   1.0037   1.1050   1.1051   1.1114   1.3675   1.4093
  1.4096   1.5491   1.9007   1.9008   2.1668   2.1785   2.1785   2.4972
  2.7816   2.7840   3.5580   3.7215   3.7231   3.8886   3.9459   3.9467
  4.0691   4.0705   4.2536   5.0968   5.2855   5.3179   5.3184   5.6872
  5.6880   5.8218   6.8873   7.0345   7.0350   7.1857   7.2466   7.2483
  7.5442   7.5446  50.3902
 --------------------------------------------------------------
 
          Ground-State Mulliken Net Atomic Charges

     Atom                 Charge (a.u.)
  ----------------------------------------
      1 O                    -0.225176
      2 H                     0.408138
      3 H                     0.408426
      4 H                     0.408611
  ----------------------------------------
  Sum of atomic charges =     1.000000

 -----------------------------------------------------------------
                    Cartesian Multipole Moments
 -----------------------------------------------------------------
    Charge (ESU x 10^10)
                 4.8032
    Dipole Moment (Debye)
         X       0.4714      Y      11.8964      Z       1.5092
       Tot      12.0010
    Quadrupole Moments (Debye-Ang)
        XX      -3.1118     XY       2.0575     YY      24.8964
        XZ       1.0872     YZ       1.7995     ZZ      -4.2877
    Octopole Moments (Debye-Ang^2)
       XXX      -3.9521    XXY      -6.9301    XYY       5.7555
       YYY      44.9694    XXZ       1.6434    XYZ       1.9215
       YYZ      -0.0722    XZZ      -0.1833    YZZ      -9.1188
       ZZZ       1.2411
    Hexadecapole Moments (Debye-Ang^3)
      XXXX      -6.2192   XXXY      -8.4489   XXYY     -17.4996
      XYYY      13.8079   YYYY      62.7576   XXXZ       0.9172
      XXYZ       3.2861   XYYZ       2.9191   YYYZ     -11.2137
      XXZZ      -1.0953   XYZZ      -0.4178   YYZZ     -20.9450
      XZZZ       1.0428   YZZZ       2.5203   ZZZZ      -4.6625
 -----------------------------------------------------------------
 Calculating analytic gradient of the SCF energy
 Gradient of CDS energy
            1           2           3           4
    1   0.0000400  -0.0004157   0.0003079   0.0000678
    2  -0.0000847  -0.0001709  -0.0001104   0.0003660
    3  -0.0000900   0.0000338   0.0003101  -0.0002540
 Gradient of SCF Energy
            1           2           3           4
    1   0.0179884  -0.0672686   0.0431124   0.0061678
    2  -0.0372467  -0.0178502  -0.0089883   0.0640852
    3  -0.0384454   0.0132484   0.0557444  -0.0305475
 Max gradient component =       6.727E-02
 RMS gradient           =       3.909E-02
 Computing fast CPCM-SWIG gradient
 Updating gradient with PCM contributions...
 -- total gradient after adding PCM contribution --
---------------------------------------------------
  Atom         X              Y              Z     
---------------------------------------------------
   1       0.000035      -0.000215       0.000141
   2       0.000046      -0.000109      -0.000055
   3      -0.000017      -0.000027       0.000026
   4      -0.000063       0.000351      -0.000112
---------------------------------------------------
 Number of fixed atoms: 0
 Gradient time:  CPU 5.42 s  wall 0.70 s
Dipole drv :
gprntSymmMtrx error report: 
 Final Hessian.
            1           2           3           4           5           6
    1   0.6698911   0.1014477   0.1102783  -0.4298430  -0.0503414   0.1117806
    2   0.1014477   0.5038599  -0.2263990  -0.0840120  -0.0482817   0.0525717
    3   0.1102783  -0.2263990   0.4840426   0.0826095   0.0376104  -0.0718497
    4  -0.4298430  -0.0840120   0.0826095   0.4482267   0.0857467  -0.0922375
    5  -0.0503414  -0.0482817   0.0376104   0.0857467   0.0537962  -0.0414755
    6   0.1117806   0.0525717  -0.0718497  -0.0922375  -0.0414755   0.0645376
    7  -0.1760229  -0.0001138  -0.1813363  -0.0198312   0.0026785  -0.0338751
    8  -0.0169768  -0.0412729   0.0204059  -0.0014497   0.0003049  -0.0095596
    9  -0.2139600   0.0493064  -0.3368436   0.0068266  -0.0044432   0.0115072
   10  -0.0640253  -0.0173220  -0.0115515   0.0014475  -0.0380838   0.0143320
   11  -0.0341295  -0.4143052   0.1683827  -0.0002849  -0.0058193  -0.0015367
   12  -0.0080988   0.1245208  -0.0753493   0.0028014   0.0083083  -0.0041952
            7           8           9          10          11          12
    1  -0.1760229  -0.0169768  -0.2139600  -0.0640253  -0.0341295  -0.0080988
    2  -0.0001138  -0.0412729   0.0493064  -0.0173220  -0.4143052   0.1245208
    3  -0.1813363   0.0204059  -0.3368436  -0.0115515   0.1683827  -0.0753493
    4  -0.0198312  -0.0014497   0.0068266   0.0014475  -0.0002849   0.0028014
    5   0.0026785   0.0003049  -0.0044432  -0.0380838  -0.0058193   0.0083083
    6  -0.0338751  -0.0095596   0.0115072   0.0143320  -0.0015367  -0.0041952
    7   0.1920239  -0.0052911   0.2118845   0.0038302   0.0027264   0.0033269
    8  -0.0052911   0.0418243  -0.0430019   0.0237177  -0.0008562   0.0321556
    9   0.2118845  -0.0430019   0.3372122  -0.0047510  -0.0018613  -0.0118757
   10   0.0038302   0.0237177  -0.0047510   0.0587476   0.0316880   0.0019705
   11   0.0027264  -0.0008562  -0.0018613   0.0316880   0.4209807  -0.1649846
   12   0.0033269   0.0321556  -0.0118757   0.0019705  -0.1649846   0.0914202
 ----------------------------------------------------------------
             Standard Nuclear Orientation (Angstroms)
    I     Atom           X                Y                Z
 ----------------------------------------------------------------
    1      O       0.2595232765     2.1431453211    -0.0361804989
    2      H      -0.6678320335     1.9569356542     0.2016529386
    3      H       0.8097129852     2.0782319870     0.7664747601
    4      H       0.3176660719     3.0520395376    -0.3849776997
 ----------------------------------------------------------------
 Nuclear Repulsion Energy =          14.02297889 hartrees
 There are        5 alpha and        5 beta electrons
 old dipole drv.
            1           2           3           4           5           6
    1  -0.5291757  -0.0289397  -0.0316382   0.5938266   0.0730357  -0.0182433
    2  -0.0289817  -0.4803187   0.0638758   0.0685266   0.4673925   0.0268942
    3  -0.0309579   0.0627641  -0.4717587  -0.0242636   0.0239770   0.4307866
            7           8           9          10          11          12
    1   0.5195838  -0.0592969   0.0854678   0.4157652   0.0152009  -0.0355865
    2  -0.0564981   0.4477622  -0.0097798   0.0169529   0.5651639  -0.0809904
    3   0.0919971  -0.0155756   0.5272444  -0.0367756  -0.0711655   0.5137278
 New transposed dipole drv.
            1           2           3
    1  -0.5291757  -0.0289817  -0.0309579
    2  -0.0289397  -0.4803187   0.0627641
    3  -0.0316382   0.0638758  -0.4717587
    4   0.5938266   0.0685266  -0.0242636
    5   0.0730357   0.4673925   0.0239770
    6  -0.0182433   0.0268942   0.4307866
    7   0.5195838  -0.0564981   0.0919971
    8  -0.0592969   0.4477622  -0.0155756
    9   0.0854678  -0.0097798   0.5272444
   10   0.4157652   0.0169529  -0.0367756
   11   0.0152009   0.5651639  -0.0711655
   12  -0.0355865  -0.0809904   0.5137278
FINAL TENSOR RESULT:
Order 2, Length 12
    Atom      X          Y          Z
     1 Order 1, Length 12
    Atom      X          Y          Z
     1    6.698910582894672e-01   1.014477190512464e-01   1.102782979797185e-01
     2   -4.298429773656824e-01  -5.034139634559041e-02   1.117805603296260e-01
     3   -1.760229032076673e-01  -1.697684164226884e-02  -2.139600091345496e-01
     4   -6.402525767213051e-02  -3.412949070193202e-02  -8.098841275239698e-03

Order 1, Length 12
    Atom      X          Y          Z
     1    1.014477190512464e-01   5.038598961447619e-01  -2.263989584505170e-01
     2   -8.401203473913510e-02  -4.828173706136880e-02   5.257172331524727e-02
     3   -1.137558446930090e-04  -4.127294718855527e-02   4.930640638276472e-02
     4   -1.732196694956885e-02  -4.143052186363640e-01   1.245208334163761e-01

Order 1, Length 12
    Atom      X          Y          Z
     1    1.102782979797185e-01  -2.263989584505170e-01   4.840426227873537e-01
     2    8.260952904633265e-02   3.761039583194029e-02  -7.184968797035279e-02
     3   -1.813363480356729e-01   2.040586581278953e-02  -3.368436414782433e-01
     4   -1.155153554465996e-02   1.683827026730610e-01  -7.534934012076071e-02


     2 Order 1, Length 12
    Atom      X          Y          Z
     1   -4.298429773656824e-01  -8.401203473913510e-02   8.260952904633265e-02
     2    4.482266836663785e-01   8.574666766749905e-02  -9.223749364190025e-02
     3   -1.983117776037520e-02  -1.449716852749524e-03   6.826557716764731e-03
     4    1.447458394241710e-03  -2.848920496262143e-04   2.801443840761331e-03

Order 1, Length 12
    Atom      X          Y          Z
     1   -5.034139634559041e-02  -4.828173706136880e-02   3.761039583194029e-02
     2    8.574666766749905e-02   5.379619645903404e-02  -4.147545188292349e-02
     3    2.678471185452053e-03   3.048935617745816e-04  -4.443223111287791e-03
     4   -3.808376285598405e-02  -5.819332562832243e-03   8.308271644776981e-03

Order 1, Length 12
    Atom      X          Y          Z
     1    1.117805603296260e-01   5.257172331524727e-02  -7.184968797035279e-02
     2   -9.223749364190025e-02  -4.147545188292349e-02   6.453763896235672e-02
     3   -3.387507567959773e-02  -9.559556395028125e-03   1.150721749945783e-02
     4    1.433204173585386e-02  -1.536746609687265e-03  -4.195154962613209e-03


     3 Order 1, Length 12
    Atom      X          Y          Z
     1   -1.760229032076673e-01  -1.137558446930090e-04  -1.813363480356729e-01
     2   -1.983117776037520e-02   2.678471185452053e-03  -3.387507567959773e-02
     3    1.920238948819221e-01  -5.291134931410197e-03   2.118844614459089e-01
     4    3.830246348925084e-03   2.726410675702552e-03   3.326899846303190e-03

Order 1, Length 12
    Atom      X          Y          Z
     1   -1.697684164226884e-02  -4.127294718855527e-02   2.040586581278953e-02
     2   -1.449716852749524e-03   3.048935617745816e-04  -9.559556395028125e-03
     3   -5.291134931410197e-03   4.182426550053871e-02  -4.300189056700632e-02
     4    2.371772020774510e-02  -8.562009697564083e-04   3.215560525529190e-02

Order 1, Length 12
    Atom      X          Y          Z
     1   -2.139600091345496e-01   4.930640638276472e-02  -3.368436414782433e-01
     2    6.826557716764731e-03  -4.443223111287791e-03   1.150721749945783e-02
     3    2.118844614459089e-01  -4.300189056700632e-02   3.372121799345288e-01
     4   -4.751003377170691e-03  -1.861329567461607e-03  -1.187571697937509e-02


     4 Order 1, Length 12
    Atom      X          Y          Z
     1   -6.402525767213051e-02  -1.732196694956885e-02  -1.155153554465996e-02
     2    1.447458394241710e-03  -3.808376285598405e-02   1.433204173585386e-02
     3    3.830246348925084e-03   2.371772020774510e-02  -4.751003377170691e-03
     4    5.874758569170921e-02   3.168800412531365e-02   1.970514750696273e-03

Order 1, Length 12
    Atom      X          Y          Z
     1   -3.412949070193202e-02  -4.143052186363640e-01   1.683827026730610e-01
     2   -2.848920496262143e-04  -5.819332562832243e-03  -1.536746609687265e-03
     3    2.726410675702552e-03  -8.562009697564083e-04  -1.861329567461607e-03
     4    3.168800412531365e-02   4.209807275970939e-01  -1.649846477518521e-01

Order 1, Length 12
    Atom      X          Y          Z
     1   -8.098841275239698e-03   1.245208334163761e-01  -7.534934012076071e-02
     2    2.801443840761331e-03   8.308271644776981e-03  -4.195154962613209e-03
     3    3.326899846303190e-03   3.215560525529190e-02  -1.187571697937509e-02
     4    1.970514750696273e-03  -1.649846477518521e-01   9.142020633245812e-02




 # Finishing finite difference calculation for IDERIV #
 ######################################################
 ######################################################
 Requested basis set is 6-311++G(2df,2p)
 There are 26 shells and 64 basis functions
 **********************************************************************
 **                                                                  **
 **                       VIBRATIONAL ANALYSIS                       **
 **                       --------------------                       **
 **                                                                  **
 **        VIBRATIONAL FREQUENCIES (CM**-1) AND NORMAL MODES         **
 **     FORCE CONSTANTS (mDYN/ANGSTROM) AND REDUCED MASSES (AMU)     **
 **                  INFRARED INTENSITIES (KM/MOL)                   **
 **                                                                  **
 **********************************************************************
 

 Mode:                 1                      2                      3
 Frequency:      1015.06                1673.49                1676.77
 Force Cnst:      0.7065                 1.7529                 1.7593
 Red. Mass:       1.1638                 1.0623                 1.0621
 IR Active:          YES                    YES                    YES
 IR Intens:      519.233                130.108                127.373
 Raman Active:       YES                    YES                    YES
               X      Y      Z        X      Y      Z        X      Y      Z
 O          0.032 -0.067 -0.070   -0.056 -0.023 -0.003   -0.014  0.039 -0.044
 H          0.005  0.439  0.367   -0.025 -0.252 -0.114    0.240 -0.452  0.571
 H         -0.310  0.417  0.246    0.298  0.545 -0.190   -0.413 -0.143  0.226
 H         -0.203  0.206  0.497    0.608  0.078  0.348    0.393 -0.022 -0.104
 TransDip  -0.230  0.479  0.500    0.337  0.141  0.016    0.085 -0.234  0.262

 Mode:                 4                      5                      6
 Frequency:      3645.04                3711.72                3718.26
 Force Cnst:      8.0112                 8.7956                 8.8323
 Red. Mass:       1.0234                 1.0836                 1.0843
 IR Active:          YES                    YES                    YES
 IR Intens:       72.289                507.208                508.714
 Raman Active:       YES                    YES                    YES
               X      Y      Z        X      Y      Z        X      Y      Z
 O         -0.014  0.019  0.021   -0.059 -0.039  0.006   -0.031  0.038 -0.052
 H          0.594  0.143 -0.132    0.732  0.147 -0.185    0.094  0.026 -0.032
 H         -0.323  0.059 -0.434    0.186 -0.033  0.282    0.437 -0.050  0.627
 H         -0.044 -0.509  0.227    0.025  0.498 -0.200   -0.044 -0.587  0.226
 TransDip   0.128 -0.160 -0.180    0.604  0.389 -0.067    0.311 -0.391  0.522

 STANDARD THERMODYNAMIC QUANTITIES AT   298.15 K  AND     1.00 ATM

   This Molecule has  0 Imaginary Frequencies
   Zero point vibrational energy:       22.073 kcal/mol

   Atom    1 Element O  Has Mass   15.99491
   Atom    2 Element H  Has Mass    1.00783
   Atom    3 Element H  Has Mass    1.00783
   Atom    4 Element H  Has Mass    1.00783
   Molecular Mass:    19.018400 amu
   Principal axes and moments of inertia in amu*Bohr^2:
                             1           2           3
    Eigenvalues --        5.54690     5.55181     9.05482
          X               0.79300     0.52061    -0.31641
          Y              -0.21585     0.72577     0.65320
          Z               0.56971    -0.44969     0.68790
   Rotational Symmetry Number is   1
   The Molecule is an Asymmetric Top
   Translational Enthalpy:        0.889 kcal/mol
   Rotational Enthalpy:           0.889 kcal/mol
   Vibrational Enthalpy:         22.098 kcal/mol
   gas constant (RT):             0.592 kcal/mol
   Translational Entropy:        34.770  cal/mol.K
   Rotational Entropy:           13.397  cal/mol.K
   Vibrational Entropy:           0.099  cal/mol.K

   Total Enthalpy:               24.468 kcal/mol
   Total Entropy:                48.267  cal/mol.K
 Total job time:  114.26s(wall), 858.87s(cpu) 
 Sat May  6 18:13:15 2023

        *************************************************************
        *                                                           *
        *  Thank you very much for using Q-Chem.  Have a nice day.  *
        *                                                           *
        *************************************************************


