
Running Job 1 of 1 Q_in.in
qchem Q_in.in_97651.0 /scratch/ari.fischer/qChem1912887.hpc-mn1/qchem97651/ 0
/usr/local/qchem-5.4.1/exe/qcprog.exe_s Q_in.in_97651.0 /scratch/ari.fischer/qChem1912887.hpc-mn1/qchem97651/
                  Welcome to Q-Chem
     A Quantum Leap Into The Future Of Chemistry


 Q-Chem 5.4, Q-Chem, Inc., Pleasanton, CA (2021)

 License issued to: Nanyang Technological University (site)

 E. Epifanovsky,  A. T. B. Gilbert,  Xintian Feng,  Joonho Lee,  Yuezhi Mao,  
 N. Mardirossian,  P. Pokhilko,  A. White,  M. Wormit,  M. P. Coons,  
 A. L. Dempwolff,  Zhengting Gan,  D. Hait,  P. R. Horn,  L. D. Jacobson,  
 I. Kaliman,  J. Kussmann,  A. W. Lange,  Ka Un Lao,  D. S. Levine,  Jie Liu,  
 S. C. McKenzie,  A. F. Morrison,  K. Nanda,  F. Plasser,  D. R. Rehn,  
 M. L. Vidal,  Zhi-Qiang You,  Ying Zhu,  B. Alam,  B. Albrecht,  
 A. Aldossary,  E. Alguire,  J. H. Andersen,  D. Barton,  K. Begam,  A. Behn,  
 Y. A. Bernard,  E. J. Berquist,  H. Burton,  A. Carreras,  K. Carter-Fenk,  
 R. Chakraborty,  A. D. Chien,  K. D. Closser,  V. Cofer-Shabica,  
 S. Dasgupta,  Jia Deng,  M. de Wergifosse,  M. Diedenhofen,  Hainam Do,  
 S. Ehlert,  Po-Tung Fang,  S. Fatehi,  Qingguo Feng,  T. Friedhoff,  
 J. Gayvert,  Qinghui Ge,  G. Gidofalvi,  M. Goldey,  J. Gomes,  
 C. Gonzalez-Espinoza,  S. Gulania,  A. Gunina,  M. W. D. Hanson-Heine,  
 P. H. P. Harbach,  A. W. Hauser,  M. F. Herbst,  M. Hernandez Vera,  
 M. Hodecker,  Z. C. Holden,  S. Houck,  Xunkun Huang,  Kerwin Hui,  
 B. C. Huynh,  M. Ivanov,  Hyunjun Ji,  Hanjie Jiang,  B. Kaduk,  S. Kaehler,  
 K. Khistyaev,  Jaehoon Kim,  P. Klunzinger,  Z. Koczor-Benda,  
 Joong Hoon Koh,  D. Kosenkov,  L. Koulias,  T. Kowalczyk,  C. M. Krauter,  
 K. Kue,  A. Kunitsa,  T. Kus,  A. Landau,  K. V. Lawler,  D. Lefrancois,  
 S. Lehtola,  Rain Li,  Yi-Pei Li,  Jiashu Liang,  M. Liebenthal,  
 Hung-Hsuan Lin,  You-Sheng Lin,  Fenglai Liu,  Kuan-Yu Liu,  
 M. Loipersberger,  A. Luenser,  A. Manjanath,  P. Manohar,  E. Mansoor,  
 S. F. Manzer,  Shan-Ping Mao,  A. V. Marenich,  T. Markovich,  S. Mason,  
 S. A. Maurer,  P. F. McLaughlin,  M. F. S. J. Menger,  J.-M. Mewes,  
 S. A. Mewes,  P. Morgante,  J. W. Mullinax,  K. J. Oosterbaan,  G. Paran,  
 Alexander C. Paul,  Suranjan K. Paul,  F. Pavosevic,  Zheng Pei,  S. Prager,  
 E. I. Proynov,  E. Ramos,  B. Rana,  A. E. Rask,  A. Rettig,  R. M. Richard,  
 F. Rob,  E. Rossomme,  T. Scheele,  M. Scheurer,  M. Schneider,  
 N. Sergueev,  S. M. Sharada,  W. Skomorowski,  D. W. Small,  C. J. Stein,  
 Yu-Chuan Su,  E. J. Sundstrom,  Zhen Tao,  J. Thirman,  T. Tsuchimochi,  
 N. M. Tubman,  S. P. Veccham,  O. Vydrov,  J. Wenzel,  J. Witte,  A. Yamada,  
 Kun Yao,  S. Yeganeh,  S. R. Yost,  A. Zech,  Igor Ying Zhang,  Xing Zhang,  
 Yu Zhang,  D. Zuev,  A. Aspuru-Guzik,  A. T. Bell,  N. A. Besley,  
 K. B. Bravaya,  B. R. Brooks,  D. Casanova,  Jeng-Da Chai,  S. Coriani,  
 C. J. Cramer,  A. E. DePrince, III,  R. A. DiStasio Jr.,  A. Dreuw,  
 B. D. Dunietz,  T. R. Furlani,  W. A. Goddard III,  S. Grimme,  
 S. Hammes-Schiffer,  T. Head-Gordon,  W. J. Hehre,  Chao-Ping Hsu,  
 T.-C. Jagau,  Yousung Jung,  A. Klamt,  Jing Kong,  D. S. Lambrecht,  
 WanZhen Liang,  N. J. Mayhall,  C. W. McCurdy,  J. B. Neaton,  
 C. Ochsenfeld,  J. A. Parkhill,  R. Peverati,  V. A. Rassolov,  Yihan Shao,  
 L. V. Slipchenko,  T. Stauch,  R. P. Steele,  J. E. Subotnik,  
 A. J. W. Thom,  A. Tkatchenko,  D. G. Truhlar,  T. Van Voorhis,  
 T. A. Wesolowski,  K. B. Whaley,  H. L. Woodcock III,  P. M. Zimmerman,  
 S. Faraji,  P. M. W. Gill,  M. Head-Gordon,  J. M. Herbert,  A. I. Krylov

 Additional authors for Version 5.4.1: 
 S. Kotaru,  Shaozhi Li,  Xiangyuan Li,  F. Matz,  A. Molle,  Haisheng Ren,  
 Yingli Su,  Hung-Yi Tsai,  C. Utku,  Fang Wang

 Contributors to earlier versions of Q-Chem not listed above: 
 R. D. Adamson,  B. Austin,  R. Baer,  J. Baker,  G. J. O. Beran,  
 K. Brandhorst,  S. T. Brown,  E. F. C. Byrd,  A. K. Chakraborty,  
 G. K. L. Chan,  Chun-Min Chang,  Yunqing Chen,  C.-L. Cheng,  
 Siu Hung Chien,  D. M. Chipman,  D. L. Crittenden,  H. Dachsel,  
 R. J. Doerksen,  A. D. Dutoi,  R. G. Edgar,  J. Fosso-Tande,  
 L. Fusti-Molnar,  D. Ghosh,  A. Ghysels,  A. Golubeva-Zadorozhnaya,  
 J. Gonthier,  M. S. Gordon,  S. R. Gwaltney,  G. Hawkins,  J. E. Herr,  
 A. Heyden,  S. Hirata,  E. G. Hohenstein,  G. Kedziora,  F. J. Keil,  
 C. Kelley,  Jihan Kim,  R. A. King,  R. Z. Khaliullin,  P. P. Korambath,  
 W. Kurlancheek,  A. Laurent,  A. M. Lee,  M. S. Lee,  S. V. Levchenko,  
 Ching Yeh Lin,  D. Liotard,  E. Livshits,  R. C. Lochan,  I. Lotan,  
 L. A. Martinez-Martinez,  P. E. Maslen,  N. Nair,  D. P. O'Neill,  
 D. Neuhauser,  E. Neuscamman,  C. M. Oana,  R. Olivares-Amaya,  R. Olson,  
 T. M. Perrine,  B. Peters,  P. A. Pieniazek,  A. Prociuk,  Y. M. Rhee,  
 J. Ritchie,  M. A. Rohrdanz,  E. Rosta,  N. J. Russ,  H. F. Schaefer III,  
 M. W. Schmidt,  N. E. Schultz,  S. Sharma,  N. Shenvi,  C. D. Sherrill,  
 A. C. Simmonett,  A. Sodt,  T. Stein,  D. Stuck,  K. S. Thanthiriwatte,  
 V. Vanovschi,  L. Vogt,  Tao Wang,  A. Warshel,  M. A. Watson,  
 C. F. Williams,  Q. Wu,  X. Xu,  Jun Yang,  W. Zhang,  Yan Zhao

 Please cite Q-Chem as follows:
 Y. Shao et al., Mol. Phys. 113, 184-215 (2015)
 DOI: 10.1080/00268976.2014.952696

 Q-Chem 5.4.1 for Intel X86 EM64T Linux

 Parts of Q-Chem use Armadillo 9.800.1 (Horizon Scraper).
 http://arma.sourceforge.net/

 Q-Chem begins on Mon Feb  5 12:38:32 2024  

 Host: 
0

     Scratch files written to /scratch/ari.fischer/qChem1912887.hpc-mn1/qchem97651//
 Aug1521 |scratch|qcdevops|jenkins|workspace|build_RNUM 8249   
 Processing $rem in /usr/local/qchem-5.4.1/config/preferences:
 Processing $rem in /home/ari.fischer/.qchemrc:
 Symmetry turned off for PCM/SM12/SMD calculation

 Checking the input file for inconsistencies... 	...done.

--------------------------------------------------------------
User input:
--------------------------------------------------------------
$molecule
0 1
C         1.8235784383   -0.0637334893    0.0002473030
O         2.3417852248    1.1510612460    0.0007760691
O         2.4376891661   -1.0978774708    0.0006843887
C         0.2881145663   -0.0022133723   -0.0008982110
O        -0.3258508336    1.0319556106   -0.0015152341
O        -0.2300177268   -1.2169567043   -0.0008235433
H         3.3109425424    1.0843720479    0.0015034206
H        -1.1991530757   -1.1507164572   -0.0014270296
$end

$rem
BASIS = def2-QZVP
JOB_TYPE = SP
METHOD = wB97M-V
SCF_ALGORITHM = DIIS_GDM
MAX_SCF_CYCLES = 400
SCF_CONVERGENCE = 7
THRESH = 12
Solvent_method = SMD
$end
--------------------------------------------------------------
 ----------------------------------------------------------------
             Standard Nuclear Orientation (Angstroms)
    I     Atom           X                Y                Z
 ----------------------------------------------------------------
    1      C       1.8235784383    -0.0637334893     0.0002473030
    2      O       2.3417852248     1.1510612460     0.0007760691
    3      O       2.4376891661    -1.0978774708     0.0006843887
    4      C       0.2881145663    -0.0022133723    -0.0008982110
    5      O      -0.3258508336     1.0319556106    -0.0015152341
    6      O      -0.2300177268    -1.2169567043    -0.0008235433
    7      H       3.3109425424     1.0843720479     0.0015034206
    8      H      -1.1991530757    -1.1507164572    -0.0014270296
 ----------------------------------------------------------------
 Nuclear Repulsion Energy =         232.69010695 hartrees
 There are       23 alpha and       23 beta electrons
 Requested basis set is def2-QZVP
 There are 122 shells and 402 basis functions

 Total QAlloc Memory Limit 288000 MB
 Mega-Array Size       188 MB
 MEM_STATIC part       192 MB
 
 Citation of the SMD model:
 Marenich, A.V.; Cramer, C.J.; Truhlar, D.G.
 J. Phys. Chem. B 2009, 113, 6378-6396.
 iSolventCode=           1
 Solvent: water                                                           
 
 vradii
            1           2           3           4           5           6
    1   1.8500000   1.5200000   1.5200000   1.8500000   1.5200000   1.5200000
            7           8
    1   1.2000000   1.2000000
 Changing PCM_VDW_RADII to SMD_RADIUS
 Discretize the solute cavity surface with Lebedev spheres
	Using 110 Lebedev grid points for each H atom
	Using 194 Lebedev grid points for other atoms
	Atomic van der Waals radii will be scaled by 1.20
 Remove points where switching function is < 1.0e-08
 Keep 774 surface tesserae and discard 610 interior tesserae
 Molecular Surface Area = 95.717 Angst**2

                       Distance Matrix (Angstroms)
             C (  1)   O (  2)   O (  3)   C (  4)   O (  5)   O (  6)
   O (  2)  1.320706
   O (  3)  1.202741  2.250983
   C (  4)  1.536696  2.355336  2.412707
   O (  5)  2.412589  2.670295  3.489032  1.202688
   O (  6)  2.355246  3.495952  2.670364  1.320630  2.250953
   H (  7)  1.878936  0.971449  2.350486  3.212190  3.637172  4.223094
   H (  8)  3.212233  4.223320  3.637227  1.879102  2.350896  0.971397
             H (  7)
   H (  8)  5.033547
 
 A cutoff of  1.0D-12 yielded   6560 shell pairs
 There are     73624 function pairs (    114995 Cartesian)
 Smallest overlap matrix eigenvalue = 7.08E-05

 Scale SEOQF with 1.000000e-01/1.000000e-01/1.000000e+00

 Standard Electronic Orientation quadrupole field applied
 Nucleus-field energy     =     0.0000000076 hartrees
 Guess from superposition of atomic densities
 Warning:  Energy on first SCF cycle will be non-variational
 SAD guess density has 46.000000 electrons

 -----------------------------------------------------------------------
  General SCF calculation program by
  Eric Jon Sundstrom, Paul Horn, Yuezhi Mao, Dmitri Zuev, Alec White,
  David Stuck, Shaama M.S., Shane Yost, Joonho Lee, David Small,
  Daniel Levine, Susi Lehtola, Hugh Burton, Evgeny Epifanovsky,
  Bang C. Huynh
 -----------------------------------------------------------------------
 Exchange:     0.1500 Hartree-Fock + 1.0000 wB97M-V + LR-HF
 Correlation:  1.0000 wB97M-V
 Using SG-2 standard quadrature grid
 Nonlocal Correlation:  VV10 with C = 0.0100 and b = 6.00 and scale = 1.00000
 Grid used for NLC:  SG-1 standard quadrature
 
 Citation of the SMD model:
 Marenich, A.V.; Cramer, C.J.; Truhlar, D.G.
 J. Phys. Chem. B 2009, 113, 6378-6396.
 iSolventCode=           1
 Solvent: water                                                           
 
 vradii
            1           2           3           4           5           6
    1   1.8500000   1.5200000   1.5200000   1.8500000   1.5200000   1.5200000
            7           8
    1   1.2000000   1.2000000
 using 4 threads for integral computing
 -------------------------------------------------------
 OpenMP Integral computing Module                
 Release: version 1.0, May 2013, Q-Chem Inc. Pittsburgh 
 -------------------------------------------------------
 -------------------------------------------------------
 OpenMP BLAS3 based DFT computing Module                
 Release: version 1.0, May 2013, Q-Chem Inc. Pittsburgh 
 -------------------------------------------------------
 A restricted SCF calculation will be
 performed using DIIS, GDM
 SCF converges when RMS gradient is below 1.0e-07
 ---------------------------------------
  Cycle       Energy         DIIS error
 ---------------------------------------
    1    -379.6145610919      2.09e-02  
    2    -378.2326742905      3.63e-03  Done DIIS. Switching to GDM
 ---------------------------------------
  Cycle       Energy        RMS Gradient
 ---------------------------------------
    1    -378.2326742905      2.04e-01   Descent step
    2    -378.4198493870      3.41e-02   Normal BFGS step
    3    -378.4326041161      2.18e-02   Normal BFGS step
    4    -378.4337810832      9.59e-03   Normal BFGS step
    5    -378.4345861991      6.17e-04   Normal BFGS step
    6    -378.4345958743      4.17e-04   Normal BFGS step
    7    -378.4345969337      1.79e-04   Normal BFGS step
    8    -378.4345970372      2.19e-05   Normal BFGS step
    9    -378.4345970470      9.94e-06   Normal BFGS step
   10    -378.4345970478      2.27e-06   Normal BFGS step
   11    -378.4345970478      3.09e-06   Normal BFGS step
   12    -378.4345970478      1.00e-07   Normal BFGS step
   13    -378.4345970479      9.96e-08  Convergence criterion met
 ---------------------------------------
 SCF time:   CPU 1611.56s  wall 405.00s 
(3)  G-ENP(liq) elect-nuc-pol free energy of system     -378.434597048 a.u.
(4)  G-CDS(liq) cavity-dispersion-solvent structure 
     free energy                                                5.8506 kcal/mol
(6)  G-S(liq) free energy of system                     -378.425273454 a.u.
 SCF   energy in the final basis set =     -378.4252734537
 Total energy in the final basis set =     -378.4252734537
 
 --------------------------------------------------------------
 
                    Orbital Energies (a.u.)
 --------------------------------------------------------------
 
 Alpha MOs
 -- Occupied --
-19.3971 -19.3971 -19.3504 -19.3504 -10.5105 -10.5103  -1.2783  -1.2529
 -1.1870  -1.1701  -0.8512  -0.7522  -0.6549  -0.6323  -0.6256  -0.6156
 -0.5604  -0.5568  -0.5184  -0.4615  -0.4575  -0.4488  -0.3945
 -- Virtual --
  0.0130   0.0879   0.0918   0.1572   0.1662   0.1670   0.1679   0.2103
  0.2179   0.2242   0.2663   0.2955   0.3118   0.3261   0.3325   0.3417
  0.3621   0.3656   0.3758   0.3958   0.4240   0.4297   0.4312   0.4381
  0.4546   0.5012   0.5122   0.5174   0.5250   0.5264   0.5731   0.5797
  0.6707   0.6839   0.6952   0.7062   0.7538   0.7748   0.7789   0.8187
  0.8199   0.8389   0.8706   0.8866   0.8881   0.9699   0.9705   0.9786
  0.9826   0.9912   1.0257   1.0595   1.0657   1.0866   1.1299   1.2249
  1.2512   1.2528   1.2718   1.3330   1.3378   1.3671   1.3856   1.3920
  1.4119   1.4273   1.4500   1.4532   1.4650   1.4769   1.4877   1.5208
  1.5416   1.5441   1.5800   1.5948   1.6328   1.6455   1.6734   1.6880
  1.6981   1.7409   1.7994   1.8267   1.8469   1.8730   1.8818   1.9708
  1.9986   1.9993   2.0244   2.0318   2.0321   2.0382   2.0417   2.1317
  2.1456   2.1661   2.1667   2.2177   2.2404   2.2490   2.3079   2.3181
  2.3364   2.3573   2.3804   2.3959   2.4198   2.4253   2.4784   2.4825
  2.5103   2.5284   2.5520   2.5845   2.6356   2.6721   2.7028   2.7078
  2.7288   2.7355   2.8088   2.8440   2.8819   2.9535   2.9591   3.0419
  3.0692   3.0968   3.1122   3.1625   3.1680   3.2091   3.2642   3.3175
  3.4044   3.4100   3.4267   3.4593   3.5091   3.5134   3.6316   3.6518
  3.6620   3.7573   3.8471   3.8699   3.8771   3.8990   3.9171   3.9310
  3.9425   3.9697   3.9825   3.9850   4.0901   4.1025   4.1309   4.1570
  4.1585   4.1738   4.2416   4.2572   4.3031   4.3073   4.3161   4.3659
  4.3907   4.4369   4.4625   4.4909   4.4934   4.5107   4.5128   4.5201
  4.5470   4.6356   4.7056   4.7105   4.7241   4.7440   4.8080   4.8185
  4.8768   4.8829   4.8990   4.9682   4.9729   5.0383   5.0668   5.1177
  5.1462   5.2304   5.2721   5.2799   5.3116   5.4005   5.4101   5.4544
  5.5646   5.6049   5.6464   5.6878   5.6997   5.7054   5.7120   5.7475
  5.7784   5.7787   5.8072   5.8250   5.8371   5.9020   5.9571   6.0404
  6.1085   6.1401   6.1559   6.1678   6.1893   6.2638   6.2836   6.3254
  6.3284   6.3898   6.4435   6.4552   6.5009   6.5094   6.5298   6.6499
  6.7866   6.8169   6.8585   6.8878   6.9065   6.9863   7.0403   7.0505
  7.1430   7.2019   7.2173   7.2257   7.3285   7.3380   7.3595   7.4743
  7.4903   7.5133   7.5331   7.5380   7.7252   7.7310   7.7564   7.8119
  7.8296   7.8303   7.9021   7.9434   7.9746   8.0852   8.1323   8.2302
  8.4015   8.4527   8.5708   8.6056   8.6328   8.6374   8.8107   8.8634
  8.8908   8.9288   8.9620   8.9655   8.9692   8.9721   8.9806   9.1690
  9.1974   9.3201   9.3228   9.3504   9.3618   9.4728   9.5131   9.5496
  9.5563   9.8376   9.8812   9.9356   9.9643  10.0453  10.1273  10.1702
 10.2240  10.2585  10.2889  10.3477  10.4668  10.4721  10.5124  10.5522
 10.5563  10.7356  10.8215  10.8919  10.9268  10.9837  11.0341  11.0914
 11.0987  11.1302  11.1659  11.3382  11.3803  11.4726  11.4767  11.4796
 11.5405  11.5609  11.6087  11.6459  11.7296  11.7802  11.8522  11.8773
 11.9009  11.9262  11.9320  11.9749  11.9928  11.9955  12.0381  12.0543
 12.0769  12.1839  12.2653  12.2667  12.2790  12.3371  12.3606  12.4108
 12.5332  12.7274  12.7337  12.8529  12.8960  13.2993  13.3428  13.4182
 13.4307  13.6396  13.8170  13.8436  13.8545  14.1852  14.2044  14.2549
 14.2843  14.5690  14.6094  14.6748  14.7507  16.5861  16.5918  28.2838
 28.5187  48.3437  48.3743  48.6434  48.8007 149.0267 149.2542 255.7611
255.7939 256.0875 256.2703
 --------------------------------------------------------------
 
          Ground-State Mulliken Net Atomic Charges

     Atom                 Charge (a.u.)
  ----------------------------------------
      1 C                     0.359617
      2 O                    -0.332404
      3 O                    -0.374588
      4 C                     0.359606
      5 O                    -0.374528
      6 O                    -0.332336
      7 H                     0.347319
      8 H                     0.347313
  ----------------------------------------
  Sum of atomic charges =     0.000000

 -----------------------------------------------------------------
                    Cartesian Multipole Moments
 -----------------------------------------------------------------
    Charge (ESU x 10^10)
                 0.0000
    Dipole Moment (Debye)
         X      -0.0010      Y      -0.0011      Z       0.0007
       Tot       0.0017
    Quadrupole Moments (Debye-Ang)
        XX     -23.6403     XY      11.6801     YY     -40.6309
        XZ       0.0053     YZ       0.0091     ZZ     -32.1275
    Octopole Moments (Debye-Ang^2)
       XXX     -74.8851    XXY      25.4402    XYY     -43.6780
       YYY       4.0140    XXZ       0.0228    XYZ       0.0070
       YYZ       0.0109    XZZ     -33.9237    YZZ       1.0589
       ZZZ       0.0233
    Hexadecapole Moments (Debye-Ang^3)
      XXXX    -395.5097   XXXY     104.3898   XXYY    -127.6521
      XYYY      12.8100   YYYY    -223.1221   XXXZ       0.0036
      XXYZ       0.0535   XYYZ      -0.0192   YYYZ       0.0153
      XXZZ     -94.9927   XYZZ      -1.0020   YYZZ     -40.3904
      XZZZ      -0.0827   YZZZ       0.0044   ZZZZ     -27.2837
 -----------------------------------------------------------------
 Total job time:  406.77s(wall), 1614.63s(cpu) 
 Mon Feb  5 12:45:18 2024

        *************************************************************
        *                                                           *
        *  Thank you very much for using Q-Chem.  Have a nice day.  *
        *                                                           *
        *************************************************************


