
Running Job 1 of 1 Q_in.in
qchem Q_in.in_445636.0 /scratch/ari.fischer/qChem1648347.hpc-mn1/qchem445636/ 0
/usr/local/qchem-5.4.1/exe/qcprog.exe_s Q_in.in_445636.0 /scratch/ari.fischer/qChem1648347.hpc-mn1/qchem445636/
                  Welcome to Q-Chem
     A Quantum Leap Into The Future Of Chemistry


 Q-Chem 5.4, Q-Chem, Inc., Pleasanton, CA (2021)

 License issued to: Nanyang Technological University (site)

 E. Epifanovsky,  A. T. B. Gilbert,  Xintian Feng,  Joonho Lee,  Yuezhi Mao,  
 N. Mardirossian,  P. Pokhilko,  A. White,  M. Wormit,  M. P. Coons,  
 A. L. Dempwolff,  Zhengting Gan,  D. Hait,  P. R. Horn,  L. D. Jacobson,  
 I. Kaliman,  J. Kussmann,  A. W. Lange,  Ka Un Lao,  D. S. Levine,  Jie Liu,  
 S. C. McKenzie,  A. F. Morrison,  K. Nanda,  F. Plasser,  D. R. Rehn,  
 M. L. Vidal,  Zhi-Qiang You,  Ying Zhu,  B. Alam,  B. Albrecht,  
 A. Aldossary,  E. Alguire,  J. H. Andersen,  D. Barton,  K. Begam,  A. Behn,  
 Y. A. Bernard,  E. J. Berquist,  H. Burton,  A. Carreras,  K. Carter-Fenk,  
 R. Chakraborty,  A. D. Chien,  K. D. Closser,  V. Cofer-Shabica,  
 S. Dasgupta,  Jia Deng,  M. de Wergifosse,  M. Diedenhofen,  Hainam Do,  
 S. Ehlert,  Po-Tung Fang,  S. Fatehi,  Qingguo Feng,  T. Friedhoff,  
 J. Gayvert,  Qinghui Ge,  G. Gidofalvi,  M. Goldey,  J. Gomes,  
 C. Gonzalez-Espinoza,  S. Gulania,  A. Gunina,  M. W. D. Hanson-Heine,  
 P. H. P. Harbach,  A. W. Hauser,  M. F. Herbst,  M. Hernandez Vera,  
 M. Hodecker,  Z. C. Holden,  S. Houck,  Xunkun Huang,  Kerwin Hui,  
 B. C. Huynh,  M. Ivanov,  Hyunjun Ji,  Hanjie Jiang,  B. Kaduk,  S. Kaehler,  
 K. Khistyaev,  Jaehoon Kim,  P. Klunzinger,  Z. Koczor-Benda,  
 Joong Hoon Koh,  D. Kosenkov,  L. Koulias,  T. Kowalczyk,  C. M. Krauter,  
 K. Kue,  A. Kunitsa,  T. Kus,  A. Landau,  K. V. Lawler,  D. Lefrancois,  
 S. Lehtola,  Rain Li,  Yi-Pei Li,  Jiashu Liang,  M. Liebenthal,  
 Hung-Hsuan Lin,  You-Sheng Lin,  Fenglai Liu,  Kuan-Yu Liu,  
 M. Loipersberger,  A. Luenser,  A. Manjanath,  P. Manohar,  E. Mansoor,  
 S. F. Manzer,  Shan-Ping Mao,  A. V. Marenich,  T. Markovich,  S. Mason,  
 S. A. Maurer,  P. F. McLaughlin,  M. F. S. J. Menger,  J.-M. Mewes,  
 S. A. Mewes,  P. Morgante,  J. W. Mullinax,  K. J. Oosterbaan,  G. Paran,  
 Alexander C. Paul,  Suranjan K. Paul,  F. Pavosevic,  Zheng Pei,  S. Prager,  
 E. I. Proynov,  E. Ramos,  B. Rana,  A. E. Rask,  A. Rettig,  R. M. Richard,  
 F. Rob,  E. Rossomme,  T. Scheele,  M. Scheurer,  M. Schneider,  
 N. Sergueev,  S. M. Sharada,  W. Skomorowski,  D. W. Small,  C. J. Stein,  
 Yu-Chuan Su,  E. J. Sundstrom,  Zhen Tao,  J. Thirman,  T. Tsuchimochi,  
 N. M. Tubman,  S. P. Veccham,  O. Vydrov,  J. Wenzel,  J. Witte,  A. Yamada,  
 Kun Yao,  S. Yeganeh,  S. R. Yost,  A. Zech,  Igor Ying Zhang,  Xing Zhang,  
 Yu Zhang,  D. Zuev,  A. Aspuru-Guzik,  A. T. Bell,  N. A. Besley,  
 K. B. Bravaya,  B. R. Brooks,  D. Casanova,  Jeng-Da Chai,  S. Coriani,  
 C. J. Cramer,  A. E. DePrince, III,  R. A. DiStasio Jr.,  A. Dreuw,  
 B. D. Dunietz,  T. R. Furlani,  W. A. Goddard III,  S. Grimme,  
 S. Hammes-Schiffer,  T. Head-Gordon,  W. J. Hehre,  Chao-Ping Hsu,  
 T.-C. Jagau,  Yousung Jung,  A. Klamt,  Jing Kong,  D. S. Lambrecht,  
 WanZhen Liang,  N. J. Mayhall,  C. W. McCurdy,  J. B. Neaton,  
 C. Ochsenfeld,  J. A. Parkhill,  R. Peverati,  V. A. Rassolov,  Yihan Shao,  
 L. V. Slipchenko,  T. Stauch,  R. P. Steele,  J. E. Subotnik,  
 A. J. W. Thom,  A. Tkatchenko,  D. G. Truhlar,  T. Van Voorhis,  
 T. A. Wesolowski,  K. B. Whaley,  H. L. Woodcock III,  P. M. Zimmerman,  
 S. Faraji,  P. M. W. Gill,  M. Head-Gordon,  J. M. Herbert,  A. I. Krylov

 Additional authors for Version 5.4.1: 
 S. Kotaru,  Shaozhi Li,  Xiangyuan Li,  F. Matz,  A. Molle,  Haisheng Ren,  
 Yingli Su,  Hung-Yi Tsai,  C. Utku,  Fang Wang

 Contributors to earlier versions of Q-Chem not listed above: 
 R. D. Adamson,  B. Austin,  R. Baer,  J. Baker,  G. J. O. Beran,  
 K. Brandhorst,  S. T. Brown,  E. F. C. Byrd,  A. K. Chakraborty,  
 G. K. L. Chan,  Chun-Min Chang,  Yunqing Chen,  C.-L. Cheng,  
 Siu Hung Chien,  D. M. Chipman,  D. L. Crittenden,  H. Dachsel,  
 R. J. Doerksen,  A. D. Dutoi,  R. G. Edgar,  J. Fosso-Tande,  
 L. Fusti-Molnar,  D. Ghosh,  A. Ghysels,  A. Golubeva-Zadorozhnaya,  
 J. Gonthier,  M. S. Gordon,  S. R. Gwaltney,  G. Hawkins,  J. E. Herr,  
 A. Heyden,  S. Hirata,  E. G. Hohenstein,  G. Kedziora,  F. J. Keil,  
 C. Kelley,  Jihan Kim,  R. A. King,  R. Z. Khaliullin,  P. P. Korambath,  
 W. Kurlancheek,  A. Laurent,  A. M. Lee,  M. S. Lee,  S. V. Levchenko,  
 Ching Yeh Lin,  D. Liotard,  E. Livshits,  R. C. Lochan,  I. Lotan,  
 L. A. Martinez-Martinez,  P. E. Maslen,  N. Nair,  D. P. O'Neill,  
 D. Neuhauser,  E. Neuscamman,  C. M. Oana,  R. Olivares-Amaya,  R. Olson,  
 T. M. Perrine,  B. Peters,  P. A. Pieniazek,  A. Prociuk,  Y. M. Rhee,  
 J. Ritchie,  M. A. Rohrdanz,  E. Rosta,  N. J. Russ,  H. F. Schaefer III,  
 M. W. Schmidt,  N. E. Schultz,  S. Sharma,  N. Shenvi,  C. D. Sherrill,  
 A. C. Simmonett,  A. Sodt,  T. Stein,  D. Stuck,  K. S. Thanthiriwatte,  
 V. Vanovschi,  L. Vogt,  Tao Wang,  A. Warshel,  M. A. Watson,  
 C. F. Williams,  Q. Wu,  X. Xu,  Jun Yang,  W. Zhang,  Yan Zhao

 Please cite Q-Chem as follows:
 Y. Shao et al., Mol. Phys. 113, 184-215 (2015)
 DOI: 10.1080/00268976.2014.952696

 Q-Chem 5.4.1 for Intel X86 EM64T Linux

 Parts of Q-Chem use Armadillo 9.800.1 (Horizon Scraper).
 http://arma.sourceforge.net/

 Q-Chem begins on Thu Jul 27 11:43:45 2023  

 Host: 
0

     Scratch files written to /scratch/ari.fischer/qChem1648347.hpc-mn1/qchem445636//
 Aug1521 |scratch|qcdevops|jenkins|workspace|build_RNUM 8249   
 Processing $rem in /usr/local/qchem-5.4.1/config/preferences:
 Processing $rem in /home/ari.fischer/.qchemrc:
 Symmetry turned off for PCM/SM12/SMD calculation


!!********************************************.
!!******************Warning*******************.
!!Desired Analytical derivatives not available.
!!Finite difference job might take a long time.
!!********************************************.
!!********************************************.


 2-order derivative to be evaluated numerically with 1-order analytical derivatives

 Checking the input file for inconsistencies... 	...done.

--------------------------------------------------------------
User input:
--------------------------------------------------------------
$molecule
0 2
C        -1.5116893994   -0.5633058112    0.5979297540
O        -0.9394121686   -1.3084118198    1.5044541189
O        -1.8451437686   -0.7730962409   -0.5197593096
O        -1.6000247371    1.4841466712    1.8470778063
O        -1.1368838551    1.3372906152    2.9483576054
H        -0.7674141713   -2.2068134145    1.1580386250
$end

$rem
BASIS = 6-311++G(2df,2p)
GUI = 2
JOB_TYPE = Frequency
METHOD = wB97M-V
SOLVENT_METHOD = SMD
SCF_ALGORITHM = DIIS_GDM
MAX_SCF_CYCLES = 400
SCF_CONVERGENCE = 7
THRESH = 12
UNRESTRICTED = 1
SYMMETRY_IGNORE = 1
$end
--------------------------------------------------------------
 ----------------------------------------------------------------
             Standard Nuclear Orientation (Angstroms)
    I     Atom           X                Y                Z
 ----------------------------------------------------------------
    1      C      -1.5116893994    -0.5633058112     0.5979297540
    2      O      -0.9394121686    -1.3084118198     1.5044541189
    3      O      -1.8451437686    -0.7730962409    -0.5197593096
    4      O      -1.6000247371     1.4841466712     1.8470778063
    5      O      -1.1368838551     1.3372906152     2.9483576054
    6      H      -0.7674141713    -2.2068134145     1.1580386250
 ----------------------------------------------------------------
 Nuclear Repulsion Energy =         154.16370929 hartrees
 There are       20 alpha and       19 beta electrons
 Requested basis set is 6-311++G(2df,2p)
 There are 46 shells and 180 basis functions

 Total QAlloc Memory Limit 288000 MB
 Mega-Array Size       188 MB
 MEM_STATIC part       192 MB
 
 Citation of the SMD model:
 Marenich, A.V.; Cramer, C.J.; Truhlar, D.G.
 J. Phys. Chem. B 2009, 113, 6378-6396.
 iSolventCode=           1
 Solvent: water                                                           
 
 vradii
            1           2           3           4           5           6
    1   1.8500000   1.5200000   1.5200000   1.5200000   1.5200000   1.2000000
 Changing PCM_VDW_RADII to SMD_RADIUS
 Discretize the solute cavity surface with Lebedev spheres
	Using 110 Lebedev grid points for each H atom
	Using 194 Lebedev grid points for other atoms
	Atomic van der Waals radii will be scaled by 1.20
 Remove points where switching function is < 1.0e-08
 Keep 698 surface tesserae and discard 382 interior tesserae
 Molecular Surface Area = 90.470 Angst**2

                       Distance Matrix (Angstroms)
             C (  1)   O (  2)   O (  3)   O (  4)   O (  5)
   O (  2)  1.305554
   O (  3)  1.185088  2.281305
   O (  4)  2.400049  2.890014  3.279809
   O (  5)  3.045859  3.020529  4.121068  1.203696
   H (  6)  1.889123  0.978117  2.456024  3.845933  3.987784
 
 A cutoff of  1.0D-12 yielded    981 shell pairs
 There are     15336 function pairs (     19898 Cartesian)
 Smallest overlap matrix eigenvalue = 4.49E-04
 Guess from superposition of atomic densities
 Warning:  Energy on first SCF cycle will be non-variational
 SAD guess density has 39.000000 electrons

 -----------------------------------------------------------------------
  General SCF calculation program by
  Eric Jon Sundstrom, Paul Horn, Yuezhi Mao, Dmitri Zuev, Alec White,
  David Stuck, Shaama M.S., Shane Yost, Joonho Lee, David Small,
  Daniel Levine, Susi Lehtola, Hugh Burton, Evgeny Epifanovsky,
  Bang C. Huynh
 -----------------------------------------------------------------------
 Exchange:     0.1500 Hartree-Fock + 1.0000 wB97M-V + LR-HF
 Correlation:  1.0000 wB97M-V
 Using SG-2 standard quadrature grid
 Nonlocal Correlation:  VV10 with C = 0.0100 and b = 6.00 and scale = 1.00000
 Grid used for NLC:  SG-1 standard quadrature
 using 8 threads for integral computing
 -------------------------------------------------------
 OpenMP Integral computing Module                
 Release: version 1.0, May 2013, Q-Chem Inc. Pittsburgh 
 -------------------------------------------------------
 
 Citation of the SMD model:
 Marenich, A.V.; Cramer, C.J.; Truhlar, D.G.
 J. Phys. Chem. B 2009, 113, 6378-6396.
 iSolventCode=           1
 Solvent: water                                                           
 
 vradii
            1           2           3           4           5           6
    1   1.8500000   1.5200000   1.5200000   1.5200000   1.5200000   1.2000000
 -------------------------------------------------------
 OpenMP BLAS3 based DFT computing Module                
 Release: version 1.0, May 2013, Q-Chem Inc. Pittsburgh 
 -------------------------------------------------------
 A unrestricted SCF calculation will be
 performed using DIIS, GDM
 SCF converges when RMS gradient is below 1.0e-07
 ---------------------------------------
  Cycle       Energy         DIIS error
 ---------------------------------------
    1    -339.9641595028      1.85e-02  
    2    -339.3119365440      2.90e-03  Done DIIS. Switching to GDM
 ---------------------------------------
  Cycle       Energy        RMS Gradient
 ---------------------------------------
    1    -339.3119365440      1.76e-01   Descent step
    2    -339.4160997863      2.85e-02   Normal BFGS step
    3    -339.4268482284      2.47e-02   Normal BFGS step
    4    -339.4289750520      2.10e-02   Normal BFGS step
    5    -339.4305945088      2.77e-02   Normal BFGS step
    6    -339.4396424353      4.16e-02   Dog-leg BFGS step
    7    -339.4438864075      4.72e-02   Normal BFGS step
    8    -339.4477431878      3.43e-02   Normal BFGS step
    9    -339.4565252059      2.29e-02   Normal BFGS step
   10    -339.4568196167      1.29e-02   Normal BFGS step
   11    -339.4573424212      4.53e-03   Normal BFGS step
   12    -339.4574140467      3.30e-03   Normal BFGS step
   13    -339.4574448078      7.40e-04   Normal BFGS step
   14    -339.4574467683      1.62e-04   Normal BFGS step
   15    -339.4574470164      1.53e-04   Normal BFGS step
   16    -339.4574470844      4.42e-05   Normal BFGS step
   17    -339.4574470920      1.09e-05   Normal BFGS step
   18    -339.4574470932      4.26e-06   Normal BFGS step
   19    -339.4574470934      2.02e-06   Normal BFGS step
   20    -339.4574470934      7.47e-07   Normal BFGS step
   21    -339.4574470934      3.21e-07   Normal BFGS step
   22    -339.4574470934      1.89e-07   Normal BFGS step
   23    -339.4574470934      7.47e-08  Convergence criterion met
 ---------------------------------------
 SCF time:   CPU 234.63s  wall 30.00s 
<S^2> =          1.576233833
(3)  G-ENP(liq) elect-nuc-pol free energy of system     -339.457447093 a.u.
(4)  G-CDS(liq) cavity-dispersion-solvent structure 
     free energy                                                4.2664 kcal/mol
(6)  G-S(liq) free energy of system                     -339.450648139 a.u.
 SCF   energy in the final basis set =     -339.4506481390
 Total energy in the final basis set =     -339.4506481390
 
 --------------------------------------------------------------
 
                    Orbital Energies (a.u.)
 --------------------------------------------------------------
 
 Alpha MOs
 -- Occupied --
-19.4901 -19.4751 -19.4100 -19.3734 -10.4904  -1.4297  -1.2646  -1.1911
 -0.9550  -0.7575  -0.6706  -0.6696  -0.6584  -0.6337  -0.5835  -0.5823
 -0.4767  -0.4650  -0.4051  -0.3999
 -- Virtual --
 -0.0101   0.0513   0.0739   0.0818   0.0872   0.1133   0.1183   0.1562
  0.1799   0.2027   0.2205   0.2297   0.2345   0.2492   0.2630   0.2791
  0.3014   0.3131   0.3174   0.3236   0.3394   0.3699   0.3861   0.4055
  0.4250   0.4523   0.5498   0.6073   0.6218   0.7027   0.7191   0.7603
  0.7995   0.8354   0.8737   0.9874   1.0052   1.0083   1.0306   1.0481
  1.0770   1.0954   1.1049   1.1212   1.1367   1.1732   1.1776   1.1885
  1.1936   1.3328   1.3473   1.3687   1.4021   1.4091   1.4822   1.5087
  1.5406   1.5937   1.5977   1.6221   1.7154   1.7370   1.7569   1.8209
  1.8800   1.9978   2.0045   2.1372   2.2843   2.3013   2.3430   2.3460
  2.4286   2.4900   2.5554   2.6122   2.7697   2.8296   2.9404   3.0597
  3.0933   3.1830   3.2284   3.2900   3.4130   3.5020   3.5419   3.6151
  3.6309   3.6823   3.7824   3.8866   4.0121   4.1967   4.4024   4.5412
  4.5799   4.5824   4.6014   4.9035   4.9049   4.9166   4.9682   5.0272
  5.0741   5.0998   5.1109   5.1127   5.1283   5.1492   5.1569   5.1766
  5.1796   5.1901   5.2570   5.2692   5.2922   5.3314   5.4509   5.5088
  5.5650   5.5856   5.6196   5.7453   5.7531   6.0402   6.1394   6.5684
  6.6395   6.7065   6.7723   6.8071   6.8105   6.8211   6.8585   6.8771
  6.8957   6.9239   6.9375   6.9727   7.0131   7.0411   7.1130   7.2027
  7.2165   7.3174   7.3571   7.3818   7.4747   7.5154   7.6429   7.7577
  7.8240   8.0956   8.1297  25.0491  50.4091  50.5213  50.5423  50.6955
 
 Beta MOs
 -- Occupied --
-19.4615 -19.4468 -19.4127 -19.3795 -10.5018  -1.3768  -1.2755  -1.2033
 -0.8752  -0.7768  -0.6460  -0.6293  -0.6062  -0.5945  -0.5658  -0.5648
 -0.5004  -0.4682  -0.3251
 -- Virtual --
 -0.0121  -0.0105   0.0445   0.0720   0.0802   0.0894   0.0985   0.1191
  0.1586   0.1823   0.2094   0.2198   0.2332   0.2375   0.2526   0.2661
  0.2843   0.3030   0.3159   0.3196   0.3283   0.3437   0.3688   0.4033
  0.4104   0.4334   0.4501   0.5347   0.6026   0.6201   0.6933   0.7106
  0.7492   0.7843   0.8267   0.8613   0.9841   1.0082   1.0184   1.0378
  1.0805   1.0843   1.0993   1.1020   1.1407   1.1486   1.1730   1.1878
  1.1967   1.2158   1.3323   1.3804   1.3866   1.4185   1.4397   1.5053
  1.5268   1.5457   1.5897   1.5959   1.6400   1.7232   1.7576   1.7871
  1.8200   1.9033   1.9919   1.9987   2.1326   2.2779   2.3239   2.3538
  2.3755   2.4402   2.4752   2.5442   2.6297   2.7550   2.8111   2.8945
  3.0180   3.0682   3.1444   3.1953   3.2283   3.3906   3.4556   3.4919
  3.5822   3.6151   3.6580   3.7695   3.8500   3.9967   4.1817   4.3773
  4.5947   4.6262   4.6305   4.6495   4.9382   4.9808   4.9891   5.0599
  5.0959   5.1014   5.1077   5.1156   5.1479   5.1616   5.1735   5.1849
  5.2155   5.2353   5.2382   5.2495   5.2782   5.2932   5.3759   5.4409
  5.5018   5.5524   5.5811   5.6092   5.8027   5.8100   6.0174   6.1297
  6.5548   6.7565   6.7647   6.8321   6.8565   6.8711   6.8818   6.8890
  6.9181   6.9365   6.9582   6.9989   7.0050   7.0508   7.0901   7.1186
  7.2009   7.2114   7.3153   7.4042   7.4214   7.4602   7.4992   7.6350
  7.7453   7.8103   8.1279   8.1741  25.0383  50.4312  50.5348  50.5486
 50.6904
 --------------------------------------------------------------
 
          Ground-State Mulliken Net Atomic Charges

     Atom                 Charge (a.u.)    Spin (a.u.)
  --------------------------------------------------------
      1 C                     0.212690      -0.673891
      2 O                    -0.239092      -0.000612
      3 O                    -0.339582      -0.181913
      4 O                     0.007628       0.956783
      5 O                    -0.004776       0.939609
      6 H                     0.363131      -0.039976
  --------------------------------------------------------
  Sum of atomic charges =    -0.000000
  Sum of spin   charges =     1.000000

 -----------------------------------------------------------------
                    Cartesian Multipole Moments
 -----------------------------------------------------------------
    Charge (ESU x 10^10)
                -0.0000
    Dipole Moment (Debye)
         X       1.1602      Y      -2.5407      Z       0.9583
       Tot       2.9529
    Quadrupole Moments (Debye-Ang)
        XX     -30.1575     XY       1.2107     YY     -20.1665
        XZ      -2.3357     YZ      -3.9673     ZZ     -31.4770
    Octopole Moments (Debye-Ang^2)
       XXX     120.1420    XXY       0.9655    XYY      34.3106
       YYY     -18.9829    XXZ     -28.5877    XYZ       4.0863
       YYZ     -26.2236    XZZ      42.1532    YZZ      -1.8236
       ZZZ    -113.6625
    Hexadecapole Moments (Debye-Ang^3)
      XXXX    -372.7680   XXXY      -1.1185   XXYY    -100.3199
      XYYY      15.5508   YYYY    -193.7617   XXXZ     108.9242
      XXYZ     -28.6156   XYYZ      34.6552   YYYZ     -94.7746
      XXZZ    -146.8925   XYZZ       0.9008   YYZZ    -121.9400
      XZZZ     130.7415   YZZZ     -77.0659   ZZZZ    -537.9097
 -----------------------------------------------------------------
 Calculating analytic gradient of the SCF energy
 Gradient of CDS energy
            1           2           3           4           5           6
    1   0.0005228  -0.0010968   0.0003376   0.0000827  -0.0000206   0.0001743
    2  -0.0015715   0.0015348   0.0000386   0.0002838   0.0001017  -0.0003875
    3   0.0001390  -0.0016767   0.0009724   0.0004207   0.0000157   0.0001289
 Gradient of SCF Energy
            1           2           3           4           5           6
    1   0.0006800  -0.0020658  -0.0034105  -0.0008091   0.0008173   0.0047882
    2  -0.0002178   0.0178305   0.0028285   0.0006499  -0.0005402  -0.0205510
    3   0.0020179   0.0104077  -0.0069718  -0.0017987   0.0017462  -0.0054013
 Max gradient component =       2.055E-02
 RMS gradient           =       7.402E-03
 Computing fast CPCM-SWIG gradient
 Updating gradient with PCM contributions...
 -- total gradient after adding PCM contribution --
---------------------------------------------------
  Atom         X              Y              Z     
---------------------------------------------------
   1       0.000009      -0.000032       0.000013
   2       0.000018      -0.000042       0.000052
   3       0.000005       0.000005      -0.000095
   4       0.000075       0.000003       0.000115
   5      -0.000063       0.000073      -0.000132
   6      -0.000044      -0.000007       0.000046
---------------------------------------------------
 Number of fixed atoms: 0
 Gradient time:  CPU 26.45 s  wall 4.13 s
 ######################################################
 ######################################################
 # Starting finite difference calculation for IDERIV  #
 Finite diff step size:  1.88973e-03 a.u.
 ----------------------------------------------------------------
             Standard Nuclear Orientation (Angstroms)
    I     Atom           X                Y                Z
 ----------------------------------------------------------------
    1      C      -1.5106893994    -0.5633058112     0.5979297540
    2      O      -0.9394121686    -1.3084118198     1.5044541189
    3      O      -1.8451437686    -0.7730962409    -0.5197593096
    4      O      -1.6000247371     1.4841466712     1.8470778063
    5      O      -1.1368838551     1.3372906152     2.9483576054
    6      H      -0.7674141713    -2.2068134145     1.1580386250
 ----------------------------------------------------------------
 Nuclear Repulsion Energy =         154.16566805 hartrees
 There are       20 alpha and       19 beta electrons
 Discretize the solute cavity surface with Lebedev spheres
	Using 110 Lebedev grid points for each H atom
	Using 194 Lebedev grid points for other atoms
	Atomic van der Waals radii will be scaled by 1.20
 Remove points where switching function is < 1.0e-08
 Keep 698 surface tesserae and discard 382 interior tesserae
 Molecular Surface Area = 90.469 Angst**2

                       Distance Matrix (Angstroms)
             C (  1)   O (  2)   O (  3)   O (  4)   O (  5)
   O (  2)  1.305116
   O (  3)  1.185369  2.281305
   O (  4)  2.400086  2.890014  3.279809
   O (  5)  3.045736  3.020529  4.121068  1.203696
   H (  6)  1.888729  0.978117  2.456024  3.845933  3.987784
 
 Requested basis set is 6-311++G(2df,2p)
 There are 46 shells and 180 basis functions
 A cutoff of  1.0D-12 yielded    981 shell pairs
 There are     15336 function pairs (     19898 Cartesian)
 Smallest overlap matrix eigenvalue = 4.49E-04
 Guess MOs from SCF MO coefficient file

 -----------------------------------------------------------------------
  General SCF calculation program by
  Eric Jon Sundstrom, Paul Horn, Yuezhi Mao, Dmitri Zuev, Alec White,
  David Stuck, Shaama M.S., Shane Yost, Joonho Lee, David Small,
  Daniel Levine, Susi Lehtola, Hugh Burton, Evgeny Epifanovsky,
  Bang C. Huynh
 -----------------------------------------------------------------------
 Exchange:     0.1500 Hartree-Fock + 1.0000 wB97M-V + LR-HF
 Correlation:  1.0000 wB97M-V
 Using SG-2 standard quadrature grid
 Nonlocal Correlation:  VV10 with C = 0.0100 and b = 6.00 and scale = 1.00000
 Grid used for NLC:  SG-1 standard quadrature
 
 Citation of the SMD model:
 Marenich, A.V.; Cramer, C.J.; Truhlar, D.G.
 J. Phys. Chem. B 2009, 113, 6378-6396.
 iSolventCode=           1
 Solvent: water                                                           
 
 vradii
            1           2           3           4           5           6
    1   1.8500000   1.5200000   1.5200000   1.5200000   1.5200000   1.2000000
 -------------------------------------------------------
 OpenMP BLAS3 based DFT computing Module                
 Release: version 1.0, May 2013, Q-Chem Inc. Pittsburgh 
 -------------------------------------------------------
 A unrestricted SCF calculation will be
 performed using Roothaan-Hall, DIIS, GDM
 SCF converges when RMS gradient is below 1.0e-07
 ---------------------------------------
  Cycle       Energy         DIIS error
 ---------------------------------------
    1    -339.4404139897      2.98e-04  Roothaan Step
 ---------------------------------------
  Cycle       Energy         DIIS error
 ---------------------------------------
    1    -339.4544794062      3.60e-04  
    2    -339.4558477684      3.86e-04  Done DIIS. Switching to GDM
 ---------------------------------------
  Cycle       Energy        RMS Gradient
 ---------------------------------------
    1    -339.4558477684      1.56e-02   Normal BFGS step
    2    -339.4547723260      2.54e-02  Line search: overstep
    3    -339.4573634702      3.05e-03   Normal BFGS step
    4    -339.4574339320      1.38e-03   Normal BFGS step
    5    -339.4574422733      1.64e-03   Normal BFGS step
    6    -339.4574470092      4.64e-04   Normal BFGS step
    7    -339.4574475498      1.90e-04   Normal BFGS step
    8    -339.4574477207      1.27e-04   Normal BFGS step
    9    -339.4574477683      8.58e-05   Normal BFGS step
   10    -339.4574477826      2.37e-05   Normal BFGS step
   11    -339.4574477860      7.90e-06   Normal BFGS step
   12    -339.4574477865      5.06e-06   Normal BFGS step
   13    -339.4574477866      2.15e-06   Normal BFGS step
   14    -339.4574477866      5.95e-07   Normal BFGS step
   15    -339.4574477866      2.85e-07   Normal BFGS step
   16    -339.4574477866      1.10e-07   Normal BFGS step
   17    -339.4574477866      5.02e-08  Convergence criterion met
 ---------------------------------------
 SCF time:   CPU 183.05s  wall 24.00s 
<S^2> =          1.576140153
(3)  G-ENP(liq) elect-nuc-pol free energy of system     -339.457447787 a.u.
(4)  G-CDS(liq) cavity-dispersion-solvent structure 
     free energy                                                4.2670 kcal/mol
(6)  G-S(liq) free energy of system                     -339.450647852 a.u.
 SCF   energy in the final basis set =     -339.4506478518
 Total energy in the final basis set =     -339.4506478518
 
 --------------------------------------------------------------
 
                    Orbital Energies (a.u.)
 --------------------------------------------------------------
 
 Alpha MOs
 -- Occupied --
-19.4901 -19.4751 -19.4101 -19.3733 -10.4904  -1.4297  -1.2647  -1.1910
 -0.9550  -0.7576  -0.6706  -0.6696  -0.6584  -0.6337  -0.5836  -0.5823
 -0.4767  -0.4650  -0.4051  -0.3999
 -- Virtual --
 -0.0101   0.0513   0.0739   0.0818   0.0872   0.1133   0.1183   0.1562
  0.1799   0.2027   0.2204   0.2297   0.2345   0.2492   0.2630   0.2791
  0.3014   0.3131   0.3173   0.3236   0.3394   0.3699   0.3861   0.4055
  0.4250   0.4524   0.5498   0.6074   0.6217   0.7026   0.7190   0.7604
  0.7994   0.8355   0.8736   0.9876   1.0052   1.0082   1.0307   1.0481
  1.0771   1.0953   1.1049   1.1212   1.1367   1.1731   1.1777   1.1885
  1.1936   1.3330   1.3473   1.3686   1.4021   1.4090   1.4822   1.5087
  1.5405   1.5938   1.5978   1.6220   1.7155   1.7370   1.7568   1.8208
  1.8800   1.9977   2.0046   2.1372   2.2843   2.3014   2.3430   2.3461
  2.4286   2.4901   2.5554   2.6122   2.7699   2.8296   2.9403   3.0598
  3.0935   3.1828   3.2284   3.2899   3.4131   3.5021   3.5422   3.6150
  3.6307   3.6823   3.7825   3.8871   4.0117   4.1966   4.4025   4.5412
  4.5799   4.5824   4.6014   4.9035   4.9049   4.9167   4.9682   5.0272
  5.0741   5.0998   5.1109   5.1127   5.1284   5.1492   5.1569   5.1766
  5.1796   5.1901   5.2571   5.2692   5.2922   5.3314   5.4508   5.5089
  5.5648   5.5856   5.6199   5.7454   5.7531   6.0405   6.1400   6.5681
  6.6395   6.7065   6.7727   6.8071   6.8105   6.8212   6.8584   6.8771
  6.8956   6.9239   6.9374   6.9727   7.0130   7.0411   7.1128   7.2027
  7.2165   7.3175   7.3571   7.3819   7.4747   7.5161   7.6428   7.7575
  7.8242   8.0956   8.1297  25.0494  50.4092  50.5214  50.5426  50.6951
 
 Beta MOs
 -- Occupied --
-19.4615 -19.4468 -19.4128 -19.3795 -10.5018  -1.3768  -1.2755  -1.2032
 -0.8752  -0.7769  -0.6460  -0.6293  -0.6062  -0.5945  -0.5658  -0.5648
 -0.5003  -0.4682  -0.3250
 -- Virtual --
 -0.0121  -0.0105   0.0445   0.0720   0.0802   0.0894   0.0985   0.1191
  0.1586   0.1823   0.2094   0.2198   0.2332   0.2375   0.2526   0.2661
  0.2843   0.3030   0.3159   0.3196   0.3283   0.3437   0.3688   0.4034
  0.4104   0.4335   0.4501   0.5347   0.6026   0.6200   0.6932   0.7105
  0.7493   0.7842   0.8267   0.8612   0.9842   1.0082   1.0184   1.0379
  1.0806   1.0843   1.0992   1.1021   1.1408   1.1487   1.1730   1.1878
  1.1967   1.2158   1.3323   1.3804   1.3865   1.4185   1.4397   1.5053
  1.5269   1.5457   1.5898   1.5958   1.6400   1.7232   1.7575   1.7871
  1.8200   1.9034   1.9919   1.9987   2.1326   2.2779   2.3240   2.3540
  2.3756   2.4402   2.4753   2.5441   2.6297   2.7552   2.8111   2.8944
  3.0180   3.0684   3.1442   3.1953   3.2282   3.3908   3.4556   3.4922
  3.5822   3.6149   3.6580   3.7696   3.8505   3.9963   4.1816   4.3775
  4.5947   4.6263   4.6305   4.6495   4.9382   4.9808   4.9891   5.0599
  5.0959   5.1015   5.1077   5.1157   5.1479   5.1616   5.1735   5.1849
  5.2155   5.2353   5.2382   5.2497   5.2782   5.2932   5.3759   5.4409
  5.5019   5.5523   5.5810   5.6095   5.8027   5.8100   6.0178   6.1304
  6.5545   6.7569   6.7647   6.8321   6.8565   6.8709   6.8818   6.8890
  6.9180   6.9365   6.9582   6.9990   7.0050   7.0509   7.0900   7.1186
  7.2009   7.2114   7.3154   7.4043   7.4215   7.4603   7.4998   7.6349
  7.7451   7.8105   8.1279   8.1741  25.0387  50.4312  50.5351  50.5487
 50.6900
 --------------------------------------------------------------
 
          Ground-State Mulliken Net Atomic Charges

     Atom                 Charge (a.u.)    Spin (a.u.)
  --------------------------------------------------------
      1 C                     0.212645      -0.673890
      2 O                    -0.238613      -0.000488
      3 O                    -0.339961      -0.181922
      4 O                     0.007608       0.956761
      5 O                    -0.004840       0.939561
      6 H                     0.363160      -0.040022
  --------------------------------------------------------
  Sum of atomic charges =    -0.000000
  Sum of spin   charges =     1.000000

 -----------------------------------------------------------------
                    Cartesian Multipole Moments
 -----------------------------------------------------------------
    Charge (ESU x 10^10)
                 0.0000
    Dipole Moment (Debye)
         X       1.1633      Y      -2.5432      Z       0.9620
       Tot       2.9575
    Quadrupole Moments (Debye-Ang)
        XX     -30.1657     XY       1.2103     YY     -20.1646
        XZ      -2.3397     YZ      -3.9740     ZZ     -31.4741
    Octopole Moments (Debye-Ang^2)
       XXX     120.1470    XXY       0.9703    XYY      34.3081
       YYY     -18.9915    XXZ     -28.5807    XYZ       4.0935
       YYZ     -26.2162    XZZ      42.1454    YZZ      -1.8359
       ZZZ    -113.6539
    Hexadecapole Moments (Debye-Ang^3)
      XXXX    -372.7247   XXXY      -1.1265   XXYY    -100.3143
      XYYY      15.5625   YYYY    -193.7499   XXXZ     108.9004
      XXYZ     -28.6265   XYYZ      34.6446   YYYZ     -94.7983
      XXZZ    -146.8726   XYZZ       0.9178   YYZZ    -121.9326
      XZZZ     130.7209   YZZZ     -77.1007   ZZZZ    -537.9063
 -----------------------------------------------------------------
 Calculating analytic gradient of the SCF energy
 Gradient of CDS energy
            1           2           3           4           5           6
    1   0.0005149  -0.0010897   0.0003392   0.0000826  -0.0000208   0.0001738
    2  -0.0015654   0.0015280   0.0000392   0.0002837   0.0001020  -0.0003874
    3   0.0001279  -0.0016685   0.0009753   0.0004207   0.0000158   0.0001287
 Gradient of SCF Energy
            1           2           3           4           5           6
    1   0.0009699  -0.0022134  -0.0035595  -0.0008073   0.0008125   0.0047978
    2  -0.0003554   0.0179805   0.0027835   0.0006601  -0.0005408  -0.0205279
    3   0.0025251   0.0102887  -0.0073364  -0.0017834   0.0017327  -0.0054268
 Max gradient component =       2.053E-02
 RMS gradient           =       7.445E-03
 Computing fast CPCM-SWIG gradient
 Updating gradient with PCM contributions...
 -- total gradient after adding PCM contribution --
---------------------------------------------------
  Atom         X              Y              Z     
---------------------------------------------------
   1       0.000295      -0.000169       0.000530
   2      -0.000124       0.000101      -0.000072
   3      -0.000139      -0.000047      -0.000462
   4       0.000077       0.000013       0.000132
   5      -0.000068       0.000072      -0.000147
   6      -0.000041       0.000030       0.000019
---------------------------------------------------
 Number of fixed atoms: 0
 Gradient time:  CPU 24.88 s  wall 3.69 s
 ----------------------------------------------------------------
             Standard Nuclear Orientation (Angstroms)
    I     Atom           X                Y                Z
 ----------------------------------------------------------------
    1      C      -1.5126893994    -0.5633058112     0.5979297540
    2      O      -0.9394121686    -1.3084118198     1.5044541189
    3      O      -1.8451437686    -0.7730962409    -0.5197593096
    4      O      -1.6000247371     1.4841466712     1.8470778063
    5      O      -1.1368838551     1.3372906152     2.9483576054
    6      H      -0.7674141713    -2.2068134145     1.1580386250
 ----------------------------------------------------------------
 Nuclear Repulsion Energy =         154.16173112 hartrees
 There are       20 alpha and       19 beta electrons
 Discretize the solute cavity surface with Lebedev spheres
	Using 110 Lebedev grid points for each H atom
	Using 194 Lebedev grid points for other atoms
	Atomic van der Waals radii will be scaled by 1.20
 Remove points where switching function is < 1.0e-08
 Keep 698 surface tesserae and discard 382 interior tesserae
 Molecular Surface Area = 90.472 Angst**2

                       Distance Matrix (Angstroms)
             C (  1)   O (  2)   O (  3)   O (  4)   O (  5)
   O (  2)  1.305992
   O (  3)  1.184807  2.281305
   O (  4)  2.400012  2.890014  3.279809
   O (  5)  3.045982  3.020529  4.121068  1.203696
   H (  6)  1.889517  0.978117  2.456024  3.845933  3.987784
 
 Requested basis set is 6-311++G(2df,2p)
 There are 46 shells and 180 basis functions
 A cutoff of  1.0D-12 yielded    981 shell pairs
 There are     15336 function pairs (     19898 Cartesian)
 Smallest overlap matrix eigenvalue = 4.49E-04
 Guess MOs from SCF MO coefficient file

 -----------------------------------------------------------------------
  General SCF calculation program by
  Eric Jon Sundstrom, Paul Horn, Yuezhi Mao, Dmitri Zuev, Alec White,
  David Stuck, Shaama M.S., Shane Yost, Joonho Lee, David Small,
  Daniel Levine, Susi Lehtola, Hugh Burton, Evgeny Epifanovsky,
  Bang C. Huynh
 -----------------------------------------------------------------------
 Exchange:     0.1500 Hartree-Fock + 1.0000 wB97M-V + LR-HF
 Correlation:  1.0000 wB97M-V
 Using SG-2 standard quadrature grid
 Nonlocal Correlation:  VV10 with C = 0.0100 and b = 6.00 and scale = 1.00000
 Grid used for NLC:  SG-1 standard quadrature
 
 Citation of the SMD model:
 Marenich, A.V.; Cramer, C.J.; Truhlar, D.G.
 J. Phys. Chem. B 2009, 113, 6378-6396.
 iSolventCode=           1
 Solvent: water                                                           
 
 vradii
            1           2           3           4           5           6
    1   1.8500000   1.5200000   1.5200000   1.5200000   1.5200000   1.2000000
 -------------------------------------------------------
 OpenMP BLAS3 based DFT computing Module                
 Release: version 1.0, May 2013, Q-Chem Inc. Pittsburgh 
 -------------------------------------------------------
 A unrestricted SCF calculation will be
 performed using Roothaan-Hall, DIIS, GDM
 SCF converges when RMS gradient is below 1.0e-07
 ---------------------------------------
  Cycle       Energy         DIIS error
 ---------------------------------------
    1    -339.4404117800      2.99e-04  Roothaan Step
 ---------------------------------------
  Cycle       Energy         DIIS error
 ---------------------------------------
    1    -339.4545019161      3.58e-04  
    2    -339.4558801376      3.82e-04  Done DIIS. Switching to GDM
 ---------------------------------------
  Cycle       Energy        RMS Gradient
 ---------------------------------------
    1    -339.4558801376      1.53e-02   Normal BFGS step
    2    -339.4548350416      2.50e-02  Line search: overstep
    3    -339.4573625059      3.04e-03   Normal BFGS step
    4    -339.4574321836      1.38e-03   Normal BFGS step
    5    -339.4574404020      1.63e-03   Normal BFGS step
    6    -339.4574450934      4.57e-04   Normal BFGS step
    7    -339.4574456127      1.86e-04   Normal BFGS step
    8    -339.4574457834      1.24e-04   Normal BFGS step
    9    -339.4574458286      8.42e-05   Normal BFGS step
   10    -339.4574458421      2.44e-05   Normal BFGS step
   11    -339.4574458454      7.77e-06   Normal BFGS step
   12    -339.4574458459      4.79e-06   Normal BFGS step
   13    -339.4574458460      2.23e-06   Normal BFGS step
   14    -339.4574458460      6.24e-07   Normal BFGS step
   15    -339.4574458460      2.82e-07   Normal BFGS step
   16    -339.4574458460      1.07e-07   Normal BFGS step
   17    -339.4574458460      4.90e-08  Convergence criterion met
 ---------------------------------------
 SCF time:   CPU 188.31s  wall 24.00s 
<S^2> =          1.576329548
(3)  G-ENP(liq) elect-nuc-pol free energy of system     -339.457445846 a.u.
(4)  G-CDS(liq) cavity-dispersion-solvent structure 
     free energy                                                4.2658 kcal/mol
(6)  G-S(liq) free energy of system                     -339.450647887 a.u.
 SCF   energy in the final basis set =     -339.4506478871
 Total energy in the final basis set =     -339.4506478871
 
 --------------------------------------------------------------
 
                    Orbital Energies (a.u.)
 --------------------------------------------------------------
 
 Alpha MOs
 -- Occupied --
-19.4901 -19.4751 -19.4099 -19.3734 -10.4904  -1.4297  -1.2645  -1.1911
 -0.9550  -0.7573  -0.6706  -0.6696  -0.6584  -0.6337  -0.5835  -0.5823
 -0.4768  -0.4650  -0.4051  -0.3999
 -- Virtual --
 -0.0101   0.0513   0.0739   0.0818   0.0872   0.1133   0.1183   0.1562
  0.1798   0.2027   0.2205   0.2297   0.2345   0.2492   0.2629   0.2791
  0.3014   0.3131   0.3174   0.3236   0.3394   0.3700   0.3861   0.4054
  0.4249   0.4522   0.5498   0.6072   0.6218   0.7027   0.7192   0.7603
  0.7996   0.8353   0.8737   0.9872   1.0053   1.0083   1.0306   1.0481
  1.0770   1.0954   1.1049   1.1212   1.1367   1.1732   1.1776   1.1886
  1.1936   1.3327   1.3473   1.3687   1.4020   1.4091   1.4822   1.5087
  1.5406   1.5937   1.5976   1.6221   1.7154   1.7370   1.7570   1.8210
  1.8799   1.9978   2.0045   2.1372   2.2843   2.3013   2.3430   2.3459
  2.4285   2.4898   2.5555   2.6122   2.7696   2.8296   2.9405   3.0597
  3.0931   3.1832   3.2284   3.2900   3.4128   3.5020   3.5417   3.6152
  3.6311   3.6824   3.7824   3.8861   4.0124   4.1968   4.4023   4.5412
  4.5798   4.5824   4.6014   4.9035   4.9049   4.9166   4.9682   5.0271
  5.0741   5.0998   5.1108   5.1127   5.1283   5.1492   5.1569   5.1766
  5.1797   5.1901   5.2568   5.2692   5.2923   5.3314   5.4510   5.5086
  5.5651   5.5857   5.6193   5.7453   5.7531   6.0397   6.1387   6.5687
  6.6395   6.7064   6.7719   6.8071   6.8105   6.8211   6.8586   6.8770
  6.8959   6.9240   6.9377   6.9727   7.0131   7.0410   7.1131   7.2027
  7.2165   7.3173   7.3570   7.3818   7.4747   7.5148   7.6431   7.7579
  7.8238   8.0956   8.1297  25.0487  50.4091  50.5213  50.5420  50.6958
 
 Beta MOs
 -- Occupied --
-19.4615 -19.4468 -19.4126 -19.3796 -10.5018  -1.3768  -1.2754  -1.2033
 -0.8752  -0.7766  -0.6460  -0.6293  -0.6062  -0.5944  -0.5658  -0.5648
 -0.5004  -0.4682  -0.3251
 -- Virtual --
 -0.0121  -0.0105   0.0445   0.0720   0.0802   0.0895   0.0985   0.1191
  0.1586   0.1823   0.2093   0.2198   0.2332   0.2375   0.2526   0.2661
  0.2843   0.3030   0.3159   0.3196   0.3283   0.3437   0.3688   0.4033
  0.4105   0.4333   0.4500   0.5347   0.6026   0.6202   0.6933   0.7107
  0.7492   0.7844   0.8266   0.8614   0.9839   1.0082   1.0184   1.0378
  1.0805   1.0844   1.0993   1.1020   1.1407   1.1486   1.1731   1.1877
  1.1968   1.2159   1.3322   1.3804   1.3867   1.4185   1.4397   1.5052
  1.5268   1.5458   1.5896   1.5959   1.6400   1.7232   1.7576   1.7872
  1.8201   1.9033   1.9920   1.9987   2.1326   2.2779   2.3239   2.3537
  2.3755   2.4402   2.4751   2.5443   2.6297   2.7549   2.8111   2.8946
  3.0179   3.0679   3.1446   3.1953   3.2283   3.3904   3.4555   3.4917
  3.5823   3.6153   3.6581   3.7695   3.8494   3.9970   4.1817   4.3772
  4.5946   4.6262   4.6305   4.6495   4.9382   4.9808   4.9891   5.0599
  5.0959   5.1014   5.1077   5.1156   5.1479   5.1616   5.1735   5.1849
  5.2155   5.2353   5.2382   5.2493   5.2783   5.2933   5.3759   5.4410
  5.5016   5.5525   5.5811   5.6089   5.8027   5.8100   6.0170   6.1290
  6.5551   6.7560   6.7647   6.8320   6.8565   6.8714   6.8818   6.8890
  6.9182   6.9365   6.9582   6.9989   7.0051   7.0508   7.0902   7.1186
  7.2009   7.2114   7.3151   7.4042   7.4214   7.4601   7.4986   7.6351
  7.7455   7.8101   8.1279   8.1741  25.0380  50.4311  50.5346  50.5485
 50.6907
 --------------------------------------------------------------
 
          Ground-State Mulliken Net Atomic Charges

     Atom                 Charge (a.u.)    Spin (a.u.)
  --------------------------------------------------------
      1 C                     0.212734      -0.673892
      2 O                    -0.239570      -0.000738
      3 O                    -0.339204      -0.181905
      4 O                     0.007649       0.956806
      5 O                    -0.004712       0.939658
      6 H                     0.363103      -0.039930
  --------------------------------------------------------
  Sum of atomic charges =     0.000000
  Sum of spin   charges =     1.000000

 -----------------------------------------------------------------
                    Cartesian Multipole Moments
 -----------------------------------------------------------------
    Charge (ESU x 10^10)
                -0.0000
    Dipole Moment (Debye)
         X       1.1571      Y      -2.5382      Z       0.9546
       Tot       2.9483
    Quadrupole Moments (Debye-Ang)
        XX     -30.1492     XY       1.2110     YY     -20.1685
        XZ      -2.3316     YZ      -3.9606     ZZ     -31.4798
    Octopole Moments (Debye-Ang^2)
       XXX     120.1369    XXY       0.9608    XYY      34.3132
       YYY     -18.9742    XXZ     -28.5948    XYZ       4.0791
       YYZ     -26.2309    XZZ      42.1609    YZZ      -1.8113
       ZZZ    -113.6709
    Hexadecapole Moments (Debye-Ang^3)
      XXXX    -372.8114   XXXY      -1.1105   XXYY    -100.3255
      XYYY      15.5392   YYYY    -193.7734   XXXZ     108.9479
      XXYZ     -28.6047   XYYZ      34.6658   YYYZ     -94.7509
      XXZZ    -146.9123   XYZZ       0.8837   YYZZ    -121.9472
      XZZZ     130.7619   YZZZ     -77.0309   ZZZZ    -537.9127
 -----------------------------------------------------------------
 Calculating analytic gradient of the SCF energy
 Gradient of CDS energy
            1           2           3           4           5           6
    1   0.0005308  -0.0011040   0.0003360   0.0000829  -0.0000204   0.0001748
    2  -0.0015775   0.0015418   0.0000381   0.0002838   0.0001015  -0.0003876
    3   0.0001500  -0.0016849   0.0009695   0.0004207   0.0000156   0.0001290
 Gradient of SCF Energy
            1           2           3           4           5           6
    1   0.0003908  -0.0019185  -0.0032622  -0.0008110   0.0008222   0.0047787
    2  -0.0000804   0.0176811   0.0028734   0.0006398  -0.0005397  -0.0205741
    3   0.0015116   0.0105259  -0.0066073  -0.0018143   0.0017598  -0.0053758
 Max gradient component =       2.057E-02
 RMS gradient           =       7.362E-03
 Computing fast CPCM-SWIG gradient
 Updating gradient with PCM contributions...
 -- total gradient after adding PCM contribution --
---------------------------------------------------
  Atom         X              Y              Z     
---------------------------------------------------
   1      -0.000276       0.000105      -0.000503
   2       0.000159      -0.000185       0.000175
   3       0.000148       0.000057       0.000273
   4       0.000073      -0.000007       0.000098
   5      -0.000058       0.000073      -0.000117
   6      -0.000046      -0.000043       0.000073
---------------------------------------------------
 Number of fixed atoms: 0
 Gradient time:  CPU 24.47 s  wall 3.62 s
 ----------------------------------------------------------------
             Standard Nuclear Orientation (Angstroms)
    I     Atom           X                Y                Z
 ----------------------------------------------------------------
    1      C      -1.5116893994    -0.5623058112     0.5979297540
    2      O      -0.9394121686    -1.3084118198     1.5044541189
    3      O      -1.8451437686    -0.7730962409    -0.5197593096
    4      O      -1.6000247371     1.4841466712     1.8470778063
    5      O      -1.1368838551     1.3372906152     2.9483576054
    6      H      -0.7674141713    -2.2068134145     1.1580386250
 ----------------------------------------------------------------
 Nuclear Repulsion Energy =         154.15669326 hartrees
 There are       20 alpha and       19 beta electrons
 Discretize the solute cavity surface with Lebedev spheres
	Using 110 Lebedev grid points for each H atom
	Using 194 Lebedev grid points for other atoms
	Atomic van der Waals radii will be scaled by 1.20
 Remove points where switching function is < 1.0e-08
 Keep 698 surface tesserae and discard 382 interior tesserae
 Molecular Surface Area = 90.469 Angst**2

                       Distance Matrix (Angstroms)
             C (  1)   O (  2)   O (  3)   O (  4)   O (  5)
   O (  2)  1.306125
   O (  3)  1.185265  2.281305
   O (  4)  2.399196  2.890014  3.279809
   O (  5)  3.045235  3.020529  4.121068  1.203696
   H (  6)  1.889993  0.978117  2.456024  3.845933  3.987784
 
 Requested basis set is 6-311++G(2df,2p)
 There are 46 shells and 180 basis functions
 A cutoff of  1.0D-12 yielded    981 shell pairs
 There are     15336 function pairs (     19898 Cartesian)
 Smallest overlap matrix eigenvalue = 4.49E-04
 Guess MOs from SCF MO coefficient file

 -----------------------------------------------------------------------
  General SCF calculation program by
  Eric Jon Sundstrom, Paul Horn, Yuezhi Mao, Dmitri Zuev, Alec White,
  David Stuck, Shaama M.S., Shane Yost, Joonho Lee, David Small,
  Daniel Levine, Susi Lehtola, Hugh Burton, Evgeny Epifanovsky,
  Bang C. Huynh
 -----------------------------------------------------------------------
 Exchange:     0.1500 Hartree-Fock + 1.0000 wB97M-V + LR-HF
 Correlation:  1.0000 wB97M-V
 Using SG-2 standard quadrature grid
 Nonlocal Correlation:  VV10 with C = 0.0100 and b = 6.00 and scale = 1.00000
 Grid used for NLC:  SG-1 standard quadrature
 
 Citation of the SMD model:
 Marenich, A.V.; Cramer, C.J.; Truhlar, D.G.
 J. Phys. Chem. B 2009, 113, 6378-6396.
 iSolventCode=           1
 Solvent: water                                                           
 
 vradii
            1           2           3           4           5           6
    1   1.8500000   1.5200000   1.5200000   1.5200000   1.5200000   1.2000000
 -------------------------------------------------------
 OpenMP BLAS3 based DFT computing Module                
 Release: version 1.0, May 2013, Q-Chem Inc. Pittsburgh 
 -------------------------------------------------------
 A unrestricted SCF calculation will be
 performed using Roothaan-Hall, DIIS, GDM
 SCF converges when RMS gradient is below 1.0e-07
 ---------------------------------------
  Cycle       Energy         DIIS error
 ---------------------------------------
    1    -339.4404410841      2.97e-04  Roothaan Step
 ---------------------------------------
  Cycle       Energy         DIIS error
 ---------------------------------------
    1    -339.4544876178      3.59e-04  
    2    -339.4558540911      3.85e-04  Done DIIS. Switching to GDM
 ---------------------------------------
  Cycle       Energy        RMS Gradient
 ---------------------------------------
    1    -339.4558540911      1.56e-02   Normal BFGS step
    2    -339.4547858108      2.53e-02  Line search: overstep
    3    -339.4573597570      3.04e-03   Normal BFGS step
    4    -339.4574298117      1.38e-03   Normal BFGS step
    5    -339.4574380642      1.64e-03   Normal BFGS step
    6    -339.4574428228      4.55e-04   Normal BFGS step
    7    -339.4574433476      1.84e-04   Normal BFGS step
    8    -339.4574435183      1.23e-04   Normal BFGS step
    9    -339.4574435640      8.43e-05   Normal BFGS step
   10    -339.4574435778      2.38e-05   Normal BFGS step
   11    -339.4574435812      7.77e-06   Normal BFGS step
   12    -339.4574435817      4.96e-06   Normal BFGS step
   13    -339.4574435818      2.11e-06   Normal BFGS step
   14    -339.4574435818      5.90e-07   Normal BFGS step
   15    -339.4574435818      2.81e-07   Normal BFGS step
   16    -339.4574435818      1.07e-07   Normal BFGS step
   17    -339.4574435818      4.93e-08  Convergence criterion met
 ---------------------------------------
 SCF time:   CPU 183.58s  wall 23.00s 
<S^2> =          1.576182868
(3)  G-ENP(liq) elect-nuc-pol free energy of system     -339.457443582 a.u.
(4)  G-CDS(liq) cavity-dispersion-solvent structure 
     free energy                                                4.2645 kcal/mol
(6)  G-S(liq) free energy of system                     -339.450647608 a.u.
 SCF   energy in the final basis set =     -339.4506476077
 Total energy in the final basis set =     -339.4506476077
 
 --------------------------------------------------------------
 
                    Orbital Energies (a.u.)
 --------------------------------------------------------------
 
 Alpha MOs
 -- Occupied --
-19.4902 -19.4752 -19.4099 -19.3734 -10.4905  -1.4298  -1.2644  -1.1909
 -0.9551  -0.7574  -0.6707  -0.6697  -0.6584  -0.6336  -0.5834  -0.5821
 -0.4766  -0.4649  -0.4052  -0.3999
 -- Virtual --
 -0.0103   0.0513   0.0739   0.0818   0.0872   0.1132   0.1183   0.1562
  0.1799   0.2027   0.2205   0.2297   0.2345   0.2492   0.2629   0.2791
  0.3014   0.3131   0.3173   0.3236   0.3395   0.3700   0.3861   0.4055
  0.4249   0.4522   0.5496   0.6073   0.6217   0.7027   0.7193   0.7601
  0.7996   0.8352   0.8738   0.9872   1.0052   1.0082   1.0306   1.0481
  1.0770   1.0954   1.1049   1.1212   1.1367   1.1732   1.1777   1.1885
  1.1935   1.3326   1.3473   1.3686   1.4020   1.4091   1.4822   1.5086
  1.5407   1.5934   1.5976   1.6219   1.7152   1.7370   1.7570   1.8208
  1.8800   1.9974   2.0043   2.1368   2.2844   2.3012   2.3430   2.3459
  2.4284   2.4899   2.5552   2.6122   2.7697   2.8295   2.9406   3.0599
  3.0930   3.1833   3.2285   3.2901   3.4129   3.5021   3.5418   3.6154
  3.6304   3.6825   3.7824   3.8855   4.0123   4.1966   4.4013   4.5411
  4.5798   4.5824   4.6014   4.9034   4.9049   4.9166   4.9682   5.0271
  5.0741   5.0999   5.1108   5.1127   5.1283   5.1491   5.1569   5.1765
  5.1796   5.1902   5.2562   5.2690   5.2924   5.3314   5.4507   5.5079
  5.5651   5.5857   5.6185   5.7453   5.7530   6.0385   6.1378   6.5664
  6.6394   6.7064   6.7707   6.8070   6.8104   6.8210   6.8583   6.8770
  6.8955   6.9236   6.9375   6.9726   7.0130   7.0411   7.1125   7.2022
  7.2167   7.3170   7.3569   7.3817   7.4753   7.5136   7.6435   7.7574
  7.8227   8.0956   8.1297  25.0479  50.4091  50.5212  50.5417  50.6949
 
 Beta MOs
 -- Occupied --
-19.4616 -19.4469 -19.4126 -19.3795 -10.5019  -1.3768  -1.2752  -1.2031
 -0.8753  -0.7767  -0.6460  -0.6293  -0.6062  -0.5943  -0.5658  -0.5649
 -0.5003  -0.4681  -0.3253
 -- Virtual --
 -0.0121  -0.0105   0.0445   0.0720   0.0802   0.0894   0.0984   0.1191
  0.1586   0.1823   0.2094   0.2198   0.2332   0.2375   0.2526   0.2661
  0.2843   0.3030   0.3159   0.3196   0.3283   0.3437   0.3688   0.4032
  0.4105   0.4333   0.4500   0.5344   0.6027   0.6201   0.6933   0.7109
  0.7490   0.7844   0.8265   0.8613   0.9839   1.0081   1.0183   1.0378
  1.0805   1.0843   1.0993   1.1020   1.1407   1.1486   1.1731   1.1878
  1.1967   1.2158   1.3320   1.3804   1.3865   1.4186   1.4396   1.5052
  1.5268   1.5459   1.5896   1.5956   1.6398   1.7231   1.7576   1.7871
  1.8199   1.9033   1.9916   1.9984   2.1322   2.2779   2.3239   2.3537
  2.3755   2.4402   2.4751   2.5440   2.6297   2.7550   2.8110   2.8947
  3.0181   3.0679   3.1446   3.1955   3.2283   3.3905   3.4557   3.4918
  3.5826   3.6146   3.6582   3.7695   3.8488   3.9969   4.1815   4.3763
  4.5946   4.6262   4.6305   4.6495   4.9382   4.9808   4.9891   5.0599
  5.0959   5.1015   5.1076   5.1156   5.1479   5.1615   5.1735   5.1849
  5.2154   5.2352   5.2382   5.2488   5.2783   5.2933   5.3759   5.4408
  5.5009   5.5525   5.5812   5.6082   5.8026   5.8099   6.0159   6.1281
  6.5527   6.7548   6.7647   6.8321   6.8565   6.8704   6.8818   6.8889
  6.9182   6.9365   6.9580   6.9990   7.0050   7.0508   7.0898   7.1185
  7.2004   7.2116   7.3149   7.4042   7.4213   7.4607   7.4975   7.6355
  7.7450   7.8091   8.1279   8.1741  25.0371  50.4311  50.5343  50.5485
 50.6898
 --------------------------------------------------------------
 
          Ground-State Mulliken Net Atomic Charges

     Atom                 Charge (a.u.)    Spin (a.u.)
  --------------------------------------------------------
      1 C                     0.212923      -0.673809
      2 O                    -0.239790      -0.000771
      3 O                    -0.339593      -0.181985
      4 O                     0.007800       0.956717
      5 O                    -0.004560       0.939709
      6 H                     0.363220      -0.039861
  --------------------------------------------------------
  Sum of atomic charges =    -0.000000
  Sum of spin   charges =     1.000000

 -----------------------------------------------------------------
                    Cartesian Multipole Moments
 -----------------------------------------------------------------
    Charge (ESU x 10^10)
                 0.0000
    Dipole Moment (Debye)
         X       1.1587      Y      -2.5342      Z       0.9585
       Tot       2.9467
    Quadrupole Moments (Debye-Ang)
        XX     -30.1543     XY       1.2027     YY     -20.1697
        XZ      -2.3379     YZ      -3.9558     ZZ     -31.4740
    Octopole Moments (Debye-Ang^2)
       XXX     120.1344    XXY       0.9739    XYY      34.3143
       YYY     -18.9812    XXZ     -28.5832    XYZ       4.0721
       YYZ     -26.2247    XZZ      42.1465    YZZ      -1.8051
       ZZZ    -113.6483
    Hexadecapole Moments (Debye-Ang^3)
      XXXX    -372.7485   XXXY      -1.1196   XXYY    -100.3194
      XYYY      15.5507   YYYY    -193.7218   XXXZ     108.9122
      XXYZ     -28.5939   XYYZ      34.6569   YYYZ     -94.7493
      XXZZ    -146.8805   XYZZ       0.8820   YYZZ    -121.9225
      XZZZ     130.7180   YZZZ     -77.0068   ZZZZ    -537.8478
 -----------------------------------------------------------------
 Calculating analytic gradient of the SCF energy
 Gradient of CDS energy
            1           2           3           4           5           6
    1   0.0005289  -0.0011036   0.0003382   0.0000828  -0.0000206   0.0001743
    2  -0.0015828   0.0015460   0.0000396   0.0002835   0.0001015  -0.0003878
    3   0.0001474  -0.0016872   0.0009743   0.0004209   0.0000157   0.0001289
 Gradient of SCF Energy
            1           2           3           4           5           6
    1   0.0005439  -0.0019379  -0.0034589  -0.0008286   0.0008379   0.0048436
    2   0.0004183   0.0174820   0.0026220   0.0006364  -0.0005473  -0.0206113
    3   0.0021578   0.0104958  -0.0072632  -0.0018579   0.0017944  -0.0053270
 Max gradient component =       2.061E-02
 RMS gradient           =       7.385E-03
 Computing fast CPCM-SWIG gradient
 Updating gradient with PCM contributions...
 -- total gradient after adding PCM contribution --
---------------------------------------------------
  Atom         X              Y              Z     
---------------------------------------------------
   1      -0.000127       0.000594       0.000152
   2       0.000149      -0.000374       0.000157
   3      -0.000049      -0.000192      -0.000395
   4       0.000059      -0.000013       0.000065
   5      -0.000047       0.000067      -0.000093
   6       0.000014      -0.000082       0.000114
---------------------------------------------------
 Number of fixed atoms: 0
 Gradient time:  CPU 25.37 s  wall 3.84 s
 ----------------------------------------------------------------
             Standard Nuclear Orientation (Angstroms)
    I     Atom           X                Y                Z
 ----------------------------------------------------------------
    1      C      -1.5116893994    -0.5643058112     0.5979297540
    2      O      -0.9394121686    -1.3084118198     1.5044541189
    3      O      -1.8451437686    -0.7730962409    -0.5197593096
    4      O      -1.6000247371     1.4841466712     1.8470778063
    5      O      -1.1368838551     1.3372906152     2.9483576054
    6      H      -0.7674141713    -2.2068134145     1.1580386250
 ----------------------------------------------------------------
 Nuclear Repulsion Energy =         154.17071416 hartrees
 There are       20 alpha and       19 beta electrons
 Discretize the solute cavity surface with Lebedev spheres
	Using 110 Lebedev grid points for each H atom
	Using 194 Lebedev grid points for other atoms
	Atomic van der Waals radii will be scaled by 1.20
 Remove points where switching function is < 1.0e-08
 Keep 698 surface tesserae and discard 382 interior tesserae
 Molecular Surface Area = 90.471 Angst**2

                       Distance Matrix (Angstroms)
             C (  1)   O (  2)   O (  3)   O (  4)   O (  5)
   O (  2)  1.304983
   O (  3)  1.184911  2.281305
   O (  4)  2.400902  2.890014  3.279809
   O (  5)  3.046483  3.020529  4.121068  1.203696
   H (  6)  1.888253  0.978117  2.456024  3.845933  3.987784
 
 Requested basis set is 6-311++G(2df,2p)
 There are 46 shells and 180 basis functions
 A cutoff of  1.0D-12 yielded    981 shell pairs
 There are     15336 function pairs (     19898 Cartesian)
 Smallest overlap matrix eigenvalue = 4.49E-04
 Guess MOs from SCF MO coefficient file

 -----------------------------------------------------------------------
  General SCF calculation program by
  Eric Jon Sundstrom, Paul Horn, Yuezhi Mao, Dmitri Zuev, Alec White,
  David Stuck, Shaama M.S., Shane Yost, Joonho Lee, David Small,
  Daniel Levine, Susi Lehtola, Hugh Burton, Evgeny Epifanovsky,
  Bang C. Huynh
 -----------------------------------------------------------------------
 Exchange:     0.1500 Hartree-Fock + 1.0000 wB97M-V + LR-HF
 Correlation:  1.0000 wB97M-V
 Using SG-2 standard quadrature grid
 Nonlocal Correlation:  VV10 with C = 0.0100 and b = 6.00 and scale = 1.00000
 Grid used for NLC:  SG-1 standard quadrature
 
 Citation of the SMD model:
 Marenich, A.V.; Cramer, C.J.; Truhlar, D.G.
 J. Phys. Chem. B 2009, 113, 6378-6396.
 iSolventCode=           1
 Solvent: water                                                           
 
 vradii
            1           2           3           4           5           6
    1   1.8500000   1.5200000   1.5200000   1.5200000   1.5200000   1.2000000
 -------------------------------------------------------
 OpenMP BLAS3 based DFT computing Module                
 Release: version 1.0, May 2013, Q-Chem Inc. Pittsburgh 
 -------------------------------------------------------
 A unrestricted SCF calculation will be
 performed using Roothaan-Hall, DIIS, GDM
 SCF converges when RMS gradient is below 1.0e-07
 ---------------------------------------
  Cycle       Energy         DIIS error
 ---------------------------------------
    1    -339.4404212203      2.98e-04  Roothaan Step
 ---------------------------------------
  Cycle       Energy         DIIS error
 ---------------------------------------
    1    -339.4544882105      3.59e-04  
    2    -339.4558602510      3.85e-04  Done DIIS. Switching to GDM
 ---------------------------------------
  Cycle       Energy        RMS Gradient
 ---------------------------------------
    1    -339.4558602510      1.55e-02   Normal BFGS step
    2    -339.4547965049      2.52e-02  Line search: overstep
    3    -339.4573651112      3.04e-03   Normal BFGS step
    4    -339.4574355296      1.37e-03   Normal BFGS step
    5    -339.4574439031      1.64e-03   Normal BFGS step
    6    -339.4574486115      4.68e-04   Normal BFGS step
    7    -339.4574491610      1.97e-04   Normal BFGS step
    8    -339.4574493333      1.31e-04   Normal BFGS step
    9    -339.4574493826      8.71e-05   Normal BFGS step
   10    -339.4574493974      2.34e-05   Normal BFGS step
   11    -339.4574494008      7.98e-06   Normal BFGS step
   12    -339.4574494013      5.11e-06   Normal BFGS step
   13    -339.4574494014      2.21e-06   Normal BFGS step
   14    -339.4574494014      6.07e-07   Normal BFGS step
   15    -339.4574494014      2.90e-07   Normal BFGS step
   16    -339.4574494014      1.13e-07   Normal BFGS step
   17    -339.4574494014      5.10e-08  Convergence criterion met
 ---------------------------------------
 SCF time:   CPU 187.04s  wall 24.00s 
<S^2> =          1.576282515
(3)  G-ENP(liq) elect-nuc-pol free energy of system     -339.457449401 a.u.
(4)  G-CDS(liq) cavity-dispersion-solvent structure 
     free energy                                                4.2683 kcal/mol
(6)  G-S(liq) free energy of system                     -339.450647488 a.u.
 SCF   energy in the final basis set =     -339.4506474880
 Total energy in the final basis set =     -339.4506474880
 
 --------------------------------------------------------------
 
                    Orbital Energies (a.u.)
 --------------------------------------------------------------
 
 Alpha MOs
 -- Occupied --
-19.4900 -19.4751 -19.4101 -19.3733 -10.4904  -1.4297  -1.2648  -1.1913
 -0.9550  -0.7576  -0.6706  -0.6696  -0.6583  -0.6338  -0.5837  -0.5824
 -0.4768  -0.4651  -0.4051  -0.3999
 -- Virtual --
 -0.0099   0.0514   0.0739   0.0818   0.0872   0.1134   0.1183   0.1562
  0.1798   0.2027   0.2204   0.2297   0.2345   0.2492   0.2630   0.2791
  0.3014   0.3131   0.3174   0.3236   0.3394   0.3699   0.3861   0.4055
  0.4251   0.4524   0.5501   0.6073   0.6218   0.7026   0.7188   0.7606
  0.7995   0.8356   0.8736   0.9875   1.0053   1.0083   1.0307   1.0481
  1.0771   1.0953   1.1049   1.1212   1.1367   1.1731   1.1776   1.1885
  1.1937   1.3331   1.3473   1.3687   1.4021   1.4090   1.4822   1.5087
  1.5404   1.5941   1.5977   1.6223   1.7156   1.7370   1.7568   1.8210
  1.8799   1.9982   2.0048   2.1377   2.2843   2.3014   2.3430   2.3461
  2.4287   2.4900   2.5557   2.6122   2.7698   2.8297   2.9402   3.0596
  3.0936   3.1827   3.2282   3.2899   3.4130   3.5020   3.5420   3.6148
  3.6314   3.6822   3.7825   3.8877   4.0118   4.1968   4.4035   4.5412
  4.5799   4.5825   4.6014   4.9035   4.9050   4.9166   4.9682   5.0272
  5.0741   5.0997   5.1109   5.1127   5.1284   5.1492   5.1569   5.1767
  5.1797   5.1901   5.2577   5.2694   5.2921   5.3315   5.4510   5.5096
  5.5648   5.5855   5.6207   5.7454   5.7531   6.0418   6.1409   6.5704
  6.6396   6.7065   6.7739   6.8071   6.8105   6.8212   6.8587   6.8771
  6.8960   6.9242   6.9375   6.9727   7.0132   7.0410   7.1134   7.2033
  7.2164   7.3177   7.3572   7.3819   7.4741   7.5173   7.6424   7.7580
  7.8253   8.0957   8.1297  25.0503  50.4092  50.5214  50.5429  50.6961
 
 Beta MOs
 -- Occupied --
-19.4615 -19.4467 -19.4128 -19.3795 -10.5017  -1.3767  -1.2757  -1.2035
 -0.8752  -0.7769  -0.6461  -0.6293  -0.6063  -0.5946  -0.5658  -0.5648
 -0.5005  -0.4683  -0.3248
 -- Virtual --
 -0.0120  -0.0105   0.0445   0.0720   0.0803   0.0894   0.0985   0.1191
  0.1586   0.1823   0.2094   0.2198   0.2332   0.2375   0.2526   0.2661
  0.2843   0.3030   0.3159   0.3196   0.3282   0.3436   0.3687   0.4034
  0.4104   0.4335   0.4501   0.5350   0.6025   0.6201   0.6932   0.7104
  0.7494   0.7842   0.8269   0.8612   0.9843   1.0082   1.0184   1.0379
  1.0805   1.0844   1.0992   1.1020   1.1408   1.1486   1.1730   1.1878
  1.1967   1.2159   1.3325   1.3804   1.3867   1.4184   1.4397   1.5053
  1.5269   1.5455   1.5898   1.5961   1.6401   1.7233   1.7575   1.7871
  1.8201   1.9034   1.9923   1.9990   2.1331   2.2778   2.3240   2.3540
  2.3756   2.4403   2.4753   2.5444   2.6297   2.7551   2.8112   2.8943
  3.0178   3.0684   3.1442   3.1952   3.2282   3.3908   3.4555   3.4921
  3.5819   3.6156   3.6579   3.7696   3.8511   3.9965   4.1818   4.3784
  4.5947   4.6263   4.6306   4.6495   4.9382   4.9809   4.9891   5.0599
  5.0959   5.1014   5.1077   5.1157   5.1480   5.1617   5.1736   5.1849
  5.2156   5.2354   5.2382   5.2502   5.2782   5.2932   5.3760   5.4411
  5.5027   5.5523   5.5810   5.6103   5.8027   5.8100   6.0190   6.1313
  6.5569   6.7581   6.7648   6.8321   6.8566   6.8718   6.8819   6.8891
  6.9181   6.9366   6.9584   6.9989   7.0051   7.0509   7.0904   7.1187
  7.2014   7.2113   7.3157   7.4043   7.4216   7.4597   7.5009   7.6345
  7.7456   7.8115   8.1279   8.1742  25.0395  50.4312  50.5354  50.5488
 50.6910
 --------------------------------------------------------------
 
          Ground-State Mulliken Net Atomic Charges

     Atom                 Charge (a.u.)    Spin (a.u.)
  --------------------------------------------------------
      1 C                     0.212457      -0.673970
      2 O                    -0.238393      -0.000454
      3 O                    -0.339572      -0.181841
      4 O                     0.007457       0.956848
      5 O                    -0.004992       0.939508
      6 H                     0.363043      -0.040091
  --------------------------------------------------------
  Sum of atomic charges =     0.000000
  Sum of spin   charges =     1.000000

 -----------------------------------------------------------------
                    Cartesian Multipole Moments
 -----------------------------------------------------------------
    Charge (ESU x 10^10)
                 0.0000
    Dipole Moment (Debye)
         X       1.1618      Y      -2.5472      Z       0.9581
       Tot       2.9590
    Quadrupole Moments (Debye-Ang)
        XX     -30.1607     XY       1.2186     YY     -20.1633
        XZ      -2.3335     YZ      -3.9789     ZZ     -31.4800
    Octopole Moments (Debye-Ang^2)
       XXX     120.1495    XXY       0.9572    XYY      34.3069
       YYY     -18.9846    XXZ     -28.5923    XYZ       4.1005
       YYZ     -26.2225    XZZ      42.1599    YZZ      -1.8421
       ZZZ    -113.6767
    Hexadecapole Moments (Debye-Ang^3)
      XXXX    -372.7876   XXXY      -1.1175   XXYY    -100.3204
      XYYY      15.5510   YYYY    -193.8017   XXXZ     108.9362
      XXYZ     -28.6374   XYYZ      34.6536   YYYZ     -94.8000
      XXZZ    -146.9044   XYZZ       0.9197   YYZZ    -121.9575
      XZZZ     130.7649   YZZZ     -77.1251   ZZZZ    -537.9717
 -----------------------------------------------------------------
 Calculating analytic gradient of the SCF energy
 Gradient of CDS energy
            1           2           3           4           5           6
    1   0.0005168  -0.0010901   0.0003370   0.0000827  -0.0000207   0.0001743
    2  -0.0015603   0.0015238   0.0000377   0.0002840   0.0001020  -0.0003872
    3   0.0001306  -0.0016663   0.0009705   0.0004206   0.0000157   0.0001289
 Gradient of SCF Energy
            1           2           3           4           5           6
    1   0.0008174  -0.0021946  -0.0033625  -0.0007895   0.0007967   0.0047326
    2  -0.0008540   0.0181796   0.0030344   0.0006636  -0.0005331  -0.0204905
    3   0.0018799   0.0103184  -0.0066811  -0.0017393   0.0016978  -0.0054756
 Max gradient component =       2.049E-02
 RMS gradient           =       7.424E-03
 Computing fast CPCM-SWIG gradient
 Updating gradient with PCM contributions...
 -- total gradient after adding PCM contribution --
---------------------------------------------------
  Atom         X              Y              Z     
---------------------------------------------------
   1       0.000147      -0.000657      -0.000124
   2      -0.000114       0.000291      -0.000054
   3       0.000058       0.000201       0.000206
   4       0.000090       0.000018       0.000165
   5      -0.000080       0.000078      -0.000171
   6      -0.000102       0.000069      -0.000022
---------------------------------------------------
 Number of fixed atoms: 0
 Gradient time:  CPU 24.91 s  wall 3.69 s
 ----------------------------------------------------------------
             Standard Nuclear Orientation (Angstroms)
    I     Atom           X                Y                Z
 ----------------------------------------------------------------
    1      C      -1.5116893994    -0.5633058112     0.5989297540
    2      O      -0.9394121686    -1.3084118198     1.5044541189
    3      O      -1.8451437686    -0.7730962409    -0.5197593096
    4      O      -1.6000247371     1.4841466712     1.8470778063
    5      O      -1.1368838551     1.3372906152     2.9483576054
    6      H      -0.7674141713    -2.2068134145     1.1580386250
 ----------------------------------------------------------------
 Nuclear Repulsion Energy =         154.16168641 hartrees
 There are       20 alpha and       19 beta electrons
 Discretize the solute cavity surface with Lebedev spheres
	Using 110 Lebedev grid points for each H atom
	Using 194 Lebedev grid points for other atoms
	Atomic van der Waals radii will be scaled by 1.20
 Remove points where switching function is < 1.0e-08
 Keep 698 surface tesserae and discard 382 interior tesserae
 Molecular Surface Area = 90.465 Angst**2

                       Distance Matrix (Angstroms)
             C (  1)   O (  2)   O (  3)   O (  4)   O (  5)
   O (  2)  1.304860
   O (  3)  1.186031  2.281305
   O (  4)  2.399529  2.890014  3.279809
   O (  5)  3.045087  3.020529  4.121068  1.203696
   H (  6)  1.888827  0.978117  2.456024  3.845933  3.987784
 
 Requested basis set is 6-311++G(2df,2p)
 There are 46 shells and 180 basis functions
 A cutoff of  1.0D-12 yielded    981 shell pairs
 There are     15336 function pairs (     19898 Cartesian)
 Smallest overlap matrix eigenvalue = 4.48E-04
 Guess MOs from SCF MO coefficient file

 -----------------------------------------------------------------------
  General SCF calculation program by
  Eric Jon Sundstrom, Paul Horn, Yuezhi Mao, Dmitri Zuev, Alec White,
  David Stuck, Shaama M.S., Shane Yost, Joonho Lee, David Small,
  Daniel Levine, Susi Lehtola, Hugh Burton, Evgeny Epifanovsky,
  Bang C. Huynh
 -----------------------------------------------------------------------
 Exchange:     0.1500 Hartree-Fock + 1.0000 wB97M-V + LR-HF
 Correlation:  1.0000 wB97M-V
 Using SG-2 standard quadrature grid
 Nonlocal Correlation:  VV10 with C = 0.0100 and b = 6.00 and scale = 1.00000
 Grid used for NLC:  SG-1 standard quadrature
 
 Citation of the SMD model:
 Marenich, A.V.; Cramer, C.J.; Truhlar, D.G.
 J. Phys. Chem. B 2009, 113, 6378-6396.
 iSolventCode=           1
 Solvent: water                                                           
 
 vradii
            1           2           3           4           5           6
    1   1.8500000   1.5200000   1.5200000   1.5200000   1.5200000   1.2000000
 -------------------------------------------------------
 OpenMP BLAS3 based DFT computing Module                
 Release: version 1.0, May 2013, Q-Chem Inc. Pittsburgh 
 -------------------------------------------------------
 A unrestricted SCF calculation will be
 performed using Roothaan-Hall, DIIS, GDM
 SCF converges when RMS gradient is below 1.0e-07
 ---------------------------------------
  Cycle       Energy         DIIS error
 ---------------------------------------
    1    -339.4403953056      2.98e-04  Roothaan Step
 ---------------------------------------
  Cycle       Energy         DIIS error
 ---------------------------------------
    1    -339.4544610055      3.61e-04  
    2    -339.4558235369      3.89e-04  Done DIIS. Switching to GDM
 ---------------------------------------
  Cycle       Energy        RMS Gradient
 ---------------------------------------
    1    -339.4558235369      1.58e-02   Normal BFGS step
    2    -339.4547265003      2.57e-02  Line search: overstep
    3    -339.4573611605      3.06e-03   Normal BFGS step
    4    -339.4574319239      1.39e-03   Normal BFGS step
    5    -339.4574402598      1.65e-03   Normal BFGS step
    6    -339.4574450190      4.64e-04   Normal BFGS step
    7    -339.4574455537      1.81e-04   Normal BFGS step
    8    -339.4574457208      1.22e-04   Normal BFGS step
    9    -339.4574457656      8.46e-05   Normal BFGS step
   10    -339.4574457788      2.54e-05   Normal BFGS step
   11    -339.4574457822      7.67e-06   Normal BFGS step
   12    -339.4574457827      4.99e-06   Normal BFGS step
   13    -339.4574457828      2.15e-06   Normal BFGS step
   14    -339.4574457828      6.05e-07   Normal BFGS step
   15    -339.4574457829      2.80e-07   Normal BFGS step
   16    -339.4574457829      1.05e-07   Normal BFGS step
   17    -339.4574457828      4.92e-08  Convergence criterion met
 ---------------------------------------
 SCF time:   CPU 183.97s  wall 23.00s 
<S^2> =          1.576126808
(3)  G-ENP(liq) elect-nuc-pol free energy of system     -339.457445783 a.u.
(4)  G-CDS(liq) cavity-dispersion-solvent structure 
     free energy                                                4.2666 kcal/mol
(6)  G-S(liq) free energy of system                     -339.450646589 a.u.
 SCF   energy in the final basis set =     -339.4506465894
 Total energy in the final basis set =     -339.4506465894
 
 --------------------------------------------------------------
 
                    Orbital Energies (a.u.)
 --------------------------------------------------------------
 
 Alpha MOs
 -- Occupied --
-19.4901 -19.4751 -19.4102 -19.3732 -10.4905  -1.4298  -1.2646  -1.1908
 -0.9550  -0.7578  -0.6707  -0.6696  -0.6584  -0.6336  -0.5835  -0.5822
 -0.4765  -0.4649  -0.4052  -0.3999
 -- Virtual --
 -0.0102   0.0513   0.0739   0.0818   0.0872   0.1132   0.1183   0.1562
  0.1799   0.2027   0.2204   0.2297   0.2345   0.2492   0.2630   0.2791
  0.3014   0.3131   0.3173   0.3236   0.3395   0.3700   0.3861   0.4055
  0.4250   0.4525   0.5496   0.6072   0.6218   0.7025   0.7190   0.7603
  0.7992   0.8355   0.8736   0.9873   1.0053   1.0084   1.0306   1.0481
  1.0771   1.0954   1.1050   1.1213   1.1367   1.1731   1.1777   1.1885
  1.1936   1.3329   1.3473   1.3685   1.4020   1.4090   1.4822   1.5086
  1.5406   1.5936   1.5976   1.6220   1.7153   1.7370   1.7568   1.8207
  1.8799   1.9972   2.0045   2.1370   2.2843   2.3013   2.3430   2.3462
  2.4286   2.4899   2.5550   2.6122   2.7700   2.8296   2.9404   3.0599
  3.0935   3.1828   3.2286   3.2901   3.4134   3.5023   3.5425   3.6152
  3.6299   3.6824   3.7824   3.8870   4.0114   4.1964   4.4017   4.5412
  4.5799   4.5824   4.6014   4.9035   4.9049   4.9167   4.9682   5.0271
  5.0741   5.0998   5.1110   5.1127   5.1284   5.1492   5.1569   5.1765
  5.1796   5.1902   5.2568   5.2690   5.2921   5.3314   5.4505   5.5084
  5.5647   5.5856   5.6193   5.7453   5.7530   6.0398   6.1398   6.5658
  6.6394   6.7065   6.7719   6.8071   6.8105   6.8211   6.8581   6.8771
  6.8952   6.9235   6.9371   6.9726   7.0129   7.0411   7.1122   7.2023
  7.2166   7.3174   7.3570   7.3819   7.4753   7.5155   7.6431   7.7569
  7.8234   8.0956   8.1297  25.0490  50.4091  50.5213  50.5425  50.6939
 
 Beta MOs
 -- Occupied --
-19.4616 -19.4468 -19.4129 -19.3794 -10.5019  -1.3768  -1.2755  -1.2030
 -0.8753  -0.7771  -0.6460  -0.6292  -0.6062  -0.5944  -0.5658  -0.5649
 -0.5001  -0.4681  -0.3252
 -- Virtual --
 -0.0121  -0.0105   0.0445   0.0720   0.0802   0.0894   0.0984   0.1191
  0.1586   0.1823   0.2094   0.2198   0.2332   0.2375   0.2526   0.2661
  0.2843   0.3030   0.3159   0.3196   0.3283   0.3437   0.3688   0.4034
  0.4104   0.4335   0.4502   0.5344   0.6025   0.6201   0.6931   0.7106
  0.7492   0.7841   0.8267   0.8612   0.9839   1.0083   1.0185   1.0379
  1.0805   1.0844   1.0993   1.1021   1.1408   1.1487   1.1730   1.1878
  1.1967   1.2158   1.3323   1.3804   1.3863   1.4185   1.4396   1.5052
  1.5268   1.5457   1.5896   1.5958   1.6399   1.7231   1.7574   1.7871
  1.8198   1.9033   1.9914   1.9986   2.1324   2.2779   2.3239   2.3542
  2.3755   2.4402   2.4752   2.5437   2.6297   2.7553   2.8110   2.8945
  3.0181   3.0685   3.1441   3.1956   3.2283   3.3910   3.4558   3.4926
  3.5823   3.6140   3.6580   3.7695   3.8504   3.9959   4.1813   4.3767
  4.5946   4.6263   4.6305   4.6495   4.9382   4.9808   4.9891   5.0599
  5.0959   5.1015   5.1076   5.1158   5.1479   5.1616   5.1735   5.1849
  5.2155   5.2352   5.2382   5.2493   5.2782   5.2931   5.3759   5.4406
  5.5014   5.5522   5.5810   5.6090   5.8026   5.8099   6.0171   6.1302
  6.5521   6.7561   6.7647   6.8321   6.8565   6.8698   6.8818   6.8888
  6.9179   6.9365   6.9580   6.9990   7.0049   7.0508   7.0895   7.1185
  7.2004   7.2116   7.3153   7.4042   7.4215   7.4609   7.4992   7.6351
  7.7445   7.8097   8.1279   8.1741  25.0383  50.4312  50.5350  50.5487
 50.6889
 --------------------------------------------------------------
 
          Ground-State Mulliken Net Atomic Charges

     Atom                 Charge (a.u.)    Spin (a.u.)
  --------------------------------------------------------
      1 C                     0.212685      -0.673894
      2 O                    -0.238380      -0.000410
      3 O                    -0.340620      -0.182030
      4 O                     0.007745       0.956705
      5 O                    -0.004723       0.939639
      6 H                     0.363293      -0.040009
  --------------------------------------------------------
  Sum of atomic charges =    -0.000000
  Sum of spin   charges =     1.000000

 -----------------------------------------------------------------
                    Cartesian Multipole Moments
 -----------------------------------------------------------------
    Charge (ESU x 10^10)
                -0.0000
    Dipole Moment (Debye)
         X       1.1648      Y      -2.5421      Z       0.9704
       Tot       2.9598
    Quadrupole Moments (Debye-Ang)
        XX     -30.1714     XY       1.2086     YY     -20.1596
        XZ      -2.3508     YZ      -3.9761     ZZ     -31.4640
    Octopole Moments (Debye-Ang^2)
       XXX     120.1857    XXY       0.9731    XYY      34.3088
       YYY     -18.9941    XXZ     -28.5650    XYZ       4.0960
       YYZ     -26.2049    XZZ      42.1403    YZZ      -1.8313
       ZZZ    -113.6373
    Hexadecapole Moments (Debye-Ang^3)
      XXXX    -372.9017   XXXY      -1.1450   XXYY    -100.3231
      XYYY      15.5504   YYYY    -193.7121   XXXZ     108.8904
      XXYZ     -28.6305   XYYZ      34.6347   YYYZ     -94.7972
      XXZZ    -146.8789   XYZZ       0.9073   YYZZ    -121.9109
      XZZZ     130.7146   YZZZ     -77.0716   ZZZZ    -537.8642
 -----------------------------------------------------------------
 Calculating analytic gradient of the SCF energy
 Gradient of CDS energy
            1           2           3           4           5           6
    1   0.0005118  -0.0010885   0.0003406   0.0000828  -0.0000207   0.0001741
    2  -0.0015631   0.0015240   0.0000404   0.0002837   0.0001023  -0.0003873
    3   0.0001141  -0.0016617   0.0009830   0.0004207   0.0000158   0.0001281
 Gradient of SCF Energy
            1           2           3           4           5           6
    1   0.0011856  -0.0022068  -0.0037746  -0.0008249   0.0008289   0.0047919
    2  -0.0000822   0.0179839   0.0025512   0.0006645  -0.0005520  -0.0205654
[...]
   15   0.2790722  -0.0821774   0.6690538   0.0011939  -0.0010661   0.0014735
   16   0.0003016  -0.0003691   0.0011939   0.0294538  -0.0827890  -0.0146097
   17  -0.0007390   0.0008810  -0.0010661  -0.0827890   0.4043398   0.1347440
   18   0.0006582  -0.0000307   0.0014735  -0.0146097   0.1347440   0.0909884
 ----------------------------------------------------------------
             Standard Nuclear Orientation (Angstroms)
    I     Atom           X                Y                Z
 ----------------------------------------------------------------
    1      C      -1.5116893994    -0.5633058112     0.5979297540
    2      O      -0.9394121686    -1.3084118198     1.5044541189
    3      O      -1.8451437686    -0.7730962409    -0.5197593096
    4      O      -1.6000247371     1.4841466712     1.8470778063
    5      O      -1.1368838551     1.3372906152     2.9483576054
    6      H      -0.7674141713    -2.2068134145     1.1580386250
 ----------------------------------------------------------------
 Nuclear Repulsion Energy =         154.16370929 hartrees
 There are       20 alpha and       19 beta electrons
 old dipole drv.
            1           2           3           4           5           6
    1   0.6442834  -0.3238882   0.9490499  -0.5934916   0.3718222  -0.3419281
    2  -0.5260730   1.3575477  -0.2935712   0.3909225  -1.1524265   0.3441211
    3   0.7739343   0.0369687   2.5201190  -0.3520084   0.3912238  -0.9884413
            7           8           9          10          11          12
    1  -0.4848724  -0.0856194  -0.6059386   0.0353644   0.0393086   0.1126173
    2   0.1187152  -0.8594912  -0.2125264   0.4091109   0.0959519   1.1190945
    3  -0.4058002  -0.6610678  -2.0651463   0.3839218   0.1625316   1.1053647
           13          14          15          16          17          18
    1  -0.0727037   0.0076886  -0.0862041   0.4714192  -0.0093116  -0.0275960
    2  -0.4027020   0.1449167  -0.9166529   0.0100255   0.4135072  -0.0404611
    3  -0.3852500   0.1517754  -0.9304365  -0.0147987  -0.0814265   0.3585431
 New transposed dipole drv.
            1           2           3
    1   0.6442834  -0.5260730   0.7739343
    2  -0.3238882   1.3575477   0.0369687
    3   0.9490499  -0.2935712   2.5201190
    4  -0.5934916   0.3909225  -0.3520084
    5   0.3718222  -1.1524265   0.3912238
    6  -0.3419281   0.3441211  -0.9884413
    7  -0.4848724   0.1187152  -0.4058002
    8  -0.0856194  -0.8594912  -0.6610678
    9  -0.6059386  -0.2125264  -2.0651463
   10   0.0353644   0.4091109   0.3839218
   11   0.0393086   0.0959519   0.1625316
   12   0.1126173   1.1190945   1.1053647
   13  -0.0727037  -0.4027020  -0.3852500
   14   0.0076886   0.1449167   0.1517754
   15  -0.0862041  -0.9166529  -0.9304365
   16   0.4714192   0.0100255  -0.0147987
   17  -0.0093116   0.4135072  -0.0814265
   18  -0.0275960  -0.0404611   0.3585431
FINAL TENSOR RESULT:
Order 2, Length 18
    Atom      X          Y          Z
     1 Order 1, Length 18
    Atom      X          Y          Z
     1    1.509614190454269e-01  -7.242206139734533e-02   2.731181883137228e-01
     2   -7.472831501523061e-02   7.564414924938481e-02  -6.528790142127050e-02
     3   -7.594586319101920e-02  -2.762623973763101e-02  -1.944560215168784e-01
     4    9.345066440614382e-04   5.337887711939909e-03   8.845762055208432e-03
     5   -2.766420140797248e-03  -3.063925671062145e-04  -8.081349751897188e-03
     6    1.544730629210118e-03   1.937263027319884e-02  -1.413870598066198e-02

Order 1, Length 18
    Atom      X          Y          Z
     1   -7.242206139734533e-02   3.310802687313776e-01   7.297627255966727e-02
     2    6.945875298146637e-02  -1.757262836229424e-01   5.589929730170660e-02
     3   -2.828625681302984e-02  -1.041651747008152e-01  -1.590592095665385e-01
     4   -8.239315083800717e-03  -8.248089924710433e-03  -2.638978795139447e-02
     5    8.824522080877757e-03  -2.884213368615063e-03   2.058425335735054e-02
     6    3.066439270264923e-02  -4.005660965021442e-02   3.598923672886251e-02

Order 1, Length 18
    Atom      X          Y          Z
     1    2.731181883137228e-01   7.297627255966727e-02   8.553093828751964e-01
     2   -7.222302252816068e-02   7.575742998380372e-02  -1.572477661496300e-01
     3   -1.945771099130176e-01  -1.551147462392427e-01  -6.974734770045300e-01
     4   -5.268959471676979e-03   6.762950774650993e-03  -1.004242937869933e-02
     5    2.881025903980615e-03  -5.569015422081399e-03   3.947098843410440e-03
     6   -3.930138117695369e-03   5.186968775330311e-03   5.506996792529494e-03


     2 Order 1, Length 18
    Atom      X          Y          Z
     1   -7.472831501523061e-02   6.945875298146637e-02  -7.222302252816068e-02
     2    1.100196857914648e-01  -1.468142926573297e-01   9.954840903582335e-02
     3   -7.681725168150279e-03   1.026669983585541e-02  -5.029371915681849e-02
     4   -3.399726494936966e-03  -1.653414929689865e-04  -9.266222710128899e-03
     5    3.168769704147740e-03  -2.439006550593707e-03   6.839941704843383e-03
     6   -2.737869602800787e-02   6.969320247854111e-02   2.539463474964655e-02

Order 1, Length 18
    Atom      X          Y          Z
     1    7.564414924938481e-02  -1.757262836229424e-01   7.575742998380372e-02
     2   -1.468142926573297e-01   5.228002000952575e-01   4.785288385971511e-02
     3    1.157159357951378e-02   2.211673804089941e-02   3.887444566326941e-02
     4    1.050348096685684e-02  -2.597661255870231e-03   2.501174539717092e-02
     5   -8.618987198974089e-03   6.064184040367895e-03  -1.793266080903697e-02
     6    5.771402870675259e-02  -3.726571619484567e-01  -1.695638614996658e-01

Order 1, Length 18
    Atom      X          Y          Z
     1   -6.528790142127050e-02   5.589929730170660e-02  -1.572477661496300e-01
     2    9.954840903582335e-02   4.785288385971511e-02   3.456185622385204e-01
     3   -4.951283862972422e-02   3.575211856595960e-02  -9.066940136165499e-02
     4   -7.252112183942289e-05  -2.380845209543371e-03  -1.707881104221555e-03
     5    9.463368554442063e-04  -8.584980975199138e-04   1.694583612152086e-03
     6    1.437850420028953e-02  -1.362648698171970e-01  -9.768802287634198e-02


     3 Order 1, Length 18
    Atom      X          Y          Z
     1   -7.594586319101920e-02  -2.828625681302984e-02  -1.945771099130176e-01
     2   -7.681725168150279e-03   1.157159357951378e-02  -4.951283862972422e-02
     3    8.712433569127692e-02   2.301297398183242e-02   2.403105585928210e-01
     4    7.530661267716086e-04  -2.067504976944069e-04   1.981704933604703e-03
     5   -4.449362376098334e-04   2.519258550981381e-04  -1.689251924493615e-03
     6   -3.804921856896100e-03  -6.343480985493617e-03   3.486931934184606e-03

Order 1, Length 18
    Atom      X          Y          Z
     1   -2.762623973763101e-02  -1.041651747008152e-01  -1.551147462392427e-01
     2    1.026669983585541e-02   2.211673804089941e-02   3.575211856595960e-02
     3    2.301297398183242e-02   6.656109529354610e-02   1.164134836983172e-01
     4    7.993576676421602e-03   5.843418996564539e-03   2.475828839714646e-02
     5   -8.511507553873679e-03   2.546189666386480e-03  -2.048952857540925e-02
     6   -5.135537835900903e-03   7.097823559014874e-03  -1.319553682208231e-03

Order 1, Length 18
    Atom      X          Y          Z
     1   -1.944560215168784e-01  -1.590592095665385e-01  -6.974734770045300e-01
     2   -5.029371915681849e-02   3.887444566326941e-02  -9.066940136165499e-02
     3    2.403105585928210e-01   1.164134836983172e-01   7.813440982607912e-01
     4    1.034758841299560e-02   4.881971389249919e-03   3.006636138976552e-02
     5   -1.046335906419132e-02   3.448701998069431e-03  -2.446636989230221e-02
     6    4.554947378941189e-03  -4.559302455837278e-03   1.198901439746573e-03


     4 Order 1, Length 18
    Atom      X          Y          Z
     1    9.345066440614382e-04  -8.239315083800717e-03  -5.268959471676979e-03
     2   -3.399726494936966e-03   1.050348096685684e-02  -7.252112183942289e-05
     3    7.530661267716086e-04   7.993576676421602e-03   1.034758841299560e-02
     4    1.201038529808146e-01  -5.094000022911896e-02   2.731208160187755e-01
     5   -1.182751738598846e-01   3.987653703475727e-02  -2.773355235788376e-01
     6   -1.165047602563169e-04   8.056526651575281e-04  -7.914111029323684e-04

Order 1, Length 18
    Atom      X          Y          Z
     1    5.337887711939909e-03  -8.248089924710433e-03   6.762950774650993e-03
     2   -1.653414929689865e-04  -2.597661255870231e-03  -2.380845209543371e-03
     3   -2.067504976944069e-04   5.843418996564539e-03   4.881971389249919e-03
     4   -5.094000022911896e-02   3.322444129678673e-02  -1.105265623119324e-01
     5    4.605895659029091e-02  -2.861732072288753e-02   1.010815626375778e-01
     6   -8.473336929162999e-05   3.951993133528796e-04   1.808157086578961e-04

Order 1, Length 18
    Atom      X          Y          Z
     1    8.845762055208432e-03  -2.638978795139447e-02  -1.004242937869933e-02
     2   -9.266222710128899e-03   2.501174539717092e-02  -1.707881104221555e-03
     3    1.981704933604703e-03   2.475828839714646e-02   3.006636138976552e-02
     4    2.731208160187755e-01  -1.105265623119324e-01   6.348661789430986e-01
     5   -2.730944362196221e-01   8.518686015235727e-02  -6.517025279129351e-01
     6   -1.587580552936592e-03   1.959292310467093e-03  -1.479815168043713e-03


     5 Order 1, Length 18
    Atom      X          Y          Z
     1   -2.766420140797248e-03   8.824522080877757e-03   2.881025903980615e-03
     2    3.168769704147740e-03  -8.618987198974089e-03   9.463368554442063e-04
     3   -4.449362376098334e-04  -8.511507553873679e-03  -1.046335906419132e-02
     4   -1.182751738598846e-01   4.605895659029091e-02  -2.730944362196221e-01
     5    1.180161917090903e-01  -3.701392781000332e-02   2.790722211875641e-01
     6    3.015619052565916e-04  -7.389958205299530e-04   6.582252162473535e-04

Order 1, Length 18
    Atom      X          Y          Z
     1   -3.063925671062145e-04  -2.884213368615063e-03  -5.569015422081399e-03
     2   -2.439006550593707e-03   6.064184040367895e-03  -8.584980975199138e-04
     3    2.519258550981381e-04   2.546189666386480e-03   3.448701998069431e-03
     4    3.987653703475727e-02  -2.861732072288753e-02   8.518686015235727e-02
     5   -3.701392781000332e-02   2.201017147324627e-02  -8.217738895790114e-02
     6   -3.691176904210079e-04   8.809704446290194e-04  -3.065353980134709e-05

Order 1, Length 18
    Atom      X          Y          Z
     1   -8.081349751897188e-03   2.058425335735054e-02   3.947098843410440e-03
     2    6.839941704843383e-03  -1.793266080903697e-02   1.694583612152086e-03
     3   -1.689251924493615e-03  -2.048952857540925e-02  -2.446636989230221e-02
     4   -2.773355235788376e-01   1.010815626375778e-01  -6.517025279129351e-01
     5    2.790722211875641e-01  -8.217738895790114e-02   6.690537740436824e-01
     6    1.193946984789390e-03  -1.066098198152822e-03   1.473534807342898e-03


     6 Order 1, Length 18
    Atom      X          Y          Z
     1    1.544730629210118e-03   3.066439270264923e-02  -3.930138117695369e-03
     2   -2.737869602800787e-02   5.771402870675259e-02   1.437850420028953e-02
     3   -3.804921856896100e-03  -5.135537835900903e-03   4.554947378941189e-03
     4   -1.165047602563169e-04  -8.473336929162999e-05  -1.587580552936592e-03
     5    3.015619052565916e-04  -3.691176904210079e-04   1.193946984789390e-03
     6    2.945381025584701e-02  -8.278901808999750e-02  -1.460967068405272e-02

Order 1, Length 18
    Atom      X          Y          Z
     1    1.937263027319884e-02  -4.005660965021442e-02   5.186968775330311e-03
     2    6.969320247854111e-02  -3.726571619484567e-01  -1.362648698171970e-01
     3   -6.343480985493617e-03   7.097823559014874e-03  -4.559302455837278e-03
     4    8.056526651575281e-04   3.951993133528796e-04   1.959292310467093e-03
     5   -7.389958205299530e-04   8.809704446290194e-04  -1.066098198152822e-03
     6   -8.278901808999750e-02   4.043398053841097e-01   1.347440031370703e-01

Order 1, Length 18
    Atom      X          Y          Z
     1   -1.413870598066198e-02   3.598923672886251e-02   5.506996792529494e-03
     2    2.539463474964655e-02  -1.695638614996658e-01  -9.768802287634198e-02
     3    3.486931934184606e-03  -1.319553682208231e-03   1.198901439746573e-03
     4   -7.914111029323684e-04   1.808157086578961e-04  -1.479815168043713e-03
     5    6.582252162473535e-04  -3.065353980134709e-05   1.473534807342898e-03
     6   -1.460967068405272e-02   1.347440031370703e-01   9.098843165330553e-02




 # Finishing finite difference calculation for IDERIV #
 ######################################################
 ######################################################
 Requested basis set is 6-311++G(2df,2p)
 There are 46 shells and 180 basis functions
 **********************************************************************
 **                                                                  **
 **                       VIBRATIONAL ANALYSIS                       **
 **                       --------------------                       **
 **                                                                  **
 **        VIBRATIONAL FREQUENCIES (CM**-1) AND NORMAL MODES         **
 **     FORCE CONSTANTS (mDYN/ANGSTROM) AND REDUCED MASSES (AMU)     **
 **                  INFRARED INTENSITIES (KM/MOL)                   **
 **                                                                  **
 **********************************************************************
 

 Mode:                 1                      2                      3
 Frequency:      -129.67                  52.46                  85.37
 Force Cnst:      0.1436                 0.0213                 0.0393
 Red. Mass:      14.4986                13.1562                 9.1518
 IR Active:          YES                    YES                    YES
 IR Intens:       30.457                  0.745                  5.217
 Raman Active:       YES                    YES                    YES
               X      Y      Z        X      Y      Z        X      Y      Z
 C         -0.132 -0.235 -0.252   -0.218 -0.040  0.068   -0.167  0.111 -0.091
 O         -0.031 -0.100 -0.168   -0.221  0.012  0.111   -0.041  0.499  0.140
 O          0.053 -0.420 -0.282    0.340  0.082 -0.121    0.027 -0.247 -0.083
 O          0.009  0.489  0.373   -0.477 -0.138  0.173    0.099  0.031  0.006
 O          0.055  0.212  0.274    0.498  0.063 -0.210    0.022 -0.396 -0.018
 H          0.196 -0.066 -0.145    0.371  0.187 -0.047    0.286  0.475  0.369
 TransDip   0.027  0.132  0.114    0.025  0.012 -0.002    0.037  0.046  0.043

 Mode:                 4                      5                      6
 Frequency:       118.48                 249.86                 548.23
 Force Cnst:      0.0264                 0.5515                 0.2718
 Red. Mass:       3.1964                14.9943                 1.5347
 IR Active:          YES                    YES                    YES
 IR Intens:       29.459                  0.721                198.441
 Raman Active:       YES                    YES                    YES
               X      Y      Z        X      Y      Z        X      Y      Z
 C          0.326  0.116 -0.148    0.084 -0.045  0.180    0.141  0.038 -0.053
 O         -0.060  0.032  0.025    0.092 -0.245  0.041   -0.103 -0.034  0.041
 O         -0.081 -0.079  0.010    0.020  0.127  0.171   -0.060 -0.014  0.017
 O         -0.120 -0.009  0.067   -0.185  0.652 -0.044    0.002  0.001 -0.001
 O          0.068 -0.017 -0.013    0.010 -0.488 -0.295   -0.001  0.000  0.001
 H         -0.808 -0.230  0.332    0.002 -0.194 -0.134    0.887  0.287 -0.298
 TransDip  -0.155 -0.042  0.066   -0.001  0.023  0.014    0.409  0.119 -0.150

 Mode:                 7                      8                      9
 Frequency:       605.03                1075.29                1287.56
 Force Cnst:      0.8275                 3.4341                 1.5364
 Red. Mass:       3.8367                 5.0409                 1.5730
 IR Active:          YES                    YES                    YES
 IR Intens:      113.387                338.178                101.604
 Raman Active:       YES                    YES                    YES
               X      Y      Z        X      Y      Z        X      Y      Z
 C         -0.055  0.304  0.105   -0.124  0.237 -0.132   -0.065  0.182 -0.018
 O         -0.058 -0.039 -0.177    0.173 -0.163  0.332    0.019 -0.088 -0.027
 O          0.116 -0.187  0.161   -0.061 -0.014 -0.180    0.004 -0.024 -0.009
 O          0.004 -0.014 -0.003    0.008 -0.013  0.012    0.007 -0.006  0.015
 O         -0.003  0.001 -0.007   -0.007  0.002 -0.017   -0.007  0.002 -0.018
 H         -0.280  0.175 -0.821   -0.327  0.163 -0.757    0.402 -0.316  0.831
 TransDip  -0.103  0.317 -0.073   -0.245  0.431 -0.317    0.021  0.229  0.227

 Mode:                10                     11                     12
 Frequency:      1610.32                1821.26                3611.54
 Force Cnst:     23.7567                25.9618                 8.1754
 Red. Mass:      15.5493                13.2843                 1.0638
 IR Active:          YES                    YES                    YES
 IR Intens:      322.966                938.985                176.775
 Raman Active:       YES                    YES                    YES
               X      Y      Z        X      Y      Z        X      Y      Z
 C         -0.055  0.054 -0.092    0.240  0.116  0.774    0.002 -0.004  0.001
 O          0.020 -0.044  0.014   -0.025  0.022 -0.048    0.011 -0.056 -0.022
 O          0.016 -0.013  0.032   -0.156 -0.107 -0.531   -0.001  0.001 -0.001
 O         -0.268  0.104 -0.623   -0.023  0.008 -0.053   -0.000  0.000  0.000
 O          0.268 -0.083  0.638    0.022 -0.009  0.050   -0.000  0.000  0.000
 H          0.071 -0.069  0.127    0.023 -0.021  0.036   -0.182  0.920  0.340
 TransDip  -0.081 -0.338 -0.458    0.355 -0.054  0.913   -0.116  0.407  0.050

 STANDARD THERMODYNAMIC QUANTITIES AT   298.15 K  AND     1.00 ATM

   This Molecule has  1 Imaginary Frequencies
   Zero point vibrational energy:       15.819 kcal/mol

   Atom    1 Element C  Has Mass   12.00000
   Atom    2 Element O  Has Mass   15.99491
   Atom    3 Element O  Has Mass   15.99491
   Atom    4 Element O  Has Mass   15.99491
   Atom    5 Element O  Has Mass   15.99491
   Atom    6 Element H  Has Mass    1.00783
   Molecular Mass:    76.987470 amu
   Principal axes and moments of inertia in amu*Bohr^2:
                             1           2           3
    Eigenvalues --      161.25623   646.04126   807.24561
          X               0.06821    -0.42124     0.90438
          Y               0.70353     0.66304     0.25577
          Z               0.70738    -0.61882    -0.34158
   Rotational Symmetry Number is   1
   The Molecule is an Asymmetric Top
   Translational Enthalpy:        0.889 kcal/mol
   Rotational Enthalpy:           0.889 kcal/mol
   Vibrational Enthalpy:         17.809 kcal/mol
   gas constant (RT):             0.592 kcal/mol
   Translational Entropy:        38.938  cal/mol.K
   Rotational Entropy:           25.933  cal/mol.K
   Vibrational Entropy:          14.439  cal/mol.K

   Total Enthalpy:               20.178 kcal/mol
   Total Entropy:                79.311  cal/mol.K
 Total job time:  1041.50s(wall), 8036.86s(cpu) 
 Thu Jul 27 12:01:06 2023

        *************************************************************
        *                                                           *
        *  Thank you very much for using Q-Chem.  Have a nice day.  *
        *                                                           *
        *************************************************************


