
Running Job 1 of 2 Q_in.in
qchem Q_in.in_111451.0 /scratch/ari.fischer/qChem1647068.hpc-mn1/qchem111451/ 0
/usr/local/qchem-5.4.1/exe/qcprog.exe_s Q_in.in_111451.0 /scratch/ari.fischer/qChem1647068.hpc-mn1/qchem111451/
                  Welcome to Q-Chem
     A Quantum Leap Into The Future Of Chemistry


 Q-Chem 5.4, Q-Chem, Inc., Pleasanton, CA (2021)

 License issued to: Nanyang Technological University (site)

 E. Epifanovsky,  A. T. B. Gilbert,  Xintian Feng,  Joonho Lee,  Yuezhi Mao,  
 N. Mardirossian,  P. Pokhilko,  A. White,  M. Wormit,  M. P. Coons,  
 A. L. Dempwolff,  Zhengting Gan,  D. Hait,  P. R. Horn,  L. D. Jacobson,  
 I. Kaliman,  J. Kussmann,  A. W. Lange,  Ka Un Lao,  D. S. Levine,  Jie Liu,  
 S. C. McKenzie,  A. F. Morrison,  K. Nanda,  F. Plasser,  D. R. Rehn,  
 M. L. Vidal,  Zhi-Qiang You,  Ying Zhu,  B. Alam,  B. Albrecht,  
 A. Aldossary,  E. Alguire,  J. H. Andersen,  D. Barton,  K. Begam,  A. Behn,  
 Y. A. Bernard,  E. J. Berquist,  H. Burton,  A. Carreras,  K. Carter-Fenk,  
 R. Chakraborty,  A. D. Chien,  K. D. Closser,  V. Cofer-Shabica,  
 S. Dasgupta,  Jia Deng,  M. de Wergifosse,  M. Diedenhofen,  Hainam Do,  
 S. Ehlert,  Po-Tung Fang,  S. Fatehi,  Qingguo Feng,  T. Friedhoff,  
 J. Gayvert,  Qinghui Ge,  G. Gidofalvi,  M. Goldey,  J. Gomes,  
 C. Gonzalez-Espinoza,  S. Gulania,  A. Gunina,  M. W. D. Hanson-Heine,  
 P. H. P. Harbach,  A. W. Hauser,  M. F. Herbst,  M. Hernandez Vera,  
 M. Hodecker,  Z. C. Holden,  S. Houck,  Xunkun Huang,  Kerwin Hui,  
 B. C. Huynh,  M. Ivanov,  Hyunjun Ji,  Hanjie Jiang,  B. Kaduk,  S. Kaehler,  
 K. Khistyaev,  Jaehoon Kim,  P. Klunzinger,  Z. Koczor-Benda,  
 Joong Hoon Koh,  D. Kosenkov,  L. Koulias,  T. Kowalczyk,  C. M. Krauter,  
 K. Kue,  A. Kunitsa,  T. Kus,  A. Landau,  K. V. Lawler,  D. Lefrancois,  
 S. Lehtola,  Rain Li,  Yi-Pei Li,  Jiashu Liang,  M. Liebenthal,  
 Hung-Hsuan Lin,  You-Sheng Lin,  Fenglai Liu,  Kuan-Yu Liu,  
 M. Loipersberger,  A. Luenser,  A. Manjanath,  P. Manohar,  E. Mansoor,  
 S. F. Manzer,  Shan-Ping Mao,  A. V. Marenich,  T. Markovich,  S. Mason,  
 S. A. Maurer,  P. F. McLaughlin,  M. F. S. J. Menger,  J.-M. Mewes,  
 S. A. Mewes,  P. Morgante,  J. W. Mullinax,  K. J. Oosterbaan,  G. Paran,  
 Alexander C. Paul,  Suranjan K. Paul,  F. Pavosevic,  Zheng Pei,  S. Prager,  
 E. I. Proynov,  E. Ramos,  B. Rana,  A. E. Rask,  A. Rettig,  R. M. Richard,  
 F. Rob,  E. Rossomme,  T. Scheele,  M. Scheurer,  M. Schneider,  
 N. Sergueev,  S. M. Sharada,  W. Skomorowski,  D. W. Small,  C. J. Stein,  
 Yu-Chuan Su,  E. J. Sundstrom,  Zhen Tao,  J. Thirman,  T. Tsuchimochi,  
 N. M. Tubman,  S. P. Veccham,  O. Vydrov,  J. Wenzel,  J. Witte,  A. Yamada,  
 Kun Yao,  S. Yeganeh,  S. R. Yost,  A. Zech,  Igor Ying Zhang,  Xing Zhang,  
 Yu Zhang,  D. Zuev,  A. Aspuru-Guzik,  A. T. Bell,  N. A. Besley,  
 K. B. Bravaya,  B. R. Brooks,  D. Casanova,  Jeng-Da Chai,  S. Coriani,  
 C. J. Cramer,  A. E. DePrince, III,  R. A. DiStasio Jr.,  A. Dreuw,  
 B. D. Dunietz,  T. R. Furlani,  W. A. Goddard III,  S. Grimme,  
 S. Hammes-Schiffer,  T. Head-Gordon,  W. J. Hehre,  Chao-Ping Hsu,  
 T.-C. Jagau,  Yousung Jung,  A. Klamt,  Jing Kong,  D. S. Lambrecht,  
 WanZhen Liang,  N. J. Mayhall,  C. W. McCurdy,  J. B. Neaton,  
 C. Ochsenfeld,  J. A. Parkhill,  R. Peverati,  V. A. Rassolov,  Yihan Shao,  
 L. V. Slipchenko,  T. Stauch,  R. P. Steele,  J. E. Subotnik,  
 A. J. W. Thom,  A. Tkatchenko,  D. G. Truhlar,  T. Van Voorhis,  
 T. A. Wesolowski,  K. B. Whaley,  H. L. Woodcock III,  P. M. Zimmerman,  
 S. Faraji,  P. M. W. Gill,  M. Head-Gordon,  J. M. Herbert,  A. I. Krylov

 Additional authors for Version 5.4.1: 
 S. Kotaru,  Shaozhi Li,  Xiangyuan Li,  F. Matz,  A. Molle,  Haisheng Ren,  
 Yingli Su,  Hung-Yi Tsai,  C. Utku,  Fang Wang

 Contributors to earlier versions of Q-Chem not listed above: 
 R. D. Adamson,  B. Austin,  R. Baer,  J. Baker,  G. J. O. Beran,  
 K. Brandhorst,  S. T. Brown,  E. F. C. Byrd,  A. K. Chakraborty,  
 G. K. L. Chan,  Chun-Min Chang,  Yunqing Chen,  C.-L. Cheng,  
 Siu Hung Chien,  D. M. Chipman,  D. L. Crittenden,  H. Dachsel,  
 R. J. Doerksen,  A. D. Dutoi,  R. G. Edgar,  J. Fosso-Tande,  
 L. Fusti-Molnar,  D. Ghosh,  A. Ghysels,  A. Golubeva-Zadorozhnaya,  
 J. Gonthier,  M. S. Gordon,  S. R. Gwaltney,  G. Hawkins,  J. E. Herr,  
 A. Heyden,  S. Hirata,  E. G. Hohenstein,  G. Kedziora,  F. J. Keil,  
 C. Kelley,  Jihan Kim,  R. A. King,  R. Z. Khaliullin,  P. P. Korambath,  
 W. Kurlancheek,  A. Laurent,  A. M. Lee,  M. S. Lee,  S. V. Levchenko,  
 Ching Yeh Lin,  D. Liotard,  E. Livshits,  R. C. Lochan,  I. Lotan,  
 L. A. Martinez-Martinez,  P. E. Maslen,  N. Nair,  D. P. O'Neill,  
 D. Neuhauser,  E. Neuscamman,  C. M. Oana,  R. Olivares-Amaya,  R. Olson,  
 T. M. Perrine,  B. Peters,  P. A. Pieniazek,  A. Prociuk,  Y. M. Rhee,  
 J. Ritchie,  M. A. Rohrdanz,  E. Rosta,  N. J. Russ,  H. F. Schaefer III,  
 M. W. Schmidt,  N. E. Schultz,  S. Sharma,  N. Shenvi,  C. D. Sherrill,  
 A. C. Simmonett,  A. Sodt,  T. Stein,  D. Stuck,  K. S. Thanthiriwatte,  
 V. Vanovschi,  L. Vogt,  Tao Wang,  A. Warshel,  M. A. Watson,  
 C. F. Williams,  Q. Wu,  X. Xu,  Jun Yang,  W. Zhang,  Yan Zhao

 Please cite Q-Chem as follows:
 Y. Shao et al., Mol. Phys. 113, 184-215 (2015)
 DOI: 10.1080/00268976.2014.952696

 Q-Chem 5.4.1 for Intel X86 EM64T Linux

 Parts of Q-Chem use Armadillo 9.800.1 (Horizon Scraper).
 http://arma.sourceforge.net/

 Q-Chem begins on Tue Jul 25 16:36:08 2023  

 Host: 
0

     Scratch files written to /scratch/ari.fischer/qChem1647068.hpc-mn1/qchem111451//
 Aug1521 |scratch|qcdevops|jenkins|workspace|build_RNUM 8249   
 Processing $rem in /usr/local/qchem-5.4.1/config/preferences:
 Processing $rem in /home/ari.fischer/.qchemrc:
 Symmetry turned off for PCM/SM12/SMD calculation


!!********************************************.
!!******************Warning*******************.
!!Desired Analytical derivatives not available.
!!Finite difference job might take a long time.
!!********************************************.
!!********************************************.


 2-order derivative to be evaluated numerically with 1-order analytical derivatives

 Checking the input file for inconsistencies... 	...done.

--------------------------------------------------------------
User input:
--------------------------------------------------------------
$molecule
0 2
C   -1.0823942   -0.4200636    0.6307444
O   -0.8462558   -1.5007508    1.4060023
O   -1.7683271   -0.5254759   -0.3736812
O   -1.7526764    0.9278718    2.0150610
O   -1.1400813    1.8577424    2.6731800
H   -1.2108333   -2.3695139    1.1847921
$end

$rem
BASIS = 6-311++G(2df,2p)
GUI = 2
JOB_TYPE = Frequency
METHOD = wB97M-V
SCF_ALGORITHM = DIIS_GDM
MAX_SCF_CYCLES = 400
SCF_CONVERGENCE = 6
THRESH = 11
SYMMETRY_IGNORE = 1
solvent_method = SMD
$end

--------------------------------------------------------------
 ----------------------------------------------------------------
             Standard Nuclear Orientation (Angstroms)
    I     Atom           X                Y                Z
 ----------------------------------------------------------------
    1      C      -1.0823942000    -0.4200636000     0.6307444000
    2      O      -0.8462558000    -1.5007508000     1.4060023000
    3      O      -1.7683271000    -0.5254759000    -0.3736812000
    4      O      -1.7526764000     0.9278718000     2.0150610000
    5      O      -1.1400813000     1.8577424000     2.6731800000
    6      H      -1.2108333000    -2.3695139000     1.1847921000
 ----------------------------------------------------------------
 Nuclear Repulsion Energy =         154.40384464 hartrees
 There are       20 alpha and       19 beta electrons
 Requested basis set is 6-311++G(2df,2p)
 There are 46 shells and 180 basis functions

 Total QAlloc Memory Limit 288000 MB
 Mega-Array Size       188 MB
 MEM_STATIC part       192 MB
 
 Citation of the SMD model:
 Marenich, A.V.; Cramer, C.J.; Truhlar, D.G.
 J. Phys. Chem. B 2009, 113, 6378-6396.
 iSolventCode=           1
 Solvent: water                                                           
 
 vradii
            1           2           3           4           5           6
    1   1.8500000   1.5200000   1.5200000   1.5200000   1.5200000   1.2000000
 Changing PCM_VDW_RADII to SMD_RADIUS
 Discretize the solute cavity surface with Lebedev spheres
	Using 110 Lebedev grid points for each H atom
	Using 194 Lebedev grid points for other atoms
	Atomic van der Waals radii will be scaled by 1.20
 Remove points where switching function is < 1.0e-08
 Keep 691 surface tesserae and discard 389 interior tesserae
 Molecular Surface Area = 88.987 Angst**2

                       Distance Matrix (Angstroms)
             C (  1)   O (  2)   O (  3)   O (  4)   O (  5)
   O (  2)  1.350804
   O (  3)  1.220855  2.229047
   O (  4)  2.045126  2.662848  2.796168
   O (  5)  3.059946  3.601604  3.918901  1.293465
   H (  6)  2.030720  0.967781  2.477925  3.443210  4.482187
 
 A cutoff of  1.0D-11 yielded    972 shell pairs
 There are     15227 function pairs (     19745 Cartesian)
 Smallest overlap matrix eigenvalue = 5.25E-04
 Guess from superposition of atomic densities
 Warning:  Energy on first SCF cycle will be non-variational
 SAD guess density has 39.000000 electrons

 -----------------------------------------------------------------------
  General SCF calculation program by
  Eric Jon Sundstrom, Paul Horn, Yuezhi Mao, Dmitri Zuev, Alec White,
  David Stuck, Shaama M.S., Shane Yost, Joonho Lee, David Small,
  Daniel Levine, Susi Lehtola, Hugh Burton, Evgeny Epifanovsky,
  Bang C. Huynh
 -----------------------------------------------------------------------
 Exchange:     0.1500 Hartree-Fock + 1.0000 wB97M-V + LR-HF
 Correlation:  1.0000 wB97M-V
 Using SG-2 standard quadrature grid
 Nonlocal Correlation:  VV10 with C = 0.0100 and b = 6.00 and scale = 1.00000
 Grid used for NLC:  SG-1 standard quadrature
 using 16 threads for integral computing
 -------------------------------------------------------
 OpenMP Integral computing Module                
 Release: version 1.0, May 2013, Q-Chem Inc. Pittsburgh 
 -------------------------------------------------------
 
 Citation of the SMD model:
 Marenich, A.V.; Cramer, C.J.; Truhlar, D.G.
 J. Phys. Chem. B 2009, 113, 6378-6396.
 iSolventCode=           1
 Solvent: water                                                           
 
 vradii
            1           2           3           4           5           6
    1   1.8500000   1.5200000   1.5200000   1.5200000   1.5200000   1.2000000
 -------------------------------------------------------
 OpenMP BLAS3 based DFT computing Module                
 Release: version 1.0, May 2013, Q-Chem Inc. Pittsburgh 
 -------------------------------------------------------
 A unrestricted SCF calculation will be
 performed using DIIS, GDM
 SCF converges when RMS gradient is below 1.0e-06
 ---------------------------------------
  Cycle       Energy         DIIS error
 ---------------------------------------
    1    -339.6677574300      1.67e-02  
    2    -339.2717486935      3.19e-03  Done DIIS. Switching to GDM
 ---------------------------------------
  Cycle       Energy        RMS Gradient
 ---------------------------------------
    1    -339.2717486935      1.40e-01   Descent step
    2    -339.3973637257      2.79e-02   Normal BFGS step
    3    -339.4070367796      4.02e-02   Normal BFGS step
    4    -339.4103893517      1.87e-02   Normal BFGS step
    5    -339.4116454938      1.70e-02   Normal BFGS step
    6    -339.4127184274      1.97e-02   Normal BFGS step
    7    -339.4174852051      2.68e-02   Normal BFGS step
    8    -339.4207493850      3.24e-02   Normal BFGS step
    9    -339.4238907851      2.17e-02   Normal BFGS step
   10    -339.4263369666      1.47e-02   Normal BFGS step
   11    -339.4268256218      8.00e-03   Normal BFGS step
   12    -339.4271208937      3.14e-03   Normal BFGS step
   13    -339.4272063303      1.03e-03   Normal BFGS step
   14    -339.4272131520      5.67e-04   Normal BFGS step
   15    -339.4272163573      2.51e-04   Normal BFGS step
   16    -339.4272167224      1.94e-04   Normal BFGS step
   17    -339.4272168243      4.15e-05   Normal BFGS step
   18    -339.4272168432      3.15e-05   Normal BFGS step
   19    -339.4272168492      1.12e-05   Normal BFGS step
   20    -339.4272168510      4.43e-06   Normal BFGS step
   21    -339.4272168512      2.09e-06   Normal BFGS step
   22    -339.4272168513      1.38e-06   Normal BFGS step
   23    -339.4272168513      1.05e-06   Normal BFGS step
   24    -339.4272168513      6.28e-07  Convergence criterion met
 ---------------------------------------
 SCF time:   CPU 344.54s  wall 22.00s 
<S^2> =          1.451030067
(3)  G-ENP(liq) elect-nuc-pol free energy of system     -339.427216851 a.u.
(4)  G-CDS(liq) cavity-dispersion-solvent structure 
     free energy                                                3.9683 kcal/mol
(6)  G-S(liq) free energy of system                     -339.420892891 a.u.
 SCF   energy in the final basis set =     -339.4208928909
 Total energy in the final basis set =     -339.4208928909
 
 --------------------------------------------------------------
 
                    Orbital Energies (a.u.)
 --------------------------------------------------------------
 
 Alpha MOs
 -- Occupied --
-19.5075 -19.4865 -19.3950 -19.3752 -10.5156  -1.3695  -1.2490  -1.1653
 -0.9916  -0.7663  -0.6657  -0.6482  -0.6432  -0.6246  -0.5684  -0.5560
 -0.4629  -0.4566  -0.4336  -0.4208
 -- Virtual --
 -0.0428   0.0459   0.0739   0.0767   0.0844   0.1051   0.1171   0.1478
  0.1947   0.2055   0.2203   0.2227   0.2307   0.2497   0.2602   0.2801
  0.2861   0.3070   0.3104   0.3207   0.3356   0.3533   0.3814   0.3901
  0.4050   0.4626   0.4999   0.5762   0.6428   0.6793   0.7390   0.7991
  0.8039   0.8394   0.9255   0.9721   0.9787   1.0223   1.0561   1.0619
  1.0800   1.1029   1.1250   1.1492   1.1524   1.1777   1.1880   1.2146
  1.2312   1.2941   1.3455   1.3759   1.4097   1.4192   1.4335   1.5016
  1.5371   1.5511   1.5871   1.6283   1.6930   1.7118   1.7507   1.8091
  1.9026   1.9367   2.0514   2.1597   2.1661   2.2267   2.2869   2.3144
  2.3283   2.3560   2.5264   2.6196   2.7558   2.8799   3.0101   3.0481
  3.1568   3.2548   3.2737   3.3974   3.4194   3.4538   3.5785   3.5895
  3.6374   3.7321   3.7634   3.8300   4.0309   4.1428   4.3718   4.4977
  4.5637   4.6658   4.7017   4.7715   4.9515   4.9534   4.9896   5.0255
  5.0654   5.0996   5.1069   5.1137   5.1264   5.1383   5.1436   5.1502
  5.1621   5.1914   5.2000   5.2207   5.2575   5.3071   5.3636   5.4525
  5.4884   5.5676   5.5735   5.6048   5.6452   5.9633   5.9725   6.3295
  6.4593   6.4915   6.5284   6.6505   6.6683   6.7148   6.8128   6.8216
  6.8740   6.8985   6.9550   6.9918   6.9998   7.0444   7.0885   7.1423
  7.2501   7.3066   7.3456   7.3936   7.4079   7.4751   7.6761   7.7075
  7.7430   7.9108   7.9179  24.9205  50.3144  50.3532  50.4978  50.6223
 
 Beta MOs
 -- Occupied --
-19.4809 -19.4591 -19.3973 -19.3813 -10.5263  -1.3171  -1.2585  -1.1760
 -0.9185  -0.7815  -0.6444  -0.6326  -0.5959  -0.5678  -0.5463  -0.5413
 -0.4734  -0.4571  -0.3583
 -- Virtual --
 -0.0543  -0.0448   0.0434   0.0730   0.0771   0.0856   0.0988   0.1187
  0.1535   0.2008   0.2080   0.2195   0.2247   0.2331   0.2570   0.2765
  0.2884   0.2909   0.3089   0.3131   0.3228   0.3391   0.3576   0.3744
  0.3902   0.4060   0.4565   0.4909   0.5730   0.6328   0.6743   0.7296
  0.7926   0.8021   0.8314   0.9208   0.9709   0.9735   1.0295   1.0800
  1.0847   1.0977   1.1067   1.1287   1.1459   1.1657   1.1874   1.1930
  1.2248   1.2492   1.2897   1.3585   1.4039   1.4328   1.4379   1.4517
  1.5018   1.5474   1.5677   1.5912   1.6321   1.7247   1.7355   1.7551
  1.8150   1.9067   1.9306   2.0525   2.1606   2.1871   2.2396   2.2933
  2.3179   2.3312   2.3557   2.5153   2.6364   2.7378   2.8594   2.9725
  3.0305   3.1281   3.2162   3.2535   3.3559   3.3722   3.4173   3.5514
  3.5601   3.6039   3.7017   3.7361   3.8205   4.0048   4.1281   4.3571
  4.5448   4.6050   4.7125   4.7469   4.7957   5.0256   5.0276   5.0679
  5.0969   5.0992   5.1140   5.1143   5.1344   5.1535   5.1726   5.1876
  5.1913   5.1974   5.2019   5.2249   5.2318   5.2901   5.3023   5.3562
  5.4458   5.4838   5.5702   5.6170   5.6394   5.6496   5.9486   5.9632
  6.3184   6.5141   6.5171   6.5430   6.6889   6.7708   6.7881   6.8606
  6.9214   6.9281   6.9315   6.9658   6.9862   7.0029   7.1000   7.1303
  7.1503   7.2517   7.3217   7.3457   7.4236   7.4374   7.4852   7.6653
  7.6947   7.7355   7.9332   7.9604  24.9099  50.3359  50.3737  50.4955
 50.6179
 --------------------------------------------------------------
 
          Ground-State Mulliken Net Atomic Charges

     Atom                 Charge (a.u.)    Spin (a.u.)
  --------------------------------------------------------
      1 C                     0.268368      -0.574826
      2 O                    -0.321785      -0.004406
      3 O                    -0.346440      -0.190858
      4 O                     0.022481       0.882297
      5 O                    -0.002559       0.919335
      6 H                     0.379935      -0.031542
  --------------------------------------------------------
  Sum of atomic charges =    -0.000000
  Sum of spin   charges =     1.000000

 -----------------------------------------------------------------
                    Cartesian Multipole Moments
 -----------------------------------------------------------------
    Charge (ESU x 10^10)
                -0.0000
    Dipole Moment (Debye)
         X       0.3264      Y      -2.4719      Z       0.9691
       Tot       2.6750
    Quadrupole Moments (Debye-Ang)
        XX     -29.0755     XY       3.8932     YY     -20.1330
        XZ      -3.1352     YZ      -3.2606     ZZ     -30.1868
    Octopole Moments (Debye-Ang^2)
       XXX     112.6040    XXY      -5.1416    XYY      24.7395
       YYY     -25.9784    XXZ     -28.5358    XYZ       6.4470
       YYZ     -27.7295    XZZ      37.3133    YZZ      -2.9921
       ZZZ    -109.4083
    Hexadecapole Moments (Debye-Ang^3)
      XXXX    -341.1072   XXXY      17.7390   XXYY     -83.9862
      XYYY      46.4372   YYYY    -195.7887   XXXZ     114.8254
      XXYZ     -32.4009   XYYZ      29.5397   YYYZ     -98.5819
      XXZZ    -133.2962   XYZZ      11.0514   YYZZ    -119.7585
      XZZZ     129.5015   YZZZ     -72.2614   ZZZZ    -481.7053
 -----------------------------------------------------------------
 Calculating analytic gradient of the SCF energy
 Gradient of CDS energy
            1           2           3           4           5           6
    1   0.0003919  -0.0009297   0.0007219  -0.0000429  -0.0000914  -0.0000497
    2  -0.0035141   0.0036567   0.0000958   0.0001353   0.0000632  -0.0004368
    3   0.0004324  -0.0023035   0.0013558   0.0003418   0.0000814   0.0000922
 Gradient of SCF Energy
            1           2           3           4           5           6
    1   0.0525939  -0.0195063  -0.0371477  -0.0408906   0.0432243   0.0017264
    2   0.0808059  -0.0242765  -0.0288155  -0.0768238   0.0738006  -0.0246906
    3   0.0416372  -0.0165012  -0.0392998  -0.0550093   0.0539080   0.0152652
 Max gradient component =       8.081E-02
 RMS gradient           =       4.576E-02
 Computing fast CPCM-SWIG gradient
 Updating gradient with PCM contributions...
 -- total gradient after adding PCM contribution --
---------------------------------------------------
  Atom         X              Y              Z     
---------------------------------------------------
   1       0.051140       0.080018       0.039812
   2      -0.027012      -0.040450      -0.021734
   3      -0.034596      -0.031430      -0.034016
   4      -0.039734      -0.075138      -0.053979
   5       0.041931       0.072152       0.052708
   6       0.008271      -0.005153       0.017210
---------------------------------------------------
 Number of fixed atoms: 0
 Gradient time:  CPU 33.60 s  wall 3.48 s
 ######################################################
 ######################################################
 # Starting finite difference calculation for IDERIV  #
 Finite diff step size:  1.88973e-03 a.u.
 ----------------------------------------------------------------
             Standard Nuclear Orientation (Angstroms)
    I     Atom           X                Y                Z
 ----------------------------------------------------------------
    1      C      -1.0813942000    -0.4200636000     0.6307444000
    2      O      -0.8462558000    -1.5007508000     1.4060023000
    3      O      -1.7683271000    -0.5254759000    -0.3736812000
    4      O      -1.7526764000     0.9278718000     2.0150610000
    5      O      -1.1400813000     1.8577424000     2.6731800000
    6      H      -1.2108333000    -2.3695139000     1.1847921000
 ----------------------------------------------------------------
 Nuclear Repulsion Energy =         154.39460638 hartrees
 There are       20 alpha and       19 beta electrons
 Discretize the solute cavity surface with Lebedev spheres
	Using 110 Lebedev grid points for each H atom
	Using 194 Lebedev grid points for other atoms
	Atomic van der Waals radii will be scaled by 1.20
 Remove points where switching function is < 1.0e-08
 Keep 691 surface tesserae and discard 389 interior tesserae
 Molecular Surface Area = 88.996 Angst**2

                       Distance Matrix (Angstroms)
             C (  1)   O (  2)   O (  3)   O (  4)   O (  5)
   O (  2)  1.350629
   O (  3)  1.221417  2.229047
   O (  4)  2.045454  2.662848  2.796168
   O (  5)  3.059965  3.601604  3.918901  1.293465
   H (  6)  2.030783  0.967781  2.477925  3.443210  4.482187
 
 Requested basis set is 6-311++G(2df,2p)
 There are 46 shells and 180 basis functions
 A cutoff of  1.0D-11 yielded    972 shell pairs
 There are     15227 function pairs (     19745 Cartesian)
 Smallest overlap matrix eigenvalue = 5.25E-04
 Guess MOs from SCF MO coefficient file

 -----------------------------------------------------------------------
  General SCF calculation program by
  Eric Jon Sundstrom, Paul Horn, Yuezhi Mao, Dmitri Zuev, Alec White,
  David Stuck, Shaama M.S., Shane Yost, Joonho Lee, David Small,
  Daniel Levine, Susi Lehtola, Hugh Burton, Evgeny Epifanovsky,
  Bang C. Huynh
 -----------------------------------------------------------------------
 Exchange:     0.1500 Hartree-Fock + 1.0000 wB97M-V + LR-HF
 Correlation:  1.0000 wB97M-V
 Using SG-2 standard quadrature grid
 Nonlocal Correlation:  VV10 with C = 0.0100 and b = 6.00 and scale = 1.00000
 Grid used for NLC:  SG-1 standard quadrature
 
 Citation of the SMD model:
 Marenich, A.V.; Cramer, C.J.; Truhlar, D.G.
 J. Phys. Chem. B 2009, 113, 6378-6396.
 iSolventCode=           1
 Solvent: water                                                           
 
 vradii
            1           2           3           4           5           6
    1   1.8500000   1.5200000   1.5200000   1.5200000   1.5200000   1.2000000
 -------------------------------------------------------
 OpenMP BLAS3 based DFT computing Module                
 Release: version 1.0, May 2013, Q-Chem Inc. Pittsburgh 
 -------------------------------------------------------
 A unrestricted SCF calculation will be
 performed using Roothaan-Hall, DIIS, GDM
 SCF converges when RMS gradient is below 1.0e-06
 ---------------------------------------
  Cycle       Energy         DIIS error
 ---------------------------------------
    1    -339.4111931693      2.76e-04  Roothaan Step
 ---------------------------------------
  Cycle       Energy         DIIS error
 ---------------------------------------
    1    -339.4244963183      3.44e-04  
    2    -339.4252433772      4.19e-04  Done DIIS. Switching to GDM
 ---------------------------------------
  Cycle       Energy        RMS Gradient
 ---------------------------------------
    1    -339.4252433772      1.35e-02   Normal BFGS step
    2    -339.4231910847      2.24e-02  Line search: overstep
    3    -339.4270432974      2.25e-03   Normal BFGS step
    4    -339.4270931695      2.61e-03   Normal BFGS step
    5    -339.4271140817      1.00e-03   Normal BFGS step
    6    -339.4271200253      2.20e-04   Normal BFGS step
    7    -339.4271203076      1.44e-04   Normal BFGS step
    8    -339.4271204568      7.28e-05   Normal BFGS step
    9    -339.4271204975      4.23e-05   Normal BFGS step
   10    -339.4271205068      1.49e-05   Normal BFGS step
   11    -339.4271205089      8.27e-06   Normal BFGS step
   12    -339.4271205093      4.33e-06   Normal BFGS step
   13    -339.4271205095      1.81e-06   Normal BFGS step
   14    -339.4271205095      8.43e-07  Convergence criterion met
 ---------------------------------------
 SCF time:   CPU 219.62s  wall 13.00s 
<S^2> =          1.452382221
(3)  G-ENP(liq) elect-nuc-pol free energy of system     -339.427120510 a.u.
(4)  G-CDS(liq) cavity-dispersion-solvent structure 
     free energy                                                3.9688 kcal/mol
(6)  G-S(liq) free energy of system                     -339.420795817 a.u.
 SCF   energy in the final basis set =     -339.4207958173
 Total energy in the final basis set =     -339.4207958173
 
 --------------------------------------------------------------
 
                    Orbital Energies (a.u.)
 --------------------------------------------------------------
 
 Alpha MOs
 -- Occupied --
-19.5075 -19.4867 -19.3951 -19.3751 -10.5156  -1.3696  -1.2488  -1.1651
 -0.9917  -0.7664  -0.6657  -0.6482  -0.6433  -0.6245  -0.5683  -0.5559
 -0.4628  -0.4565  -0.4336  -0.4208
 -- Virtual --
 -0.0429   0.0459   0.0739   0.0767   0.0845   0.1051   0.1171   0.1478
  0.1947   0.2055   0.2203   0.2227   0.2307   0.2496   0.2602   0.2800
  0.2861   0.3070   0.3104   0.3207   0.3356   0.3534   0.3815   0.3901
  0.4051   0.4626   0.4996   0.5762   0.6427   0.6793   0.7389   0.7991
  0.8039   0.8396   0.9254   0.9719   0.9786   1.0223   1.0561   1.0619
  1.0800   1.1029   1.1251   1.1492   1.1524   1.1777   1.1879   1.2146
  1.2312   1.2939   1.3454   1.3758   1.4097   1.4190   1.4335   1.5015
  1.5371   1.5510   1.5870   1.6283   1.6929   1.7116   1.7505   1.8090
  1.9028   1.9366   2.0513   2.1596   2.1660   2.2263   2.2867   2.3139
  2.3284   2.3558   2.5261   2.6196   2.7556   2.8799   3.0102   3.0481
  3.1566   3.2551   3.2738   3.3976   3.4196   3.4537   3.5779   3.5897
  3.6376   3.7322   3.7634   3.8301   4.0300   4.1427   4.3719   4.4976
  4.5635   4.6657   4.7016   4.7714   4.9514   4.9533   4.9895   5.0254
  5.0653   5.0995   5.1069   5.1136   5.1265   5.1383   5.1435   5.1502
  5.1620   5.1914   5.1999   5.2206   5.2575   5.3070   5.3634   5.4522
  5.4883   5.5675   5.5732   5.6046   5.6452   5.9628   5.9726   6.3277
  6.4592   6.4913   6.5276   6.6504   6.6682   6.7132   6.8127   6.8215
  6.8740   6.8984   6.9548   6.9917   6.9993   7.0443   7.0883   7.1422
  7.2502   7.3066   7.3452   7.3935   7.4077   7.4751   7.6762   7.7070
  7.7429   7.9108   7.9177  24.9199  50.3143  50.3531  50.4977  50.6218
 
 Beta MOs
 -- Occupied --
-19.4810 -19.4592 -19.3973 -19.3812 -10.5263  -1.3171  -1.2584  -1.1758
 -0.9185  -0.7816  -0.6444  -0.6325  -0.5958  -0.5678  -0.5463  -0.5414
 -0.4732  -0.4570  -0.3584
 -- Virtual --
 -0.0543  -0.0449   0.0434   0.0730   0.0771   0.0856   0.0988   0.1187
  0.1535   0.2008   0.2080   0.2195   0.2247   0.2331   0.2570   0.2765
  0.2884   0.2909   0.3089   0.3131   0.3228   0.3391   0.3576   0.3744
  0.3902   0.4061   0.4565   0.4906   0.5730   0.6327   0.6742   0.7294
  0.7926   0.8021   0.8315   0.9208   0.9709   0.9734   1.0295   1.0800
  1.0847   1.0977   1.1068   1.1288   1.1459   1.1658   1.1873   1.1931
  1.2248   1.2492   1.2895   1.3585   1.4039   1.4328   1.4378   1.4516
  1.5017   1.5475   1.5676   1.5911   1.6320   1.7246   1.7353   1.7549
  1.8149   1.9069   1.9305   2.0524   2.1603   2.1869   2.2392   2.2932
  2.3178   2.3311   2.3554   2.5150   2.6364   2.7376   2.8594   2.9726
  3.0306   3.1279   3.2164   3.2537   3.3561   3.3722   3.4173   3.5510
  3.5600   3.6041   3.7017   3.7362   3.8206   4.0039   4.1280   4.3572
  4.5447   4.6049   4.7124   4.7467   4.7957   5.0256   5.0275   5.0678
  5.0969   5.0992   5.1139   5.1143   5.1343   5.1534   5.1726   5.1876
  5.1912   5.1973   5.2018   5.2249   5.2317   5.2899   5.3022   5.3560
  5.4455   5.4837   5.5699   5.6170   5.6394   5.6495   5.9481   5.9633
  6.3165   6.5133   6.5170   6.5428   6.6874   6.7707   6.7881   6.8605
  6.9214   6.9281   6.9313   6.9656   6.9860   7.0026   7.0999   7.1302
  7.1502   7.2519   7.3215   7.3456   7.4234   7.4372   7.4851   7.6655
  7.6943   7.7353   7.9331   7.9603  24.9092  50.3358  50.3736  50.4954
 50.6173
 --------------------------------------------------------------
 
          Ground-State Mulliken Net Atomic Charges

     Atom                 Charge (a.u.)    Spin (a.u.)
  --------------------------------------------------------
      1 C                     0.267995      -0.575412
      2 O                    -0.321513      -0.004299
      3 O                    -0.346975      -0.191232
      4 O                     0.022602       0.882619
      5 O                    -0.002089       0.919889
      6 H                     0.379980      -0.031565
  --------------------------------------------------------
  Sum of atomic charges =    -0.000000
  Sum of spin   charges =     1.000000

 -----------------------------------------------------------------
                    Cartesian Multipole Moments
 -----------------------------------------------------------------
    Charge (ESU x 10^10)
                -0.0000
    Dipole Moment (Debye)
         X       0.3288      Y      -2.4676      Z       0.9783
       Tot       2.6748
    Quadrupole Moments (Debye-Ang)
        XX     -29.0823     XY       3.8856     YY     -20.1240
        XZ      -3.1466     YZ      -3.2504     ZZ     -30.1680
    Octopole Moments (Debye-Ang^2)
       XXX     112.6053    XXY      -5.1257    XYY      24.7259
       YYY     -25.9619    XXZ     -28.5154    XYZ       6.4336
       YYZ     -27.7011    XZZ      37.2835    YZZ      -2.9599
       ZZZ    -109.3448
    Hexadecapole Moments (Debye-Ang^3)
      XXXX    -341.0839   XXXY      17.7096   XXYY     -83.9627
      XYYY      46.4222   YYYY    -195.7327   XXXZ     114.7740
      XXYZ     -32.3749   XYYZ      29.5010   YYYZ     -98.5365
      XXZZ    -133.2397   XYZZ      11.0129   YYZZ    -119.6863
      XZZZ     129.4055   YZZZ     -72.1679   ZZZZ    -481.5293
 -----------------------------------------------------------------
 Calculating analytic gradient of the SCF energy
 Gradient of CDS energy
            1           2           3           4           5           6
    1   0.0003826  -0.0009250   0.0007275  -0.0000432  -0.0000917  -0.0000502
    2  -0.0035093   0.0036503   0.0000970   0.0001352   0.0000634  -0.0004366
    3   0.0004208  -0.0022988   0.0013634   0.0003410   0.0000817   0.0000919
 Gradient of SCF Energy
            1           2           3           4           5           6
    1   0.0530378  -0.0196034  -0.0375162  -0.0409873   0.0433276   0.0017414
    2   0.0808845  -0.0242428  -0.0288560  -0.0769878   0.0739023  -0.0247002
    3   0.0421435  -0.0165557  -0.0397038  -0.0551330   0.0539679   0.0152812
 Max gradient component =       8.088E-02
 RMS gradient           =       4.591E-02
 Computing fast CPCM-SWIG gradient
 Updating gradient with PCM contributions...
 -- total gradient after adding PCM contribution --
---------------------------------------------------
  Atom         X              Y              Z     
---------------------------------------------------
   1       0.051598       0.080101       0.040339
   2      -0.027101      -0.040416      -0.021781
   3      -0.034979      -0.031475      -0.034440
   4      -0.039821      -0.075284      -0.054090
   5       0.042023       0.072237       0.052755
   6       0.008280      -0.005164       0.017217
---------------------------------------------------
 Number of fixed atoms: 0
 Gradient time:  CPU 33.11 s  wall 2.79 s
 ----------------------------------------------------------------
             Standard Nuclear Orientation (Angstroms)
    I     Atom           X                Y                Z
 ----------------------------------------------------------------
    1      C      -1.0833942000    -0.4200636000     0.6307444000
    2      O      -0.8462558000    -1.5007508000     1.4060023000
    3      O      -1.7683271000    -0.5254759000    -0.3736812000
    4      O      -1.7526764000     0.9278718000     2.0150610000
    5      O      -1.1400813000     1.8577424000     2.6731800000
    6      H      -1.2108333000    -2.3695139000     1.1847921000
 ----------------------------------------------------------------
 Nuclear Repulsion Energy =         154.41306953 hartrees
 There are       20 alpha and       19 beta electrons
 Discretize the solute cavity surface with Lebedev spheres
	Using 110 Lebedev grid points for each H atom
	Using 194 Lebedev grid points for other atoms
	Atomic van der Waals radii will be scaled by 1.20
 Remove points where switching function is < 1.0e-08
 Keep 692 surface tesserae and discard 388 interior tesserae
 Molecular Surface Area = 88.979 Angst**2

                       Distance Matrix (Angstroms)
             C (  1)   O (  2)   O (  3)   O (  4)   O (  5)
   O (  2)  1.350979
   O (  3)  1.220293  2.229047
   O (  4)  2.044799  2.662848  2.796168
   O (  5)  3.059928  3.601604  3.918901  1.293465
   H (  6)  2.030657  0.967781  2.477925  3.443210  4.482187
 
 Requested basis set is 6-311++G(2df,2p)
 There are 46 shells and 180 basis functions
 A cutoff of  1.0D-11 yielded    972 shell pairs
 There are     15227 function pairs (     19745 Cartesian)
 Smallest overlap matrix eigenvalue = 5.25E-04
 Guess MOs from SCF MO coefficient file

 -----------------------------------------------------------------------
  General SCF calculation program by
  Eric Jon Sundstrom, Paul Horn, Yuezhi Mao, Dmitri Zuev, Alec White,
  David Stuck, Shaama M.S., Shane Yost, Joonho Lee, David Small,
  Daniel Levine, Susi Lehtola, Hugh Burton, Evgeny Epifanovsky,
  Bang C. Huynh
 -----------------------------------------------------------------------
 Exchange:     0.1500 Hartree-Fock + 1.0000 wB97M-V + LR-HF
 Correlation:  1.0000 wB97M-V
 Using SG-2 standard quadrature grid
 Nonlocal Correlation:  VV10 with C = 0.0100 and b = 6.00 and scale = 1.00000
 Grid used for NLC:  SG-1 standard quadrature
 
 Citation of the SMD model:
 Marenich, A.V.; Cramer, C.J.; Truhlar, D.G.
 J. Phys. Chem. B 2009, 113, 6378-6396.
 iSolventCode=           1
 Solvent: water                                                           
 
 vradii
            1           2           3           4           5           6
    1   1.8500000   1.5200000   1.5200000   1.5200000   1.5200000   1.2000000
 -------------------------------------------------------
 OpenMP BLAS3 based DFT computing Module                
 Release: version 1.0, May 2013, Q-Chem Inc. Pittsburgh 
 -------------------------------------------------------
 A unrestricted SCF calculation will be
 performed using Roothaan-Hall, DIIS, GDM
 SCF converges when RMS gradient is below 1.0e-06
 ---------------------------------------
  Cycle       Energy         DIIS error
 ---------------------------------------
    1    -339.4113837774      2.77e-04  Roothaan Step
 ---------------------------------------
  Cycle       Energy         DIIS error
 ---------------------------------------
    1    -339.4247156192      3.42e-04  
    2    -339.4254852531      4.13e-04  Done DIIS. Switching to GDM
 ---------------------------------------
  Cycle       Energy        RMS Gradient
 ---------------------------------------
    1    -339.4254852531      1.31e-02   Normal BFGS step
    2    -339.4234957694      2.20e-02  Line search: overstep
    3    -339.4272350007      2.21e-03   Normal BFGS step
    4    -339.4272847865      2.65e-03   Normal BFGS step
    5    -339.4273056264      9.72e-04   Normal BFGS step
    6    -339.4273116512      3.72e-04   Normal BFGS step
    7    -339.4273120044      1.67e-04   Normal BFGS step
    8    -339.4273122126      9.63e-05   Normal BFGS step
    9    -339.4273122841      7.99e-05   Normal BFGS step
   10    -339.4273122996      2.28e-05   Normal BFGS step
   11    -339.4273123048      1.47e-05   Normal BFGS step
   12    -339.4273123065      7.80e-06   Normal BFGS step
   13    -339.4273123071      4.33e-06   Normal BFGS step
   14    -339.4273123073      2.61e-06   Normal BFGS step
   15    -339.4273123074      9.11e-07  Convergence criterion met
 ---------------------------------------
 SCF time:   CPU 237.64s  wall 15.00s 
<S^2> =          1.449674946
(3)  G-ENP(liq) elect-nuc-pol free energy of system     -339.427312307 a.u.
(4)  G-CDS(liq) cavity-dispersion-solvent structure 
     free energy                                                3.9679 kcal/mol
(6)  G-S(liq) free energy of system                     -339.420989096 a.u.
 SCF   energy in the final basis set =     -339.4209890962
 Total energy in the final basis set =     -339.4209890962
 
 --------------------------------------------------------------
 
                    Orbital Energies (a.u.)
 --------------------------------------------------------------
 
 Alpha MOs
 -- Occupied --
-19.5074 -19.4864 -19.3950 -19.3753 -10.5156  -1.3694  -1.2491  -1.1655
 -0.9915  -0.7662  -0.6656  -0.6481  -0.6431  -0.6247  -0.5686  -0.5560
 -0.4630  -0.4567  -0.4335  -0.4207
 -- Virtual --
 -0.0427   0.0459   0.0739   0.0767   0.0844   0.1052   0.1171   0.1478
  0.1947   0.2055   0.2204   0.2228   0.2307   0.2497   0.2603   0.2802
  0.2861   0.3070   0.3104   0.3207   0.3356   0.3533   0.3814   0.3900
  0.4050   0.4627   0.5001   0.5763   0.6429   0.6794   0.7392   0.7990
  0.8040   0.8393   0.9255   0.9722   0.9787   1.0223   1.0562   1.0620
  1.0800   1.1028   1.1250   1.1491   1.1524   1.1776   1.1880   1.2145
  1.2311   1.2942   1.3455   1.3759   1.4097   1.4194   1.4335   1.5017
  1.5370   1.5512   1.5872   1.6282   1.6931   1.7120   1.7510   1.8092
  1.9024   1.9368   2.0515   2.1599   2.1662   2.2271   2.2870   2.3148
  2.3283   2.3562   2.5267   2.6196   2.7559   2.8798   3.0101   3.0480
  3.1570   3.2546   3.2736   3.3972   3.4192   3.4539   3.5790   3.5893
  3.6372   3.7319   3.7633   3.8299   4.0317   4.1430   4.3718   4.4977
  4.5639   4.6659   4.7019   4.7716   4.9516   4.9535   4.9898   5.0256
  5.0655   5.0997   5.1068   5.1137   5.1263   5.1384   5.1437   5.1503
  5.1622   5.1914   5.2001   5.2208   5.2576   5.3072   5.3638   5.4528
  5.4885   5.5677   5.5737   5.6050   5.6451   5.9638   5.9724   6.3313
  6.4593   6.4917   6.5292   6.6507   6.6684   6.7163   6.8129   6.8217
  6.8740   6.8986   6.9552   6.9919   7.0003   7.0445   7.0887   7.1423
  7.2501   7.3066   7.3459   7.3937   7.4082   7.4752   7.6759   7.7079
  7.7431   7.9109   7.9180  24.9212  50.3146  50.3533  50.4979  50.6229
 
 Beta MOs
 -- Occupied --
-19.4808 -19.4589 -19.3973 -19.3814 -10.5263  -1.3170  -1.2587  -1.1762
 -0.9184  -0.7815  -0.6445  -0.6326  -0.5959  -0.5678  -0.5464  -0.5413
 -0.4735  -0.4571  -0.3582
 -- Virtual --
 -0.0542  -0.0448   0.0434   0.0730   0.0771   0.0856   0.0989   0.1187
  0.1535   0.2008   0.2080   0.2195   0.2247   0.2331   0.2570   0.2766
  0.2884   0.2910   0.3089   0.3131   0.3228   0.3391   0.3575   0.3743
  0.3901   0.4060   0.4565   0.4912   0.5731   0.6329   0.6744   0.7298
  0.7925   0.8022   0.8312   0.9209   0.9710   0.9737   1.0295   1.0800
  1.0847   1.0977   1.1067   1.1287   1.1459   1.1656   1.1875   1.1930
  1.2248   1.2492   1.2898   1.3585   1.4039   1.4328   1.4380   1.4517
  1.5019   1.5474   1.5678   1.5912   1.6321   1.7248   1.7357   1.7553
  1.8150   1.9065   1.9307   2.0526   2.1608   2.1872   2.2400   2.2933
  2.3180   2.3313   2.3560   2.5156   2.6364   2.7381   2.8594   2.9725
  3.0304   3.1284   3.2159   3.2534   3.3557   3.3721   3.4174   3.5517
  3.5602   3.6036   3.7018   3.7359   3.8204   4.0057   4.1282   4.3570
  4.5449   4.6052   4.7126   4.7470   4.7958   5.0257   5.0276   5.0679
  5.0969   5.0991   5.1140   5.1143   5.1345   5.1536   5.1727   5.1877
  5.1914   5.1975   5.2020   5.2249   5.2319   5.2902   5.3024   5.3564
  5.4462   5.4839   5.5706   5.6171   5.6393   5.6497   5.9490   5.9631
  6.3202   6.5148   6.5172   6.5432   6.6905   6.7709   6.7881   6.8606
  6.9215   6.9282   6.9318   6.9659   6.9864   7.0032   7.1001   7.1303
  7.1504   7.2516   7.3220   7.3459   7.4237   7.4376   7.4853   7.6652
  7.6951   7.7356   7.9333   7.9605  24.9105  50.3360  50.3738  50.4955
 50.6185
 --------------------------------------------------------------
 
          Ground-State Mulliken Net Atomic Charges

     Atom                 Charge (a.u.)    Spin (a.u.)
  --------------------------------------------------------
      1 C                     0.268743      -0.574240
      2 O                    -0.322057      -0.004515
      3 O                    -0.345906      -0.190480
      4 O                     0.022357       0.881972
      5 O                    -0.003028       0.918782
      6 H                     0.379891      -0.031519
  --------------------------------------------------------
  Sum of atomic charges =    -0.000000
  Sum of spin   charges =     1.000000

 -----------------------------------------------------------------
                    Cartesian Multipole Moments
 -----------------------------------------------------------------
    Charge (ESU x 10^10)
                -0.0000
    Dipole Moment (Debye)
         X       0.3240      Y      -2.4761      Z       0.9599
       Tot       2.6753
    Quadrupole Moments (Debye-Ang)
        XX     -29.0688     XY       3.9007     YY     -20.1419
        XZ      -3.1238     YZ      -3.2708     ZZ     -30.2057
    Octopole Moments (Debye-Ang^2)
       XXX     112.6026    XXY      -5.1575    XYY      24.7531
       YYY     -25.9949    XXZ     -28.5562    XYZ       6.4603
       YYZ     -27.7579    XZZ      37.3431    YZZ      -3.0244
       ZZZ    -109.4719
    Hexadecapole Moments (Debye-Ang^3)
      XXXX    -341.1306   XXXY      17.7685   XXYY     -84.0096
      XYYY      46.4523   YYYY    -195.8446   XXXZ     114.8770
      XXYZ     -32.4269   XYYZ      29.5785   YYYZ     -98.6272
      XXZZ    -133.3528   XYZZ      11.0899   YYZZ    -119.8306
      XZZZ     129.5977   YZZZ     -72.3549   ZZZZ    -481.8815
 -----------------------------------------------------------------
 Calculating analytic gradient of the SCF energy
 Gradient of CDS energy
            1           2           3           4           5           6
    1   0.0004011  -0.0009344   0.0007164  -0.0000427  -0.0000911  -0.0000493
    2  -0.0035190   0.0036632   0.0000946   0.0001354   0.0000630  -0.0004370
    3   0.0004440  -0.0023083   0.0013482   0.0003425   0.0000812   0.0000925
 Gradient of SCF Energy
            1           2           3           4           5           6
    1   0.0521491  -0.0194092  -0.0367786  -0.0407937   0.0431208   0.0017115
    2   0.0807273  -0.0243106  -0.0287750  -0.0766593   0.0736988  -0.0246812
    3   0.0411283  -0.0164465  -0.0388935  -0.0548855   0.0538481   0.0152491
 Max gradient component =       8.073E-02
 RMS gradient           =       4.561E-02
 Computing fast CPCM-SWIG gradient
 Updating gradient with PCM contributions...
 -- total gradient after adding PCM contribution --
---------------------------------------------------
  Atom         X              Y              Z     
---------------------------------------------------
   1       0.050680       0.079935       0.039282
   2      -0.026922      -0.040485      -0.021687
   3      -0.034211      -0.031384      -0.033589
   4      -0.039646      -0.074992      -0.053868
   5       0.041838       0.072067       0.052661
   6       0.008262      -0.005141       0.017202
---------------------------------------------------
 Number of fixed atoms: 0
 Gradient time:  CPU 32.87 s  wall 2.73 s
 ----------------------------------------------------------------
             Standard Nuclear Orientation (Angstroms)
    I     Atom           X                Y                Z
 ----------------------------------------------------------------
    1      C      -1.0823942000    -0.4190636000     0.6307444000
    2      O      -0.8462558000    -1.5007508000     1.4060023000
    3      O      -1.7683271000    -0.5254759000    -0.3736812000
    4      O      -1.7526764000     0.9278718000     2.0150610000
    5      O      -1.1400813000     1.8577424000     2.6731800000
    6      H      -1.2108333000    -2.3695139000     1.1847921000
 ----------------------------------------------------------------
 Nuclear Repulsion Energy =         154.39651821 hartrees
 There are       20 alpha and       19 beta electrons
 Discretize the solute cavity surface with Lebedev spheres
	Using 110 Lebedev grid points for each H atom
	Using 194 Lebedev grid points for other atoms
	Atomic van der Waals radii will be scaled by 1.20
 Remove points where switching function is < 1.0e-08
 Keep 691 surface tesserae and discard 389 interior tesserae
 Molecular Surface Area = 88.990 Angst**2

                       Distance Matrix (Angstroms)
             C (  1)   O (  2)   O (  3)   O (  4)   O (  5)
   O (  2)  1.351604
   O (  3)  1.220942  2.229047
   O (  4)  2.044467  2.662848  2.796168
   O (  5)  3.059202  3.601604  3.918901  1.293465
   H (  6)  2.031680  0.967781  2.477925  3.443210  4.482187
 
 Requested basis set is 6-311++G(2df,2p)
 There are 46 shells and 180 basis functions
 A cutoff of  1.0D-11 yielded    972 shell pairs
 There are     15227 function pairs (     19745 Cartesian)
 Smallest overlap matrix eigenvalue = 5.25E-04
 Guess MOs from SCF MO coefficient file

 -----------------------------------------------------------------------
  General SCF calculation program by
  Eric Jon Sundstrom, Paul Horn, Yuezhi Mao, Dmitri Zuev, Alec White,
  David Stuck, Shaama M.S., Shane Yost, Joonho Lee, David Small,
  Daniel Levine, Susi Lehtola, Hugh Burton, Evgeny Epifanovsky,
  Bang C. Huynh
 -----------------------------------------------------------------------
 Exchange:     0.1500 Hartree-Fock + 1.0000 wB97M-V + LR-HF
 Correlation:  1.0000 wB97M-V
 Using SG-2 standard quadrature grid
 Nonlocal Correlation:  VV10 with C = 0.0100 and b = 6.00 and scale = 1.00000
 Grid used for NLC:  SG-1 standard quadrature
 
 Citation of the SMD model:
 Marenich, A.V.; Cramer, C.J.; Truhlar, D.G.
 J. Phys. Chem. B 2009, 113, 6378-6396.
 iSolventCode=           1
 Solvent: water                                                           
 
 vradii
            1           2           3           4           5           6
    1   1.8500000   1.5200000   1.5200000   1.5200000   1.5200000   1.2000000
 -------------------------------------------------------
 OpenMP BLAS3 based DFT computing Module                
 Release: version 1.0, May 2013, Q-Chem Inc. Pittsburgh 
 -------------------------------------------------------
 A unrestricted SCF calculation will be
 performed using Roothaan-Hall, DIIS, GDM
 SCF converges when RMS gradient is below 1.0e-06
 ---------------------------------------
  Cycle       Energy         DIIS error
 ---------------------------------------
    1    -339.4111520302      2.76e-04  Roothaan Step
 ---------------------------------------
  Cycle       Energy         DIIS error
 ---------------------------------------
    1    -339.4244466142      3.43e-04  
    2    -339.4251933054      4.17e-04  Done DIIS. Switching to GDM
 ---------------------------------------
  Cycle       Energy        RMS Gradient
 ---------------------------------------
    1    -339.4251933054      1.34e-02   Normal BFGS step
    2    -339.4231455825      2.22e-02  Line search: overstep
    3    -339.4269817811      2.25e-03   Normal BFGS step
    4    -339.4270311404      2.62e-03   Normal BFGS step
    5    -339.4270522092      9.77e-04   Normal BFGS step
    6    -339.4270579903      2.22e-04   Normal BFGS step
    7    -339.4270582675      1.42e-04   Normal BFGS step
    8    -339.4270584146      7.20e-05   Normal BFGS step
    9    -339.4270584543      4.61e-05   Normal BFGS step
   10    -339.4270584640      1.48e-05   Normal BFGS step
   11    -339.4270584661      8.45e-06   Normal BFGS step
   12    -339.4270584666      4.84e-06   Normal BFGS step
   13    -339.4270584667      2.14e-06   Normal BFGS step
   14    -339.4270584668      1.05e-06   Normal BFGS step
   15    -339.4270584668      5.62e-07  Convergence criterion met
 ---------------------------------------
 SCF time:   CPU 230.66s  wall 14.00s 
<S^2> =          1.450769534
(3)  G-ENP(liq) elect-nuc-pol free energy of system     -339.427058467 a.u.
(4)  G-CDS(liq) cavity-dispersion-solvent structure 
     free energy                                                3.9642 kcal/mol
(6)  G-S(liq) free energy of system                     -339.420741176 a.u.
 SCF   energy in the final basis set =     -339.4207411764
 Total energy in the final basis set =     -339.4207411764
 
 --------------------------------------------------------------
 
                    Orbital Energies (a.u.)
 --------------------------------------------------------------
 
 Alpha MOs
 -- Occupied --
-19.5076 -19.4866 -19.3949 -19.3753 -10.5157  -1.3696  -1.2488  -1.1652
 -0.9917  -0.7661  -0.6657  -0.6482  -0.6432  -0.6246  -0.5683  -0.5558
 -0.4629  -0.4566  -0.4336  -0.4208
 -- Virtual --
 -0.0429   0.0459   0.0739   0.0767   0.0845   0.1051   0.1171   0.1478
  0.1947   0.2055   0.2203   0.2227   0.2307   0.2496   0.2602   0.2801
  0.2861   0.3070   0.3104   0.3207   0.3357   0.3533   0.3813   0.3900
  0.4050   0.4624   0.4997   0.5763   0.6428   0.6793   0.7390   0.7992
  0.8038   0.8395   0.9255   0.9720   0.9788   1.0222   1.0561   1.0619
  1.0799   1.1029   1.1251   1.1492   1.1523   1.1776   1.1880   1.2147
  1.2311   1.2937   1.3454   1.3759   1.4097   1.4192   1.4336   1.5014
  1.5371   1.5511   1.5872   1.6282   1.6929   1.7118   1.7507   1.8091
  1.9025   1.9368   2.0511   2.1596   2.1660   2.2265   2.2869   2.3142
  2.3276   2.3559   2.5264   2.6196   2.7554   2.8798   3.0101   3.0478
  3.1572   3.2552   3.2736   3.3972   3.4193   3.4538   3.5785   3.5896
  3.6372   3.7309   3.7633   3.8299   4.0309   4.1425   4.3714   4.4976
  4.5637   4.6658   4.7018   4.7715   4.9515   4.9534   4.9896   5.0255
  5.0654   5.0995   5.1069   5.1136   5.1264   5.1383   5.1435   5.1501
  5.1620   5.1913   5.2000   5.2207   5.2575   5.3073   5.3630   5.4523
  5.4877   5.5675   5.5732   5.6047   5.6451   5.9624   5.9709   6.3286
  6.4592   6.4915   6.5264   6.6505   6.6683   6.7126   6.8128   6.8216
  6.8740   6.8985   6.9546   6.9918   6.9996   7.0444   7.0886   7.1423
  7.2501   7.3066   7.3445   7.3934   7.4079   7.4748   7.6763   7.7071
  7.7429   7.9108   7.9179  24.9187  50.3144  50.3532  50.4975  50.6220
 
 Beta MOs
 -- Occupied --
-19.4810 -19.4591 -19.3972 -19.3814 -10.5264  -1.3171  -1.2584  -1.1758
 -0.9186  -0.7814  -0.6445  -0.6326  -0.5958  -0.5678  -0.5464  -0.5414
 -0.4733  -0.4570  -0.3585
 -- Virtual --
 -0.0543  -0.0449   0.0434   0.0730   0.0770   0.0856   0.0988   0.1187
  0.1535   0.2008   0.2080   0.2194   0.2247   0.2331   0.2570   0.2765
  0.2884   0.2909   0.3089   0.3131   0.3227   0.3391   0.3576   0.3741
  0.3901   0.4060   0.4563   0.4908   0.5731   0.6328   0.6742   0.7296
  0.7928   0.8020   0.8314   0.9209   0.9708   0.9736   1.0294   1.0799
  1.0847   1.0977   1.1067   1.1287   1.1459   1.1658   1.1874   1.1931
  1.2248   1.2491   1.2893   1.3585   1.4039   1.4328   1.4379   1.4517
  1.5015   1.5475   1.5677   1.5912   1.6320   1.7246   1.7355   1.7550
  1.8150   1.9066   1.9306   2.0522   2.1603   2.1870   2.2394   2.2934
  2.3172   2.3310   2.3556   2.5153   2.6363   2.7375   2.8594   2.9726
  3.0303   3.1286   3.2166   3.2534   3.3557   3.3721   3.4172   3.5515
  3.5601   3.6037   3.7007   3.7359   3.8205   4.0048   4.1278   4.3567
  4.5448   4.6051   4.7125   4.7470   4.7957   5.0256   5.0275   5.0679
  5.0969   5.0991   5.1140   5.1142   5.1343   5.1533   5.1726   5.1876
  5.1912   5.1974   5.2019   5.2249   5.2318   5.2901   5.3023   5.3556
  5.4456   5.4832   5.5699   5.6170   5.6394   5.6496   5.9480   5.9613
  6.3175   6.5123   6.5170   6.5428   6.6868   6.7708   6.7881   6.8605
  6.9213   6.9281   6.9312   6.9657   6.9860   7.0028   7.1000   7.1303
  7.1503   7.2516   7.3213   7.3451   7.4234   7.4370   7.4852   7.6655
  7.6944   7.7353   7.9332   7.9603  24.9080  50.3358  50.3737  50.4952
 50.6176
 --------------------------------------------------------------
 
          Ground-State Mulliken Net Atomic Charges

     Atom                 Charge (a.u.)    Spin (a.u.)
  --------------------------------------------------------
      1 C                     0.268426      -0.574454
      2 O                    -0.322602      -0.004612
      3 O                    -0.346128      -0.190916
      4 O                     0.022756       0.881986
      5 O                    -0.002374       0.919459
      6 H                     0.379923      -0.031463
  --------------------------------------------------------
  Sum of atomic charges =    -0.000000
  Sum of spin   charges =     1.000000

 -----------------------------------------------------------------
                    Cartesian Multipole Moments
 -----------------------------------------------------------------
    Charge (ESU x 10^10)
                -0.0000
    Dipole Moment (Debye)
         X       0.3243      Y      -2.4622      Z       0.9683
       Tot       2.6656
    Quadrupole Moments (Debye-Ang)
        XX     -29.0713     XY       3.8846     YY     -20.1392
        XZ      -3.1362     YZ      -3.2441     ZZ     -30.1846
    Octopole Moments (Debye-Ang^2)
       XXX     112.5932    XXY      -5.1337    XYY      24.7410
       YYY     -25.9593    XXZ     -28.5338    XYZ       6.4293
       YYZ     -27.7321    XZZ      37.3062    YZZ      -2.9629
       ZZZ    -109.3978
    Hexadecapole Moments (Debye-Ang^3)
      XXXX    -341.0788   XXXY      17.7357   XXYY     -83.9818
      XYYY      46.4222   YYYY    -195.7813   XXXZ     114.8186
      XXYZ     -32.3733   XYYZ      29.5371   YYYZ     -98.5288
      XXZZ    -133.2822   XYZZ      11.0209   YYZZ    -119.7427
      XZZZ     129.4799   YZZZ     -72.1806   ZZZZ    -481.6563
 -----------------------------------------------------------------
 Calculating analytic gradient of the SCF energy
 Gradient of CDS energy
            1           2           3           4           5           6
    1   0.0003968  -0.0009362   0.0007229  -0.0000421  -0.0000918  -0.0000496
    2  -0.0035451   0.0036876   0.0000966   0.0001346   0.0000634  -0.0004372
    3   0.0004498  -0.0023230   0.0013566   0.0003423   0.0000818   0.0000924
 Gradient of SCF Energy
            1           2           3           4           5           6
    1   0.0526722  -0.0195400  -0.0372253  -0.0408989   0.0432398   0.0017523
    2   0.0813401  -0.0245990  -0.0290013  -0.0768556   0.0738336  -0.0247177
    3   0.0416539  -0.0164736  -0.0393980  -0.0550381   0.0539367   0.0153192
 Max gradient component =       8.134E-02
 RMS gradient           =       4.586E-02
 Computing fast CPCM-SWIG gradient
 Updating gradient with PCM contributions...
 -- total gradient after adding PCM contribution --
---------------------------------------------------
  Atom         X              Y              Z     
---------------------------------------------------
   1       0.051223       0.080549       0.039825
   2      -0.027039      -0.040753      -0.021697
   3      -0.034678      -0.031601      -0.034123
   4      -0.039734      -0.075155      -0.053998
   5       0.041937       0.072170       0.052727
   6       0.008292      -0.005210       0.017266
---------------------------------------------------
 Number of fixed atoms: 0
 Gradient time:  CPU 32.33 s  wall 2.63 s
 ----------------------------------------------------------------
             Standard Nuclear Orientation (Angstroms)
    I     Atom           X                Y                Z
 ----------------------------------------------------------------
    1      C      -1.0823942000    -0.4210636000     0.6307444000
    2      O      -0.8462558000    -1.5007508000     1.4060023000
    3      O      -1.7683271000    -0.5254759000    -0.3736812000
    4      O      -1.7526764000     0.9278718000     2.0150610000
    5      O      -1.1400813000     1.8577424000     2.6731800000
    6      H      -1.2108333000    -2.3695139000     1.1847921000
 ----------------------------------------------------------------
 Nuclear Repulsion Energy =         154.41116906 hartrees
 There are       20 alpha and       19 beta electrons
 Discretize the solute cavity surface with Lebedev spheres
	Using 110 Lebedev grid points for each H atom
	Using 194 Lebedev grid points for other atoms
	Atomic van der Waals radii will be scaled by 1.20
 Remove points where switching function is < 1.0e-08
 Keep 692 surface tesserae and discard 388 interior tesserae
 Molecular Surface Area = 88.985 Angst**2

                       Distance Matrix (Angstroms)
             C (  1)   O (  2)   O (  3)   O (  4)   O (  5)
   O (  2)  1.350004
   O (  3)  1.220769  2.229047
   O (  4)  2.045785  2.662848  2.796168
   O (  5)  3.060691  3.601604  3.918901  1.293465
   H (  6)  2.029760  0.967781  2.477925  3.443210  4.482187
 
 Requested basis set is 6-311++G(2df,2p)
 There are 46 shells and 180 basis functions
 A cutoff of  1.0D-11 yielded    972 shell pairs
 There are     15227 function pairs (     19745 Cartesian)
 Smallest overlap matrix eigenvalue = 5.25E-04
 Guess MOs from SCF MO coefficient file

 -----------------------------------------------------------------------
  General SCF calculation program by
  Eric Jon Sundstrom, Paul Horn, Yuezhi Mao, Dmitri Zuev, Alec White,
  David Stuck, Shaama M.S., Shane Yost, Joonho Lee, David Small,
  Daniel Levine, Susi Lehtola, Hugh Burton, Evgeny Epifanovsky,
  Bang C. Huynh
 -----------------------------------------------------------------------
 Exchange:     0.1500 Hartree-Fock + 1.0000 wB97M-V + LR-HF
 Correlation:  1.0000 wB97M-V
 Using SG-2 standard quadrature grid
 Nonlocal Correlation:  VV10 with C = 0.0100 and b = 6.00 and scale = 1.00000
 Grid used for NLC:  SG-1 standard quadrature
 
 Citation of the SMD model:
 Marenich, A.V.; Cramer, C.J.; Truhlar, D.G.
 J. Phys. Chem. B 2009, 113, 6378-6396.
 iSolventCode=           1
 Solvent: water                                                           
 
 vradii
            1           2           3           4           5           6
    1   1.8500000   1.5200000   1.5200000   1.5200000   1.5200000   1.2000000
 -------------------------------------------------------
 OpenMP BLAS3 based DFT computing Module                
 Release: version 1.0, May 2013, Q-Chem Inc. Pittsburgh 
 -------------------------------------------------------
 A unrestricted SCF calculation will be
 performed using Roothaan-Hall, DIIS, GDM
 SCF converges when RMS gradient is below 1.0e-06
 ---------------------------------------
  Cycle       Energy         DIIS error
 ---------------------------------------
    1    -339.4114554261      2.76e-04  Roothaan Step
 ---------------------------------------
  Cycle       Energy         DIIS error
 ---------------------------------------
    1    -339.4247560473      3.43e-04  
    2    -339.4255152340      4.17e-04  Done DIIS. Switching to GDM
 ---------------------------------------
  Cycle       Energy        RMS Gradient
 ---------------------------------------
    1    -339.4255152340      1.33e-02   Normal BFGS step
    2    -339.4234966479      2.24e-02  Line search: overstep
    3    -339.4272964253      2.26e-03   Normal BFGS step
    4    -339.4273468153      2.62e-03   Normal BFGS step
    5    -339.4273674938      1.03e-03   Normal BFGS step
    6    -339.4273736379      2.60e-04   Normal BFGS step
    7    -339.4273739446      1.50e-04   Normal BFGS step
    8    -339.4273741109      7.49e-05   Normal BFGS step
    9    -339.4273741588      5.36e-05   Normal BFGS step
   10    -339.4273741686      1.54e-05   Normal BFGS step
   11    -339.4273741711      9.06e-06   Normal BFGS step
   12    -339.4273741718      5.79e-06   Normal BFGS step
   13    -339.4273741720      3.49e-06   Normal BFGS step
   14    -339.4273741721      1.57e-06   Normal BFGS step
   15    -339.4273741721      6.32e-07  Convergence criterion met
 ---------------------------------------
 SCF time:   CPU 232.48s  wall 15.00s 
<S^2> =          1.451290810
(3)  G-ENP(liq) elect-nuc-pol free energy of system     -339.427374172 a.u.
(4)  G-CDS(liq) cavity-dispersion-solvent structure 
     free energy                                                3.9725 kcal/mol
(6)  G-S(liq) free energy of system                     -339.421043600 a.u.
 SCF   energy in the final basis set =     -339.4210436001
 Total energy in the final basis set =     -339.4210436001
 
 --------------------------------------------------------------
 
                    Orbital Energies (a.u.)
 --------------------------------------------------------------
 
 Alpha MOs
 -- Occupied --
-19.5074 -19.4865 -19.3952 -19.3752 -10.5155  -1.3694  -1.2492  -1.1655
 -0.9915  -0.7665  -0.6656  -0.6481  -0.6431  -0.6247  -0.5686  -0.5561
 -0.4629  -0.4566  -0.4335  -0.4208
 -- Virtual --
 -0.0426   0.0460   0.0739   0.0767   0.0844   0.1052   0.1171   0.1478
  0.1947   0.2055   0.2204   0.2227   0.2307   0.2497   0.2603   0.2801
  0.2861   0.3070   0.3104   0.3208   0.3356   0.3533   0.3816   0.3901
  0.4050   0.4629   0.5000   0.5762   0.6428   0.6794   0.7391   0.7989
  0.8040   0.8393   0.9254   0.9721   0.9786   1.0223   1.0561   1.0619
  1.0801   1.1028   1.1250   1.1491   1.1525   1.1777   1.1880   1.2145
  1.2312   1.2945   1.3455   1.3759   1.4097   1.4192   1.4334   1.5018
  1.5371   1.5510   1.5871   1.6283   1.6931   1.7118   1.7508   1.8091
  1.9027   1.9367   2.0517   2.1599   2.1662   2.2269   2.2868   2.3146
  2.3291   2.3562   2.5264   2.6197   2.7561   2.8799   3.0101   3.0483
  3.1564   3.2545   3.2739   3.3976   3.4196   3.4538   3.5784   3.5894
  3.6375   3.7332   3.7634   3.8301   4.0308   4.1432   4.3723   4.4977
  4.5636   4.6658   4.7016   4.7716   4.9516   4.9534   4.9897   5.0255
  5.0654   5.0996   5.1069   5.1137   5.1264   5.1383   5.1437   5.1504
  5.1621   5.1915   5.2000   5.2208   5.2576   5.3069   5.3642   5.4527
  5.4890   5.5676   5.5737   5.6049   5.6452   5.9641   5.9742   6.3304
  6.4593   6.4916   6.5303   6.6506   6.6683   6.7169   6.8128   6.8216
  6.8740   6.8984   6.9554   6.9919   7.0000   7.0444   7.0884   7.1422
  7.2502   7.3067   7.3466   7.3938   7.4079   7.4755   7.6758   7.7078
  7.7431   7.9109   7.9179  24.9224  50.3145  50.3532  50.4981  50.6227
 
 Beta MOs
 -- Occupied --
-19.4808 -19.4590 -19.3974 -19.3813 -10.5262  -1.3170  -1.2587  -1.1762
 -0.9184  -0.7817  -0.6444  -0.6326  -0.5959  -0.5679  -0.5463  -0.5413
 -0.4734  -0.4571  -0.3581
 -- Virtual --
 -0.0542  -0.0448   0.0434   0.0730   0.0771   0.0856   0.0989   0.1187
  0.1535   0.2008   0.2080   0.2195   0.2247   0.2331   0.2570   0.2766
  0.2884   0.2909   0.3089   0.3131   0.3228   0.3391   0.3576   0.3746
  0.3902   0.4060   0.4567   0.4910   0.5730   0.6328   0.6744   0.7296
  0.7924   0.8023   0.8313   0.9207   0.9711   0.9735   1.0295   1.0801
  1.0847   1.0977   1.1068   1.1287   1.1460   1.1657   1.1875   1.1930
  1.2248   1.2493   1.2900   1.3585   1.4039   1.4329   1.4379   1.4516
  1.5020   1.5474   1.5677   1.5911   1.6322   1.7248   1.7356   1.7552
  1.8149   1.9068   1.9306   2.0528   2.1608   2.1871   2.2398   2.2932
  2.3186   2.3315   2.3558   2.5153   2.6365   2.7382   2.8594   2.9724
  3.0308   3.1277   3.2157   3.2537   3.3560   3.3723   3.4174   3.5513
  3.5601   3.6040   3.7028   3.7363   3.8206   4.0049   4.1284   4.3575
  4.5449   4.6050   4.7125   4.7468   4.7958   5.0257   5.0276   5.0679
  5.0969   5.0992   5.1140   5.1143   5.1345   5.1537   5.1727   5.1877
  5.1913   5.1974   5.2019   5.2250   5.2319   5.2900   5.3022   5.3568
  5.4460   5.4845   5.5706   5.6171   5.6394   5.6497   5.9491   5.9651
  6.3193   6.5157   6.5174   6.5432   6.6911   6.7708   6.7881   6.8606
  6.9215   6.9282   6.9319   6.9658   6.9864   7.0030   7.1001   7.1302
  7.1503   7.2518   7.3222   7.3464   7.4237   7.4378   7.4852   7.6652
  7.6950   7.7356   7.9331   7.9604  24.9117  50.3359  50.3737  50.4957
 50.6182
 --------------------------------------------------------------
 
          Ground-State Mulliken Net Atomic Charges

     Atom                 Charge (a.u.)    Spin (a.u.)
  --------------------------------------------------------
      1 C                     0.268311      -0.575201
      2 O                    -0.320967      -0.004203
      3 O                    -0.346755      -0.190795
      4 O                     0.022205       0.882606
      5 O                    -0.002741       0.919214
      6 H                     0.379948      -0.031622
  --------------------------------------------------------
  Sum of atomic charges =    -0.000000
  Sum of spin   charges =     1.000000

 -----------------------------------------------------------------
                    Cartesian Multipole Moments
 -----------------------------------------------------------------
    Charge (ESU x 10^10)
                 0.0000
    Dipole Moment (Debye)
         X       0.3286      Y      -2.4815      Z       0.9699
       Tot       2.6845
    Quadrupole Moments (Debye-Ang)
        XX     -29.0798     XY       3.9017     YY     -20.1267
        XZ      -3.1343     YZ      -3.2770     ZZ     -30.1891
    Octopole Moments (Debye-Ang^2)
       XXX     112.6148    XXY      -5.1494    XYY      24.7379
       YYY     -25.9973    XXZ     -28.5377    XYZ       6.4646
       YYZ     -27.7268    XZZ      37.3203    YZZ      -3.0213
       ZZZ    -109.4186
    Hexadecapole Moments (Debye-Ang^3)
      XXXX    -341.1359   XXXY      17.7421   XXYY     -83.9905
      XYYY      46.4521   YYYY    -195.7960   XXXZ     114.8322
      XXYZ     -32.4284   XYYZ      29.5422   YYYZ     -98.6348
      XXZZ    -133.3100   XYZZ      11.0818   YYZZ    -119.7740
      XZZZ     129.5230   YZZZ     -72.3419   ZZZZ    -481.7538
 -----------------------------------------------------------------
 Calculating analytic gradient of the SCF energy
 Gradient of CDS energy
            1           2           3           4           5           6
    1   0.0003870  -0.0009233   0.0007209  -0.0000438  -0.0000910  -0.0000499
    2  -0.0034833   0.0036258   0.0000949   0.0001359   0.0000630  -0.0004364
    3   0.0004149  -0.0022841   0.0013549   0.0003413   0.0000811   0.0000920
 Gradient of SCF Energy
            1           2           3           4           5           6
    1   0.0525160  -0.0194729  -0.0370703  -0.0408825   0.0432090   0.0017006
    2   0.0802694  -0.0239521  -0.0286297  -0.0767921   0.0737679  -0.0246633
    3   0.0416224  -0.0165300  -0.0392019  -0.0549808   0.0538794   0.0152110
 Max gradient component =       8.027E-02
 RMS gradient           =       4.567E-02
 Computing fast CPCM-SWIG gradient
 Updating gradient with PCM contributions...
 -- total gradient after adding PCM contribution --
---------------------------------------------------
  Atom         X              Y              Z     
---------------------------------------------------
   1       0.051057       0.079485       0.039801
   2      -0.026984      -0.040146      -0.021773
   3      -0.034513      -0.031258      -0.033910
   4      -0.039734      -0.075121      -0.053961
   5       0.041924       0.072135       0.052689
   6       0.008250      -0.005095       0.017153
---------------------------------------------------
 Number of fixed atoms: 0
 Gradient time:  CPU 33.05 s  wall 2.85 s
 ----------------------------------------------------------------
             Standard Nuclear Orientation (Angstroms)
    I     Atom           X                Y                Z
 ----------------------------------------------------------------
    1      C      -1.0823942000    -0.4200636000     0.6317444000
    2      O      -0.8462558000    -1.5007508000     1.4060023000
    3      O      -1.7683271000    -0.5254759000    -0.3736812000
    4      O      -1.7526764000     0.9278718000     2.0150610000
    5      O      -1.1400813000     1.8577424000     2.6731800000
    6      H      -1.2108333000    -2.3695139000     1.1847921000
 ----------------------------------------------------------------
 Nuclear Repulsion Energy =         154.40395252 hartrees
 There are       20 alpha and       19 beta electrons
 Discretize the solute cavity surface with Lebedev spheres
	Using 110 Lebedev grid points for each H atom
	Using 194 Lebedev grid points for other atoms
	Atomic van der Waals radii will be scaled by 1.20
 Remove points where switching function is < 1.0e-08
 Keep 692 surface tesserae and discard 388 interior tesserae
 Molecular Surface Area = 88.980 Angst**2

                       Distance Matrix (Angstroms)
             C (  1)   O (  2)   O (  3)   O (  4)   O (  5)
   O (  2)  1.350230
   O (  3)  1.221678  2.229047
   O (  4)  2.044449  2.662848  2.796168
   O (  5)  3.059279  3.601604  3.918901  1.293465
   H (  6)  2.030447  0.967781  2.477925  3.443210  4.482187
 
 Requested basis set is 6-311++G(2df,2p)
 There are 46 shells and 180 basis functions
 A cutoff of  1.0D-11 yielded    972 shell pairs
 There are     15227 function pairs (     19745 Cartesian)
 Smallest overlap matrix eigenvalue = 5.25E-04
 Guess MOs from SCF MO coefficient file

 -----------------------------------------------------------------------
  General SCF calculation program by
  Eric Jon Sundstrom, Paul Horn, Yuezhi Mao, Dmitri Zuev, Alec White,
  David Stuck, Shaama M.S., Shane Yost, Joonho Lee, David Small,
  Daniel Levine, Susi Lehtola, Hugh Burton, Evgeny Epifanovsky,
  Bang C. Huynh
 -----------------------------------------------------------------------
 Exchange:     0.1500 Hartree-Fock + 1.0000 wB97M-V + LR-HF
 Correlation:  1.0000 wB97M-V
 Using SG-2 standard quadrature grid
 Nonlocal Correlation:  VV10 with C = 0.0100 and b = 6.00 and scale = 1.00000
 Grid used for NLC:  SG-1 standard quadrature
 
 Citation of the SMD model:
 Marenich, A.V.; Cramer, C.J.; Truhlar, D.G.
 J. Phys. Chem. B 2009, 113, 6378-6396.
 iSolventCode=           1
 Solvent: water                                                           
 
 vradii
            1           2           3           4           5           6
    1   1.8500000   1.5200000   1.5200000   1.5200000   1.5200000   1.2000000
 -------------------------------------------------------
 OpenMP BLAS3 based DFT computing Module                
 Release: version 1.0, May 2013, Q-Chem Inc. Pittsburgh 
 -------------------------------------------------------
 A unrestricted SCF calculation will be
 performed using Roothaan-Hall, DIIS, GDM
 SCF converges when RMS gradient is below 1.0e-06
 ---------------------------------------
  Cycle       Energy         DIIS error
 ---------------------------------------
    1    -339.4111921055      2.76e-04  Roothaan Step
 ---------------------------------------
  Cycle       Energy         DIIS error
 ---------------------------------------
    1    -339.4245050854      3.45e-04  
    2    -339.4252452656      4.21e-04  Done DIIS. Switching to GDM
 ---------------------------------------
  Cycle       Energy        RMS Gradient
 ---------------------------------------
    1    -339.4252452656      1.35e-02   Normal BFGS step
    2    -339.4231620202      2.25e-02  Line search: overstep
    3    -339.4270636331      2.23e-03   Normal BFGS step
    4    -339.4271137061      2.66e-03   Normal BFGS step
    5    -339.4271351033      9.67e-04   Normal BFGS step
    6    -339.4271410213      3.07e-04   Normal BFGS step
    7    -339.4271413335      1.57e-04   Normal BFGS step
    8    -339.4271415031      7.88e-05   Normal BFGS step
    9    -339.4271415564      6.98e-05   Normal BFGS step
   10    -339.4271415689      1.64e-05   Normal BFGS step
   11    -339.4271415724      1.17e-05   Normal BFGS step
   12    -339.4271415734      7.02e-06   Normal BFGS step
   13    -339.4271415738      3.78e-06   Normal BFGS step
   14    -339.4271415739      2.32e-06   Normal BFGS step
   15    -339.4271415740      8.75e-07  Convergence criterion met
 ---------------------------------------
 SCF time:   CPU 236.38s  wall 15.00s 
<S^2> =          1.450087108
(3)  G-ENP(liq) elect-nuc-pol free energy of system     -339.427141574 a.u.
(4)  G-CDS(liq) cavity-dispersion-solvent structure 
     free energy                                                3.9688 kcal/mol
(6)  G-S(liq) free energy of system                     -339.420816823 a.u.
 SCF   energy in the final basis set =     -339.4208168228
 Total energy in the final basis set =     -339.4208168228
 
 --------------------------------------------------------------
 
                    Orbital Energies (a.u.)
 --------------------------------------------------------------
 
 Alpha MOs
 -- Occupied --
-19.5075 -19.4865 -19.3952 -19.3751 -10.5157  -1.3695  -1.2489  -1.1651
 -0.9916  -0.7666  -0.6657  -0.6482  -0.6432  -0.6246  -0.5684  -0.5559
 -0.4628  -0.4565  -0.4336  -0.4207
 -- Virtual --
 -0.0428   0.0459   0.0739   0.0767   0.0845   0.1050   0.1171   0.1478
  0.1947   0.2055   0.2203   0.2227   0.2307   0.2497   0.2602   0.2801
  0.2861   0.3070   0.3104   0.3207   0.3356   0.3533   0.3815   0.3901
  0.4050   0.4628   0.4996   0.5762   0.6427   0.6794   0.7386   0.7992
  0.8039   0.8392   0.9256   0.9720   0.9788   1.0223   1.0562   1.0619
  1.0800   1.1029   1.1251   1.1492   1.1525   1.1777   1.1880   1.2146
  1.2311   1.2940   1.3454   1.3759   1.4097   1.4192   1.4334   1.5015
  1.5371   1.5510   1.5871   1.6283   1.6930   1.7117   1.7506   1.8090
  1.9023   1.9367   2.0515   2.1596   2.1660   2.2267   2.2869   2.3145
  2.3287   2.3559   2.5259   2.6196   2.7558   2.8798   3.0101   3.0481
  3.1575   3.2549   3.2738   3.3975   3.4196   3.4540   3.5775   3.5895
  3.6376   3.7327   3.7635   3.8301   4.0294   4.1427   4.3721   4.4977
  4.5638   4.6658   4.7020   4.7715   4.9515   4.9534   4.9897   5.0255
  5.0655   5.0996   5.1069   5.1137   5.1265   5.1384   5.1436   5.1502
  5.1621   5.1913   5.2000   5.2206   5.2574   5.3069   5.3635   5.4521
  5.4884   5.5676   5.5733   5.6046   5.6452   5.9634   5.9728   6.3270
  6.4593   6.4916   6.5277   6.6506   6.6684   6.7131   6.8129   6.8217
  6.8740   6.8985   6.9547   6.9917   6.9992   7.0445   7.0886   7.1422
  7.2502   7.3066   7.3456   7.3937   7.4081   7.4753   7.6764   7.7068
  7.7430   7.9109   7.9179  24.9200  50.3145  50.3533  50.4978  50.6215
 
 Beta MOs
 -- Occupied --
-19.4809 -19.4591 -19.3974 -19.3812 -10.5265  -1.3171  -1.2585  -1.1759
 -0.9185  -0.7818  -0.6445  -0.6325  -0.5958  -0.5678  -0.5463  -0.5413
 -0.4732  -0.4570  -0.3584
 -- Virtual --
 -0.0543  -0.0448   0.0434   0.0730   0.0770   0.0856   0.0987   0.1187
  0.1535   0.2008   0.2080   0.2195   0.2247   0.2330   0.2570   0.2765
  0.2884   0.2909   0.3089   0.3131   0.3228   0.3391   0.3575   0.3745
  0.3902   0.4060   0.4566   0.4906   0.5731   0.6327   0.6744   0.7292
  0.7927   0.8021   0.8312   0.9210   0.9709   0.9736   1.0295   1.0800
  1.0847   1.0977   1.1068   1.1288   1.1460   1.1657   1.1874   1.1931
  1.2248   1.2491   1.2895   1.3584   1.4039   1.4328   1.4379   1.4516
  1.5016   1.5475   1.5676   1.5912   1.6320   1.7246   1.7354   1.7550
  1.8149   1.9064   1.9305   2.0526   2.1605   2.1870   2.2396   2.2933
  2.3181   2.3314   2.3556   2.5148   2.6363   2.7379   2.8594   2.9725
  3.0306   3.1288   3.2163   3.2537   3.3561   3.3723   3.4176   3.5508
  3.5596   3.6042   3.7020   3.7364   3.8206   4.0034   4.1280   4.3574
  4.5448   4.6052   4.7125   4.7471   4.7957   5.0256   5.0276   5.0679
  5.0969   5.0992   5.1140   5.1143   5.1343   5.1535   5.1726   5.1876
  5.1913   5.1974   5.2019   5.2249   5.2318   5.2899   5.3021   5.3561
  5.4454   5.4839   5.5699   5.6170   5.6393   5.6498   5.9485   5.9638
  6.3159   6.5135   6.5170   6.5430   6.6873   6.7708   6.7881   6.8606
  6.9214   6.9281   6.9312   6.9658   6.9858   7.0026   7.1000   7.1302
  7.1505   7.2519   7.3217   7.3458   7.4236   7.4376   7.4854   7.6657
  7.6941   7.7354   7.9332   7.9604  24.9093  50.3359  50.3737  50.4955
 50.6171
 --------------------------------------------------------------
 
          Ground-State Mulliken Net Atomic Charges

     Atom                 Charge (a.u.)    Spin (a.u.)
  --------------------------------------------------------
      1 C                     0.268506      -0.574360
      2 O                    -0.321161      -0.004167
      3 O                    -0.347328      -0.190924
      4 O                     0.022569       0.881859
      5 O                    -0.002651       0.919131
      6 H                     0.380065      -0.031538
  --------------------------------------------------------
  Sum of atomic charges =    -0.000000
  Sum of spin   charges =     1.000000

 -----------------------------------------------------------------
                    Cartesian Multipole Moments
 -----------------------------------------------------------------
    Charge (ESU x 10^10)
                -0.0000
    Dipole Moment (Debye)
         X       0.3303      Y      -2.4765      Z       0.9775
       Tot       2.6828
    Quadrupole Moments (Debye-Ang)
        XX     -29.0859     XY       3.8967     YY     -20.1262
        XZ      -3.1432     YZ      -3.2716     ZZ     -30.1805
    Octopole Moments (Debye-Ang^2)
       XXX     112.6339    XXY      -5.1477    XYY      24.7364
       YYY     -26.0035    XXZ     -28.5290    XYZ       6.4581
       YYZ     -27.7205    XZZ      37.3097    YZZ      -3.0096
       ZZZ    -109.4065
    Hexadecapole Moments (Debye-Ang^3)
      XXXX    -341.1912   XXXY      17.7472   XXYY     -83.9837
      XYYY      46.4587   YYYY    -195.7323   XXXZ     114.8233
      XXYZ     -32.4183   XYYZ      29.5318   YYYZ     -98.6194
      XXZZ    -133.3004   XYZZ      11.0703   YYZZ    -119.7526
      XZZZ     129.5033   YZZZ     -72.2949   ZZZZ    -481.7248
 -----------------------------------------------------------------
 Calculating analytic gradient of the SCF energy
 Gradient of CDS energy
            1           2           3           4           5           6
    1   0.0003803  -0.0009249   0.0007291  -0.0000428  -0.0000917  -0.0000500
    2  -0.0034967   0.0036369   0.0000969   0.0001359   0.0000634  -0.0004364
    3   0.0004045  -0.0022862   0.0013675   0.0003413   0.0000816   0.0000913
 Gradient of SCF Energy
            1           2           3           4           5           6
    1   0.0531099  -0.0195473  -0.0376119  -0.0408582   0.0431820   0.0017256
    2   0.0808251  -0.0242131  -0.0289181  -0.0767507   0.0737714  -0.0247147
    3   0.0425046  -0.0166622  -0.0400603  -0.0549529   0.0538909   0.0152800
 Max gradient component =       8.083E-02
 RMS gradient           =       4.589E-02
 Computing fast CPCM-SWIG gradient
 Updating gradient with PCM contributions...
 -- total gradient after adding PCM contribution --
---------------------------------------------------
  Atom         X              Y              Z     
---------------------------------------------------
   1       0.051666       0.080030       0.040694
   2      -0.027053      -0.040397      -0.021889
   3      -0.035070      -0.031540      -0.034781
   4      -0.039699      -0.075063      -0.053922
[...]
	Using 194 Lebedev grid points for other atoms
	Atomic van der Waals radii will be scaled by 1.20
 Remove points where switching function is < 1.0e-08
 Keep 698 surface tesserae and discard 382 interior tesserae
 Molecular Surface Area = 90.470 Angst**2
 Applying Cartesian multipole field
    Component          Value
    ---------          -----
     (2,0,0)        1.00000E-11
     (0,2,0)        2.00000E-11
     (0,0,2)       -3.00000E-11
 Nucleus-field energy     =    -0.0000000060 hartrees
 Requested basis set is 6-311++G(2df,2p)
 There are 46 shells and 180 basis functions
 A cutoff of  1.0D-12 yielded    981 shell pairs
 There are     15336 function pairs (     19898 Cartesian)
 Smallest overlap matrix eigenvalue = 4.49E-04
 Guess MOs from SCF MO coefficient file

 -----------------------------------------------------------------------
  General SCF calculation program by
  Eric Jon Sundstrom, Paul Horn, Yuezhi Mao, Dmitri Zuev, Alec White,
  David Stuck, Shaama M.S., Shane Yost, Joonho Lee, David Small,
  Daniel Levine, Susi Lehtola, Hugh Burton, Evgeny Epifanovsky,
  Bang C. Huynh
 -----------------------------------------------------------------------
 Exchange:     0.1500 Hartree-Fock + 1.0000 wB97M-V + LR-HF
 Correlation:  1.0000 wB97M-V
 Using SG-2 standard quadrature grid
 Nonlocal Correlation:  VV10 with C = 0.0100 and b = 6.00 and scale = 1.00000
 Grid used for NLC:  SG-1 standard quadrature
 
 Citation of the SMD model:
 Marenich, A.V.; Cramer, C.J.; Truhlar, D.G.
 J. Phys. Chem. B 2009, 113, 6378-6396.
 iSolventCode=           1
 Solvent: water                                                           
 
 vradii
            1           2           3           4           5           6
    1   1.8500000   1.5200000   1.5200000   1.5200000   1.5200000   1.2000000
 -------------------------------------------------------
 OpenMP BLAS3 based DFT computing Module                
 Release: version 1.0, May 2013, Q-Chem Inc. Pittsburgh 
 -------------------------------------------------------
 A unrestricted SCF calculation will be
 performed using Roothaan-Hall, DIIS, GDM
 SCF converges when RMS gradient is below 1.0e-07
 ---------------------------------------
  Cycle       Energy         DIIS error
 ---------------------------------------
    1    -339.4404123750      2.99e-04  Roothaan Step
 ---------------------------------------
  Cycle       Energy         DIIS error
 ---------------------------------------
    1    -339.4544905319      3.59e-04  
    2    -339.4558656258      3.84e-04  Done DIIS. Switching to GDM
 ---------------------------------------
  Cycle       Energy        RMS Gradient
 ---------------------------------------
    1    -339.4558656258      1.55e-02   Normal BFGS step
    2    -339.4548066521      2.52e-02  Line search: overstep
    3    -339.4573632549      3.05e-03   Normal BFGS step
    4    -339.4574334084      1.38e-03   Normal BFGS step
    5    -339.4574416495      1.64e-03   Normal BFGS step
    6    -339.4574463490      4.55e-04   Normal BFGS step
    7    -339.4574468693      1.76e-04   Normal BFGS step
    8    -339.4574470343      1.17e-04   Normal BFGS step
    9    -339.4574470772      8.10e-05   Normal BFGS step
   10    -339.4574470894      2.57e-05   Normal BFGS step
   11    -339.4574470926      7.55e-06   Normal BFGS step
   12    -339.4574470931      4.73e-06   Normal BFGS step
   13    -339.4574470932      2.22e-06   Normal BFGS step
   14    -339.4574470932      6.33e-07   Normal BFGS step
   15    -339.4574470932      2.84e-07   Normal BFGS step
   16    -339.4574470932      1.04e-07   Normal BFGS step
   17    -339.4574470932      4.81e-08  Convergence criterion met
 ---------------------------------------
 SCF time:   CPU 269.10s  wall 17.00s 
<S^2> =          1.576233846
(3)  G-ENP(liq) elect-nuc-pol free energy of system     -339.457447093 a.u.
(4)  G-CDS(liq) cavity-dispersion-solvent structure 
     free energy                                                4.2664 kcal/mol
(6)  G-S(liq) free energy of system                     -339.450648139 a.u.
 SCF   energy in the final basis set =     -339.4506481388
 Total energy in the final basis set =     -339.4506481388
 
 --------------------------------------------------------------
 
                    Orbital Energies (a.u.)
 --------------------------------------------------------------
 
 Alpha MOs
 -- Occupied --
-19.4901 -19.4751 -19.4100 -19.3734 -10.4904  -1.4297  -1.2646  -1.1911
 -0.9550  -0.7575  -0.6706  -0.6696  -0.6584  -0.6337  -0.5835  -0.5823
 -0.4767  -0.4650  -0.4051  -0.3999
 -- Virtual --
 -0.0101   0.0513   0.0739   0.0818   0.0872   0.1133   0.1183   0.1562
  0.1799   0.2027   0.2205   0.2297   0.2345   0.2492   0.2630   0.2791
  0.3014   0.3131   0.3174   0.3236   0.3394   0.3699   0.3861   0.4055
  0.4250   0.4523   0.5498   0.6073   0.6218   0.7027   0.7191   0.7603
  0.7995   0.8354   0.8737   0.9874   1.0052   1.0083   1.0306   1.0481
  1.0770   1.0954   1.1049   1.1212   1.1367   1.1732   1.1776   1.1885
  1.1936   1.3328   1.3473   1.3687   1.4021   1.4091   1.4822   1.5087
  1.5406   1.5937   1.5977   1.6221   1.7154   1.7370   1.7569   1.8209
  1.8800   1.9978   2.0045   2.1372   2.2843   2.3013   2.3430   2.3460
  2.4286   2.4900   2.5554   2.6122   2.7697   2.8296   2.9404   3.0597
  3.0933   3.1830   3.2284   3.2900   3.4130   3.5020   3.5419   3.6151
  3.6309   3.6823   3.7824   3.8866   4.0121   4.1967   4.4024   4.5412
  4.5799   4.5824   4.6014   4.9035   4.9049   4.9166   4.9682   5.0272
  5.0741   5.0998   5.1109   5.1127   5.1283   5.1492   5.1569   5.1766
  5.1796   5.1901   5.2570   5.2692   5.2922   5.3314   5.4509   5.5088
  5.5650   5.5856   5.6196   5.7453   5.7531   6.0402   6.1394   6.5684
  6.6395   6.7065   6.7723   6.8071   6.8105   6.8211   6.8585   6.8771
  6.8957   6.9239   6.9375   6.9727   7.0131   7.0411   7.1130   7.2027
  7.2165   7.3174   7.3571   7.3818   7.4747   7.5154   7.6429   7.7577
  7.8240   8.0956   8.1297  25.0491  50.4091  50.5213  50.5423  50.6955
 
 Beta MOs
 -- Occupied --
-19.4615 -19.4468 -19.4127 -19.3795 -10.5018  -1.3768  -1.2755  -1.2033
 -0.8752  -0.7768  -0.6460  -0.6293  -0.6062  -0.5945  -0.5658  -0.5648
 -0.5004  -0.4682  -0.3251
 -- Virtual --
 -0.0121  -0.0105   0.0445   0.0720   0.0802   0.0894   0.0985   0.1191
  0.1586   0.1823   0.2094   0.2198   0.2332   0.2375   0.2526   0.2661
  0.2843   0.3030   0.3159   0.3196   0.3283   0.3437   0.3688   0.4033
  0.4104   0.4334   0.4501   0.5347   0.6026   0.6201   0.6933   0.7106
  0.7492   0.7843   0.8267   0.8613   0.9841   1.0082   1.0184   1.0378
  1.0805   1.0843   1.0993   1.1020   1.1407   1.1486   1.1730   1.1878
  1.1967   1.2158   1.3323   1.3804   1.3866   1.4185   1.4397   1.5053
  1.5268   1.5457   1.5897   1.5959   1.6400   1.7232   1.7576   1.7871
  1.8200   1.9033   1.9919   1.9987   2.1326   2.2779   2.3239   2.3538
  2.3755   2.4402   2.4752   2.5442   2.6297   2.7550   2.8111   2.8945
  3.0180   3.0682   3.1444   3.1953   3.2283   3.3906   3.4556   3.4919
  3.5822   3.6151   3.6580   3.7695   3.8500   3.9967   4.1817   4.3773
  4.5947   4.6262   4.6305   4.6495   4.9382   4.9808   4.9891   5.0599
  5.0959   5.1014   5.1077   5.1156   5.1479   5.1616   5.1735   5.1849
  5.2155   5.2353   5.2382   5.2495   5.2782   5.2932   5.3759   5.4409
  5.5018   5.5524   5.5811   5.6092   5.8027   5.8100   6.0174   6.1297
  6.5548   6.7565   6.7647   6.8321   6.8565   6.8711   6.8818   6.8890
  6.9181   6.9365   6.9582   6.9989   7.0050   7.0508   7.0901   7.1186
  7.2009   7.2114   7.3153   7.4042   7.4214   7.4602   7.4992   7.6350
  7.7453   7.8103   8.1279   8.1741  25.0383  50.4312  50.5348  50.5486
 50.6904
 --------------------------------------------------------------
 
          Ground-State Mulliken Net Atomic Charges

     Atom                 Charge (a.u.)    Spin (a.u.)
  --------------------------------------------------------
      1 C                     0.212691      -0.673891
      2 O                    -0.239092      -0.000612
      3 O                    -0.339583      -0.181913
      4 O                     0.007628       0.956783
      5 O                    -0.004776       0.939609
      6 H                     0.363131      -0.039976
  --------------------------------------------------------
  Sum of atomic charges =    -0.000000
  Sum of spin   charges =     1.000000

 -----------------------------------------------------------------
                    Cartesian Multipole Moments
 -----------------------------------------------------------------
    Charge (ESU x 10^10)
                -0.0000
    Dipole Moment (Debye)
         X       1.1602      Y      -2.5407      Z       0.9583
       Tot       2.9529
    Quadrupole Moments (Debye-Ang)
        XX     -30.1575     XY       1.2107     YY     -20.1665
        XZ      -2.3357     YZ      -3.9673     ZZ     -31.4770
    Octopole Moments (Debye-Ang^2)
       XXX     120.1420    XXY       0.9655    XYY      34.3106
       YYY     -18.9829    XXZ     -28.5877    XYZ       4.0863
       YYZ     -26.2236    XZZ      42.1532    YZZ      -1.8236
       ZZZ    -113.6625
    Hexadecapole Moments (Debye-Ang^3)
      XXXX    -372.7680   XXXY      -1.1185   XXYY    -100.3199
      XYYY      15.5508   YYYY    -193.7617   XXXZ     108.9242
      XXYZ     -28.6156   XYYZ      34.6552   YYYZ     -94.7746
      XXZZ    -146.8925   XYZZ       0.9008   YYZZ    -121.9400
      XZZZ     130.7415   YZZZ     -77.0659   ZZZZ    -537.9097
 -----------------------------------------------------------------
 Calculating analytic gradient of the SCF energy
 Gradient of CDS energy
            1           2           3           4           5           6
    1   0.0005228  -0.0010968   0.0003376   0.0000827  -0.0000206   0.0001743
    2  -0.0015715   0.0015348   0.0000386   0.0002838   0.0001017  -0.0003875
    3   0.0001390  -0.0016767   0.0009724   0.0004207   0.0000157   0.0001289
 Gradient of SCF Energy
            1           2           3           4           5           6
    1   0.0006800  -0.0020658  -0.0034105  -0.0008091   0.0008173   0.0047882
    2  -0.0002178   0.0178305   0.0028285   0.0006499  -0.0005402  -0.0205510
    3   0.0020179   0.0104078  -0.0069718  -0.0017987   0.0017462  -0.0054013
 Max gradient component =       2.055E-02
 RMS gradient           =       7.402E-03
 Computing fast CPCM-SWIG gradient
 Updating gradient with PCM contributions...
 -- total gradient after adding PCM contribution --
---------------------------------------------------
  Atom         X              Y              Z     
---------------------------------------------------
   1       0.000009      -0.000032       0.000013
   2       0.000018      -0.000042       0.000052
   3       0.000005       0.000005      -0.000095
   4       0.000075       0.000003       0.000115
   5      -0.000063       0.000073      -0.000132
   6      -0.000044      -0.000007       0.000046
---------------------------------------------------
 Number of fixed atoms: 0
 Gradient time:  CPU 33.82 s  wall 2.78 s
 Geometry Optimization Parameters
   NAtoms,    NIC,     NZ,  NCons,   NDum,   NFix, NCnnct, MaxDiis
        6      26       0       0       0       0       0       0

 Cartesian Hessian Update
 Hessian updated using Powell/Murtagh-Sargent update
  Mixing factors:     0.996752 Powell                      0.003248 Murtagh-Sargent


** GEOMETRY OPTIMIZATION IN DELOCALIZED INTERNAL COORDINATES **
   Searching for a Transition State

   Optimization Cycle:  65

                       Coordinates (Angstroms)
     ATOM                X               Y               Z
      1  C        -1.5116893994   -0.5633058112    0.5979297540
      2  O        -0.9394121686   -1.3084118198    1.5044541189
      3  O        -1.8451437686   -0.7730962409   -0.5197593096
      4  O        -1.6000247371    1.4841466712    1.8470778063
      5  O        -1.1368838551    1.3372906152    2.9483576054
      6  H        -0.7674141713   -2.2068134145    1.1580386250
   Point Group: c1    Number of degrees of freedom:    12


   Energy is   -339.450648139

 Hessian updated using Powell/Murtagh-Sargent update
  Mixing factors:     0.999947 Powell                      0.000053 Murtagh-Sargent

 12 Hessian modes will be used to form the next step
  Hessian Eigenvalues:
    -0.070539    0.000350    0.004220    0.033990    0.072648    0.103296
     0.154189    0.254012    0.316197    0.505226    0.517683    0.768978

 Transition state search - taking P-RFO step
 Searching for Lamda that Maximizes Along the Lowest mode
 Value Taken    Lamda =   0.00000011
 Searching for Lamda that Minimizes Along All other modes
 Value Taken    Lamda =  -0.00000020
 Step Taken.  Stepsize is  0.014123

                             Maximum     Tolerance    Cnvgd?
         Gradient           0.000131      0.000300     YES
         Displacement       0.010029      0.001200      NO
         Energy change     -0.000000      0.000001     YES


                       Distance Matrix (Angstroms)
             C (  1)   O (  2)   O (  3)   O (  4)   O (  5)
   O (  2)  1.305554
   O (  3)  1.185088  2.281305
   O (  4)  2.400049  2.890014  3.279809
   O (  5)  3.045859  3.020529  4.121068  1.203696
   H (  6)  1.889123  0.978117  2.456024  3.845933  3.987784
 
 Final energy is   -339.450648138824     


 ******************************
 **  OPTIMIZATION CONVERGED  **
 ******************************

                       Coordinates (Angstroms)
     ATOM                X               Y               Z
      1  C        -1.5116893994   -0.5633058112    0.5979297540
      2  O        -0.9394121686   -1.3084118198    1.5044541189
      3  O        -1.8451437686   -0.7730962409   -0.5197593096
      4  O        -1.6000247371    1.4841466712    1.8470778063
      5  O        -1.1368838551    1.3372906152    2.9483576054
      6  H        -0.7674141713   -2.2068134145    1.1580386250

Z-matrix Print:
$molecule
0 2
O 
O  1 1.203696
C  1 2.400049 2 110.973862
O  3 1.185088 1 129.163051 2 -177.906846 0
O  3 1.305554 1 98.141363 2 -0.722323 0
H  5 0.978117 3 110.816077 1 -177.003401 0
$end

 
 --------------------------------------------------------------
 
                    Orbital Energies (a.u.)
 --------------------------------------------------------------
 
 Alpha MOs
 -- Occupied --
-19.4901 -19.4751 -19.4100 -19.3734 -10.4904  -1.4297  -1.2646  -1.1911
 -0.9550  -0.7575  -0.6706  -0.6696  -0.6584  -0.6337  -0.5835  -0.5823
 -0.4767  -0.4650  -0.4051  -0.3999
 -- Virtual --
 -0.0101   0.0513   0.0739   0.0818   0.0872   0.1133   0.1183   0.1562
  0.1799   0.2027   0.2205   0.2297   0.2345   0.2492   0.2630   0.2791
  0.3014   0.3131   0.3174   0.3236   0.3394   0.3699   0.3861   0.4055
  0.4250   0.4523   0.5498   0.6073   0.6218   0.7027   0.7191   0.7603
  0.7995   0.8354   0.8737   0.9874   1.0052   1.0083   1.0306   1.0481
  1.0770   1.0954   1.1049   1.1212   1.1367   1.1732   1.1776   1.1885
  1.1936   1.3328   1.3473   1.3687   1.4021   1.4091   1.4822   1.5087
  1.5406   1.5937   1.5977   1.6221   1.7154   1.7370   1.7569   1.8209
  1.8800   1.9978   2.0045   2.1372   2.2843   2.3013   2.3430   2.3460
  2.4286   2.4900   2.5554   2.6122   2.7697   2.8296   2.9404   3.0597
  3.0933   3.1830   3.2284   3.2900   3.4130   3.5020   3.5419   3.6151
  3.6309   3.6823   3.7824   3.8866   4.0121   4.1967   4.4024   4.5412
  4.5799   4.5824   4.6014   4.9035   4.9049   4.9166   4.9682   5.0272
  5.0741   5.0998   5.1109   5.1127   5.1283   5.1492   5.1569   5.1766
  5.1796   5.1901   5.2570   5.2692   5.2922   5.3314   5.4509   5.5088
  5.5650   5.5856   5.6196   5.7453   5.7531   6.0402   6.1394   6.5684
  6.6395   6.7065   6.7723   6.8071   6.8105   6.8211   6.8585   6.8771
  6.8957   6.9239   6.9375   6.9727   7.0131   7.0411   7.1130   7.2027
  7.2165   7.3174   7.3571   7.3818   7.4747   7.5154   7.6429   7.7577
  7.8240   8.0956   8.1297  25.0491  50.4091  50.5213  50.5423  50.6955
 
 Beta MOs
 -- Occupied --
-19.4615 -19.4468 -19.4127 -19.3795 -10.5018  -1.3768  -1.2755  -1.2033
 -0.8752  -0.7768  -0.6460  -0.6293  -0.6062  -0.5945  -0.5658  -0.5648
 -0.5004  -0.4682  -0.3251
 -- Virtual --
 -0.0121  -0.0105   0.0445   0.0720   0.0802   0.0894   0.0985   0.1191
  0.1586   0.1823   0.2094   0.2198   0.2332   0.2375   0.2526   0.2661
  0.2843   0.3030   0.3159   0.3196   0.3283   0.3437   0.3688   0.4033
  0.4104   0.4334   0.4501   0.5347   0.6026   0.6201   0.6933   0.7106
  0.7492   0.7843   0.8267   0.8613   0.9841   1.0082   1.0184   1.0378
  1.0805   1.0843   1.0993   1.1020   1.1407   1.1486   1.1730   1.1878
  1.1967   1.2158   1.3323   1.3804   1.3866   1.4185   1.4397   1.5053
  1.5268   1.5457   1.5897   1.5959   1.6400   1.7232   1.7576   1.7871
  1.8200   1.9033   1.9919   1.9987   2.1326   2.2779   2.3239   2.3538
  2.3755   2.4402   2.4752   2.5442   2.6297   2.7550   2.8111   2.8945
  3.0180   3.0682   3.1444   3.1953   3.2283   3.3906   3.4556   3.4919
  3.5822   3.6151   3.6580   3.7695   3.8500   3.9967   4.1817   4.3773
  4.5947   4.6262   4.6305   4.6495   4.9382   4.9808   4.9891   5.0599
  5.0959   5.1014   5.1077   5.1156   5.1479   5.1616   5.1735   5.1849
  5.2155   5.2353   5.2382   5.2495   5.2782   5.2932   5.3759   5.4409
  5.5018   5.5524   5.5811   5.6092   5.8027   5.8100   6.0174   6.1297
  6.5548   6.7565   6.7647   6.8321   6.8565   6.8711   6.8818   6.8890
  6.9181   6.9365   6.9582   6.9989   7.0050   7.0508   7.0901   7.1186
  7.2009   7.2114   7.3153   7.4042   7.4214   7.4602   7.4992   7.6350
  7.7453   7.8103   8.1279   8.1741  25.0383  50.4312  50.5348  50.5486
 50.6904
 --------------------------------------------------------------
 
          Ground-State Mulliken Net Atomic Charges

     Atom                 Charge (a.u.)    Spin (a.u.)
  --------------------------------------------------------
      1 C                     0.212691      -0.673891
      2 O                    -0.239092      -0.000612
      3 O                    -0.339583      -0.181913
      4 O                     0.007628       0.956783
      5 O                    -0.004776       0.939609
      6 H                     0.363131      -0.039976
  --------------------------------------------------------
  Sum of atomic charges =    -0.000000
  Sum of spin   charges =     1.000000

 -----------------------------------------------------------------
                    Cartesian Multipole Moments
 -----------------------------------------------------------------
    Charge (ESU x 10^10)
                -0.0000
    Dipole Moment (Debye)
         X       1.1602      Y      -2.5407      Z       0.9583
       Tot       2.9529
    Quadrupole Moments (Debye-Ang)
        XX     -30.1575     XY       1.2107     YY     -20.1665
        XZ      -2.3357     YZ      -3.9673     ZZ     -31.4770
    Octopole Moments (Debye-Ang^2)
       XXX     120.1420    XXY       0.9655    XYY      34.3106
       YYY     -18.9829    XXZ     -28.5877    XYZ       4.0863
       YYZ     -26.2236    XZZ      42.1532    YZZ      -1.8236
       ZZZ    -113.6625
    Hexadecapole Moments (Debye-Ang^3)
      XXXX    -372.7680   XXXY      -1.1185   XXYY    -100.3199
      XYYY      15.5508   YYYY    -193.7617   XXXZ     108.9242
      XXYZ     -28.6156   XYYZ      34.6552   YYYZ     -94.7746
      XXZZ    -146.8925   XYZZ       0.9008   YYZZ    -121.9400
      XZZZ     130.7415   YZZZ     -77.0659   ZZZZ    -537.9097
 -----------------------------------------------------------------
 Total job time:  1339.15s(wall), 20432.34s(cpu) 
 Tue Jul 25 17:09:41 2023

        *************************************************************
        *                                                           *
        *  Thank you very much for using Q-Chem.  Have a nice day.  *
        *                                                           *
        *************************************************************


