
Running Job 1 of 1 Q_in.in
qchem Q_in.in_24489.0 /scratch/ari.fischer/qChem1854176.hpc-mn1/qchem24489/ 0
/usr/local/qchem-5.4.1/exe/qcprog.exe_s Q_in.in_24489.0 /scratch/ari.fischer/qChem1854176.hpc-mn1/qchem24489/
                  Welcome to Q-Chem
     A Quantum Leap Into The Future Of Chemistry


 Q-Chem 5.4, Q-Chem, Inc., Pleasanton, CA (2021)

 License issued to: Nanyang Technological University (site)

 E. Epifanovsky,  A. T. B. Gilbert,  Xintian Feng,  Joonho Lee,  Yuezhi Mao,  
 N. Mardirossian,  P. Pokhilko,  A. White,  M. Wormit,  M. P. Coons,  
 A. L. Dempwolff,  Zhengting Gan,  D. Hait,  P. R. Horn,  L. D. Jacobson,  
 I. Kaliman,  J. Kussmann,  A. W. Lange,  Ka Un Lao,  D. S. Levine,  Jie Liu,  
 S. C. McKenzie,  A. F. Morrison,  K. Nanda,  F. Plasser,  D. R. Rehn,  
 M. L. Vidal,  Zhi-Qiang You,  Ying Zhu,  B. Alam,  B. Albrecht,  
 A. Aldossary,  E. Alguire,  J. H. Andersen,  D. Barton,  K. Begam,  A. Behn,  
 Y. A. Bernard,  E. J. Berquist,  H. Burton,  A. Carreras,  K. Carter-Fenk,  
 R. Chakraborty,  A. D. Chien,  K. D. Closser,  V. Cofer-Shabica,  
 S. Dasgupta,  Jia Deng,  M. de Wergifosse,  M. Diedenhofen,  Hainam Do,  
 S. Ehlert,  Po-Tung Fang,  S. Fatehi,  Qingguo Feng,  T. Friedhoff,  
 J. Gayvert,  Qinghui Ge,  G. Gidofalvi,  M. Goldey,  J. Gomes,  
 C. Gonzalez-Espinoza,  S. Gulania,  A. Gunina,  M. W. D. Hanson-Heine,  
 P. H. P. Harbach,  A. W. Hauser,  M. F. Herbst,  M. Hernandez Vera,  
 M. Hodecker,  Z. C. Holden,  S. Houck,  Xunkun Huang,  Kerwin Hui,  
 B. C. Huynh,  M. Ivanov,  Hyunjun Ji,  Hanjie Jiang,  B. Kaduk,  S. Kaehler,  
 K. Khistyaev,  Jaehoon Kim,  P. Klunzinger,  Z. Koczor-Benda,  
 Joong Hoon Koh,  D. Kosenkov,  L. Koulias,  T. Kowalczyk,  C. M. Krauter,  
 K. Kue,  A. Kunitsa,  T. Kus,  A. Landau,  K. V. Lawler,  D. Lefrancois,  
 S. Lehtola,  Rain Li,  Yi-Pei Li,  Jiashu Liang,  M. Liebenthal,  
 Hung-Hsuan Lin,  You-Sheng Lin,  Fenglai Liu,  Kuan-Yu Liu,  
 M. Loipersberger,  A. Luenser,  A. Manjanath,  P. Manohar,  E. Mansoor,  
 S. F. Manzer,  Shan-Ping Mao,  A. V. Marenich,  T. Markovich,  S. Mason,  
 S. A. Maurer,  P. F. McLaughlin,  M. F. S. J. Menger,  J.-M. Mewes,  
 S. A. Mewes,  P. Morgante,  J. W. Mullinax,  K. J. Oosterbaan,  G. Paran,  
 Alexander C. Paul,  Suranjan K. Paul,  F. Pavosevic,  Zheng Pei,  S. Prager,  
 E. I. Proynov,  E. Ramos,  B. Rana,  A. E. Rask,  A. Rettig,  R. M. Richard,  
 F. Rob,  E. Rossomme,  T. Scheele,  M. Scheurer,  M. Schneider,  
 N. Sergueev,  S. M. Sharada,  W. Skomorowski,  D. W. Small,  C. J. Stein,  
 Yu-Chuan Su,  E. J. Sundstrom,  Zhen Tao,  J. Thirman,  T. Tsuchimochi,  
 N. M. Tubman,  S. P. Veccham,  O. Vydrov,  J. Wenzel,  J. Witte,  A. Yamada,  
 Kun Yao,  S. Yeganeh,  S. R. Yost,  A. Zech,  Igor Ying Zhang,  Xing Zhang,  
 Yu Zhang,  D. Zuev,  A. Aspuru-Guzik,  A. T. Bell,  N. A. Besley,  
 K. B. Bravaya,  B. R. Brooks,  D. Casanova,  Jeng-Da Chai,  S. Coriani,  
 C. J. Cramer,  A. E. DePrince, III,  R. A. DiStasio Jr.,  A. Dreuw,  
 B. D. Dunietz,  T. R. Furlani,  W. A. Goddard III,  S. Grimme,  
 S. Hammes-Schiffer,  T. Head-Gordon,  W. J. Hehre,  Chao-Ping Hsu,  
 T.-C. Jagau,  Yousung Jung,  A. Klamt,  Jing Kong,  D. S. Lambrecht,  
 WanZhen Liang,  N. J. Mayhall,  C. W. McCurdy,  J. B. Neaton,  
 C. Ochsenfeld,  J. A. Parkhill,  R. Peverati,  V. A. Rassolov,  Yihan Shao,  
 L. V. Slipchenko,  T. Stauch,  R. P. Steele,  J. E. Subotnik,  
 A. J. W. Thom,  A. Tkatchenko,  D. G. Truhlar,  T. Van Voorhis,  
 T. A. Wesolowski,  K. B. Whaley,  H. L. Woodcock III,  P. M. Zimmerman,  
 S. Faraji,  P. M. W. Gill,  M. Head-Gordon,  J. M. Herbert,  A. I. Krylov

 Additional authors for Version 5.4.1: 
 S. Kotaru,  Shaozhi Li,  Xiangyuan Li,  F. Matz,  A. Molle,  Haisheng Ren,  
 Yingli Su,  Hung-Yi Tsai,  C. Utku,  Fang Wang

 Contributors to earlier versions of Q-Chem not listed above: 
 R. D. Adamson,  B. Austin,  R. Baer,  J. Baker,  G. J. O. Beran,  
 K. Brandhorst,  S. T. Brown,  E. F. C. Byrd,  A. K. Chakraborty,  
 G. K. L. Chan,  Chun-Min Chang,  Yunqing Chen,  C.-L. Cheng,  
 Siu Hung Chien,  D. M. Chipman,  D. L. Crittenden,  H. Dachsel,  
 R. J. Doerksen,  A. D. Dutoi,  R. G. Edgar,  J. Fosso-Tande,  
 L. Fusti-Molnar,  D. Ghosh,  A. Ghysels,  A. Golubeva-Zadorozhnaya,  
 J. Gonthier,  M. S. Gordon,  S. R. Gwaltney,  G. Hawkins,  J. E. Herr,  
 A. Heyden,  S. Hirata,  E. G. Hohenstein,  G. Kedziora,  F. J. Keil,  
 C. Kelley,  Jihan Kim,  R. A. King,  R. Z. Khaliullin,  P. P. Korambath,  
 W. Kurlancheek,  A. Laurent,  A. M. Lee,  M. S. Lee,  S. V. Levchenko,  
 Ching Yeh Lin,  D. Liotard,  E. Livshits,  R. C. Lochan,  I. Lotan,  
 L. A. Martinez-Martinez,  P. E. Maslen,  N. Nair,  D. P. O'Neill,  
 D. Neuhauser,  E. Neuscamman,  C. M. Oana,  R. Olivares-Amaya,  R. Olson,  
 T. M. Perrine,  B. Peters,  P. A. Pieniazek,  A. Prociuk,  Y. M. Rhee,  
 J. Ritchie,  M. A. Rohrdanz,  E. Rosta,  N. J. Russ,  H. F. Schaefer III,  
 M. W. Schmidt,  N. E. Schultz,  S. Sharma,  N. Shenvi,  C. D. Sherrill,  
 A. C. Simmonett,  A. Sodt,  T. Stein,  D. Stuck,  K. S. Thanthiriwatte,  
 V. Vanovschi,  L. Vogt,  Tao Wang,  A. Warshel,  M. A. Watson,  
 C. F. Williams,  Q. Wu,  X. Xu,  Jun Yang,  W. Zhang,  Yan Zhao

 Please cite Q-Chem as follows:
 Y. Shao et al., Mol. Phys. 113, 184-215 (2015)
 DOI: 10.1080/00268976.2014.952696

 Q-Chem 5.4.1 for Intel X86 EM64T Linux

 Parts of Q-Chem use Armadillo 9.800.1 (Horizon Scraper).
 http://arma.sourceforge.net/

 Q-Chem begins on Thu Dec  7 16:04:18 2023  

 Host: 
0

     Scratch files written to /scratch/ari.fischer/qChem1854176.hpc-mn1/qchem24489//
 Aug1521 |scratch|qcdevops|jenkins|workspace|build_RNUM 8249   
 Processing $rem in /usr/local/qchem-5.4.1/config/preferences:
 Processing $rem in /home/ari.fischer/.qchemrc:
 Symmetry turned off for PCM/SM12/SMD calculation

 Checking the input file for inconsistencies... 	...done.

--------------------------------------------------------------
User input:
--------------------------------------------------------------
$molecule
-1 2
O        -0.5898693698    1.4364167686   -0.2011324283
C        -0.0505459724    0.4558973035    0.6364534286
O        -0.9992020981   -0.4709441896    1.0550590018
C         1.1382211719   -0.2198854210   -0.0797845773
O         2.1150602176    0.5155082449   -0.3422678855
O         1.0091565412   -1.4439638257   -0.3063138284
H        -1.2923185257    1.8935755434    0.2782478755
H        -0.6832252495   -1.3229325128    0.7021992984
H         0.3900654810    0.9778650496    1.5657085859
O         1.5169367837    1.7843143470    2.2297602170
H         2.0821964203    1.6320557921    1.4474164122
$end

$rem
BASIS = def2-QZVP
JOB_TYPE = SP
METHOD = wB97M-V
SCF_ALGORITHM = DIIS_GDM
MAX_SCF_CYCLES = 400
SCF_CONVERGENCE = 7
THRESH = 12
Solvent_method = SMD
$end
--------------------------------------------------------------
 ----------------------------------------------------------------
             Standard Nuclear Orientation (Angstroms)
    I     Atom           X                Y                Z
 ----------------------------------------------------------------
    1      O      -0.5898693698     1.4364167686    -0.2011324283
    2      C      -0.0505459724     0.4558973035     0.6364534286
    3      O      -0.9992020981    -0.4709441896     1.0550590018
    4      C       1.1382211719    -0.2198854210    -0.0797845773
    5      O       2.1150602176     0.5155082449    -0.3422678855
    6      O       1.0091565412    -1.4439638257    -0.3063138284
    7      H      -1.2923185257     1.8935755434     0.2782478755
    8      H      -0.6832252495    -1.3229325128     0.7021992984
    9      H       0.3900654810     0.9778650496     1.5657085859
   10      O       1.5169367837     1.7843143470     2.2297602170
   11      H       2.0821964203     1.6320557921     1.4474164122
 ----------------------------------------------------------------
 Nuclear Repulsion Energy =         316.74259526 hartrees
 There are       29 alpha and       28 beta electrons
 Requested basis set is def2-QZVP
 There are 159 shells and 519 basis functions

 Total QAlloc Memory Limit 288000 MB
 Mega-Array Size       188 MB
 MEM_STATIC part       192 MB
 
 Citation of the SMD model:
 Marenich, A.V.; Cramer, C.J.; Truhlar, D.G.
 J. Phys. Chem. B 2009, 113, 6378-6396.
 iSolventCode=           1
 Solvent: water                                                           
 
 vradii
            1           2           3           4           5           6
    1   1.5200000   1.8500000   1.5200000   1.8500000   1.5200000   1.5200000
            7           8           9          10          11
    1   1.2000000   1.2000000   1.2000000   1.5200000   1.2000000
 Changing PCM_VDW_RADII to SMD_RADIUS
 Discretize the solute cavity surface with Lebedev spheres
	Using 110 Lebedev grid points for each H atom
	Using 194 Lebedev grid points for other atoms
	Atomic van der Waals radii will be scaled by 1.20
 Remove points where switching function is < 1.0e-08
 Keep 976 surface tesserae and discard 822 interior tesserae
 Molecular Surface Area = 115.136 Angst**2

                       Distance Matrix (Angstroms)
             O (  1)   C (  2)   O (  3)   C (  4)   O (  5)   O (  6)
   C (  2)  1.397798
   O (  3)  2.320258  1.390760
   C (  4)  2.396739  1.543647  2.432998
   O (  5)  2.860880  2.377246  3.553061  1.250566
   O (  6)  3.296140  2.370918  2.614117  1.251536  2.250299
   H (  7)  0.965523  1.933191  2.506054  3.240745  3.727511  4.096055
   H (  8)  2.904950  1.889138  0.974800  2.268453  3.507303  1.973804
   H (  9)  2.071779  1.153301  2.071201  2.168407  2.613380  3.122979
   O ( 10)  3.235569  2.600062  3.577299  3.081272  2.929667  4.136580
   H ( 11)  3.145779  2.567022  3.751209  2.579364  2.109675  3.699849
             H (  7)   H (  8)   H (  9)   O ( 10)
   H (  8)  3.301008
   H (  9)  2.307920  2.681654
   O ( 10)  3.422317  4.102333  1.536608
   H ( 11)  3.580880  4.115199  1.818039  0.977120
 
 A cutoff of  1.0D-12 yielded  10950 shell pairs
 There are    119156 function pairs (    182677 Cartesian)
 Smallest overlap matrix eigenvalue = 6.88E-05

 Scale SEOQF with 1.000000e-01/1.000000e-01/1.000000e-01

 Standard Electronic Orientation quadrupole field applied
 Nucleus-field energy     =     0.0000000021 hartrees
 Guess from superposition of atomic densities
 Warning:  Energy on first SCF cycle will be non-variational
 SAD guess density has 56.000000 electrons

 -----------------------------------------------------------------------
  General SCF calculation program by
  Eric Jon Sundstrom, Paul Horn, Yuezhi Mao, Dmitri Zuev, Alec White,
  David Stuck, Shaama M.S., Shane Yost, Joonho Lee, David Small,
  Daniel Levine, Susi Lehtola, Hugh Burton, Evgeny Epifanovsky,
  Bang C. Huynh
 -----------------------------------------------------------------------
 Exchange:     0.1500 Hartree-Fock + 1.0000 wB97M-V + LR-HF
 Correlation:  1.0000 wB97M-V
 Using SG-2 standard quadrature grid
 Nonlocal Correlation:  VV10 with C = 0.0100 and b = 6.00 and scale = 1.00000
 Grid used for NLC:  SG-1 standard quadrature
 
 Citation of the SMD model:
 Marenich, A.V.; Cramer, C.J.; Truhlar, D.G.
 J. Phys. Chem. B 2009, 113, 6378-6396.
 iSolventCode=           1
 Solvent: water                                                           
 
 vradii
            1           2           3           4           5           6
    1   1.5200000   1.8500000   1.5200000   1.8500000   1.5200000   1.5200000
            7           8           9          10          11
    1   1.2000000   1.2000000   1.2000000   1.5200000   1.2000000
 using 4 threads for integral computing
 -------------------------------------------------------
 OpenMP Integral computing Module                
 Release: version 1.0, May 2013, Q-Chem Inc. Pittsburgh 
 -------------------------------------------------------
 -------------------------------------------------------
 OpenMP BLAS3 based DFT computing Module                
 Release: version 1.0, May 2013, Q-Chem Inc. Pittsburgh 
 -------------------------------------------------------
 A unrestricted SCF calculation will be
 performed using DIIS, GDM
 SCF converges when RMS gradient is below 1.0e-07
 ---------------------------------------
  Cycle       Energy         DIIS error
 ---------------------------------------
    1    -455.6403726469      8.02e-03  
    2    -454.6155217894      1.68e-03  Done DIIS. Switching to GDM
 ---------------------------------------
  Cycle       Energy        RMS Gradient
 ---------------------------------------
    1    -454.6155217894      2.84e-01   Descent step
    2    -454.8671495947      6.06e-02   Normal BFGS step
    3    -454.9142599346      7.09e-02   Normal BFGS step
    4    -454.9200269229      2.03e-02   Normal BFGS step
    5    -454.9244797271      1.88e-02   Normal BFGS step
    6    -454.9261071257      1.20e-02   Normal BFGS step
    7    -454.9266192339      5.50e-03   Normal BFGS step
    8    -454.9267302269      2.10e-03   Normal BFGS step
    9    -454.9267517931      7.58e-04   Normal BFGS step
   10    -454.9267588088      4.27e-04   Normal BFGS step
   11    -454.9267600438      2.52e-04   Normal BFGS step
   12    -454.9267605083      1.24e-04   Normal BFGS step
   13    -454.9267606278      1.11e-04   Normal BFGS step
   14    -454.9267606681      9.71e-05   Normal BFGS step
   15    -454.9267606949      7.35e-05   Normal BFGS step
   16    -454.9267607097      4.10e-05   Normal BFGS step
   17    -454.9267607240      3.66e-05   Normal BFGS step
   18    -454.9267607315      1.62e-05   Normal BFGS step
   19    -454.9267607331      5.94e-06   Normal BFGS step
   20    -454.9267607334      2.49e-06   Normal BFGS step
   21    -454.9267607335      7.73e-07   Normal BFGS step
   22    -454.9267607335      2.59e-07   Normal BFGS step
   23    -454.9267607334      7.02e-08  Convergence criterion met
 ---------------------------------------
 SCF time:   CPU 7151.85s  wall 1799.00s 
<S^2> =          0.756728087
(3)  G-ENP(liq) elect-nuc-pol free energy of system     -454.926760733 a.u.
(4)  G-CDS(liq) cavity-dispersion-solvent structure 
     free energy                                                4.1292 kcal/mol
(6)  G-S(liq) free energy of system                     -454.920180378 a.u.
 SCF   energy in the final basis set =     -454.9201803777
 Total energy in the final basis set =     -454.9201803777
 
 --------------------------------------------------------------
 
                    Orbital Energies (a.u.)
 --------------------------------------------------------------
 
 Alpha MOs
 -- Occupied --
-19.3630 -19.3500 -19.3435 -19.2962 -19.2924 -10.4546 -10.4488  -1.2152
 -1.1721  -1.1429  -1.1165  -1.0902  -0.8166  -0.6897  -0.6494  -0.6214
 -0.5931  -0.5678  -0.5395  -0.5234  -0.5184  -0.4968  -0.4869  -0.4410
 -0.4206  -0.3935  -0.3806  -0.3703  -0.3557
 -- Virtual --
  0.0808   0.1143   0.1248   0.1301   0.1506   0.1746   0.1943   0.2199
  0.2268   0.2442   0.2584   0.2712   0.2887   0.3162   0.3292   0.3343
  0.3407   0.3517   0.3630   0.3795   0.3806   0.4003   0.4179   0.4256
  0.4311   0.4441   0.4587   0.4619   0.4834   0.4922   0.5016   0.5152
  0.5231   0.5509   0.5586   0.5819   0.5962   0.6286   0.6346   0.6648
  0.7122   0.7200   0.7407   0.7706   0.7749   0.7909   0.7993   0.8154
  0.8366   0.8426   0.8708   0.8890   0.8977   0.9125   0.9286   0.9453
  0.9631   0.9920   1.0030   1.0291   1.0413   1.0865   1.1104   1.1210
  1.1230   1.1635   1.1841   1.2118   1.2176   1.2436   1.2840   1.3236
  1.3286   1.3513   1.3736   1.3783   1.3959   1.4141   1.4337   1.4469
  1.4552   1.4583   1.4688   1.4848   1.4920   1.5024   1.5195   1.5314
  1.5408   1.5554   1.5635   1.5898   1.6052   1.6121   1.6532   1.6812
  1.6899   1.7376   1.7525   1.7800   1.7928   1.8115   1.8328   1.8545
  1.8797   1.8991   1.9442   1.9455   1.9780   2.0008   2.0099   2.0516
  2.0754   2.0865   2.1079   2.1202   2.1483   2.1528   2.1778   2.2039
  2.2145   2.2412   2.2540   2.2632   2.2973   2.3162   2.3228   2.3435
  2.3517   2.3869   2.4099   2.4276   2.4428   2.4654   2.4976   2.5236
  2.5333   2.5514   2.5904   2.5951   2.6220   2.6392   2.6484   2.6684
  2.6833   2.7041   2.7308   2.7385   2.7658   2.7734   2.7976   2.8194
  2.8362   2.8482   2.8649   2.9299   2.9404   2.9736   2.9895   3.0240
  3.0730   3.0762   3.1017   3.1346   3.1485   3.1940   3.2343   3.2444
  3.2694   3.2768   3.2958   3.3190   3.3784   3.3798   3.4068   3.4755
  3.4837   3.5401   3.5605   3.5805   3.6153   3.6360   3.6606   3.7202
  3.7492   3.7850   3.8255   3.8551   3.8764   3.9108   3.9280   3.9335
  3.9501   3.9735   3.9872   4.0127   4.0404   4.0554   4.0665   4.1009
  4.1163   4.1533   4.1784   4.2031   4.2184   4.2311   4.2561   4.2770
  4.2922   4.3178   4.3282   4.3424   4.3648   4.3753   4.4036   4.4420
  4.4771   4.4801   4.5069   4.5321   4.5544   4.5757   4.6052   4.6150
  4.6373   4.6528   4.6643   4.6972   4.7212   4.7393   4.7487   4.7882
  4.8012   4.8083   4.8430   4.9157   4.9468   5.0343   5.0621   5.1197
  5.1753   5.1929   5.2189   5.2510   5.2698   5.3018   5.3362   5.3421
  5.3758   5.4122   5.4514   5.5292   5.5467   5.5556   5.6197   5.6551
  5.6691   5.6814   5.7162   5.7274   5.7490   5.8346   5.8534   5.8699
  5.8776   5.9143   5.9392   5.9620   6.0224   6.0456   6.0722   6.0968
  6.1144   6.1466   6.1545   6.2134   6.2632   6.2734   6.3026   6.3300
  6.3706   6.3935   6.4702   6.4839   6.5104   6.5344   6.5712   6.5773
  6.6158   6.6631   6.6806   6.7469   6.7863   6.8039   6.8278   6.8611
  6.9395   6.9517   7.0132   7.0229   7.0583   7.1223   7.1372   7.1805
  7.2075   7.2224   7.2353   7.2771   7.2837   7.3485   7.3776   7.4140
  7.4359   7.4706   7.4794   7.5134   7.5415   7.5636   7.5957   7.6181
  7.6300   7.7454   7.7632   7.8129   7.8255   7.8416   7.8951   7.9037
  7.9324   7.9940   8.0323   8.0817   8.1450   8.1624   8.2107   8.2411
  8.2669   8.3428   8.3848   8.4191   8.4389   8.4789   8.5133   8.5966
  8.6116   8.6276   8.6692   8.6849   8.7111   8.7157   8.7540   8.8363
  8.8519   8.9265   8.9580   8.9890   9.0219   9.0285   9.0466   9.0538
  9.1009   9.1321   9.1406   9.1766   9.1925   9.2264   9.2538   9.3261
  9.3418   9.3560   9.4086   9.4370   9.4772   9.5341   9.5483   9.5631
  9.6381   9.6687   9.7669   9.8338   9.8684   9.9051   9.9997  10.0601
 10.1559  10.1978  10.2084  10.3055  10.3297  10.3655  10.3987  10.4261
 10.4424  10.4540  10.4851  10.5116  10.6569  10.7604  10.8029  10.8667
 10.8916  10.9165  11.0082  11.0358  11.0758  11.1177  11.1793  11.1952
 11.2278  11.2427  11.2695  11.3083  11.3722  11.3846  11.4398  11.4928
 11.5088  11.5196  11.5408  11.5532  11.5968  11.6195  11.7125  11.7652
 11.7862  11.7883  11.8103  11.8687  11.8860  11.8966  11.9474  11.9998
 12.0323  12.0742  12.0882  12.1387  12.1476  12.1932  12.2220  12.2488
 12.2837  12.3367  12.3607  12.4206  12.4637  12.4814  12.5065  12.5492
 12.6222  12.6828  12.7736  12.8005  12.8407  12.8900  13.1575  13.1810
 13.2417  13.2945  13.3174  13.7635  13.8179  13.8587  13.9026  13.9351
 14.0126  14.1484  14.1696  14.2675  14.3189  14.3375  14.4919  14.5335
 14.6292  16.5429  16.6274  16.7163  28.5749  28.8525  48.1865  48.3711
 48.4896  48.6662  48.7912 149.3344 149.6719 255.5531 255.7855 255.9131
256.1046 256.2515
 
 Beta MOs
 -- Occupied --
-19.3490 -19.3429 -19.3423 -19.2960 -19.2923 -10.4505 -10.4488  -1.2125
 -1.1713  -1.1403  -1.0913  -1.0635  -0.8090  -0.6831  -0.6442  -0.6086
 -0.5871  -0.5489  -0.5370  -0.5189  -0.5149  -0.4887  -0.4241  -0.4133
 -0.4096  -0.3795  -0.3715  -0.3642
 -- Virtual --
 -0.0633   0.0822   0.1157   0.1263   0.1315   0.1522   0.1788   0.1951
  0.2207   0.2280   0.2459   0.2602   0.2726   0.2908   0.3232   0.3322
  0.3360   0.3448   0.3559   0.3672   0.3810   0.3825   0.4017   0.4205
  0.4312   0.4329   0.4496   0.4595   0.4638   0.4912   0.4930   0.5044
  0.5168   0.5271   0.5519   0.5591   0.5830   0.5994   0.6300   0.6359
  0.6697   0.7134   0.7224   0.7426   0.7726   0.7766   0.7938   0.8010
  0.8171   0.8378   0.8436   0.8723   0.8901   0.9004   0.9136   0.9297
  0.9469   0.9648   0.9937   1.0042   1.0323   1.0432   1.0872   1.1153
  1.1233   1.1249   1.1647   1.1850   1.2130   1.2198   1.2456   1.2875
  1.3256   1.3366   1.3631   1.3763   1.3859   1.4056   1.4224   1.4388
  1.4488   1.4573   1.4607   1.4731   1.4867   1.4939   1.5095   1.5230
  1.5390   1.5448   1.5594   1.5764   1.5925   1.6077   1.6147   1.6543
  1.6830   1.6925   1.7385   1.7542   1.7815   1.7955   1.8143   1.8362
  1.8590   1.8831   1.9058   1.9457   1.9480   1.9813   2.0023   2.0130
  2.0545   2.0777   2.0891   2.1110   2.1229   2.1502   2.1581   2.1790
  2.2052   2.2158   2.2429   2.2552   2.2640   2.2990   2.3175   2.3241
  2.3453   2.3531   2.3883   2.4114   2.4302   2.4444   2.4686   2.4987
  2.5253   2.5363   2.5534   2.5935   2.5968   2.6242   2.6408   2.6513
  2.6706   2.6853   2.7062   2.7347   2.7395   2.7675   2.7770   2.7982
  2.8219   2.8373   2.8495   2.8671   2.9327   2.9425   2.9766   2.9910
  3.0257   3.0754   3.0789   3.1070   3.1391   3.1505   3.1978   3.2370
  3.2462   3.2738   3.2859   3.3003   3.3214   3.3813   3.3824   3.4115
  3.4821   3.4920   3.5451   3.5644   3.5918   3.6253   3.6434   3.6709
  3.7222   3.7535   3.7964   3.8362   3.8590   3.8833   3.9145   3.9321
  3.9459   3.9573   3.9777   3.9950   4.0174   4.0422   4.0634   4.0767
  4.1037   4.1225   4.1619   4.1828   4.2247   4.2263   4.2335   4.2618
  4.2859   4.2966   4.3240   4.3379   4.3499   4.3685   4.3812   4.4091
  4.4548   4.4836   4.4891   4.5129   4.5414   4.5591   4.5790   4.6084
  4.6348   4.6485   4.6575   4.6683   4.7108   4.7248   4.7457   4.7520
  4.7930   4.8050   4.8117   4.8505   4.9174   4.9523   5.0369   5.0700
  5.1229   5.1796   5.1966   5.2262   5.2598   5.2800   5.3046   5.3402
  5.3519   5.3805   5.4161   5.4575   5.5338   5.5559   5.5665   5.6244
  5.6580   5.6743   5.6897   5.7251   5.7392   5.7510   5.8366   5.8607
  5.8742   5.8781   5.9163   5.9390   5.9632   6.0247   6.0480   6.0726
  6.0995   6.1178   6.1466   6.1576   6.2137   6.2623   6.2714   6.3033
  6.3279   6.3695   6.3969   6.4748   6.4852   6.5125   6.5400   6.5726
  6.5854   6.6223   6.6666   6.6842   6.7492   6.7904   6.8090   6.8285
  6.8644   6.9436   6.9558   7.0194   7.0273   7.0614   7.1249   7.1376
  7.1861   7.2185   7.2354   7.2397   7.2804   7.2864   7.3503   7.3822
  7.4132   7.4301   7.4694   7.4800   7.5120   7.5302   7.5606   7.5931
  7.6132   7.6309   7.7277   7.7630   7.8202   7.8257   7.8382   7.8953
  7.9063   7.9317   7.9776   8.0159   8.0795   8.1426   8.1567   8.2038
  8.2377   8.2747   8.3357   8.3841   8.4080   8.4332   8.4861   8.5108
  8.5933   8.6123   8.6287   8.6666   8.6863   8.7085   8.7232   8.7564
  8.8136   8.8503   8.9331   8.9483   8.9860   9.0222   9.0289   9.0466
  9.0550   9.1022   9.1319   9.1663   9.1927   9.1966   9.2416   9.2645
  9.3269   9.3448   9.3693   9.4221   9.4403   9.4744   9.5352   9.5485
  9.5707   9.6244   9.6718   9.7772   9.8341   9.8691   9.9052  10.0036
 10.0607  10.1662  10.2095  10.2348  10.3103  10.3512  10.3684  10.4006
 10.4299  10.4474  10.4557  10.4881  10.5140  10.6853  10.7649  10.8042
 10.8693  10.9114  10.9204  11.0211  11.0658  11.1081  11.1606  11.1904
 11.2050  11.2462  11.2746  11.3013  11.3134  11.3865  11.4528  11.4921
 11.5016  11.5208  11.5266  11.5536  11.5961  11.6135  11.6327  11.7175
 11.7673  11.7902  11.8080  11.8291  11.8745  11.8897  11.9005  11.9497
 12.0115  12.0371  12.0831  12.0950  12.1444  12.1832  12.1976  12.2276
 12.2878  12.3377  12.3545  12.3667  12.4231  12.4759  12.4916  12.5121
 12.6226  12.6329  12.6930  12.7770  12.8122  12.8460  12.9259  13.1580
 13.1816  13.2455  13.2970  13.3191  13.7646  13.8462  13.9108  13.9368
 13.9575  14.0898  14.1535  14.1718  14.2682  14.3196  14.3379  14.4924
 14.5380  14.6339  16.6032  16.6326  16.7190  28.5750  28.8620  48.2180
 48.3713  48.4901  48.6673  48.7924 149.3344 149.6756 255.5645 255.7856
255.9134 256.1052 256.2524
 --------------------------------------------------------------
 
          Ground-State Mulliken Net Atomic Charges

     Atom                 Charge (a.u.)    Spin (a.u.)
  --------------------------------------------------------
      1 O                    -0.465265       0.028858
      2 C                     0.259626       0.184208
      3 O                    -0.489997       0.031933
      4 C                     0.301495       0.002291
      5 O                    -0.586270       0.002466
      6 O                    -0.584696       0.006359
      7 H                     0.327373      -0.000324
      8 H                     0.315600       0.003740
      9 H                     0.089311      -0.013605
     10 O                    -0.467346       0.774143
     11 H                     0.300170      -0.020068
  --------------------------------------------------------
  Sum of atomic charges =    -1.000000
  Sum of spin   charges =     1.000000

 -----------------------------------------------------------------
                    Cartesian Multipole Moments
 -----------------------------------------------------------------
    Charge (ESU x 10^10)
                -4.8032
    Dipole Moment (Debye)
         X      -7.4406      Y       0.4684      Z      -0.1214
       Tot       7.4563
    Quadrupole Moments (Debye-Ang)
        XX     -56.4651     XY      -2.7454     YY     -50.4570
        XZ       1.1094     YZ      -4.0262     ZZ     -54.1753
    Octopole Moments (Debye-Ang^2)
       XXX    -103.2125    XXY      -6.9542    XYY     -46.5789
       YYY     -39.6169    XXZ     -15.0531    XYZ      -9.3502
       YYZ     -22.3534    XZZ     -36.5085    YZZ     -28.0524
       ZZZ     -85.3003
    Hexadecapole Moments (Debye-Ang^3)
      XXXX    -492.0608   XXXY     -40.0234   XXYY    -127.7995
      XYYY     -43.9239   YYYY    -382.4767   XXXZ      -4.4855
      XXYZ     -23.1075   XYYZ     -22.3638   YYYZ     -99.3168
      XXZZ    -144.5860   XYZZ     -33.6298   YYZZ    -141.3317
      XZZZ     -58.5791   YZZZ    -113.0924   ZZZZ    -370.2299
 -----------------------------------------------------------------
 Total job time:  1801.33s(wall), 7155.56s(cpu) 
 Thu Dec  7 16:34:20 2023

        *************************************************************
        *                                                           *
        *  Thank you very much for using Q-Chem.  Have a nice day.  *
        *                                                           *
        *************************************************************


