
Running Job 1 of 1 Q_in.in
qchem Q_in.in_232400.0 /scratch/ari.fischer/qChem1853784.hpc-mn1/qchem232400/ 0
/usr/local/qchem-5.4.1/exe/qcprog.exe_s Q_in.in_232400.0 /scratch/ari.fischer/qChem1853784.hpc-mn1/qchem232400/
                  Welcome to Q-Chem
     A Quantum Leap Into The Future Of Chemistry


 Q-Chem 5.4, Q-Chem, Inc., Pleasanton, CA (2021)

 License issued to: Nanyang Technological University (site)

 E. Epifanovsky,  A. T. B. Gilbert,  Xintian Feng,  Joonho Lee,  Yuezhi Mao,  
 N. Mardirossian,  P. Pokhilko,  A. White,  M. Wormit,  M. P. Coons,  
 A. L. Dempwolff,  Zhengting Gan,  D. Hait,  P. R. Horn,  L. D. Jacobson,  
 I. Kaliman,  J. Kussmann,  A. W. Lange,  Ka Un Lao,  D. S. Levine,  Jie Liu,  
 S. C. McKenzie,  A. F. Morrison,  K. Nanda,  F. Plasser,  D. R. Rehn,  
 M. L. Vidal,  Zhi-Qiang You,  Ying Zhu,  B. Alam,  B. Albrecht,  
 A. Aldossary,  E. Alguire,  J. H. Andersen,  D. Barton,  K. Begam,  A. Behn,  
 Y. A. Bernard,  E. J. Berquist,  H. Burton,  A. Carreras,  K. Carter-Fenk,  
 R. Chakraborty,  A. D. Chien,  K. D. Closser,  V. Cofer-Shabica,  
 S. Dasgupta,  Jia Deng,  M. de Wergifosse,  M. Diedenhofen,  Hainam Do,  
 S. Ehlert,  Po-Tung Fang,  S. Fatehi,  Qingguo Feng,  T. Friedhoff,  
 J. Gayvert,  Qinghui Ge,  G. Gidofalvi,  M. Goldey,  J. Gomes,  
 C. Gonzalez-Espinoza,  S. Gulania,  A. Gunina,  M. W. D. Hanson-Heine,  
 P. H. P. Harbach,  A. W. Hauser,  M. F. Herbst,  M. Hernandez Vera,  
 M. Hodecker,  Z. C. Holden,  S. Houck,  Xunkun Huang,  Kerwin Hui,  
 B. C. Huynh,  M. Ivanov,  Hyunjun Ji,  Hanjie Jiang,  B. Kaduk,  S. Kaehler,  
 K. Khistyaev,  Jaehoon Kim,  P. Klunzinger,  Z. Koczor-Benda,  
 Joong Hoon Koh,  D. Kosenkov,  L. Koulias,  T. Kowalczyk,  C. M. Krauter,  
 K. Kue,  A. Kunitsa,  T. Kus,  A. Landau,  K. V. Lawler,  D. Lefrancois,  
 S. Lehtola,  Rain Li,  Yi-Pei Li,  Jiashu Liang,  M. Liebenthal,  
 Hung-Hsuan Lin,  You-Sheng Lin,  Fenglai Liu,  Kuan-Yu Liu,  
 M. Loipersberger,  A. Luenser,  A. Manjanath,  P. Manohar,  E. Mansoor,  
 S. F. Manzer,  Shan-Ping Mao,  A. V. Marenich,  T. Markovich,  S. Mason,  
 S. A. Maurer,  P. F. McLaughlin,  M. F. S. J. Menger,  J.-M. Mewes,  
 S. A. Mewes,  P. Morgante,  J. W. Mullinax,  K. J. Oosterbaan,  G. Paran,  
 Alexander C. Paul,  Suranjan K. Paul,  F. Pavosevic,  Zheng Pei,  S. Prager,  
 E. I. Proynov,  E. Ramos,  B. Rana,  A. E. Rask,  A. Rettig,  R. M. Richard,  
 F. Rob,  E. Rossomme,  T. Scheele,  M. Scheurer,  M. Schneider,  
 N. Sergueev,  S. M. Sharada,  W. Skomorowski,  D. W. Small,  C. J. Stein,  
 Yu-Chuan Su,  E. J. Sundstrom,  Zhen Tao,  J. Thirman,  T. Tsuchimochi,  
 N. M. Tubman,  S. P. Veccham,  O. Vydrov,  J. Wenzel,  J. Witte,  A. Yamada,  
 Kun Yao,  S. Yeganeh,  S. R. Yost,  A. Zech,  Igor Ying Zhang,  Xing Zhang,  
 Yu Zhang,  D. Zuev,  A. Aspuru-Guzik,  A. T. Bell,  N. A. Besley,  
 K. B. Bravaya,  B. R. Brooks,  D. Casanova,  Jeng-Da Chai,  S. Coriani,  
 C. J. Cramer,  A. E. DePrince, III,  R. A. DiStasio Jr.,  A. Dreuw,  
 B. D. Dunietz,  T. R. Furlani,  W. A. Goddard III,  S. Grimme,  
 S. Hammes-Schiffer,  T. Head-Gordon,  W. J. Hehre,  Chao-Ping Hsu,  
 T.-C. Jagau,  Yousung Jung,  A. Klamt,  Jing Kong,  D. S. Lambrecht,  
 WanZhen Liang,  N. J. Mayhall,  C. W. McCurdy,  J. B. Neaton,  
 C. Ochsenfeld,  J. A. Parkhill,  R. Peverati,  V. A. Rassolov,  Yihan Shao,  
 L. V. Slipchenko,  T. Stauch,  R. P. Steele,  J. E. Subotnik,  
 A. J. W. Thom,  A. Tkatchenko,  D. G. Truhlar,  T. Van Voorhis,  
 T. A. Wesolowski,  K. B. Whaley,  H. L. Woodcock III,  P. M. Zimmerman,  
 S. Faraji,  P. M. W. Gill,  M. Head-Gordon,  J. M. Herbert,  A. I. Krylov

 Additional authors for Version 5.4.1: 
 S. Kotaru,  Shaozhi Li,  Xiangyuan Li,  F. Matz,  A. Molle,  Haisheng Ren,  
 Yingli Su,  Hung-Yi Tsai,  C. Utku,  Fang Wang

 Contributors to earlier versions of Q-Chem not listed above: 
 R. D. Adamson,  B. Austin,  R. Baer,  J. Baker,  G. J. O. Beran,  
 K. Brandhorst,  S. T. Brown,  E. F. C. Byrd,  A. K. Chakraborty,  
 G. K. L. Chan,  Chun-Min Chang,  Yunqing Chen,  C.-L. Cheng,  
 Siu Hung Chien,  D. M. Chipman,  D. L. Crittenden,  H. Dachsel,  
 R. J. Doerksen,  A. D. Dutoi,  R. G. Edgar,  J. Fosso-Tande,  
 L. Fusti-Molnar,  D. Ghosh,  A. Ghysels,  A. Golubeva-Zadorozhnaya,  
 J. Gonthier,  M. S. Gordon,  S. R. Gwaltney,  G. Hawkins,  J. E. Herr,  
 A. Heyden,  S. Hirata,  E. G. Hohenstein,  G. Kedziora,  F. J. Keil,  
 C. Kelley,  Jihan Kim,  R. A. King,  R. Z. Khaliullin,  P. P. Korambath,  
 W. Kurlancheek,  A. Laurent,  A. M. Lee,  M. S. Lee,  S. V. Levchenko,  
 Ching Yeh Lin,  D. Liotard,  E. Livshits,  R. C. Lochan,  I. Lotan,  
 L. A. Martinez-Martinez,  P. E. Maslen,  N. Nair,  D. P. O'Neill,  
 D. Neuhauser,  E. Neuscamman,  C. M. Oana,  R. Olivares-Amaya,  R. Olson,  
 T. M. Perrine,  B. Peters,  P. A. Pieniazek,  A. Prociuk,  Y. M. Rhee,  
 J. Ritchie,  M. A. Rohrdanz,  E. Rosta,  N. J. Russ,  H. F. Schaefer III,  
 M. W. Schmidt,  N. E. Schultz,  S. Sharma,  N. Shenvi,  C. D. Sherrill,  
 A. C. Simmonett,  A. Sodt,  T. Stein,  D. Stuck,  K. S. Thanthiriwatte,  
 V. Vanovschi,  L. Vogt,  Tao Wang,  A. Warshel,  M. A. Watson,  
 C. F. Williams,  Q. Wu,  X. Xu,  Jun Yang,  W. Zhang,  Yan Zhao

 Please cite Q-Chem as follows:
 Y. Shao et al., Mol. Phys. 113, 184-215 (2015)
 DOI: 10.1080/00268976.2014.952696

 Q-Chem 5.4.1 for Intel X86 EM64T Linux

 Parts of Q-Chem use Armadillo 9.800.1 (Horizon Scraper).
 http://arma.sourceforge.net/

 Q-Chem begins on Wed Dec  6 10:56:29 2023  

 Host: 
0

     Scratch files written to /scratch/ari.fischer/qChem1853784.hpc-mn1/qchem232400//
 Aug1521 |scratch|qcdevops|jenkins|workspace|build_RNUM 8249   
 Processing $rem in /usr/local/qchem-5.4.1/config/preferences:
 Processing $rem in /home/ari.fischer/.qchemrc:
 Symmetry turned off for PCM/SM12/SMD calculation

 Checking the input file for inconsistencies... 	...done.

--------------------------------------------------------------
User input:
--------------------------------------------------------------
$molecule
-1 1
O        -0.7700752962    1.0095248173   -0.0901959350
C        -0.3608196099   -0.2115914739    0.4922317158
O        -1.0496930004   -1.3042071768   -0.0673185286
C         1.1546408297   -0.3521732406    0.2396058149
O         1.8571576590    0.5647537115    0.7328913092
O         1.5662840877   -1.3426908188   -0.4048193267
H        -1.6025330528    1.2738191661    0.3164522571
H        -1.9354580049   -1.3186989432    0.3121775248
H        -0.5354792121   -0.1788818416    1.5697029686
$end

$rem
BASIS = 6-311++G**
JOB_TYPE = SP
METHOD = wB97M-V
SCF_ALGORITHM = DIIS_GDM
MAX_SCF_CYCLES = 400
SCF_CONVERGENCE = 7
THRESH = 12
Solvent_method = SMD
$end
--------------------------------------------------------------
 ----------------------------------------------------------------
             Standard Nuclear Orientation (Angstroms)
    I     Atom           X                Y                Z
 ----------------------------------------------------------------
    1      O      -0.7700752962     1.0095248173    -0.0901959350
    2      C      -0.3608196099    -0.2115914739     0.4922317158
    3      O      -1.0496930004    -1.3042071768    -0.0673185286
    4      C       1.1546408297    -0.3521732406     0.2396058149
    5      O       1.8571576590     0.5647537115     0.7328913092
    6      O       1.5662840877    -1.3426908188    -0.4048193267
    7      H      -1.6025330528     1.2738191661     0.3164522571
    8      H      -1.9354580049    -1.3186989432     0.3121775248
    9      H      -0.5354792121    -0.1788818416     1.5697029686
 ----------------------------------------------------------------
 Nuclear Repulsion Energy =         239.46429984 hartrees
 There are       24 alpha and       24 beta electrons
 Requested basis set is 6-311++G(d,p)
 There are 51 shells and 153 basis functions

 Total QAlloc Memory Limit 288000 MB
 Mega-Array Size       188 MB
 MEM_STATIC part       192 MB
 
 Citation of the SMD model:
 Marenich, A.V.; Cramer, C.J.; Truhlar, D.G.
 J. Phys. Chem. B 2009, 113, 6378-6396.
 iSolventCode=           1
 Solvent: water                                                           
 
 vradii
            1           2           3           4           5           6
    1   1.5200000   1.8500000   1.5200000   1.8500000   1.5200000   1.5200000
            7           8           9
    1   1.2000000   1.2000000   1.2000000
 Changing PCM_VDW_RADII to SMD_RADIUS
 Discretize the solute cavity surface with Lebedev spheres
	Using 110 Lebedev grid points for each H atom
	Using 194 Lebedev grid points for other atoms
	Atomic van der Waals radii will be scaled by 1.20
 Remove points where switching function is < 1.0e-08
 Keep 826 surface tesserae and discard 668 interior tesserae
 Molecular Surface Area = 99.736 Angst**2

                       Distance Matrix (Angstroms)
             O (  1)   C (  2)   O (  3)   C (  4)   O (  5)   O (  6)
   C (  2)  1.413449
   O (  3)  2.330679  1.407641
   C (  4)  2.380656  1.542791  2.420673
   O (  5)  2.788843  2.362213  3.547271  1.256032
   O (  6)  3.330237  2.407865  2.637939  1.251343  2.239941
   H (  7)  0.963431  1.944015  2.664420  3.201838  3.556073  4.172261
   H (  8)  2.634511  1.933285  0.963746  3.238541  4.255388  3.574473
   H (  9)  2.054899  1.092026  2.051978  2.157706  2.641583  3.109759
             H (  7)   H (  8)
   H (  8)  2.613811
   H (  9)  2.195355  2.200112
 
 A cutoff of  1.0D-12 yielded   1266 shell pairs
 There are     11620 function pairs (     12561 Cartesian)
 Smallest overlap matrix eigenvalue = 1.04E-04

 Scale SEOQF with 1.000000e-01/1.000000e-01/1.000000e-01

 Standard Electronic Orientation quadrupole field applied
 Nucleus-field energy     =     0.0000000047 hartrees
 Guess from superposition of atomic densities
 Warning:  Energy on first SCF cycle will be non-variational
 SAD guess density has 47.000000 electrons

 -----------------------------------------------------------------------
  General SCF calculation program by
  Eric Jon Sundstrom, Paul Horn, Yuezhi Mao, Dmitri Zuev, Alec White,
  David Stuck, Shaama M.S., Shane Yost, Joonho Lee, David Small,
  Daniel Levine, Susi Lehtola, Hugh Burton, Evgeny Epifanovsky,
  Bang C. Huynh
 -----------------------------------------------------------------------
 Exchange:     0.1500 Hartree-Fock + 1.0000 wB97M-V + LR-HF
 Correlation:  1.0000 wB97M-V
 Using SG-2 standard quadrature grid
 Nonlocal Correlation:  VV10 with C = 0.0100 and b = 6.00 and scale = 1.00000
 Grid used for NLC:  SG-1 standard quadrature
 
 Citation of the SMD model:
 Marenich, A.V.; Cramer, C.J.; Truhlar, D.G.
 J. Phys. Chem. B 2009, 113, 6378-6396.
 iSolventCode=           1
 Solvent: water                                                           
 
 vradii
            1           2           3           4           5           6
    1   1.5200000   1.8500000   1.5200000   1.8500000   1.5200000   1.5200000
            7           8           9
    1   1.2000000   1.2000000   1.2000000
 using 4 threads for integral computing
 -------------------------------------------------------
 OpenMP Integral computing Module                
 Release: version 1.0, May 2013, Q-Chem Inc. Pittsburgh 
 -------------------------------------------------------
 -------------------------------------------------------
 OpenMP BLAS3 based DFT computing Module                
 Release: version 1.0, May 2013, Q-Chem Inc. Pittsburgh 
 -------------------------------------------------------
 A restricted SCF calculation will be
 performed using DIIS, GDM
 SCF converges when RMS gradient is below 1.0e-07
 ---------------------------------------
  Cycle       Energy         DIIS error
 ---------------------------------------
    1    -379.8543929890      5.01e-02  
    2    -378.8897407031      9.90e-03  Done DIIS. Switching to GDM
 ---------------------------------------
  Cycle       Energy        RMS Gradient
 ---------------------------------------
    1    -378.8897407031      1.23e-01   Descent step
    2    -379.0989516182      1.79e-02   Normal BFGS step
    3    -379.1092237602      5.83e-03   Normal BFGS step
    4    -379.1098794590      2.91e-03   Normal BFGS step
    5    -379.1100942326      5.32e-04   Normal BFGS step
    6    -379.1101072005      3.01e-04   Normal BFGS step
    7    -379.1101098664      7.75e-05   Normal BFGS step
    8    -379.1101099479      6.99e-05   Normal BFGS step
    9    -379.1101099738      2.83e-05   Normal BFGS step
   10    -379.1101099804      3.24e-06   Normal BFGS step
   11    -379.1101099808      1.04e-06   Normal BFGS step
   12    -379.1101099808      4.82e-07   Normal BFGS step
   13    -379.1101099808      2.22e-07   Normal BFGS step
   14    -379.1101099808      6.09e-08  Convergence criterion met
 ---------------------------------------
 SCF time:   CPU 123.35s  wall 31.00s 
(3)  G-ENP(liq) elect-nuc-pol free energy of system     -379.110109981 a.u.
(4)  G-CDS(liq) cavity-dispersion-solvent structure 
     free energy                                                4.1889 kcal/mol
(6)  G-S(liq) free energy of system                     -379.103434606 a.u.
 SCF   energy in the final basis set =     -379.1034346056
 Total energy in the final basis set =     -379.1034346056
 
 --------------------------------------------------------------
 
                    Orbital Energies (a.u.)
 --------------------------------------------------------------
 
 Alpha MOs
 -- Occupied --
-19.3421 -19.3409 -19.2880 -19.2855 -10.4435 -10.4406  -1.2038  -1.1660
 -1.1333  -1.0814  -0.8160  -0.6486  -0.6408  -0.6356  -0.5781  -0.5313
 -0.5116  -0.4990  -0.4901  -0.4145  -0.4097  -0.3713  -0.3618  -0.3583
 -- Virtual --
  0.0294   0.0587   0.0596   0.0736   0.1020   0.1098   0.1130   0.1179
  0.1427   0.1537   0.1549   0.1726   0.2146   0.2345   0.2436   0.2501
  0.2639   0.2857   0.2880   0.2988   0.3113   0.3139   0.3205   0.3369
  0.3482   0.3548   0.3581   0.3639   0.3757   0.3886   0.4112   0.4179
  0.4452   0.4614   0.5536   0.5842   0.5921   0.6471   0.6761   0.6899
  0.7227   0.7390   0.7768   0.8017   0.8360   0.9292   1.0490   1.0585
  1.1175   1.1420   1.1685   1.1906   1.2151   1.2214   1.2524   1.2700
  1.2725   1.2843   1.3240   1.3551   1.4372   1.4894   1.4972   1.5253
  1.5624   1.5976   1.6431   1.6782   1.6967   1.7326   1.7787   1.8206
  1.8496   1.9066   1.9984   2.0534   2.1002   2.1131   2.1794   2.2219
  2.2512   2.5512   2.6211   2.6950   2.7884   2.8595   2.8837   2.9248
  2.9618   2.9920   3.0317   3.0642   3.1112   3.1592   3.2312   3.2831
  3.3290   3.3671   3.3903   3.4172   3.4387   3.5140   3.5619   3.6933
  3.8022   3.8959   4.0012   4.0212   4.1543   4.1913   4.3004   5.1613
  5.1762   5.2164   5.2378   5.2707   5.3508   5.4704   5.5417   5.6789
  5.7480   5.9313   6.0222  24.0892  24.2023  50.4511  50.4953  50.5059
 50.6089
 --------------------------------------------------------------
 
          Ground-State Mulliken Net Atomic Charges

     Atom                 Charge (a.u.)
  ----------------------------------------
      1 O                    -0.383188
      2 C                    -0.227506
      3 O                    -0.389959
      4 C                     0.278593
      5 O                    -0.602103
      6 O                    -0.591509
      7 H                     0.334563
      8 H                     0.327102
      9 H                     0.254007
  ----------------------------------------
  Sum of atomic charges =    -1.000000

 -----------------------------------------------------------------
                    Cartesian Multipole Moments
 -----------------------------------------------------------------
    Charge (ESU x 10^10)
                -4.8032
    Dipole Moment (Debye)
         X     -12.2756      Y       2.2845      Z       2.8067
       Tot      12.7979
    Quadrupole Moments (Debye-Ang)
        XX     -47.4635     XY       1.7250     YY     -47.9611
        XZ      -6.2012     YZ      -4.7364     ZZ     -38.1030
    Octopole Moments (Debye-Ang^2)
       XXX    -101.1401    XXY      12.7600    XYY     -31.2568
       YYY      42.7878    XXZ      -4.8568    XYZ      -6.6523
       YYZ      -0.6765    XZZ     -19.4083    YZZ       8.9012
       ZZZ     -16.4765
    Hexadecapole Moments (Debye-Ang^3)
      XXXX    -432.4682   XXXY      25.7693   XXYY    -110.6962
      XYYY      22.9939   YYYY    -258.6775   XXXZ     -37.1608
      XXYZ     -18.6350   XYYZ      -7.2683   YYYZ     -21.6489
      XXZZ     -87.7610   XYZZ       3.1872   YYZZ     -56.0809
      XZZZ     -20.8899   YZZZ     -18.9454   ZZZZ     -84.3034
 -----------------------------------------------------------------
 Total job time:  32.37s(wall), 125.17s(cpu) 
 Wed Dec  6 10:57:01 2023

        *************************************************************
        *                                                           *
        *  Thank you very much for using Q-Chem.  Have a nice day.  *
        *                                                           *
        *************************************************************


