
Running Job 1 of 1 Q_in.in
qchem Q_in.in_232277.0 /scratch/ari.fischer/qChem1853783.hpc-mn1/qchem232277/ 0
/usr/local/qchem-5.4.1/exe/qcprog.exe_s Q_in.in_232277.0 /scratch/ari.fischer/qChem1853783.hpc-mn1/qchem232277/
                  Welcome to Q-Chem
     A Quantum Leap Into The Future Of Chemistry


 Q-Chem 5.4, Q-Chem, Inc., Pleasanton, CA (2021)

 License issued to: Nanyang Technological University (site)

 E. Epifanovsky,  A. T. B. Gilbert,  Xintian Feng,  Joonho Lee,  Yuezhi Mao,  
 N. Mardirossian,  P. Pokhilko,  A. White,  M. Wormit,  M. P. Coons,  
 A. L. Dempwolff,  Zhengting Gan,  D. Hait,  P. R. Horn,  L. D. Jacobson,  
 I. Kaliman,  J. Kussmann,  A. W. Lange,  Ka Un Lao,  D. S. Levine,  Jie Liu,  
 S. C. McKenzie,  A. F. Morrison,  K. Nanda,  F. Plasser,  D. R. Rehn,  
 M. L. Vidal,  Zhi-Qiang You,  Ying Zhu,  B. Alam,  B. Albrecht,  
 A. Aldossary,  E. Alguire,  J. H. Andersen,  D. Barton,  K. Begam,  A. Behn,  
 Y. A. Bernard,  E. J. Berquist,  H. Burton,  A. Carreras,  K. Carter-Fenk,  
 R. Chakraborty,  A. D. Chien,  K. D. Closser,  V. Cofer-Shabica,  
 S. Dasgupta,  Jia Deng,  M. de Wergifosse,  M. Diedenhofen,  Hainam Do,  
 S. Ehlert,  Po-Tung Fang,  S. Fatehi,  Qingguo Feng,  T. Friedhoff,  
 J. Gayvert,  Qinghui Ge,  G. Gidofalvi,  M. Goldey,  J. Gomes,  
 C. Gonzalez-Espinoza,  S. Gulania,  A. Gunina,  M. W. D. Hanson-Heine,  
 P. H. P. Harbach,  A. W. Hauser,  M. F. Herbst,  M. Hernandez Vera,  
 M. Hodecker,  Z. C. Holden,  S. Houck,  Xunkun Huang,  Kerwin Hui,  
 B. C. Huynh,  M. Ivanov,  Hyunjun Ji,  Hanjie Jiang,  B. Kaduk,  S. Kaehler,  
 K. Khistyaev,  Jaehoon Kim,  P. Klunzinger,  Z. Koczor-Benda,  
 Joong Hoon Koh,  D. Kosenkov,  L. Koulias,  T. Kowalczyk,  C. M. Krauter,  
 K. Kue,  A. Kunitsa,  T. Kus,  A. Landau,  K. V. Lawler,  D. Lefrancois,  
 S. Lehtola,  Rain Li,  Yi-Pei Li,  Jiashu Liang,  M. Liebenthal,  
 Hung-Hsuan Lin,  You-Sheng Lin,  Fenglai Liu,  Kuan-Yu Liu,  
 M. Loipersberger,  A. Luenser,  A. Manjanath,  P. Manohar,  E. Mansoor,  
 S. F. Manzer,  Shan-Ping Mao,  A. V. Marenich,  T. Markovich,  S. Mason,  
 S. A. Maurer,  P. F. McLaughlin,  M. F. S. J. Menger,  J.-M. Mewes,  
 S. A. Mewes,  P. Morgante,  J. W. Mullinax,  K. J. Oosterbaan,  G. Paran,  
 Alexander C. Paul,  Suranjan K. Paul,  F. Pavosevic,  Zheng Pei,  S. Prager,  
 E. I. Proynov,  E. Ramos,  B. Rana,  A. E. Rask,  A. Rettig,  R. M. Richard,  
 F. Rob,  E. Rossomme,  T. Scheele,  M. Scheurer,  M. Schneider,  
 N. Sergueev,  S. M. Sharada,  W. Skomorowski,  D. W. Small,  C. J. Stein,  
 Yu-Chuan Su,  E. J. Sundstrom,  Zhen Tao,  J. Thirman,  T. Tsuchimochi,  
 N. M. Tubman,  S. P. Veccham,  O. Vydrov,  J. Wenzel,  J. Witte,  A. Yamada,  
 Kun Yao,  S. Yeganeh,  S. R. Yost,  A. Zech,  Igor Ying Zhang,  Xing Zhang,  
 Yu Zhang,  D. Zuev,  A. Aspuru-Guzik,  A. T. Bell,  N. A. Besley,  
 K. B. Bravaya,  B. R. Brooks,  D. Casanova,  Jeng-Da Chai,  S. Coriani,  
 C. J. Cramer,  A. E. DePrince, III,  R. A. DiStasio Jr.,  A. Dreuw,  
 B. D. Dunietz,  T. R. Furlani,  W. A. Goddard III,  S. Grimme,  
 S. Hammes-Schiffer,  T. Head-Gordon,  W. J. Hehre,  Chao-Ping Hsu,  
 T.-C. Jagau,  Yousung Jung,  A. Klamt,  Jing Kong,  D. S. Lambrecht,  
 WanZhen Liang,  N. J. Mayhall,  C. W. McCurdy,  J. B. Neaton,  
 C. Ochsenfeld,  J. A. Parkhill,  R. Peverati,  V. A. Rassolov,  Yihan Shao,  
 L. V. Slipchenko,  T. Stauch,  R. P. Steele,  J. E. Subotnik,  
 A. J. W. Thom,  A. Tkatchenko,  D. G. Truhlar,  T. Van Voorhis,  
 T. A. Wesolowski,  K. B. Whaley,  H. L. Woodcock III,  P. M. Zimmerman,  
 S. Faraji,  P. M. W. Gill,  M. Head-Gordon,  J. M. Herbert,  A. I. Krylov

 Additional authors for Version 5.4.1: 
 S. Kotaru,  Shaozhi Li,  Xiangyuan Li,  F. Matz,  A. Molle,  Haisheng Ren,  
 Yingli Su,  Hung-Yi Tsai,  C. Utku,  Fang Wang

 Contributors to earlier versions of Q-Chem not listed above: 
 R. D. Adamson,  B. Austin,  R. Baer,  J. Baker,  G. J. O. Beran,  
 K. Brandhorst,  S. T. Brown,  E. F. C. Byrd,  A. K. Chakraborty,  
 G. K. L. Chan,  Chun-Min Chang,  Yunqing Chen,  C.-L. Cheng,  
 Siu Hung Chien,  D. M. Chipman,  D. L. Crittenden,  H. Dachsel,  
 R. J. Doerksen,  A. D. Dutoi,  R. G. Edgar,  J. Fosso-Tande,  
 L. Fusti-Molnar,  D. Ghosh,  A. Ghysels,  A. Golubeva-Zadorozhnaya,  
 J. Gonthier,  M. S. Gordon,  S. R. Gwaltney,  G. Hawkins,  J. E. Herr,  
 A. Heyden,  S. Hirata,  E. G. Hohenstein,  G. Kedziora,  F. J. Keil,  
 C. Kelley,  Jihan Kim,  R. A. King,  R. Z. Khaliullin,  P. P. Korambath,  
 W. Kurlancheek,  A. Laurent,  A. M. Lee,  M. S. Lee,  S. V. Levchenko,  
 Ching Yeh Lin,  D. Liotard,  E. Livshits,  R. C. Lochan,  I. Lotan,  
 L. A. Martinez-Martinez,  P. E. Maslen,  N. Nair,  D. P. O'Neill,  
 D. Neuhauser,  E. Neuscamman,  C. M. Oana,  R. Olivares-Amaya,  R. Olson,  
 T. M. Perrine,  B. Peters,  P. A. Pieniazek,  A. Prociuk,  Y. M. Rhee,  
 J. Ritchie,  M. A. Rohrdanz,  E. Rosta,  N. J. Russ,  H. F. Schaefer III,  
 M. W. Schmidt,  N. E. Schultz,  S. Sharma,  N. Shenvi,  C. D. Sherrill,  
 A. C. Simmonett,  A. Sodt,  T. Stein,  D. Stuck,  K. S. Thanthiriwatte,  
 V. Vanovschi,  L. Vogt,  Tao Wang,  A. Warshel,  M. A. Watson,  
 C. F. Williams,  Q. Wu,  X. Xu,  Jun Yang,  W. Zhang,  Yan Zhao

 Please cite Q-Chem as follows:
 Y. Shao et al., Mol. Phys. 113, 184-215 (2015)
 DOI: 10.1080/00268976.2014.952696

 Q-Chem 5.4.1 for Intel X86 EM64T Linux

 Parts of Q-Chem use Armadillo 9.800.1 (Horizon Scraper).
 http://arma.sourceforge.net/

 Q-Chem begins on Wed Dec  6 10:56:06 2023  

 Host: 
0

     Scratch files written to /scratch/ari.fischer/qChem1853783.hpc-mn1/qchem232277//
 Aug1521 |scratch|qcdevops|jenkins|workspace|build_RNUM 8249   
 Processing $rem in /usr/local/qchem-5.4.1/config/preferences:
 Processing $rem in /home/ari.fischer/.qchemrc:
 Symmetry turned off for PCM/SM12/SMD calculation

 Checking the input file for inconsistencies... 	...done.

--------------------------------------------------------------
User input:
--------------------------------------------------------------
$molecule
-1 1
O        -0.7700752962    1.0095248173   -0.0901959350
C        -0.3608196099   -0.2115914739    0.4922317158
O        -1.0496930004   -1.3042071768   -0.0673185286
C         1.1546408297   -0.3521732406    0.2396058149
O         1.8571576590    0.5647537115    0.7328913092
O         1.5662840877   -1.3426908188   -0.4048193267
H        -1.6025330528    1.2738191661    0.3164522571
H        -1.9354580049   -1.3186989432    0.3121775248
H        -0.5354792121   -0.1788818416    1.5697029686
$end

$rem
BASIS = 6-31G(d)
JOB_TYPE = SP
METHOD = wB97M-V
SCF_ALGORITHM = DIIS_GDM
MAX_SCF_CYCLES = 400
SCF_CONVERGENCE = 7
THRESH = 12
Solvent_method = SMD
$end
--------------------------------------------------------------
 ----------------------------------------------------------------
             Standard Nuclear Orientation (Angstroms)
    I     Atom           X                Y                Z
 ----------------------------------------------------------------
    1      O      -0.7700752962     1.0095248173    -0.0901959350
    2      C      -0.3608196099    -0.2115914739     0.4922317158
    3      O      -1.0496930004    -1.3042071768    -0.0673185286
    4      C       1.1546408297    -0.3521732406     0.2396058149
    5      O       1.8571576590     0.5647537115     0.7328913092
    6      O       1.5662840877    -1.3426908188    -0.4048193267
    7      H      -1.6025330528     1.2738191661     0.3164522571
    8      H      -1.9354580049    -1.3186989432     0.3121775248
    9      H      -0.5354792121    -0.1788818416     1.5697029686
 ----------------------------------------------------------------
 Nuclear Repulsion Energy =         239.46429984 hartrees
 There are       24 alpha and       24 beta electrons
 Requested basis set is 6-31G(d)
 There are 30 shells and 96 basis functions

 Total QAlloc Memory Limit 288000 MB
 Mega-Array Size       188 MB
 MEM_STATIC part       192 MB
 
 Citation of the SMD model:
 Marenich, A.V.; Cramer, C.J.; Truhlar, D.G.
 J. Phys. Chem. B 2009, 113, 6378-6396.
 iSolventCode=           1
 Solvent: water                                                           
 
 vradii
            1           2           3           4           5           6
    1   1.5200000   1.8500000   1.5200000   1.8500000   1.5200000   1.5200000
            7           8           9
    1   1.2000000   1.2000000   1.2000000
 Changing PCM_VDW_RADII to SMD_RADIUS
 Discretize the solute cavity surface with Lebedev spheres
	Using 110 Lebedev grid points for each H atom
	Using 194 Lebedev grid points for other atoms
	Atomic van der Waals radii will be scaled by 1.20
 Remove points where switching function is < 1.0e-08
 Keep 826 surface tesserae and discard 668 interior tesserae
 Molecular Surface Area = 99.736 Angst**2

                       Distance Matrix (Angstroms)
             O (  1)   C (  2)   O (  3)   C (  4)   O (  5)   O (  6)
   C (  2)  1.413449
   O (  3)  2.330679  1.407641
   C (  4)  2.380656  1.542791  2.420673
   O (  5)  2.788843  2.362213  3.547271  1.256032
   O (  6)  3.330237  2.407865  2.637939  1.251343  2.239941
   H (  7)  0.963431  1.944015  2.664420  3.201838  3.556073  4.172261
   H (  8)  2.634511  1.933285  0.963746  3.238541  4.255388  3.574473
   H (  9)  2.054899  1.092026  2.051978  2.157706  2.641583  3.109759
             H (  7)   H (  8)
   H (  8)  2.613811
   H (  9)  2.195355  2.200112
 
 A cutoff of  1.0D-12 yielded    445 shell pairs
 There are      4766 function pairs
 Smallest overlap matrix eigenvalue = 2.57E-03

 Scale SEOQF with 1.000000e-01/1.000000e+00/1.000000e-01

 Standard Electronic Orientation quadrupole field applied
 Nucleus-field energy     =     0.0000000324 hartrees
 Guess from superposition of atomic densities
 Warning:  Energy on first SCF cycle will be non-variational
 SAD guess density has 47.000000 electrons

 -----------------------------------------------------------------------
  General SCF calculation program by
  Eric Jon Sundstrom, Paul Horn, Yuezhi Mao, Dmitri Zuev, Alec White,
  David Stuck, Shaama M.S., Shane Yost, Joonho Lee, David Small,
  Daniel Levine, Susi Lehtola, Hugh Burton, Evgeny Epifanovsky,
  Bang C. Huynh
 -----------------------------------------------------------------------
 Exchange:     0.1500 Hartree-Fock + 1.0000 wB97M-V + LR-HF
 Correlation:  1.0000 wB97M-V
 Using SG-2 standard quadrature grid
 Nonlocal Correlation:  VV10 with C = 0.0100 and b = 6.00 and scale = 1.00000
 Grid used for NLC:  SG-1 standard quadrature
 
 Citation of the SMD model:
 Marenich, A.V.; Cramer, C.J.; Truhlar, D.G.
 J. Phys. Chem. B 2009, 113, 6378-6396.
 iSolventCode=           1
 Solvent: water                                                           
 
 vradii
            1           2           3           4           5           6
    1   1.5200000   1.8500000   1.5200000   1.8500000   1.5200000   1.5200000
            7           8           9
    1   1.2000000   1.2000000   1.2000000
 using 4 threads for integral computing
 -------------------------------------------------------
 OpenMP Integral computing Module                
 Release: version 1.0, May 2013, Q-Chem Inc. Pittsburgh 
 -------------------------------------------------------
 -------------------------------------------------------
 OpenMP BLAS3 based DFT computing Module                
 Release: version 1.0, May 2013, Q-Chem Inc. Pittsburgh 
 -------------------------------------------------------
 A restricted SCF calculation will be
 performed using DIIS, GDM
 SCF converges when RMS gradient is below 1.0e-07
 ---------------------------------------
  Cycle       Energy         DIIS error
 ---------------------------------------
    1    -379.7390781709      7.79e-02  
    2    -378.7335277906      1.57e-02  
    3    -378.7480951240      1.61e-02  
    4    -378.9469456439      7.52e-04  Done DIIS. Switching to GDM
 ---------------------------------------
  Cycle       Energy        RMS Gradient
 ---------------------------------------
    1    -378.9469456439      8.81e-03   Normal BFGS step
    2    -378.9474622447      4.72e-03   Normal BFGS step
    3    -378.9476535896      1.39e-03   Normal BFGS step
    4    -378.9476625806      5.65e-04   Normal BFGS step
    5    -378.9476671399      1.05e-04   Normal BFGS step
    6    -378.9476671990      9.08e-05   Normal BFGS step
    7    -378.9476672532      1.18e-05   Normal BFGS step
    8    -378.9476672544      6.90e-06   Normal BFGS step
    9    -378.9476672552      3.13e-06   Normal BFGS step
   10    -378.9476672552      1.48e-06   Normal BFGS step
   11    -378.9476672552      5.33e-07   Normal BFGS step
   12    -378.9476672552      6.01e-08  Convergence criterion met
 ---------------------------------------
 SCF time:   CPU 75.91s  wall 19.00s 
(3)  G-ENP(liq) elect-nuc-pol free energy of system     -378.947667255 a.u.
(4)  G-CDS(liq) cavity-dispersion-solvent structure 
     free energy                                                4.1889 kcal/mol
(6)  G-S(liq) free energy of system                     -378.940991880 a.u.
 SCF   energy in the final basis set =     -378.9409918801
 Total energy in the final basis set =     -378.9409918801
 
 --------------------------------------------------------------
 
                    Orbital Energies (a.u.)
 --------------------------------------------------------------
 
 Alpha MOs
 -- Occupied --
-19.3443 -19.3433 -19.2792 -19.2762 -10.4312 -10.4283  -1.1807  -1.1345
 -1.1123  -1.0480  -0.7945  -0.6297  -0.6204  -0.6103  -0.5483  -0.4989
 -0.4832  -0.4768  -0.4666  -0.3916  -0.3858  -0.3383  -0.3302  -0.3259
 -- Virtual --
  0.1424   0.1921   0.2341   0.2668   0.3328   0.3688   0.3925   0.4526
  0.5285   0.6624   0.6839   0.7196   0.7656   0.7898   0.8069   0.8400
  0.8929   0.9181   0.9609   0.9780   0.9919   1.0131   1.0525   1.1003
  1.1069   1.1440   1.1506   1.1668   1.2159   1.2328   1.3483   1.3831
  1.4562   1.5444   1.5821   1.6344   1.6836   1.7215   1.7953   1.8290
  1.8653   1.9343   1.9390   1.9727   2.0069   2.0229   2.0364   2.0860
  2.1099   2.1857   2.2090   2.2745   2.3360   2.3562   2.5389   2.5900
  2.6047   2.6331   2.7397   2.8491   2.8772   2.9454   3.0020   3.0466
  3.1422   3.2774   3.8490   3.8661   4.0776   4.2815   4.4617   4.6736
 --------------------------------------------------------------
 
          Ground-State Mulliken Net Atomic Charges

     Atom                 Charge (a.u.)
  ----------------------------------------
      1 O                    -0.691285
      2 C                     0.229940
      3 O                    -0.687178
      4 C                     0.497654
      5 O                    -0.701811
      6 O                    -0.689473
      7 H                     0.445876
      8 H                     0.444040
      9 H                     0.152237
  ----------------------------------------
  Sum of atomic charges =    -1.000000

 -----------------------------------------------------------------
                    Cartesian Multipole Moments
 -----------------------------------------------------------------
    Charge (ESU x 10^10)
                -4.8032
    Dipole Moment (Debye)
         X     -11.5024      Y       2.2382      Z       2.2725
       Tot      11.9365
    Quadrupole Moments (Debye-Ang)
        XX     -44.0617     XY       1.6976     YY     -44.4829
        XZ      -5.5577     YZ      -4.1245     ZZ     -35.9536
    Octopole Moments (Debye-Ang^2)
       XXX     -89.6159    XXY      11.8207    XYY     -27.9045
       YYY      39.4428    XXZ      -5.1747    XYZ      -5.8977
       YYZ      -1.1187    XZZ     -16.9460    YZZ       8.4694
       ZZZ     -17.4415
    Hexadecapole Moments (Debye-Ang^3)
      XXXX    -382.1184   XXXY      22.9375   XXYY     -98.4841
      XYYY      20.8930   YYYY    -228.2544   XXXZ     -32.8964
      XXYZ     -16.3909   XYYZ      -6.5023   YYYZ     -18.6106
      XXZZ     -78.1128   XYZZ       2.9691   YYZZ     -49.0392
      XZZZ     -17.2809   YZZZ     -15.7076   ZZZZ     -72.7667
 -----------------------------------------------------------------
 Total job time:  20.63s(wall), 77.80s(cpu) 
 Wed Dec  6 10:56:26 2023

        *************************************************************
        *                                                           *
        *  Thank you very much for using Q-Chem.  Have a nice day.  *
        *                                                           *
        *************************************************************


