
Running Job 1 of 2 Q_in.in
qchem Q_in.in_368527.0 /scratch/ari.fischer/qChem1711275.hpc-mn1/qchem368527/ 0
/usr/local/qchem-5.4.1/exe/qcprog.exe_s Q_in.in_368527.0 /scratch/ari.fischer/qChem1711275.hpc-mn1/qchem368527/
                  Welcome to Q-Chem
     A Quantum Leap Into The Future Of Chemistry


 Q-Chem 5.4, Q-Chem, Inc., Pleasanton, CA (2021)

 License issued to: Nanyang Technological University (site)

 E. Epifanovsky,  A. T. B. Gilbert,  Xintian Feng,  Joonho Lee,  Yuezhi Mao,  
 N. Mardirossian,  P. Pokhilko,  A. White,  M. Wormit,  M. P. Coons,  
 A. L. Dempwolff,  Zhengting Gan,  D. Hait,  P. R. Horn,  L. D. Jacobson,  
 I. Kaliman,  J. Kussmann,  A. W. Lange,  Ka Un Lao,  D. S. Levine,  Jie Liu,  
 S. C. McKenzie,  A. F. Morrison,  K. Nanda,  F. Plasser,  D. R. Rehn,  
 M. L. Vidal,  Zhi-Qiang You,  Ying Zhu,  B. Alam,  B. Albrecht,  
 A. Aldossary,  E. Alguire,  J. H. Andersen,  D. Barton,  K. Begam,  A. Behn,  
 Y. A. Bernard,  E. J. Berquist,  H. Burton,  A. Carreras,  K. Carter-Fenk,  
 R. Chakraborty,  A. D. Chien,  K. D. Closser,  V. Cofer-Shabica,  
 S. Dasgupta,  Jia Deng,  M. de Wergifosse,  M. Diedenhofen,  Hainam Do,  
 S. Ehlert,  Po-Tung Fang,  S. Fatehi,  Qingguo Feng,  T. Friedhoff,  
 J. Gayvert,  Qinghui Ge,  G. Gidofalvi,  M. Goldey,  J. Gomes,  
 C. Gonzalez-Espinoza,  S. Gulania,  A. Gunina,  M. W. D. Hanson-Heine,  
 P. H. P. Harbach,  A. W. Hauser,  M. F. Herbst,  M. Hernandez Vera,  
 M. Hodecker,  Z. C. Holden,  S. Houck,  Xunkun Huang,  Kerwin Hui,  
 B. C. Huynh,  M. Ivanov,  Hyunjun Ji,  Hanjie Jiang,  B. Kaduk,  S. Kaehler,  
 K. Khistyaev,  Jaehoon Kim,  P. Klunzinger,  Z. Koczor-Benda,  
 Joong Hoon Koh,  D. Kosenkov,  L. Koulias,  T. Kowalczyk,  C. M. Krauter,  
 K. Kue,  A. Kunitsa,  T. Kus,  A. Landau,  K. V. Lawler,  D. Lefrancois,  
 S. Lehtola,  Rain Li,  Yi-Pei Li,  Jiashu Liang,  M. Liebenthal,  
 Hung-Hsuan Lin,  You-Sheng Lin,  Fenglai Liu,  Kuan-Yu Liu,  
 M. Loipersberger,  A. Luenser,  A. Manjanath,  P. Manohar,  E. Mansoor,  
 S. F. Manzer,  Shan-Ping Mao,  A. V. Marenich,  T. Markovich,  S. Mason,  
 S. A. Maurer,  P. F. McLaughlin,  M. F. S. J. Menger,  J.-M. Mewes,  
 S. A. Mewes,  P. Morgante,  J. W. Mullinax,  K. J. Oosterbaan,  G. Paran,  
 Alexander C. Paul,  Suranjan K. Paul,  F. Pavosevic,  Zheng Pei,  S. Prager,  
 E. I. Proynov,  E. Ramos,  B. Rana,  A. E. Rask,  A. Rettig,  R. M. Richard,  
 F. Rob,  E. Rossomme,  T. Scheele,  M. Scheurer,  M. Schneider,  
 N. Sergueev,  S. M. Sharada,  W. Skomorowski,  D. W. Small,  C. J. Stein,  
 Yu-Chuan Su,  E. J. Sundstrom,  Zhen Tao,  J. Thirman,  T. Tsuchimochi,  
 N. M. Tubman,  S. P. Veccham,  O. Vydrov,  J. Wenzel,  J. Witte,  A. Yamada,  
 Kun Yao,  S. Yeganeh,  S. R. Yost,  A. Zech,  Igor Ying Zhang,  Xing Zhang,  
 Yu Zhang,  D. Zuev,  A. Aspuru-Guzik,  A. T. Bell,  N. A. Besley,  
 K. B. Bravaya,  B. R. Brooks,  D. Casanova,  Jeng-Da Chai,  S. Coriani,  
 C. J. Cramer,  A. E. DePrince, III,  R. A. DiStasio Jr.,  A. Dreuw,  
 B. D. Dunietz,  T. R. Furlani,  W. A. Goddard III,  S. Grimme,  
 S. Hammes-Schiffer,  T. Head-Gordon,  W. J. Hehre,  Chao-Ping Hsu,  
 T.-C. Jagau,  Yousung Jung,  A. Klamt,  Jing Kong,  D. S. Lambrecht,  
 WanZhen Liang,  N. J. Mayhall,  C. W. McCurdy,  J. B. Neaton,  
 C. Ochsenfeld,  J. A. Parkhill,  R. Peverati,  V. A. Rassolov,  Yihan Shao,  
 L. V. Slipchenko,  T. Stauch,  R. P. Steele,  J. E. Subotnik,  
 A. J. W. Thom,  A. Tkatchenko,  D. G. Truhlar,  T. Van Voorhis,  
 T. A. Wesolowski,  K. B. Whaley,  H. L. Woodcock III,  P. M. Zimmerman,  
 S. Faraji,  P. M. W. Gill,  M. Head-Gordon,  J. M. Herbert,  A. I. Krylov

 Additional authors for Version 5.4.1: 
 S. Kotaru,  Shaozhi Li,  Xiangyuan Li,  F. Matz,  A. Molle,  Haisheng Ren,  
 Yingli Su,  Hung-Yi Tsai,  C. Utku,  Fang Wang

 Contributors to earlier versions of Q-Chem not listed above: 
 R. D. Adamson,  B. Austin,  R. Baer,  J. Baker,  G. J. O. Beran,  
 K. Brandhorst,  S. T. Brown,  E. F. C. Byrd,  A. K. Chakraborty,  
 G. K. L. Chan,  Chun-Min Chang,  Yunqing Chen,  C.-L. Cheng,  
 Siu Hung Chien,  D. M. Chipman,  D. L. Crittenden,  H. Dachsel,  
 R. J. Doerksen,  A. D. Dutoi,  R. G. Edgar,  J. Fosso-Tande,  
 L. Fusti-Molnar,  D. Ghosh,  A. Ghysels,  A. Golubeva-Zadorozhnaya,  
 J. Gonthier,  M. S. Gordon,  S. R. Gwaltney,  G. Hawkins,  J. E. Herr,  
 A. Heyden,  S. Hirata,  E. G. Hohenstein,  G. Kedziora,  F. J. Keil,  
 C. Kelley,  Jihan Kim,  R. A. King,  R. Z. Khaliullin,  P. P. Korambath,  
 W. Kurlancheek,  A. Laurent,  A. M. Lee,  M. S. Lee,  S. V. Levchenko,  
 Ching Yeh Lin,  D. Liotard,  E. Livshits,  R. C. Lochan,  I. Lotan,  
 L. A. Martinez-Martinez,  P. E. Maslen,  N. Nair,  D. P. O'Neill,  
 D. Neuhauser,  E. Neuscamman,  C. M. Oana,  R. Olivares-Amaya,  R. Olson,  
 T. M. Perrine,  B. Peters,  P. A. Pieniazek,  A. Prociuk,  Y. M. Rhee,  
 J. Ritchie,  M. A. Rohrdanz,  E. Rosta,  N. J. Russ,  H. F. Schaefer III,  
 M. W. Schmidt,  N. E. Schultz,  S. Sharma,  N. Shenvi,  C. D. Sherrill,  
 A. C. Simmonett,  A. Sodt,  T. Stein,  D. Stuck,  K. S. Thanthiriwatte,  
 V. Vanovschi,  L. Vogt,  Tao Wang,  A. Warshel,  M. A. Watson,  
 C. F. Williams,  Q. Wu,  X. Xu,  Jun Yang,  W. Zhang,  Yan Zhao

 Please cite Q-Chem as follows:
 Y. Shao et al., Mol. Phys. 113, 184-215 (2015)
 DOI: 10.1080/00268976.2014.952696

 Q-Chem 5.4.1 for Intel X86 EM64T Linux

 Parts of Q-Chem use Armadillo 9.800.1 (Horizon Scraper).
 http://arma.sourceforge.net/

 Q-Chem begins on Fri Sep  1 04:37:34 2023  

 Host: 
0

     Scratch files written to /scratch/ari.fischer/qChem1711275.hpc-mn1/qchem368527//
 Aug1521 |scratch|qcdevops|jenkins|workspace|build_RNUM 8249   
 Processing $rem in /usr/local/qchem-5.4.1/config/preferences:
 Processing $rem in /home/ari.fischer/.qchemrc:
 Symmetry turned off for PCM/SM12/SMD calculation


!!********************************************.
!!******************Warning*******************.
!!Desired Analytical derivatives not available.
!!Finite difference job might take a long time.
!!********************************************.
!!********************************************.


 2-order derivative to be evaluated numerically with 1-order analytical derivatives

 Checking the input file for inconsistencies... 	...done.

--------------------------------------------------------------
User input:
--------------------------------------------------------------
$molecule
0 2
C        -0.9113678250   -0.6701761786    0.2627741729
O        -0.9016773764   -1.5214926167    1.2489500934
O        -1.3947881906   -0.7447911985   -0.8246636166
O        -0.2255046815    0.5250427946    0.5704555581
O         0.2826249926    0.5784694341    1.7747773958
H        -1.3874282190   -2.3190267349    0.9808714962
$end

$rem
BASIS = 6-311++G(2df,2p)
GUI = 2
JOB_TYPE = Frequency
METHOD = wB97M-V
SOLVENT_METHOD = SMD
SCF_ALGORITHM = DIIS_GDM
MAX_SCF_CYCLES = 400
SCF_CONVERGENCE = 7
THRESH = 12
$end

--------------------------------------------------------------
 ----------------------------------------------------------------
             Standard Nuclear Orientation (Angstroms)
    I     Atom           X                Y                Z
 ----------------------------------------------------------------
    1      C      -0.9113678250    -0.6701761786     0.2627741729
    2      O      -0.9016773764    -1.5214926167     1.2489500934
    3      O      -1.3947881906    -0.7447911985    -0.8246636166
    4      O      -0.2255046815     0.5250427946     0.5704555581
    5      O       0.2826249926     0.5784694341     1.7747773958
    6      H      -1.3874282190    -2.3190267349     0.9808714962
 ----------------------------------------------------------------
 Nuclear Repulsion Energy =         175.13535088 hartrees
 There are       20 alpha and       19 beta electrons
 Requested basis set is 6-311++G(2df,2p)
 There are 46 shells and 180 basis functions

 Total QAlloc Memory Limit 288000 MB
 Mega-Array Size       188 MB
 MEM_STATIC part       192 MB
 
 Citation of the SMD model:
 Marenich, A.V.; Cramer, C.J.; Truhlar, D.G.
 J. Phys. Chem. B 2009, 113, 6378-6396.
 iSolventCode=           1
 Solvent: water                                                           
 
 vradii
            1           2           3           4           5           6
    1   1.8500000   1.5200000   1.5200000   1.5200000   1.5200000   1.2000000
 Changing PCM_VDW_RADII to SMD_RADIUS
 Discretize the solute cavity surface with Lebedev spheres
	Using 110 Lebedev grid points for each H atom
	Using 194 Lebedev grid points for other atoms
	Atomic van der Waals radii will be scaled by 1.20
 Remove points where switching function is < 1.0e-08
 Keep 640 surface tesserae and discard 440 interior tesserae
 Molecular Surface Area = 79.988 Angst**2

                       Distance Matrix (Angstroms)
             C (  1)   O (  2)   O (  3)   O (  4)   O (  5)
   O (  2)  1.302834
   O (  3)  1.192386  2.268545
   O (  4)  1.411958  2.259618  2.219473
   O (  5)  2.295842  2.467571  3.364792  1.308221
   H (  6)  1.860378  0.971535  2.395460  3.099555  3.437273
 
 A cutoff of  1.0D-12 yielded   1040 shell pairs
 There are     16227 function pairs (     21103 Cartesian)
 Smallest overlap matrix eigenvalue = 3.63E-04
 Guess from superposition of atomic densities
 Warning:  Energy on first SCF cycle will be non-variational
 SAD guess density has 39.000000 electrons

 -----------------------------------------------------------------------
  General SCF calculation program by
  Eric Jon Sundstrom, Paul Horn, Yuezhi Mao, Dmitri Zuev, Alec White,
  David Stuck, Shaama M.S., Shane Yost, Joonho Lee, David Small,
  Daniel Levine, Susi Lehtola, Hugh Burton, Evgeny Epifanovsky,
  Bang C. Huynh
 -----------------------------------------------------------------------
 Exchange:     0.1500 Hartree-Fock + 1.0000 wB97M-V + LR-HF
 Correlation:  1.0000 wB97M-V
 Using SG-2 standard quadrature grid
 Nonlocal Correlation:  VV10 with C = 0.0100 and b = 6.00 and scale = 1.00000
 Grid used for NLC:  SG-1 standard quadrature
 using 8 threads for integral computing
 -------------------------------------------------------
 OpenMP Integral computing Module                
 Release: version 1.0, May 2013, Q-Chem Inc. Pittsburgh 
 -------------------------------------------------------
 
 Citation of the SMD model:
 Marenich, A.V.; Cramer, C.J.; Truhlar, D.G.
 J. Phys. Chem. B 2009, 113, 6378-6396.
 iSolventCode=           1
 Solvent: water                                                           
 
 vradii
            1           2           3           4           5           6
    1   1.8500000   1.5200000   1.5200000   1.5200000   1.5200000   1.2000000
 -------------------------------------------------------
 OpenMP BLAS3 based DFT computing Module                
 Release: version 1.0, May 2013, Q-Chem Inc. Pittsburgh 
 -------------------------------------------------------
 A unrestricted SCF calculation will be
 performed using DIIS, GDM
 SCF converges when RMS gradient is below 1.0e-07
 ---------------------------------------
  Cycle       Energy         DIIS error
 ---------------------------------------
    1    -340.3085113276      1.92e-02  
    2    -339.3681349571      3.50e-03  Done DIIS. Switching to GDM
 ---------------------------------------
  Cycle       Energy        RMS Gradient
 ---------------------------------------
    1    -339.3681349571      1.88e-01   Descent step
    2    -339.5101328168      2.50e-02   Normal BFGS step
    3    -339.5211557498      3.89e-02   Normal BFGS step
    4    -339.5236439062      6.48e-03   Normal BFGS step
    5    -339.5243906346      9.30e-03   Normal BFGS step
    6    -339.5245639786      3.97e-03   Normal BFGS step
    7    -339.5246222745      1.77e-03   Normal BFGS step
    8    -339.5246359928      6.07e-04   Normal BFGS step
    9    -339.5246379792      2.14e-04   Normal BFGS step
   10    -339.5246382574      6.68e-05   Normal BFGS step
   11    -339.5246382987      4.03e-05   Normal BFGS step
   12    -339.5246383068      1.75e-05   Normal BFGS step
   13    -339.5246383084      1.28e-05   Normal BFGS step
   14    -339.5246383090      1.08e-05   Normal BFGS step
   15    -339.5246383093      8.78e-06   Normal BFGS step
   16    -339.5246383096      5.66e-06   Normal BFGS step
   17    -339.5246383099      3.97e-06   Normal BFGS step
   18    -339.5246383100      1.61e-06   Normal BFGS step
   19    -339.5246383100      3.97e-07   Normal BFGS step
   20    -339.5246383100      1.33e-07   Normal BFGS step
   21    -339.5246383100      6.25e-08  Convergence criterion met
 ---------------------------------------
 SCF time:   CPU 217.92s  wall 27.00s 
<S^2> =          0.753749346
(3)  G-ENP(liq) elect-nuc-pol free energy of system     -339.524638310 a.u.
(4)  G-CDS(liq) cavity-dispersion-solvent structure 
     free energy                                                3.6144 kcal/mol
(6)  G-S(liq) free energy of system                     -339.518878377 a.u.
 SCF   energy in the final basis set =     -339.5188783765
 Total energy in the final basis set =     -339.5188783765
 
 --------------------------------------------------------------
 
                    Orbital Energies (a.u.)
 --------------------------------------------------------------
 
 Alpha MOs
 -- Occupied --
-19.4902 -19.4488 -19.4151 -19.3623 -10.5591  -1.3825  -1.2779  -1.2059
 -1.0399  -0.7955  -0.7077  -0.6712  -0.6526  -0.6060  -0.5813  -0.5615
 -0.4739  -0.4697  -0.4272  -0.4223
 -- Virtual --
  0.0335   0.0708   0.0796   0.0847   0.0951   0.1162   0.1434   0.1817
  0.2136   0.2176   0.2203   0.2293   0.2526   0.2653   0.2753   0.2813
  0.2911   0.3035   0.3151   0.3305   0.3425   0.3710   0.3869   0.4162
  0.4354   0.4604   0.5547   0.6159   0.6415   0.7054   0.7122   0.7557
  0.8332   0.8553   0.8645   0.9506   1.0175   1.0290   1.0688   1.0698
  1.0820   1.0919   1.1138   1.1401   1.1413   1.1720   1.1883   1.2214
  1.2529   1.3699   1.3871   1.4771   1.4918   1.5095   1.5284   1.5759
  1.6038   1.6347   1.6550   1.7212   1.7694   1.7889   1.8340   1.9059
  2.0654   2.1174   2.1521   2.1927   2.2512   2.3457   2.3535   2.4254
  2.4948   2.5496   2.6959   2.7595   2.8093   2.8827   3.1111   3.1295
  3.1618   3.1789   3.3033   3.3776   3.4956   3.5044   3.5669   3.5836
  3.6675   3.6983   3.7658   3.8942   3.9934   4.1886   4.3528   4.5162
  4.6823   4.7646   4.8149   4.9590   4.9956   5.0470   5.0492   5.0863
  5.0984   5.1043   5.1234   5.1366   5.1746   5.1789   5.1926   5.2302
  5.2481   5.2521   5.3057   5.3138   5.4101   5.5431   5.5504   5.5825
  5.5938   5.6132   5.7984   5.8241   6.0611   6.1579   6.4073   6.4447
  6.5280   6.5607   6.7369   6.7576   6.8728   6.8818   6.8884   6.9600
  6.9819   7.0202   7.0482   7.1107   7.1744   7.2176   7.2945   7.3148
  7.3433   7.4232   7.4371   7.5452   7.5845   7.6957   7.7635   7.8209
  7.9583   7.9944   8.1015  25.1701  50.3698  50.4697  50.5669  50.7220
 
 Beta MOs
 -- Occupied --
-19.4830 -19.4279 -19.4152 -19.3612 -10.5595  -1.3618  -1.2725  -1.2044
 -1.0038  -0.7896  -0.6935  -0.6491  -0.6386  -0.5936  -0.5593  -0.5329
 -0.4645  -0.4616  -0.4058
 -- Virtual --
 -0.0610   0.0338   0.0713   0.0805   0.0858   0.1051   0.1166   0.1497
  0.1831   0.2153   0.2267   0.2303   0.2307   0.2577   0.2669   0.2769
  0.2834   0.2936   0.3045   0.3168   0.3320   0.3440   0.3719   0.3875
  0.4187   0.4357   0.4600   0.5553   0.6166   0.6415   0.7065   0.7126
  0.7560   0.8373   0.8553   0.8673   0.9557   1.0241   1.0312   1.0697
  1.0857   1.0950   1.1029   1.1154   1.1433   1.1666   1.1741   1.1929
  1.2268   1.2545   1.3710   1.4117   1.4852   1.5113   1.5127   1.5424
  1.5825   1.6180   1.6431   1.6701   1.7429   1.7747   1.7909   1.8377
  1.9119   2.0773   2.1212   2.1571   2.2073   2.2595   2.3483   2.3698
  2.4277   2.4972   2.5558   2.6978   2.7629   2.8086   2.8844   3.1124
  3.1296   3.1628   3.1799   3.3051   3.3783   3.4968   3.5044   3.5676
  3.5840   3.6696   3.6989   3.7659   3.8955   3.9936   4.1891   4.3540
  4.5539   4.7028   4.7900   4.8248   4.9732   5.0705   5.0956   5.1016
  5.1021   5.1167   5.1360   5.1422   5.1586   5.1848   5.2027   5.2096
  5.2485   5.2555   5.2674   5.3193   5.3211   5.4204   5.5546   5.5619
  5.5889   5.5979   5.6189   5.8059   5.8424   6.0635   6.1642   6.4151
  6.4862   6.5328   6.5706   6.7940   6.8248   6.8866   6.9392   6.9477
  6.9662   6.9898   7.0265   7.0630   7.1381   7.2112   7.2210   7.3005
  7.3341   7.3510   7.4451   7.4549   7.5504   7.5909   7.7008   7.7684
  7.8223   7.9616   8.0062   8.1202  25.1699  50.3829  50.4776  50.5670
 50.7228
 --------------------------------------------------------------
 
          Ground-State Mulliken Net Atomic Charges

     Atom                 Charge (a.u.)    Spin (a.u.)
  --------------------------------------------------------
      1 C                     0.543495      -0.008541
      2 O                    -0.311577      -0.001970
      3 O                    -0.450471       0.040075
      4 O                    -0.084696       0.212459
      5 O                    -0.075781       0.758363
      6 H                     0.379031      -0.000386
  --------------------------------------------------------
  Sum of atomic charges =    -0.000000
  Sum of spin   charges =     1.000000

 -----------------------------------------------------------------
                    Cartesian Multipole Moments
 -----------------------------------------------------------------
    Charge (ESU x 10^10)
                 0.0000
    Dipole Moment (Debye)
         X      -0.9693      Y      -3.1146      Z       1.1708
       Tot       3.4657
    Quadrupole Moments (Debye-Ang)
        XX     -25.7830     XY       3.5134     YY     -20.0036
        XZ      -5.0976     YZ      -3.6714     ZZ     -32.2582
    Octopole Moments (Debye-Ang^2)
       XXX      50.8475    XXY       4.6746    XYY       4.2385
       YYY       8.6367    XXZ      -8.7758    XYZ       5.7070
       YYZ      -9.4432    XZZ      18.5737    YZZ      11.1808
       ZZZ     -54.5841
    Hexadecapole Moments (Debye-Ang^3)
      XXXX    -145.6106   XXXY     -44.8253   XXYY     -32.4031
      XYYY     -18.1898   YYYY    -101.5496   XXXZ     -14.1489
      XXYZ      -9.4528   XYYZ     -16.7730   YYYZ     -18.9176
      XXZZ     -61.8500   XYZZ     -18.2081   YYZZ     -61.3979
      XZZZ      -5.0467   YZZZ       4.5733   ZZZZ    -228.9428
 -----------------------------------------------------------------
 Calculating analytic gradient of the SCF energy
 Gradient of CDS energy
            1           2           3           4           5           6
    1  -0.0001778   0.0000965   0.0005088  -0.0003689   0.0000576  -0.0001163
    2  -0.0008462   0.0017004   0.0002117  -0.0008144   0.0001361  -0.0003876
    3   0.0005100  -0.0016831   0.0009937   0.0000436  -0.0000218   0.0001577
 Gradient of SCF Energy
            1           2           3           4           5           6
    1   0.0008617   0.0123923  -0.0030358   0.0009028   0.0003503  -0.0114713
    2  -0.0010971   0.0170156   0.0035711   0.0029004  -0.0009789  -0.0214110
    3   0.0033762   0.0106120  -0.0113580  -0.0013186   0.0021565  -0.0034680
 Max gradient component =       2.141E-02
 RMS gradient           =       8.624E-03
 Computing fast CPCM-SWIG gradient
 Updating gradient with PCM contributions...
 -- total gradient after adding PCM contribution --
---------------------------------------------------
  Atom         X              Y              Z     
---------------------------------------------------
   1       0.000124       0.000055      -0.000026
   2       0.000008       0.000010       0.000110
   3       0.000021       0.000057       0.000063
   4      -0.000083      -0.000019      -0.000124
   5      -0.000058      -0.000110       0.000001
   6      -0.000012       0.000007      -0.000024
---------------------------------------------------
 Number of fixed atoms: 0
 Gradient time:  CPU 27.86 s  wall 4.26 s
 ######################################################
 ######################################################
 # Starting finite difference calculation for IDERIV  #
 Finite diff step size:  1.88973e-03 a.u.
 ----------------------------------------------------------------
             Standard Nuclear Orientation (Angstroms)
    I     Atom           X                Y                Z
 ----------------------------------------------------------------
    1      C      -0.9103678250    -0.6701761786     0.2627741729
    2      O      -0.9016773764    -1.5214926167     1.2489500934
    3      O      -1.3947881906    -0.7447911985    -0.8246636166
    4      O      -0.2255046815     0.5250427946     0.5704555581
    5      O       0.2826249926     0.5784694341     1.7747773958
    6      H      -1.3874282190    -2.3190267349     0.9808714962
 ----------------------------------------------------------------
 Nuclear Repulsion Energy =         175.13666834 hartrees
 There are       20 alpha and       19 beta electrons
 Discretize the solute cavity surface with Lebedev spheres
	Using 110 Lebedev grid points for each H atom
	Using 194 Lebedev grid points for other atoms
	Atomic van der Waals radii will be scaled by 1.20
 Remove points where switching function is < 1.0e-08
 Keep 640 surface tesserae and discard 440 interior tesserae
 Molecular Surface Area = 79.988 Angst**2

                       Distance Matrix (Angstroms)
             C (  1)   O (  2)   O (  3)   O (  4)   O (  5)
   O (  2)  1.302827
   O (  3)  1.192791  2.268545
   O (  4)  1.411472  2.259618  2.219473
   O (  5)  2.295322  2.467571  3.364792  1.308221
   H (  6)  1.860634  0.971535  2.395460  3.099555  3.437273
 
 Requested basis set is 6-311++G(2df,2p)
 There are 46 shells and 180 basis functions
 A cutoff of  1.0D-12 yielded   1040 shell pairs
 There are     16227 function pairs (     21103 Cartesian)
 Smallest overlap matrix eigenvalue = 3.63E-04
 Guess MOs from SCF MO coefficient file

 -----------------------------------------------------------------------
  General SCF calculation program by
  Eric Jon Sundstrom, Paul Horn, Yuezhi Mao, Dmitri Zuev, Alec White,
  David Stuck, Shaama M.S., Shane Yost, Joonho Lee, David Small,
  Daniel Levine, Susi Lehtola, Hugh Burton, Evgeny Epifanovsky,
  Bang C. Huynh
 -----------------------------------------------------------------------
 Exchange:     0.1500 Hartree-Fock + 1.0000 wB97M-V + LR-HF
 Correlation:  1.0000 wB97M-V
 Using SG-2 standard quadrature grid
 Nonlocal Correlation:  VV10 with C = 0.0100 and b = 6.00 and scale = 1.00000
 Grid used for NLC:  SG-1 standard quadrature
 
 Citation of the SMD model:
 Marenich, A.V.; Cramer, C.J.; Truhlar, D.G.
 J. Phys. Chem. B 2009, 113, 6378-6396.
 iSolventCode=           1
 Solvent: water                                                           
 
 vradii
            1           2           3           4           5           6
    1   1.8500000   1.5200000   1.5200000   1.5200000   1.5200000   1.2000000
 -------------------------------------------------------
 OpenMP BLAS3 based DFT computing Module                
 Release: version 1.0, May 2013, Q-Chem Inc. Pittsburgh 
 -------------------------------------------------------
 A unrestricted SCF calculation will be
 performed using Roothaan-Hall, DIIS, GDM
 SCF converges when RMS gradient is below 1.0e-07
 ---------------------------------------
  Cycle       Energy         DIIS error
 ---------------------------------------
    1    -339.5027148633      3.34e-04  Roothaan Step
 ---------------------------------------
  Cycle       Energy         DIIS error
 ---------------------------------------
    1    -339.5211415703      4.03e-04  
    2    -339.5229300682      3.99e-04  Done DIIS. Switching to GDM
 ---------------------------------------
  Cycle       Energy        RMS Gradient
 ---------------------------------------
    1    -339.5229300682      1.74e-02   Normal BFGS step
    2    -339.5221214972      2.84e-02  Line search: overstep
    3    -339.5245568758      3.25e-03   Normal BFGS step
    4    -339.5246229535      1.16e-03   Normal BFGS step
    5    -339.5246335271      1.00e-03   Normal BFGS step
    6    -339.5246366518      2.02e-04   Normal BFGS step
    7    -339.5246369353      2.31e-04   Normal BFGS step
    8    -339.5246370941      9.01e-05   Normal BFGS step
    9    -339.5246371110      3.34e-05   Normal BFGS step
   10    -339.5246371193      2.48e-05   Normal BFGS step
   11    -339.5246371218      2.12e-05   Normal BFGS step
   12    -339.5246371228      1.80e-05   Normal BFGS step
   13    -339.5246371242      1.12e-05   Normal BFGS step
   14    -339.5246371250      8.35e-06   Normal BFGS step
   15    -339.5246371256      5.48e-06   Normal BFGS step
   16    -339.5246371257      2.07e-06   Normal BFGS step
   17    -339.5246371257      5.00e-07   Normal BFGS step
   18    -339.5246371257      2.96e-07   Normal BFGS step
   19    -339.5246371257      9.54e-08  Convergence criterion met
 ---------------------------------------
 SCF time:   CPU 208.47s  wall 26.00s 
<S^2> =          0.753750344
(3)  G-ENP(liq) elect-nuc-pol free energy of system     -339.524637126 a.u.
(4)  G-CDS(liq) cavity-dispersion-solvent structure 
     free energy                                                3.6142 kcal/mol
(6)  G-S(liq) free energy of system                     -339.518877484 a.u.
 SCF   energy in the final basis set =     -339.5188774840
 Total energy in the final basis set =     -339.5188774840
 
 --------------------------------------------------------------
 
                    Orbital Energies (a.u.)
 --------------------------------------------------------------
 
 Alpha MOs
 -- Occupied --
-19.4903 -19.4488 -19.4151 -19.3622 -10.5592  -1.3826  -1.2778  -1.2057
 -1.0401  -0.7956  -0.7078  -0.6713  -0.6525  -0.6060  -0.5812  -0.5614
 -0.4738  -0.4696  -0.4272  -0.4224
 -- Virtual --
  0.0335   0.0708   0.0796   0.0847   0.0951   0.1162   0.1434   0.1817
  0.2136   0.2176   0.2203   0.2293   0.2526   0.2652   0.2753   0.2813
  0.2911   0.3035   0.3151   0.3305   0.3425   0.3710   0.3869   0.4163
  0.4355   0.4604   0.5546   0.6159   0.6415   0.7055   0.7121   0.7555
  0.8332   0.8553   0.8645   0.9504   1.0175   1.0289   1.0688   1.0698
  1.0820   1.0919   1.1138   1.1402   1.1413   1.1720   1.1883   1.2214
  1.2530   1.3698   1.3871   1.4771   1.4919   1.5095   1.5284   1.5759
  1.6038   1.6345   1.6550   1.7212   1.7694   1.7890   1.8339   1.9058
  2.0653   2.1174   2.1521   2.1927   2.2514   2.3457   2.3534   2.4254
  2.4946   2.5496   2.6957   2.7596   2.8093   2.8828   3.1112   3.1295
  3.1620   3.1791   3.3035   3.3777   3.4957   3.5045   3.5669   3.5830
  3.6681   3.6985   3.7658   3.8939   3.9932   4.1884   4.3524   4.5161
  4.6823   4.7646   4.8149   4.9590   4.9956   5.0470   5.0491   5.0864
  5.0984   5.1043   5.1234   5.1366   5.1746   5.1789   5.1926   5.2302
  5.2479   5.2521   5.3058   5.3138   5.4101   5.5431   5.5504   5.5825
  5.5937   5.6129   5.7982   5.8247   6.0609   6.1575   6.4071   6.4447
  6.5264   6.5607   6.7368   6.7575   6.8728   6.8818   6.8884   6.9599
  6.9819   7.0201   7.0482   7.1106   7.1746   7.2177   7.2944   7.3148
  7.3435   7.4231   7.4371   7.5447   7.5848   7.6960   7.7632   7.8208
  7.9580   7.9943   8.1015  25.1702  50.3698  50.4698  50.5668  50.7213
 
 Beta MOs
 -- Occupied --
-19.4831 -19.4279 -19.4152 -19.3611 -10.5595  -1.3619  -1.2725  -1.2042
 -1.0040  -0.7896  -0.6935  -0.6491  -0.6386  -0.5936  -0.5593  -0.5329
 -0.4643  -0.4615  -0.4059
 -- Virtual --
 -0.0611   0.0338   0.0713   0.0805   0.0858   0.1051   0.1166   0.1497
  0.1832   0.2153   0.2267   0.2303   0.2307   0.2577   0.2669   0.2769
  0.2834   0.2936   0.3045   0.3168   0.3320   0.3440   0.3719   0.3876
  0.4188   0.4357   0.4600   0.5552   0.6165   0.6414   0.7066   0.7126
  0.7558   0.8373   0.8553   0.8673   0.9555   1.0241   1.0311   1.0697
  1.0857   1.0949   1.1029   1.1153   1.1433   1.1666   1.1741   1.1929
  1.2268   1.2546   1.3710   1.4117   1.4851   1.5113   1.5127   1.5424
  1.5825   1.6180   1.6430   1.6700   1.7429   1.7747   1.7909   1.8376
  1.9119   2.0772   2.1212   2.1572   2.2073   2.2597   2.3483   2.3697
  2.4276   2.4970   2.5558   2.6976   2.7630   2.8086   2.8845   3.1125
  3.1296   3.1630   3.1800   3.3053   3.3783   3.4969   3.5045   3.5676
  3.5834   3.6702   3.6991   3.7659   3.8953   3.9934   4.1889   4.3536
  4.5538   4.7028   4.7900   4.8248   4.9733   5.0705   5.0956   5.1017
  5.1021   5.1167   5.1360   5.1422   5.1585   5.1847   5.2027   5.2096
  5.2485   5.2553   5.2674   5.3194   5.3211   5.4204   5.5547   5.5618
  5.5889   5.5978   5.6187   5.8057   5.8431   6.0632   6.1638   6.4149
  6.4860   6.5312   6.5706   6.7939   6.8248   6.8866   6.9391   6.9477
  6.9662   6.9897   7.0263   7.0631   7.1380   7.2113   7.2211   7.3004
  7.3340   7.3512   7.4451   7.4548   7.5498   7.5912   7.7011   7.7681
  7.8222   7.9613   8.0062   8.1203  25.1700  50.3829  50.4777  50.5670
 50.7221
 --------------------------------------------------------------
 
          Ground-State Mulliken Net Atomic Charges

     Atom                 Charge (a.u.)    Spin (a.u.)
  --------------------------------------------------------
      1 C                     0.543527      -0.008555
      2 O                    -0.311626      -0.001972
      3 O                    -0.450934       0.040180
      4 O                    -0.084519       0.212210
      5 O                    -0.075538       0.758522
      6 H                     0.379091      -0.000385
  --------------------------------------------------------
  Sum of atomic charges =    -0.000000
  Sum of spin   charges =     1.000000

 -----------------------------------------------------------------
                    Cartesian Multipole Moments
 -----------------------------------------------------------------
    Charge (ESU x 10^10)
                 0.0000
    Dipole Moment (Debye)
         X      -0.9630      Y      -3.1119      Z       1.1752
       Tot       3.4630
    Quadrupole Moments (Debye-Ang)
        XX     -25.7922     XY       3.5104     YY     -20.0047
        XZ      -5.0990     YZ      -3.6717     ZZ     -32.2568
    Octopole Moments (Debye-Ang^2)
       XXX      50.8547    XXY       4.6823    XYY       4.2380
       YYY       8.6429    XXZ      -8.7709    XYZ       5.7103
       YYZ      -9.4391    XZZ      18.5723    YZZ      11.1859
       ZZZ     -54.5675
    Hexadecapole Moments (Debye-Ang^3)
      XXXX    -145.5958   XXXY     -44.8266   XXYY     -32.3996
      XYYY     -18.1832   YYYY    -101.5537   XXXZ     -14.1559
      XXYZ      -9.4551   XYYZ     -16.7799   YYYZ     -18.9221
      XXZZ     -61.8412   XYZZ     -18.2034   YYZZ     -61.4009
      XZZZ      -5.0580   YZZZ       4.5754   ZZZZ    -228.9252
 -----------------------------------------------------------------
 Calculating analytic gradient of the SCF energy
 Gradient of CDS energy
            1           2           3           4           5           6
    1  -0.0001308   0.0000984   0.0005112  -0.0004194   0.0000574  -0.0001166
    2  -0.0007578   0.0017004   0.0002119  -0.0009032   0.0001362  -0.0003875
    3   0.0005281  -0.0016828   0.0009982   0.0000206  -0.0000215   0.0001575
 Gradient of SCF Energy
            1           2           3           4           5           6
    1   0.0015779   0.0122229  -0.0033906   0.0007384   0.0003169  -0.0114656
    2  -0.0008591   0.0169845   0.0035369   0.0027696  -0.0009938  -0.0214380
    3   0.0038551   0.0105684  -0.0117859  -0.0013351   0.0021156  -0.0034180
 Max gradient component =       2.144E-02
 RMS gradient           =       8.657E-03
 Computing fast CPCM-SWIG gradient
 Updating gradient with PCM contributions...
 -- total gradient after adding PCM contribution --
---------------------------------------------------
  Atom         X              Y              Z     
---------------------------------------------------
   1       0.000821       0.000294       0.000471
   2      -0.000142      -0.000015       0.000074
   3      -0.000329       0.000022      -0.000378
   4      -0.000241      -0.000150      -0.000135
   5      -0.000094      -0.000126      -0.000046
   6      -0.000014      -0.000025       0.000014
---------------------------------------------------
 Number of fixed atoms: 0
 Gradient time:  CPU 26.70 s  wall 3.99 s
 ----------------------------------------------------------------
             Standard Nuclear Orientation (Angstroms)
    I     Atom           X                Y                Z
 ----------------------------------------------------------------
    1      C      -0.9123678250    -0.6701761786     0.2627741729
    2      O      -0.9016773764    -1.5214926167     1.2489500934
    3      O      -1.3947881906    -0.7447911985    -0.8246636166
    4      O      -0.2255046815     0.5250427946     0.5704555581
    5      O       0.2826249926     0.5784694341     1.7747773958
    6      H      -1.3874282190    -2.3190267349     0.9808714962
 ----------------------------------------------------------------
 Nuclear Repulsion Energy =         175.13401091 hartrees
 There are       20 alpha and       19 beta electrons
 Discretize the solute cavity surface with Lebedev spheres
	Using 110 Lebedev grid points for each H atom
	Using 194 Lebedev grid points for other atoms
	Atomic van der Waals radii will be scaled by 1.20
 Remove points where switching function is < 1.0e-08
 Keep 640 surface tesserae and discard 440 interior tesserae
 Molecular Surface Area = 79.989 Angst**2

                       Distance Matrix (Angstroms)
             C (  1)   O (  2)   O (  3)   O (  4)   O (  5)
   O (  2)  1.302842
   O (  3)  1.191981  2.268545
   O (  4)  1.412444  2.259618  2.219473
   O (  5)  2.296362  2.467571  3.364792  1.308221
   H (  6)  1.860122  0.971535  2.395460  3.099555  3.437273
 
 Requested basis set is 6-311++G(2df,2p)
 There are 46 shells and 180 basis functions
 A cutoff of  1.0D-12 yielded   1040 shell pairs
 There are     16227 function pairs (     21103 Cartesian)
 Smallest overlap matrix eigenvalue = 3.63E-04
 Guess MOs from SCF MO coefficient file

 -----------------------------------------------------------------------
  General SCF calculation program by
  Eric Jon Sundstrom, Paul Horn, Yuezhi Mao, Dmitri Zuev, Alec White,
  David Stuck, Shaama M.S., Shane Yost, Joonho Lee, David Small,
  Daniel Levine, Susi Lehtola, Hugh Burton, Evgeny Epifanovsky,
  Bang C. Huynh
 -----------------------------------------------------------------------
 Exchange:     0.1500 Hartree-Fock + 1.0000 wB97M-V + LR-HF
 Correlation:  1.0000 wB97M-V
 Using SG-2 standard quadrature grid
 Nonlocal Correlation:  VV10 with C = 0.0100 and b = 6.00 and scale = 1.00000
 Grid used for NLC:  SG-1 standard quadrature
 
 Citation of the SMD model:
 Marenich, A.V.; Cramer, C.J.; Truhlar, D.G.
 J. Phys. Chem. B 2009, 113, 6378-6396.
 iSolventCode=           1
 Solvent: water                                                           
 
 vradii
            1           2           3           4           5           6
    1   1.8500000   1.5200000   1.5200000   1.5200000   1.5200000   1.2000000
 -------------------------------------------------------
 OpenMP BLAS3 based DFT computing Module                
 Release: version 1.0, May 2013, Q-Chem Inc. Pittsburgh 
 -------------------------------------------------------
 A unrestricted SCF calculation will be
 performed using Roothaan-Hall, DIIS, GDM
 SCF converges when RMS gradient is below 1.0e-07
 ---------------------------------------
  Cycle       Energy         DIIS error
 ---------------------------------------
    1    -339.5027117108      3.34e-04  Roothaan Step
 ---------------------------------------
  Cycle       Energy         DIIS error
 ---------------------------------------
    1    -339.5211602618      4.01e-04  
    2    -339.5229655740      3.95e-04  Done DIIS. Switching to GDM
 ---------------------------------------
  Cycle       Energy        RMS Gradient
 ---------------------------------------
    1    -339.5229655740      1.71e-02   Normal BFGS step
    2    -339.5221879164      2.80e-02  Line search: overstep
    3    -339.5245580971      3.25e-03   Normal BFGS step
    4    -339.5246240394      1.15e-03   Normal BFGS step
    5    -339.5246346480      1.01e-03   Normal BFGS step
    6    -339.5246377466      2.04e-04   Normal BFGS step
    7    -339.5246380428      2.42e-04   Normal BFGS step
    8    -339.5246382084      9.66e-05   Normal BFGS step
    9    -339.5246382317      5.64e-05   Normal BFGS step
   10    -339.5246382459      4.80e-05   Normal BFGS step
   11    -339.5246382525      3.89e-05   Normal BFGS step
   12    -339.5246382574      2.88e-05   Normal BFGS step
   13    -339.5246382630      1.67e-05   Normal BFGS step
   14    -339.5246382654      1.19e-05   Normal BFGS step
   15    -339.5246382663      5.70e-06   Normal BFGS step
   16    -339.5246382663      1.86e-06   Normal BFGS step
   17    -339.5246382664      5.46e-07   Normal BFGS step
   18    -339.5246382664      3.17e-07   Normal BFGS step
   19    -339.5246382664      8.42e-08  Convergence criterion met
 ---------------------------------------
 SCF time:   CPU 209.00s  wall 26.00s 
<S^2> =          0.753748379
(3)  G-ENP(liq) elect-nuc-pol free energy of system     -339.524638266 a.u.
(4)  G-CDS(liq) cavity-dispersion-solvent structure 
     free energy                                                3.6147 kcal/mol
(6)  G-S(liq) free energy of system                     -339.518877953 a.u.
 SCF   energy in the final basis set =     -339.5188779535
 Total energy in the final basis set =     -339.5188779535
 
 --------------------------------------------------------------
 
                    Orbital Energies (a.u.)
 --------------------------------------------------------------
 
 Alpha MOs
 -- Occupied --
-19.4901 -19.4487 -19.4151 -19.3624 -10.5591  -1.3823  -1.2779  -1.2061
 -1.0398  -0.7954  -0.7076  -0.6711  -0.6526  -0.6059  -0.5813  -0.5616
 -0.4739  -0.4698  -0.4271  -0.4222
 -- Virtual --
  0.0335   0.0708   0.0796   0.0847   0.0952   0.1162   0.1434   0.1816
  0.2136   0.2176   0.2203   0.2293   0.2526   0.2653   0.2752   0.2812
  0.2911   0.3035   0.3151   0.3305   0.3425   0.3710   0.3869   0.4162
  0.4354   0.4604   0.5549   0.6160   0.6415   0.7053   0.7122   0.7558
  0.8332   0.8553   0.8646   0.9507   1.0175   1.0291   1.0687   1.0699
  1.0821   1.0918   1.1139   1.1401   1.1413   1.1721   1.1883   1.2214
  1.2528   1.3699   1.3871   1.4772   1.4917   1.5095   1.5285   1.5759
  1.6038   1.6348   1.6551   1.7212   1.7695   1.7889   1.8341   1.9059
  2.0655   2.1174   2.1520   2.1927   2.2510   2.3456   2.3536   2.4255
  2.4950   2.5496   2.6961   2.7594   2.8093   2.8825   3.1109   3.1295
  3.1617   3.1788   3.3031   3.3776   3.4955   3.5043   3.5669   3.5841
  3.6670   3.6980   3.7658   3.8945   3.9936   4.1888   4.3533   4.5162
  4.6823   4.7646   4.8148   4.9589   4.9957   5.0471   5.0492   5.0862
  5.0985   5.1043   5.1234   5.1365   5.1746   5.1790   5.1927   5.2301
  5.2483   5.2522   5.3056   5.3139   5.4101   5.5431   5.5505   5.5824
  5.5938   5.6134   5.7986   5.8234   6.0614   6.1583   6.4075   6.4448
  6.5297   6.5606   6.7369   6.7578   6.8728   6.8818   6.8884   6.9600
  6.9820   7.0204   7.0481   7.1108   7.1743   7.2175   7.2947   7.3148
  7.3431   7.4233   7.4371   7.5457   7.5841   7.6954   7.7638   7.8210
  7.9586   7.9945   8.1014  25.1700  50.3698  50.4697  50.5670  50.7226
 
 Beta MOs
 -- Occupied --
-19.4829 -19.4278 -19.4152 -19.3613 -10.5594  -1.3617  -1.2726  -1.2046
 -1.0036  -0.7895  -0.6934  -0.6491  -0.6386  -0.5935  -0.5594  -0.5329
 -0.4646  -0.4617  -0.4057
 -- Virtual --
 -0.0609   0.0338   0.0713   0.0805   0.0858   0.1052   0.1166   0.1497
  0.1831   0.2153   0.2267   0.2303   0.2307   0.2577   0.2669   0.2768
  0.2833   0.2936   0.3045   0.3168   0.3319   0.3439   0.3719   0.3875
  0.4187   0.4357   0.4600   0.5555   0.6167   0.6415   0.7064   0.7127
  0.7561   0.8374   0.8553   0.8674   0.9558   1.0241   1.0312   1.0696
  1.0857   1.0950   1.1028   1.1154   1.1433   1.1667   1.1742   1.1929
  1.2268   1.2545   1.3711   1.4117   1.4852   1.5111   1.5128   1.5425
  1.5825   1.6180   1.6432   1.6701   1.7430   1.7748   1.7908   1.8377
  1.9120   2.0773   2.1212   2.1570   2.2073   2.2593   2.3482   2.3699
  2.4278   2.4974   2.5559   2.6980   2.7628   2.8086   2.8842   3.1123
  3.1296   3.1626   3.1797   3.3049   3.3783   3.4968   3.5044   3.5677
  3.5846   3.6691   3.6987   3.7659   3.8958   3.9938   4.1893   4.3544
  4.5539   4.7028   4.7900   4.8248   4.9732   5.0705   5.0956   5.1016
  5.1021   5.1167   5.1360   5.1421   5.1586   5.1848   5.2027   5.2097
  5.2484   5.2557   5.2674   5.3192   5.3212   5.4203   5.5545   5.5619
  5.5888   5.5979   5.6191   5.8061   5.8417   6.0637   6.1646   6.4153
  6.4863   6.5343   6.5706   6.7940   6.8248   6.8866   6.9392   6.9477
  6.9663   6.9898   7.0266   7.0630   7.1382   7.2111   7.2209   7.3006
  7.3341   7.3508   7.4450   7.4550   7.5509   7.5905   7.7005   7.7687
  7.8224   7.9618   8.0063   8.1202  25.1698  50.3829  50.4776  50.5671
 50.7235
 --------------------------------------------------------------
 
          Ground-State Mulliken Net Atomic Charges

     Atom                 Charge (a.u.)    Spin (a.u.)
  --------------------------------------------------------
      1 C                     0.543462      -0.008528
      2 O                    -0.311528      -0.001968
      3 O                    -0.450007       0.039971
      4 O                    -0.084872       0.212707
      5 O                    -0.076025       0.758203
      6 H                     0.378970      -0.000386
  --------------------------------------------------------
  Sum of atomic charges =     0.000000
  Sum of spin   charges =     1.000000

 -----------------------------------------------------------------
                    Cartesian Multipole Moments
 -----------------------------------------------------------------
    Charge (ESU x 10^10)
                 0.0000
    Dipole Moment (Debye)
         X      -0.9757      Y      -3.1173      Z       1.1664
       Tot       3.4685
    Quadrupole Moments (Debye-Ang)
        XX     -25.7738     XY       3.5165     YY     -20.0025
        XZ      -5.0961     YZ      -3.6712     ZZ     -32.2597
    Octopole Moments (Debye-Ang^2)
       XXX      50.8404    XXY       4.6670    XYY       4.2391
       YYY       8.6305    XXZ      -8.7807    XYZ       5.7038
       YYZ      -9.4473    XZZ      18.5752    YZZ      11.1756
       ZZZ     -54.6008
    Hexadecapole Moments (Debye-Ang^3)
      XXXX    -145.6254   XXXY     -44.8239   XXYY     -32.4067
      XYYY     -18.1964   YYYY    -101.5455   XXXZ     -14.1418
      XXYZ      -9.4506   XYYZ     -16.7661   YYYZ     -18.9132
      XXZZ     -61.8589   XYZZ     -18.2128   YYZZ     -61.3949
      XZZZ      -5.0353   YZZZ       4.5712   ZZZZ    -228.9606
 -----------------------------------------------------------------
 Calculating analytic gradient of the SCF energy
 Gradient of CDS energy
            1           2           3           4           5           6
    1  -0.0002236   0.0000947   0.0005064  -0.0003196   0.0000579  -0.0001159
    2  -0.0009324   0.0017005   0.0002115  -0.0007278   0.0001360  -0.0003877
    3   0.0004924  -0.0016834   0.0009893   0.0000659  -0.0000221   0.0001578
 Gradient of SCF Energy
            1           2           3           4           5           6
    1   0.0001472   0.0125616  -0.0026814   0.0010659   0.0003836  -0.0114770
    2  -0.0013322   0.0170465   0.0036053   0.0030284  -0.0009641  -0.0213840
    3   0.0028968   0.0106557  -0.0109290  -0.0013030   0.0021974  -0.0035180
 Max gradient component =       2.138E-02
 RMS gradient           =       8.599E-03
 Computing fast CPCM-SWIG gradient
 Updating gradient with PCM contributions...
 -- total gradient after adding PCM contribution --
---------------------------------------------------
  Atom         X              Y              Z     
---------------------------------------------------
   1      -0.000571      -0.000181      -0.000524
   2       0.000159       0.000035       0.000145
   3       0.000372       0.000091       0.000506
   4       0.000074       0.000109      -0.000114
   5      -0.000023      -0.000093       0.000049
   6      -0.000011       0.000038      -0.000062
---------------------------------------------------
 Number of fixed atoms: 0
 Gradient time:  CPU 27.34 s  wall 4.15 s
 ----------------------------------------------------------------
             Standard Nuclear Orientation (Angstroms)
    I     Atom           X                Y                Z
 ----------------------------------------------------------------
    1      C      -0.9113678250    -0.6691761786     0.2627741729
    2      O      -0.9016773764    -1.5214926167     1.2489500934
    3      O      -1.3947881906    -0.7447911985    -0.8246636166
    4      O      -0.2255046815     0.5250427946     0.5704555581
    5      O       0.2826249926     0.5784694341     1.7747773958
    6      H      -1.3874282190    -2.3190267349     0.9808714962
 ----------------------------------------------------------------
 Nuclear Repulsion Energy =         175.13704717 hartrees
 There are       20 alpha and       19 beta electrons
 Discretize the solute cavity surface with Lebedev spheres
	Using 110 Lebedev grid points for each H atom
	Using 194 Lebedev grid points for other atoms
	Atomic van der Waals radii will be scaled by 1.20
 Remove points where switching function is < 1.0e-08
 Keep 641 surface tesserae and discard 439 interior tesserae
 Molecular Surface Area = 79.988 Angst**2

                       Distance Matrix (Angstroms)
             C (  1)   O (  2)   O (  3)   O (  4)   O (  5)
   O (  2)  1.303488
   O (  3)  1.192449  2.268545
   O (  4)  1.411111  2.259618  2.219473
   O (  5)  2.295298  2.467571  3.364792  1.308221
   H (  6)  1.861264  0.971535  2.395460  3.099555  3.437273
 
 Requested basis set is 6-311++G(2df,2p)
 There are 46 shells and 180 basis functions
 A cutoff of  1.0D-12 yielded   1040 shell pairs
 There are     16227 function pairs (     21103 Cartesian)
 Smallest overlap matrix eigenvalue = 3.63E-04
 Guess MOs from SCF MO coefficient file

 -----------------------------------------------------------------------
  General SCF calculation program by
  Eric Jon Sundstrom, Paul Horn, Yuezhi Mao, Dmitri Zuev, Alec White,
  David Stuck, Shaama M.S., Shane Yost, Joonho Lee, David Small,
  Daniel Levine, Susi Lehtola, Hugh Burton, Evgeny Epifanovsky,
  Bang C. Huynh
 -----------------------------------------------------------------------
 Exchange:     0.1500 Hartree-Fock + 1.0000 wB97M-V + LR-HF
 Correlation:  1.0000 wB97M-V
 Using SG-2 standard quadrature grid
 Nonlocal Correlation:  VV10 with C = 0.0100 and b = 6.00 and scale = 1.00000
 Grid used for NLC:  SG-1 standard quadrature
 
 Citation of the SMD model:
 Marenich, A.V.; Cramer, C.J.; Truhlar, D.G.
 J. Phys. Chem. B 2009, 113, 6378-6396.
 iSolventCode=           1
 Solvent: water                                                           
 
 vradii
            1           2           3           4           5           6
    1   1.8500000   1.5200000   1.5200000   1.5200000   1.5200000   1.2000000
 -------------------------------------------------------
 OpenMP BLAS3 based DFT computing Module                
 Release: version 1.0, May 2013, Q-Chem Inc. Pittsburgh 
 -------------------------------------------------------
 A unrestricted SCF calculation will be
 performed using Roothaan-Hall, DIIS, GDM
 SCF converges when RMS gradient is below 1.0e-07
 ---------------------------------------
  Cycle       Energy         DIIS error
 ---------------------------------------
    1    -339.5027303676      3.34e-04  Roothaan Step
 ---------------------------------------
  Cycle       Energy         DIIS error
 ---------------------------------------
    1    -339.5211501944      4.02e-04  
    2    -339.5229357033      3.99e-04  Done DIIS. Switching to GDM
 ---------------------------------------
  Cycle       Energy        RMS Gradient
 ---------------------------------------
    1    -339.5229357033      1.73e-02   Normal BFGS step
    2    -339.5221296137      2.83e-02  Line search: overstep
    3    -339.5245559887      3.23e-03   Normal BFGS step
    4    -339.5246216556      1.16e-03   Normal BFGS step
    5    -339.5246321959      9.93e-04   Normal BFGS step
    6    -339.5246353060      2.00e-04   Normal BFGS step
    7    -339.5246355828      2.26e-04   Normal BFGS step
    8    -339.5246357380      8.69e-05   Normal BFGS step
    9    -339.5246357530      3.30e-05   Normal BFGS step
   10    -339.5246357599      1.32e-05   Normal BFGS step
   11    -339.5246357614      1.15e-05   Normal BFGS step
   12    -339.5246357618      1.02e-05   Normal BFGS step
   13    -339.5246357621      7.94e-06   Normal BFGS step
   14    -339.5246357623      5.57e-06   Normal BFGS step
   15    -339.5246357626      4.58e-06   Normal BFGS step
   16    -339.5246357627      2.36e-06   Normal BFGS step
   17    -339.5246357627      6.16e-07   Normal BFGS step
   18    -339.5246357627      2.87e-07   Normal BFGS step
   19    -339.5246357627      1.26e-07   Normal BFGS step
   20    -339.5246357627      3.04e-08  Convergence criterion met
 ---------------------------------------
 SCF time:   CPU 213.53s  wall 27.00s 
<S^2> =          0.753749635
(3)  G-ENP(liq) elect-nuc-pol free energy of system     -339.524635763 a.u.
(4)  G-CDS(liq) cavity-dispersion-solvent structure 
     free energy                                                3.6135 kcal/mol
(6)  G-S(liq) free energy of system                     -339.518877294 a.u.
 SCF   energy in the final basis set =     -339.5188772939
 Total energy in the final basis set =     -339.5188772939
 
 --------------------------------------------------------------
 
                    Orbital Energies (a.u.)
 --------------------------------------------------------------
 
 Alpha MOs
 -- Occupied --
-19.4904 -19.4489 -19.4149 -19.3623 -10.5591  -1.3827  -1.2776  -1.2057
 -1.0403  -0.7954  -0.7078  -0.6713  -0.6525  -0.6060  -0.5812  -0.5614
 -0.4738  -0.4696  -0.4273  -0.4224
 -- Virtual --
  0.0335   0.0708   0.0796   0.0847   0.0951   0.1162   0.1433   0.1817
  0.2135   0.2176   0.2203   0.2293   0.2526   0.2652   0.2753   0.2814
  0.2911   0.3035   0.3151   0.3305   0.3425   0.3710   0.3869   0.4163
  0.4354   0.4603   0.5546   0.6159   0.6415   0.7057   0.7122   0.7556
  0.8330   0.8553   0.8645   0.9504   1.0175   1.0288   1.0688   1.0698
  1.0819   1.0920   1.1138   1.1403   1.1412   1.1719   1.1883   1.2213
  1.2529   1.3701   1.3871   1.4770   1.4919   1.5097   1.5283   1.5759
  1.6038   1.6343   1.6550   1.7211   1.7695   1.7891   1.8340   1.9059
  2.0651   2.1174   2.1523   2.1926   2.2517   2.3458   2.3534   2.4253
  2.4947   2.5497   2.6956   2.7595   2.8093   2.8829   3.1112   3.1292
  3.1619   3.1793   3.3034   3.3775   3.4956   3.5044   3.5672   3.5832
  3.6680   3.6985   3.7659   3.8934   3.9936   4.1885   4.3522   4.5162
  4.6823   4.7648   4.8150   4.9593   4.9956   5.0469   5.0491   5.0863
  5.0983   5.1044   5.1233   5.1366   5.1746   5.1788   5.1926   5.2304
  5.2475   5.2521   5.3060   5.3139   5.4102   5.5433   5.5506   5.5822
  5.5938   5.6130   5.7979   5.8253   6.0605   6.1567   6.4076   6.4447
  6.5266   6.5606   6.7368   6.7571   6.8727   6.8816   6.8884   6.9599
  6.9820   7.0207   7.0483   7.1106   7.1746   7.2177   7.2945   7.3147
  7.3434   7.4231   7.4377   7.5442   7.5846   7.6960   7.7633   7.8209
  7.9579   7.9944   8.1016  25.1701  50.3697  50.4698  50.5663  50.7217
 
 Beta MOs
 -- Occupied --
-19.4831 -19.4280 -19.4150 -19.3612 -10.5595  -1.3620  -1.2723  -1.2043
 -1.0041  -0.7895  -0.6935  -0.6490  -0.6386  -0.5936  -0.5593  -0.5329
 -0.4644  -0.4615  -0.4059
 -- Virtual --
 -0.0612   0.0338   0.0713   0.0805   0.0858   0.1051   0.1166   0.1497
  0.1832   0.2153   0.2267   0.2303   0.2307   0.2576   0.2669   0.2769
  0.2835   0.2936   0.3046   0.3168   0.3320   0.3440   0.3720   0.3875
  0.4188   0.4357   0.4599   0.5552   0.6166   0.6415   0.7068   0.7127
  0.7559   0.8371   0.8553   0.8673   0.9555   1.0241   1.0309   1.0697
  1.0856   1.0950   1.1029   1.1153   1.1434   1.1666   1.1740   1.1929
  1.2268   1.2545   1.3713   1.4116   1.4851   1.5114   1.5128   1.5423
  1.5825   1.6180   1.6428   1.6700   1.7428   1.7748   1.7911   1.8376
  1.9119   2.0770   2.1212   2.1574   2.2072   2.2599   2.3484   2.3697
  2.4276   2.4971   2.5559   2.6976   2.7629   2.8086   2.8846   3.1125
  3.1293   3.1629   3.1803   3.3052   3.3782   3.4968   3.5044   3.5679
  3.5836   3.6701   3.6991   3.7660   3.8948   3.9938   4.1890   4.3534
  4.5538   4.7027   4.7901   4.8250   4.9735   5.0705   5.0956   5.1016
  5.1021   5.1166   5.1360   5.1422   5.1585   5.1848   5.2026   5.2096
  5.2488   5.2549   5.2673   5.3195   5.3212   5.4204   5.5548   5.5621
  5.5886   5.5978   5.6188   5.8054   5.8436   6.0628   6.1630   6.4154
  6.4862   6.5313   6.5705   6.7933   6.8247   6.8866   6.9391   6.9476
  6.9662   6.9898   7.0270   7.0631   7.1380   7.2115   7.2211   7.3004
  7.3339   7.3511   7.4456   7.4548   7.5492   7.5911   7.7011   7.7683
  7.8223   7.9611   8.0062   8.1204  25.1698  50.3829  50.4777  50.5665
 50.7226
 --------------------------------------------------------------
 
          Ground-State Mulliken Net Atomic Charges

     Atom                 Charge (a.u.)    Spin (a.u.)
  --------------------------------------------------------
      1 C                     0.543719      -0.008537
      2 O                    -0.312362      -0.001969
      3 O                    -0.450517       0.040213
      4 O                    -0.084517       0.212039
      5 O                    -0.075331       0.758640
      6 H                     0.379007      -0.000385
  --------------------------------------------------------
  Sum of atomic charges =    -0.000000
  Sum of spin   charges =     1.000000

 -----------------------------------------------------------------
                    Cartesian Multipole Moments
 -----------------------------------------------------------------
    Charge (ESU x 10^10)
                 0.0000
    Dipole Moment (Debye)
         X      -0.9658      Y      -3.1040      Z       1.1711
       Tot       3.4553
    Quadrupole Moments (Debye-Ang)
        XX     -25.7864     XY       3.5054     YY     -20.0153
        XZ      -5.0926     YZ      -3.6602     ZZ     -32.2574
    Octopole Moments (Debye-Ang^2)
       XXX      50.8586    XXY       4.6827    XYY       4.2516
       YYY       8.6557    XXZ      -8.7799    XYZ       5.6986
       YYZ      -9.4534    XZZ      18.5847    YZZ      11.1943
       ZZZ     -54.5797
    Hexadecapole Moments (Debye-Ang^3)
      XXXX    -145.6291   XXXY     -44.8311   XXYY     -32.4149
      XYYY     -18.2027   YYYY    -101.5641   XXXZ     -14.1351
      XXYZ      -9.4384   XYYZ     -16.7584   YYYZ     -18.8860
      XXZZ     -61.8584   XYZZ     -18.2143   YYZZ     -61.4035
      XZZZ      -5.0253   YZZZ       4.6102   ZZZZ    -228.9331
 -----------------------------------------------------------------
 Calculating analytic gradient of the SCF energy
 Gradient of CDS energy
            1           2           3           4           5           6
    1  -0.0000886   0.0000966   0.0005089  -0.0004584   0.0000577  -0.0001162
    2  -0.0007030   0.0017135   0.0002119  -0.0009699   0.0001355  -0.0003880
    3   0.0005615  -0.0016957   0.0009944   0.0000034  -0.0000214   0.0001577
 Gradient of SCF Energy
            1           2           3           4           5           6
    1   0.0010981   0.0123403  -0.0030710   0.0007500   0.0003404  -0.0114579
    2  -0.0000443   0.0166206   0.0033754   0.0024696  -0.0009641  -0.0214572
    3   0.0032158   0.0107793  -0.0114047  -0.0013071   0.0021030  -0.0033863
 Max gradient component =       2.146E-02
 RMS gradient           =       8.577E-03
 Computing fast CPCM-SWIG gradient
 Updating gradient with PCM contributions...
 -- total gradient after adding PCM contribution --
---------------------------------------------------
  Atom         X              Y              Z     
---------------------------------------------------
   1       0.000364       0.001092      -0.000190
   2      -0.000026      -0.000352       0.000297
   3      -0.000015      -0.000121       0.000005
   4      -0.000235      -0.000450      -0.000104
   5      -0.000072      -0.000096      -0.000060
   6      -0.000017      -0.000073       0.000052
---------------------------------------------------
 Number of fixed atoms: 0
 Gradient time:  CPU 26.84 s  wall 3.87 s
 ----------------------------------------------------------------
             Standard Nuclear Orientation (Angstroms)
    I     Atom           X                Y                Z
 ----------------------------------------------------------------
    1      C      -0.9113678250    -0.6711761786     0.2627741729
    2      O      -0.9016773764    -1.5214926167     1.2489500934
    3      O      -1.3947881906    -0.7447911985    -0.8246636166
    4      O      -0.2255046815     0.5250427946     0.5704555581
    5      O       0.2826249926     0.5784694341     1.7747773958
    6      H      -1.3874282190    -2.3190267349     0.9808714962
 ----------------------------------------------------------------
 Nuclear Repulsion Energy =         175.13365381 hartrees
 There are       20 alpha and       19 beta electrons
 Discretize the solute cavity surface with Lebedev spheres
	Using 110 Lebedev grid points for each H atom
	Using 194 Lebedev grid points for other atoms
	Atomic van der Waals radii will be scaled by 1.20
 Remove points where switching function is < 1.0e-08
 Keep 640 surface tesserae and discard 440 interior tesserae
 Molecular Surface Area = 79.989 Angst**2

                       Distance Matrix (Angstroms)
             C (  1)   O (  2)   O (  3)   O (  4)   O (  5)
   O (  2)  1.302181
   O (  3)  1.192324  2.268545
   O (  4)  1.412804  2.259618  2.219473
   O (  5)  2.296386  2.467571  3.364792  1.308221
   H (  6)  1.859492  0.971535  2.395460  3.099555  3.437273
 
 Requested basis set is 6-311++G(2df,2p)
 There are 46 shells and 180 basis functions
 A cutoff of  1.0D-12 yielded   1040 shell pairs
 There are     16227 function pairs (     21103 Cartesian)
 Smallest overlap matrix eigenvalue = 3.63E-04
 Guess MOs from SCF MO coefficient file

 -----------------------------------------------------------------------
  General SCF calculation program by
  Eric Jon Sundstrom, Paul Horn, Yuezhi Mao, Dmitri Zuev, Alec White,
  David Stuck, Shaama M.S., Shane Yost, Joonho Lee, David Small,
  Daniel Levine, Susi Lehtola, Hugh Burton, Evgeny Epifanovsky,
  Bang C. Huynh
 -----------------------------------------------------------------------
 Exchange:     0.1500 Hartree-Fock + 1.0000 wB97M-V + LR-HF
 Correlation:  1.0000 wB97M-V
 Using SG-2 standard quadrature grid
 Nonlocal Correlation:  VV10 with C = 0.0100 and b = 6.00 and scale = 1.00000
 Grid used for NLC:  SG-1 standard quadrature
 
 Citation of the SMD model:
 Marenich, A.V.; Cramer, C.J.; Truhlar, D.G.
 J. Phys. Chem. B 2009, 113, 6378-6396.
 iSolventCode=           1
 Solvent: water                                                           
 
 vradii
            1           2           3           4           5           6
    1   1.8500000   1.5200000   1.5200000   1.5200000   1.5200000   1.2000000
 -------------------------------------------------------
 OpenMP BLAS3 based DFT computing Module                
 Release: version 1.0, May 2013, Q-Chem Inc. Pittsburgh 
 -------------------------------------------------------
 A unrestricted SCF calculation will be
 performed using Roothaan-Hall, DIIS, GDM
 SCF converges when RMS gradient is below 1.0e-07
 ---------------------------------------
  Cycle       Energy         DIIS error
 ---------------------------------------
    1    -339.5027213610      3.33e-04  Roothaan Step
 ---------------------------------------
  Cycle       Energy         DIIS error
 ---------------------------------------
    1    -339.5211432497      4.02e-04  
    2    -339.5229454995      3.98e-04  Done DIIS. Switching to GDM
 ---------------------------------------
  Cycle       Energy        RMS Gradient
 ---------------------------------------
    1    -339.5229454995      1.73e-02   Normal BFGS step
    2    -339.5221546297      2.84e-02  Line search: overstep
    3    -339.5245582886      3.29e-03   Normal BFGS step
    4    -339.5246248797      1.14e-03   Normal BFGS step
    5    -339.5246355412      1.02e-03   Normal BFGS step
    6    -339.5246386717      2.07e-04   Normal BFGS step
    7    -339.5246389700      2.47e-04   Normal BFGS step
    8    -339.5246391354      9.92e-05   Normal BFGS step
    9    -339.5246391553      3.63e-05   Normal BFGS step
   10    -339.5246391646      2.34e-05   Normal BFGS step
   11    -339.5246391669      2.03e-05   Normal BFGS step
   12    -339.5246391679      1.75e-05   Normal BFGS step
   13    -339.5246391691      1.14e-05   Normal BFGS step
   14    -339.5246391699      8.22e-06   Normal BFGS step
   15    -339.5246391705      5.67e-06   Normal BFGS step
   16    -339.5246391706      2.12e-06   Normal BFGS step
   17    -339.5246391706      5.02e-07   Normal BFGS step
   18    -339.5246391706      3.34e-07   Normal BFGS step
   19    -339.5246391706      1.01e-07   Normal BFGS step
   20    -339.5246391706      3.04e-08  Convergence criterion met
 ---------------------------------------
 SCF time:   CPU 217.51s  wall 27.00s 
<S^2> =          0.753749089
(3)  G-ENP(liq) elect-nuc-pol free energy of system     -339.524639171 a.u.
(4)  G-CDS(liq) cavity-dispersion-solvent structure 
     free energy                                                3.6155 kcal/mol
(6)  G-S(liq) free energy of system                     -339.518877508 a.u.
 SCF   energy in the final basis set =     -339.5188775077
 Total energy in the final basis set =     -339.5188775077
 
 --------------------------------------------------------------
 
                    Orbital Energies (a.u.)
 --------------------------------------------------------------
 
 Alpha MOs
 -- Occupied --
-19.4901 -19.4486 -19.4153 -19.3623 -10.5591  -1.3823  -1.2781  -1.2061
 -1.0396  -0.7956  -0.7076  -0.6711  -0.6526  -0.6059  -0.5814  -0.5616
 -0.4739  -0.4697  -0.4271  -0.4222
 -- Virtual --
  0.0335   0.0708   0.0796   0.0847   0.0952   0.1162   0.1434   0.1816
  0.2137   0.2176   0.2204   0.2293   0.2526   0.2653   0.2753   0.2811
  0.2911   0.3035   0.3151   0.3305   0.3424   0.3709   0.3869   0.4162
  0.4355   0.4605   0.5549   0.6160   0.6415   0.7052   0.7121   0.7557
  0.8334   0.8553   0.8646   0.9507   1.0175   1.0293   1.0688   1.0699
  1.0821   1.0918   1.1139   1.1400   1.1413   1.1722   1.1883   1.2215
  1.2529   1.3697   1.3872   1.4772   1.4918   1.5093   1.5286   1.5758
  1.6038   1.6350   1.6551   1.7213   1.7694   1.7888   1.8340   1.9059
  2.0658   2.1173   2.1518   2.1928   2.2508   2.3455   2.3536   2.4255
  2.4949   2.5496   2.6961   2.7595   2.8093   2.8825   3.1109   3.1298
  3.1617   3.1786   3.3031   3.3778   3.4956   3.5045   3.5667   3.5840
  3.6671   3.6980   3.7658   3.8949   3.9932   4.1887   4.3535   4.5162
  4.6824   4.7644   4.8147   4.9587   4.9957   5.0471   5.0492   5.0863
  5.0985   5.1042   5.1234   5.1366   5.1746   5.1790   5.1927   5.2300
  5.2487   5.2522   5.3055   5.3137   5.4100   5.5430   5.5502   5.5827
  5.5938   5.6133   5.7990   5.8228   6.0617   6.1591   6.4070   6.4447
  6.5294   6.5607   6.7369   6.7582   6.8729   6.8820   6.8884   6.9600
  6.9819   7.0197   7.0481   7.1107   7.1742   7.2175   7.2946   7.3149
  7.3432   7.4233   7.4365   7.5463   7.5844   7.6953   7.7636   7.8209
  7.9587   7.9945   8.1013  25.1702  50.3698  50.4696  50.5675  50.7222
 
 Beta MOs
 -- Occupied --
-19.4829 -19.4277 -19.4154 -19.3612 -10.5595  -1.3616  -1.2727  -1.2046
 -1.0035  -0.7897  -0.6934  -0.6492  -0.6386  -0.5935  -0.5594  -0.5329
 -0.4645  -0.4616  -0.4057
 -- Virtual --
 -0.0609   0.0338   0.0713   0.0805   0.0858   0.1052   0.1166   0.1497
  0.1831   0.2154   0.2267   0.2303   0.2307   0.2578   0.2669   0.2769
  0.2832   0.2936   0.3045   0.3168   0.3319   0.3439   0.3719   0.3875
  0.4187   0.4357   0.4601   0.5555   0.6166   0.6414   0.7063   0.7125
  0.7560   0.8375   0.8553   0.8673   0.9558   1.0241   1.0314   1.0696
  1.0858   1.0949   1.1029   1.1154   1.1432   1.1667   1.1743   1.1929
  1.2269   1.2545   1.3708   1.4118   1.4853   1.5111   1.5126   1.5426
  1.5825   1.6180   1.6434   1.6701   1.7430   1.7746   1.7907   1.8377
  1.9119   2.0776   2.1211   2.1569   2.2074   2.2591   2.3481   2.3699
  2.4278   2.4973   2.5558   2.6980   2.7629   2.8086   2.8841   3.1122
  3.1299   3.1627   3.1795   3.3049   3.3784   3.4969   3.5045   3.5674
  3.5844   3.6691   3.6987   3.7659   3.8963   3.9934   4.1892   4.3546
  4.5539   4.7028   4.7898   4.8247   4.9729   5.0705   5.0956   5.1016
  5.1021   5.1168   5.1360   5.1422   5.1587   5.1848   5.2028   5.2097
  5.2482   5.2561   5.2675   5.3191   5.3211   5.4203   5.5544   5.5616
  5.5891   5.5979   5.6190   5.8064   5.8412   6.0641   6.1654   6.4148
  6.4862   6.5342   6.5707   6.7946   6.8248   6.8866   6.9392   6.9477
  6.9662   6.9898   7.0259   7.0630   7.1382   7.2110   7.2209   7.3006
  7.3342   7.3509   7.4445   7.4550   7.5515   7.5906   7.7004   7.7686
  7.8223   7.9620   8.0063   8.1201  25.1700  50.3829  50.4775  50.5676
 50.7230
 --------------------------------------------------------------
 
          Ground-State Mulliken Net Atomic Charges

     Atom                 Charge (a.u.)    Spin (a.u.)
  --------------------------------------------------------
      1 C                     0.543269      -0.008546
      2 O                    -0.310792      -0.001971
      3 O                    -0.450425       0.039938
      4 O                    -0.084875       0.212879
      5 O                    -0.076232       0.758086
      6 H                     0.379055      -0.000386
  --------------------------------------------------------
  Sum of atomic charges =    -0.000000
  Sum of spin   charges =     1.000000

 -----------------------------------------------------------------
                    Cartesian Multipole Moments
 -----------------------------------------------------------------
    Charge (ESU x 10^10)
                -0.0000
    Dipole Moment (Debye)
         X      -0.9728      Y      -3.1253      Z       1.1705
       Tot       3.4762
    Quadrupole Moments (Debye-Ang)
        XX     -25.7796     XY       3.5214     YY     -19.9918
        XZ      -5.1025     YZ      -3.6826     ZZ     -32.2591
    Octopole Moments (Debye-Ang^2)
       XXX      50.8365    XXY       4.6666    XYY       4.2254
       YYY       8.6176    XXZ      -8.7718    XYZ       5.7154
       YYZ      -9.4330    XZZ      18.5628    YZZ      11.1673
       ZZZ     -54.5885
    Hexadecapole Moments (Debye-Ang^3)
      XXXX    -145.5922   XXXY     -44.8195   XXYY     -32.3913
      XYYY     -18.1768   YYYY    -101.5350   XXXZ     -14.1627
      XXYZ      -9.4672   XYYZ     -16.7876   YYYZ     -18.9492
      XXZZ     -61.8417   XYZZ     -18.2019   YYZZ     -61.3923
      XZZZ      -5.0680   YZZZ       4.5364   ZZZZ    -228.9526
 -----------------------------------------------------------------
 Calculating analytic gradient of the SCF energy
 Gradient of CDS energy
            1           2           3           4           5           6
    1  -0.0002629   0.0000964   0.0005086  -0.0002834   0.0000576  -0.0001163
    2  -0.0009827   0.0016875   0.0002115  -0.0006657   0.0001367  -0.0003872
    3   0.0004604  -0.0016706   0.0009931   0.0000818  -0.0000222   0.0001576
 Gradient of SCF Energy
            1           2           3           4           5           6
    1   0.0006308   0.0124442  -0.0030011   0.0010505   0.0003602  -0.0114846
    2  -0.0021428   0.0174119   0.0037665   0.0033228  -0.0009937  -0.0213647
    3   0.0035419   0.0104427  -0.0113121  -0.0013324   0.0022100  -0.0035499
 Max gradient component =       2.136E-02
 RMS gradient           =       8.682E-03
 Computing fast CPCM-SWIG gradient
 Updating gradient with PCM contributions...
 -- total gradient after adding PCM contribution --
---------------------------------------------------
  Atom         X              Y              Z     
---------------------------------------------------
   1      -0.000111      -0.000973       0.000143
   2       0.000042       0.000373      -0.000080
   3       0.000057       0.000234       0.000120
   4       0.000064       0.000403      -0.000146
   5      -0.000045      -0.000123       0.000063
   6      -0.000007       0.000086      -0.000100
---------------------------------------------------
 Number of fixed atoms: 0
 Gradient time:  CPU 27.15 s  wall 4.11 s
 ----------------------------------------------------------------
             Standard Nuclear Orientation (Angstroms)
    I     Atom           X                Y                Z
 ----------------------------------------------------------------
    1      C      -0.9113678250    -0.6701761786     0.2637741729
    2      O      -0.9016773764    -1.5214926167     1.2489500934
    3      O      -1.3947881906    -0.7447911985    -0.8246636166
    4      O      -0.2255046815     0.5250427946     0.5704555581
    5      O       0.2826249926     0.5784694341     1.7747773958
    6      H      -1.3874282190    -2.3190267349     0.9808714962
 ----------------------------------------------------------------
 Nuclear Repulsion Energy =         175.13670127 hartrees
 There are       20 alpha and       19 beta electrons
 Discretize the solute cavity surface with Lebedev spheres
	Using 110 Lebedev grid points for each H atom
	Using 194 Lebedev grid points for other atoms
	Atomic van der Waals radii will be scaled by 1.20
 Remove points where switching function is < 1.0e-08
 Keep 641 surface tesserae and discard 439 interior tesserae
 Molecular Surface Area = 79.987 Angst**2

                       Distance Matrix (Angstroms)
             C (  1)   O (  2)   O (  3)   O (  4)   O (  5)
   O (  2)  1.302077
   O (  3)  1.193298  2.268545
   O (  4)  1.411740  2.259618  2.219473
   O (  5)  2.295183  2.467571  3.364792  1.308221
   H (  6)  1.859992  0.971535  2.395460  3.099555  3.437273
 
 Requested basis set is 6-311++G(2df,2p)
 There are 46 shells and 180 basis functions
 A cutoff of  1.0D-12 yielded   1040 shell pairs
 There are     16227 function pairs (     21103 Cartesian)
 Smallest overlap matrix eigenvalue = 3.63E-04
 Guess MOs from SCF MO coefficient file

 -----------------------------------------------------------------------
  General SCF calculation program by
  Eric Jon Sundstrom, Paul Horn, Yuezhi Mao, Dmitri Zuev, Alec White,
  David Stuck, Shaama M.S., Shane Yost, Joonho Lee, David Small,
  Daniel Levine, Susi Lehtola, Hugh Burton, Evgeny Epifanovsky,
  Bang C. Huynh
 -----------------------------------------------------------------------
 Exchange:     0.1500 Hartree-Fock + 1.0000 wB97M-V + LR-HF
 Correlation:  1.0000 wB97M-V
 Using SG-2 standard quadrature grid
 Nonlocal Correlation:  VV10 with C = 0.0100 and b = 6.00 and scale = 1.00000
 Grid used for NLC:  SG-1 standard quadrature
 
 Citation of the SMD model:
 Marenich, A.V.; Cramer, C.J.; Truhlar, D.G.
 J. Phys. Chem. B 2009, 113, 6378-6396.
 iSolventCode=           1
 Solvent: water                                                           
 
 vradii
            1           2           3           4           5           6
    1   1.8500000   1.5200000   1.5200000   1.5200000   1.5200000   1.2000000
 -------------------------------------------------------
 OpenMP BLAS3 based DFT computing Module                
 Release: version 1.0, May 2013, Q-Chem Inc. Pittsburgh 
 -------------------------------------------------------
 A unrestricted SCF calculation will be
 performed using Roothaan-Hall, DIIS, GDM
 SCF converges when RMS gradient is below 1.0e-07
 ---------------------------------------
  Cycle       Energy         DIIS error
 ---------------------------------------
    1    -339.5026731041      3.34e-04  Roothaan Step
 ---------------------------------------
  Cycle       Energy         DIIS error
 ---------------------------------------
    1    -339.5211218890      4.04e-04  
    2    -339.5229082583      4.02e-04  Done DIIS. Switching to GDM
 ---------------------------------------
  Cycle       Energy        RMS Gradient
 ---------------------------------------
    1    -339.5229082583      1.76e-02   Normal BFGS step
    2    -339.5220825024      2.87e-02  Line search: overstep
    3    -339.5245569917      3.27e-03   Normal BFGS step
    4    -339.5246234171      1.16e-03   Normal BFGS step
    5    -339.5246340164      1.00e-03   Normal BFGS step
    6    -339.5246371655      2.01e-04   Normal BFGS step
    7    -339.5246374472      2.28e-04   Normal BFGS step
    8    -339.5246376058      8.78e-05   Normal BFGS step
    9    -339.5246376217      3.28e-05   Normal BFGS step
   10    -339.5246376294      2.20e-05   Normal BFGS step
   11    -339.5246376316      1.89e-05   Normal BFGS step
   12    -339.5246376324      1.63e-05   Normal BFGS step
   13    -339.5246376335      1.07e-05   Normal BFGS step
   14    -339.5246376341      7.47e-06   Normal BFGS step
   15    -339.5246376347      5.34e-06   Normal BFGS step
   16    -339.5246376348      2.13e-06   Normal BFGS step
   17    -339.5246376348      5.16e-07   Normal BFGS step
   18    -339.5246376348      2.86e-07   Normal BFGS step
   19    -339.5246376348      1.01e-07   Normal BFGS step
   20    -339.5246376348      2.75e-08  Convergence criterion met
 ---------------------------------------
 SCF time:   CPU 214.03s  wall 27.00s 
<S^2> =          0.753751351
(3)  G-ENP(liq) elect-nuc-pol free energy of system     -339.524637635 a.u.
(4)  G-CDS(liq) cavity-dispersion-solvent structure 
     free energy                                                3.6150 kcal/mol
(6)  G-S(liq) free energy of system                     -339.518876753 a.u.
 SCF   energy in the final basis set =     -339.5188767526
 Total energy in the final basis set =     -339.5188767526
 
 --------------------------------------------------------------
 
                    Orbital Energies (a.u.)
 --------------------------------------------------------------
 
 Alpha MOs
 -- Occupied --
-19.4903 -19.4488 -19.4153 -19.3621 -10.5592  -1.3826  -1.2780  -1.2056
 -1.0400  -0.7957  -0.7078  -0.6713  -0.6526  -0.6060  -0.5813  -0.5614
 -0.4738  -0.4695  -0.4272  -0.4223
 -- Virtual --
  0.0335   0.0708   0.0796   0.0847   0.0950   0.1162   0.1434   0.1816
  0.2136   0.2176   0.2203   0.2293   0.2526   0.2652   0.2754   0.2812
  0.2911   0.3035   0.3151   0.3305   0.3425   0.3709   0.3869   0.4162
  0.4356   0.4606   0.5546   0.6158   0.6415   0.7053   0.7121   0.7554
  0.8334   0.8552   0.8645   0.9504   1.0175   1.0291   1.0689   1.0699
  1.0821   1.0918   1.1137   1.1401   1.1413   1.1721   1.1883   1.2214
  1.2530   1.3695   1.3871   1.4771   1.4919   1.5093   1.5284   1.5758
  1.6038   1.6347   1.6549   1.7213   1.7692   1.7889   1.8339   1.9058
  2.0656   2.1173   2.1520   2.1928   2.2513   2.3457   2.3534   2.4254
  2.4945   2.5496   2.6956   2.7599   2.8093   2.8828   3.1112   3.1299
  3.1622   3.1789   3.3036   3.3779   3.4958   3.5047   3.5666   3.5826
  3.6682   3.6986   3.7658   3.8944   3.9926   4.1883   4.3525   4.5161
  4.6823   4.7645   4.8148   4.9587   4.9956   5.0470   5.0492   5.0864
  5.0984   5.1043   5.1234   5.1367   5.1746   5.1789   5.1926   5.2301
  5.2481   5.2522   5.3057   5.3136   5.4100   5.5431   5.5500   5.5829
  5.5937   5.6128   5.7985   5.8244   6.0612   6.1583   6.4064   6.4445
  6.5258   6.5608   6.7369   6.7579   6.8728   6.8821   6.8884   6.9598
  6.9818   7.0192   7.0482   7.1105   7.1745   7.2177   7.2944   7.3149
  7.3437   7.4231   7.4365   7.5452   7.5851   7.6960   7.7629   7.8206
  7.9581   7.9942   8.1014  25.1704  50.3698  50.4697  50.5673  50.7206
 
 Beta MOs
 -- Occupied --
-19.4831 -19.4279 -19.4154 -19.3610 -10.5596  -1.3619  -1.2726  -1.2041
 -1.0038  -0.7898  -0.6935  -0.6491  -0.6387  -0.5937  -0.5592  -0.5330
 -0.4643  -0.4614  -0.4059
 -- Virtual --
 -0.0611   0.0338   0.0713   0.0805   0.0858   0.1050   0.1166   0.1497
  0.1831   0.2153   0.2267   0.2303   0.2307   0.2577   0.2669   0.2769
  0.2834   0.2936   0.3045   0.3168   0.3320   0.3440   0.3719   0.3876
  0.4187   0.4358   0.4602   0.5552   0.6165   0.6414   0.7064   0.7126
  0.7557   0.8375   0.8552   0.8672   0.9555   1.0241   1.0312   1.0697
  1.0858   1.0948   1.1030   1.1152   1.1433   1.1666   1.1742   1.1929
  1.2269   1.2546   1.3707   1.4117   1.4851   1.5110   1.5128   1.5424
  1.5824   1.6180   1.6431   1.6699   1.7430   1.7745   1.7908   1.8376
  1.9119   2.0775   2.1211   2.1570   2.2074   2.2596   2.3482   2.3696
  2.4277   2.4969   2.5558   2.6976   2.7633   2.8086   2.8845   3.1125
  3.1300   3.1632   3.1798   3.3054   3.3786   3.4971   3.5047   3.5673
  3.5830   3.6703   3.6992   3.7659   3.8957   3.9928   4.1888   4.3537
  4.5538   4.7028   4.7898   4.8247   4.9730   5.0705   5.0956   5.1018
  5.1021   5.1167   5.1359   5.1423   5.1585   5.1847   5.2027   5.2096
  5.2483   5.2555   5.2675   5.3193   5.3209   5.4203   5.5546   5.5615
  5.5892   5.5978   5.6186   5.8060   5.8428   6.0635   6.1646   6.4142
  6.4858   6.5307   6.5707   6.7944   6.8248   6.8867   6.9391   6.9477
  6.9661   6.9897   7.0254   7.0631   7.1379   7.2113   7.2211   7.3004
  7.3341   7.3513   7.4445   7.4548   7.5504   7.5915   7.7012   7.7678
  7.8220   7.9614   8.0060   8.1201  25.1702  50.3829  50.4776  50.5675
 50.7214
 --------------------------------------------------------------
 
          Ground-State Mulliken Net Atomic Charges

     Atom                 Charge (a.u.)    Spin (a.u.)
  --------------------------------------------------------
      1 C                     0.543326      -0.008578
      2 O                    -0.310802      -0.001976
      3 O                    -0.451554       0.040170
      4 O                    -0.084461       0.212333
      5 O                    -0.075712       0.758437
      6 H                     0.379203      -0.000386
  --------------------------------------------------------
  Sum of atomic charges =    -0.000000
  Sum of spin   charges =     1.000000

 -----------------------------------------------------------------
                    Cartesian Multipole Moments
 -----------------------------------------------------------------
    Charge (ESU x 10^10)
                 0.0000
    Dipole Moment (Debye)
         X      -0.9659      Y      -3.1164      Z       1.1844
       Tot       3.4710
    Quadrupole Moments (Debye-Ang)
        XX     -25.7907     XY       3.5143     YY     -19.9945
        XZ      -5.1114     YZ      -3.6843     ZZ     -32.2536
    Octopole Moments (Debye-Ang^2)
       XXX      50.8695    XXY       4.6745    XYY       4.2344
       YYY       8.6177    XXZ      -8.7568    XYZ       5.7207
       YYZ      -9.4217    XZZ      18.5723    YZZ      11.1736
       ZZZ     -54.5692
    Hexadecapole Moments (Debye-Ang^3)
      XXXX    -145.6691   XXXY     -44.8306   XXYY     -32.3987
      XYYY     -18.1739   YYYY    -101.4837   XXXZ     -14.1802
      XXYZ      -9.4741   XYYZ     -16.7956   YYYZ     -18.9563
      XXZZ     -61.8503   XYZZ     -18.2019   YYZZ     -61.3819
      XZZZ      -5.0614   YZZZ       4.5556   ZZZZ    -228.9382
 -----------------------------------------------------------------
[...]
/usr/local/qchem-5.4.1/exe/qcprog.exe_s Q_in.in_368527.1 /scratch/ari.fischer/qChem1711275.hpc-mn1/qchem368527/
                  Welcome to Q-Chem
     A Quantum Leap Into The Future Of Chemistry


 Q-Chem 5.4, Q-Chem, Inc., Pleasanton, CA (2021)

 License issued to: Nanyang Technological University (site)

 E. Epifanovsky,  A. T. B. Gilbert,  Xintian Feng,  Joonho Lee,  Yuezhi Mao,  
 N. Mardirossian,  P. Pokhilko,  A. White,  M. Wormit,  M. P. Coons,  
 A. L. Dempwolff,  Zhengting Gan,  D. Hait,  P. R. Horn,  L. D. Jacobson,  
 I. Kaliman,  J. Kussmann,  A. W. Lange,  Ka Un Lao,  D. S. Levine,  Jie Liu,  
 S. C. McKenzie,  A. F. Morrison,  K. Nanda,  F. Plasser,  D. R. Rehn,  
 M. L. Vidal,  Zhi-Qiang You,  Ying Zhu,  B. Alam,  B. Albrecht,  
 A. Aldossary,  E. Alguire,  J. H. Andersen,  D. Barton,  K. Begam,  A. Behn,  
 Y. A. Bernard,  E. J. Berquist,  H. Burton,  A. Carreras,  K. Carter-Fenk,  
 R. Chakraborty,  A. D. Chien,  K. D. Closser,  V. Cofer-Shabica,  
 S. Dasgupta,  Jia Deng,  M. de Wergifosse,  M. Diedenhofen,  Hainam Do,  
 S. Ehlert,  Po-Tung Fang,  S. Fatehi,  Qingguo Feng,  T. Friedhoff,  
 J. Gayvert,  Qinghui Ge,  G. Gidofalvi,  M. Goldey,  J. Gomes,  
 C. Gonzalez-Espinoza,  S. Gulania,  A. Gunina,  M. W. D. Hanson-Heine,  
 P. H. P. Harbach,  A. W. Hauser,  M. F. Herbst,  M. Hernandez Vera,  
 M. Hodecker,  Z. C. Holden,  S. Houck,  Xunkun Huang,  Kerwin Hui,  
 B. C. Huynh,  M. Ivanov,  Hyunjun Ji,  Hanjie Jiang,  B. Kaduk,  S. Kaehler,  
 K. Khistyaev,  Jaehoon Kim,  P. Klunzinger,  Z. Koczor-Benda,  
 Joong Hoon Koh,  D. Kosenkov,  L. Koulias,  T. Kowalczyk,  C. M. Krauter,  
 K. Kue,  A. Kunitsa,  T. Kus,  A. Landau,  K. V. Lawler,  D. Lefrancois,  
 S. Lehtola,  Rain Li,  Yi-Pei Li,  Jiashu Liang,  M. Liebenthal,  
 Hung-Hsuan Lin,  You-Sheng Lin,  Fenglai Liu,  Kuan-Yu Liu,  
 M. Loipersberger,  A. Luenser,  A. Manjanath,  P. Manohar,  E. Mansoor,  
 S. F. Manzer,  Shan-Ping Mao,  A. V. Marenich,  T. Markovich,  S. Mason,  
 S. A. Maurer,  P. F. McLaughlin,  M. F. S. J. Menger,  J.-M. Mewes,  
 S. A. Mewes,  P. Morgante,  J. W. Mullinax,  K. J. Oosterbaan,  G. Paran,  
 Alexander C. Paul,  Suranjan K. Paul,  F. Pavosevic,  Zheng Pei,  S. Prager,  
 E. I. Proynov,  E. Ramos,  B. Rana,  A. E. Rask,  A. Rettig,  R. M. Richard,  
 F. Rob,  E. Rossomme,  T. Scheele,  M. Scheurer,  M. Schneider,  
 N. Sergueev,  S. M. Sharada,  W. Skomorowski,  D. W. Small,  C. J. Stein,  
 Yu-Chuan Su,  E. J. Sundstrom,  Zhen Tao,  J. Thirman,  T. Tsuchimochi,  
 N. M. Tubman,  S. P. Veccham,  O. Vydrov,  J. Wenzel,  J. Witte,  A. Yamada,  
 Kun Yao,  S. Yeganeh,  S. R. Yost,  A. Zech,  Igor Ying Zhang,  Xing Zhang,  
 Yu Zhang,  D. Zuev,  A. Aspuru-Guzik,  A. T. Bell,  N. A. Besley,  
 K. B. Bravaya,  B. R. Brooks,  D. Casanova,  Jeng-Da Chai,  S. Coriani,  
 C. J. Cramer,  A. E. DePrince, III,  R. A. DiStasio Jr.,  A. Dreuw,  
 B. D. Dunietz,  T. R. Furlani,  W. A. Goddard III,  S. Grimme,  
 S. Hammes-Schiffer,  T. Head-Gordon,  W. J. Hehre,  Chao-Ping Hsu,  
 T.-C. Jagau,  Yousung Jung,  A. Klamt,  Jing Kong,  D. S. Lambrecht,  
 WanZhen Liang,  N. J. Mayhall,  C. W. McCurdy,  J. B. Neaton,  
 C. Ochsenfeld,  J. A. Parkhill,  R. Peverati,  V. A. Rassolov,  Yihan Shao,  
 L. V. Slipchenko,  T. Stauch,  R. P. Steele,  J. E. Subotnik,  
 A. J. W. Thom,  A. Tkatchenko,  D. G. Truhlar,  T. Van Voorhis,  
 T. A. Wesolowski,  K. B. Whaley,  H. L. Woodcock III,  P. M. Zimmerman,  
 S. Faraji,  P. M. W. Gill,  M. Head-Gordon,  J. M. Herbert,  A. I. Krylov

 Additional authors for Version 5.4.1: 
 S. Kotaru,  Shaozhi Li,  Xiangyuan Li,  F. Matz,  A. Molle,  Haisheng Ren,  
 Yingli Su,  Hung-Yi Tsai,  C. Utku,  Fang Wang

 Contributors to earlier versions of Q-Chem not listed above: 
 R. D. Adamson,  B. Austin,  R. Baer,  J. Baker,  G. J. O. Beran,  
 K. Brandhorst,  S. T. Brown,  E. F. C. Byrd,  A. K. Chakraborty,  
 G. K. L. Chan,  Chun-Min Chang,  Yunqing Chen,  C.-L. Cheng,  
 Siu Hung Chien,  D. M. Chipman,  D. L. Crittenden,  H. Dachsel,  
 R. J. Doerksen,  A. D. Dutoi,  R. G. Edgar,  J. Fosso-Tande,  
 L. Fusti-Molnar,  D. Ghosh,  A. Ghysels,  A. Golubeva-Zadorozhnaya,  
 J. Gonthier,  M. S. Gordon,  S. R. Gwaltney,  G. Hawkins,  J. E. Herr,  
 A. Heyden,  S. Hirata,  E. G. Hohenstein,  G. Kedziora,  F. J. Keil,  
 C. Kelley,  Jihan Kim,  R. A. King,  R. Z. Khaliullin,  P. P. Korambath,  
 W. Kurlancheek,  A. Laurent,  A. M. Lee,  M. S. Lee,  S. V. Levchenko,  
 Ching Yeh Lin,  D. Liotard,  E. Livshits,  R. C. Lochan,  I. Lotan,  
 L. A. Martinez-Martinez,  P. E. Maslen,  N. Nair,  D. P. O'Neill,  
 D. Neuhauser,  E. Neuscamman,  C. M. Oana,  R. Olivares-Amaya,  R. Olson,  
 T. M. Perrine,  B. Peters,  P. A. Pieniazek,  A. Prociuk,  Y. M. Rhee,  
 J. Ritchie,  M. A. Rohrdanz,  E. Rosta,  N. J. Russ,  H. F. Schaefer III,  
 M. W. Schmidt,  N. E. Schultz,  S. Sharma,  N. Shenvi,  C. D. Sherrill,  
 A. C. Simmonett,  A. Sodt,  T. Stein,  D. Stuck,  K. S. Thanthiriwatte,  
 V. Vanovschi,  L. Vogt,  Tao Wang,  A. Warshel,  M. A. Watson,  
 C. F. Williams,  Q. Wu,  X. Xu,  Jun Yang,  W. Zhang,  Yan Zhao

 Please cite Q-Chem as follows:
 Y. Shao et al., Mol. Phys. 113, 184-215 (2015)
 DOI: 10.1080/00268976.2014.952696

 Q-Chem 5.4.1 for Intel X86 EM64T Linux

 Parts of Q-Chem use Armadillo 9.800.1 (Horizon Scraper).
 http://arma.sourceforge.net/

 Q-Chem begins on Fri Sep  1 04:56:51 2023  

 Host: 
0

     Scratch files written to /scratch/ari.fischer/qChem1711275.hpc-mn1/qchem368527//
 Aug1521 |scratch|qcdevops|jenkins|workspace|build_RNUM 8249   
 Processing $rem in /usr/local/qchem-5.4.1/config/preferences:
 Processing $rem in /home/ari.fischer/.qchemrc:
The previous job contains 0 fragments, simply inherited here
 Symmetry turned off for PCM/SM12/SMD calculation

 Checking the input file for inconsistencies... 	...done.

--------------------------------------------------------------
User input:
--------------------------------------------------------------

$molecule
read
$end

$rem
JOBTYPE            rpath
SCF_GUESS          read
RPATH_MAX_CYCLES   30
BASIS = 6-311++G(2df,2p)
METHOD = wB97M-V
SOLVENT_METHOD = SMD
SCF_ALGORITHM = DIIS_GDM
SCF_CONVERGENCE = 7
THRESH = 12
$end
--------------------------------------------------------------
 ----------------------------------------------------------------
             Standard Nuclear Orientation (Angstroms)
    I     Atom           X                Y                Z
 ----------------------------------------------------------------
    1      C      -0.9113678250    -0.6701761786     0.2627741729
    2      O      -0.9016773764    -1.5214926167     1.2489500934
    3      O      -1.3947881906    -0.7447911985    -0.8246636166
    4      O      -0.2255046815     0.5250427946     0.5704555581
    5      O       0.2826249926     0.5784694341     1.7747773958
    6      H      -1.3874282190    -2.3190267349     0.9808714962
 ----------------------------------------------------------------
 Nuclear Repulsion Energy =         175.13535088 hartrees
 There are       20 alpha and       19 beta electrons
 Requested basis set is 6-311++G(2df,2p)
 There are 46 shells and 180 basis functions

 Total QAlloc Memory Limit 288000 MB
 Mega-Array Size       188 MB
 MEM_STATIC part       192 MB
 Starting direction for rxn path = 1
 
 Citation of the SMD model:
 Marenich, A.V.; Cramer, C.J.; Truhlar, D.G.
 J. Phys. Chem. B 2009, 113, 6378-6396.
 iSolventCode=           1
 Solvent: water                                                           
 
 vradii
            1           2           3           4           5           6
    1   1.8500000   1.5200000   1.5200000   1.5200000   1.5200000   1.2000000
 Changing PCM_VDW_RADII to SMD_RADIUS
 Discretize the solute cavity surface with Lebedev spheres
	Using 110 Lebedev grid points for each H atom
	Using 194 Lebedev grid points for other atoms
	Atomic van der Waals radii will be scaled by 1.20
 Remove points where switching function is < 1.0e-08
 Keep 640 surface tesserae and discard 440 interior tesserae
 Molecular Surface Area = 79.988 Angst**2

                       Distance Matrix (Angstroms)
             C (  1)   O (  2)   O (  3)   O (  4)   O (  5)
   O (  2)  1.302834
   O (  3)  1.192386  2.268545
   O (  4)  1.411958  2.259618  2.219473
   O (  5)  2.295842  2.467571  3.364792  1.308221
   H (  6)  1.860378  0.971535  2.395460  3.099555  3.437273
 
 A cutoff of  1.0D-12 yielded   1040 shell pairs
 There are     16227 function pairs (     21103 Cartesian)
 Smallest overlap matrix eigenvalue = 3.63E-04

 Scale SEOQF with 1.000000e-01/1.000000e-01/1.000000e-01

 Standard Electronic Orientation quadrupole field applied
 Nucleus-field energy     =    -0.0000000014 hartrees
 Guess MOs from SCF MO coefficient file

 -----------------------------------------------------------------------
  General SCF calculation program by
  Eric Jon Sundstrom, Paul Horn, Yuezhi Mao, Dmitri Zuev, Alec White,
  David Stuck, Shaama M.S., Shane Yost, Joonho Lee, David Small,
  Daniel Levine, Susi Lehtola, Hugh Burton, Evgeny Epifanovsky,
  Bang C. Huynh
 -----------------------------------------------------------------------
 Exchange:     0.1500 Hartree-Fock + 1.0000 wB97M-V + LR-HF
 Correlation:  1.0000 wB97M-V
 Using SG-2 standard quadrature grid
 Nonlocal Correlation:  VV10 with C = 0.0100 and b = 6.00 and scale = 1.00000
 Grid used for NLC:  SG-1 standard quadrature
 
 Citation of the SMD model:
 Marenich, A.V.; Cramer, C.J.; Truhlar, D.G.
 J. Phys. Chem. B 2009, 113, 6378-6396.
 iSolventCode=           1
 Solvent: water                                                           
 
 vradii
            1           2           3           4           5           6
    1   1.8500000   1.5200000   1.5200000   1.5200000   1.5200000   1.2000000
 using 8 threads for integral computing
 -------------------------------------------------------
 OpenMP Integral computing Module                
 Release: version 1.0, May 2013, Q-Chem Inc. Pittsburgh 
 -------------------------------------------------------
 -------------------------------------------------------
 OpenMP BLAS3 based DFT computing Module                
 Release: version 1.0, May 2013, Q-Chem Inc. Pittsburgh 
 -------------------------------------------------------
 A unrestricted SCF calculation will be
 performed using Roothaan-Hall, DIIS, GDM
 SCF converges when RMS gradient is below 1.0e-07
 ---------------------------------------
  Cycle       Energy         DIIS error
 ---------------------------------------
    1    -339.5027189114      3.34e-04  Roothaan Step
 ---------------------------------------
  Cycle       Energy         DIIS error
 ---------------------------------------
    1    -339.5211488314      4.02e-04  
    2    -339.5229448728      3.98e-04  Done DIIS. Switching to GDM
 ---------------------------------------
  Cycle       Energy        RMS Gradient
 ---------------------------------------
    1    -339.5229448728      1.73e-02   Normal BFGS step
    2    -339.5221483251      2.83e-02  Line search: overstep
    3    -339.5245580980      3.25e-03   Normal BFGS step
    4    -339.5246241544      1.15e-03   Normal BFGS step
    5    -339.5246347269      1.01e-03   Normal BFGS step
    6    -339.5246378412      2.02e-04   Normal BFGS step
    7    -339.5246381261      2.36e-04   Normal BFGS step
    8    -339.5246382848      9.23e-05   Normal BFGS step
    9    -339.5246383012      3.50e-05   Normal BFGS step
   10    -339.5246383083      1.09e-05   Normal BFGS step
   11    -339.5246383096      6.05e-06   Normal BFGS step
   12    -339.5246383097      3.07e-06   Normal BFGS step
   13    -339.5246383098      5.59e-07   Normal BFGS step
   14    -339.5246383098      3.01e-07   Normal BFGS step
   15    -339.5246383098      1.33e-07   Normal BFGS step
   16    -339.5246383098      4.27e-08  Convergence criterion met
 ---------------------------------------
 SCF time:   CPU 181.91s  wall 23.00s 
<S^2> =          0.753749346
(3)  G-ENP(liq) elect-nuc-pol free energy of system     -339.524638310 a.u.
(4)  G-CDS(liq) cavity-dispersion-solvent structure 
     free energy                                                3.6144 kcal/mol
(6)  G-S(liq) free energy of system                     -339.518878376 a.u.
 SCF   energy in the final basis set =     -339.5188783763
 Total energy in the final basis set =     -339.5188783763
 
 --------------------------------------------------------------
 
                    Orbital Energies (a.u.)
 --------------------------------------------------------------
 
 Alpha MOs
 -- Occupied --
-19.4902 -19.4488 -19.4151 -19.3623 -10.5591  -1.3825  -1.2779  -1.2059
 -1.0399  -0.7955  -0.7077  -0.6712  -0.6526  -0.6060  -0.5813  -0.5615
 -0.4739  -0.4697  -0.4272  -0.4223
 -- Virtual --
  0.0335   0.0708   0.0796   0.0847   0.0951   0.1162   0.1434   0.1817
  0.2136   0.2176   0.2203   0.2293   0.2526   0.2653   0.2753   0.2813
  0.2911   0.3035   0.3151   0.3305   0.3425   0.3710   0.3869   0.4162
  0.4354   0.4604   0.5547   0.6159   0.6415   0.7054   0.7122   0.7557
  0.8332   0.8553   0.8645   0.9506   1.0175   1.0290   1.0688   1.0698
  1.0820   1.0919   1.1138   1.1401   1.1413   1.1720   1.1883   1.2214
  1.2529   1.3699   1.3871   1.4771   1.4918   1.5095   1.5284   1.5759
  1.6038   1.6347   1.6550   1.7212   1.7694   1.7889   1.8340   1.9059
  2.0654   2.1174   2.1521   2.1927   2.2512   2.3457   2.3535   2.4254
  2.4948   2.5496   2.6959   2.7595   2.8093   2.8827   3.1111   3.1295
  3.1618   3.1789   3.3033   3.3776   3.4956   3.5044   3.5669   3.5836
  3.6675   3.6983   3.7658   3.8942   3.9934   4.1886   4.3528   4.5162
  4.6823   4.7646   4.8149   4.9590   4.9956   5.0470   5.0492   5.0863
  5.0984   5.1043   5.1234   5.1366   5.1746   5.1789   5.1926   5.2302
  5.2481   5.2521   5.3057   5.3138   5.4101   5.5431   5.5504   5.5825
  5.5938   5.6132   5.7984   5.8241   6.0611   6.1579   6.4073   6.4447
  6.5280   6.5607   6.7369   6.7576   6.8728   6.8818   6.8884   6.9600
  6.9819   7.0202   7.0482   7.1107   7.1744   7.2176   7.2945   7.3148
  7.3433   7.4232   7.4371   7.5452   7.5845   7.6957   7.7635   7.8209
  7.9583   7.9944   8.1015  25.1701  50.3698  50.4697  50.5669  50.7220
 
 Beta MOs
 -- Occupied --
-19.4830 -19.4279 -19.4152 -19.3612 -10.5595  -1.3618  -1.2725  -1.2044
 -1.0038  -0.7896  -0.6935  -0.6491  -0.6386  -0.5936  -0.5593  -0.5329
 -0.4645  -0.4616  -0.4058
 -- Virtual --
 -0.0610   0.0338   0.0713   0.0805   0.0858   0.1051   0.1166   0.1497
  0.1831   0.2153   0.2267   0.2303   0.2307   0.2577   0.2669   0.2769
  0.2834   0.2936   0.3045   0.3168   0.3320   0.3440   0.3719   0.3875
  0.4187   0.4357   0.4600   0.5553   0.6166   0.6415   0.7065   0.7126
  0.7560   0.8373   0.8553   0.8673   0.9557   1.0241   1.0312   1.0697
  1.0857   1.0950   1.1029   1.1154   1.1433   1.1666   1.1741   1.1929
  1.2268   1.2545   1.3710   1.4117   1.4852   1.5113   1.5127   1.5424
  1.5825   1.6180   1.6431   1.6701   1.7429   1.7747   1.7909   1.8377
  1.9119   2.0773   2.1212   2.1571   2.2073   2.2595   2.3483   2.3698
  2.4277   2.4972   2.5558   2.6978   2.7629   2.8086   2.8844   3.1124
  3.1296   3.1628   3.1799   3.3051   3.3783   3.4968   3.5044   3.5676
  3.5840   3.6696   3.6989   3.7659   3.8955   3.9936   4.1891   4.3540
  4.5539   4.7028   4.7900   4.8248   4.9732   5.0705   5.0956   5.1016
  5.1021   5.1167   5.1360   5.1422   5.1586   5.1848   5.2027   5.2096
  5.2485   5.2555   5.2674   5.3193   5.3211   5.4204   5.5546   5.5619
  5.5889   5.5979   5.6189   5.8059   5.8424   6.0635   6.1642   6.4151
  6.4862   6.5328   6.5706   6.7940   6.8248   6.8866   6.9392   6.9477
  6.9662   6.9898   7.0265   7.0630   7.1381   7.2112   7.2210   7.3005
  7.3341   7.3510   7.4451   7.4549   7.5504   7.5909   7.7008   7.7684
  7.8223   7.9616   8.0062   8.1202  25.1699  50.3829  50.4776  50.5670
 50.7228
 --------------------------------------------------------------
 
          Ground-State Mulliken Net Atomic Charges

     Atom                 Charge (a.u.)    Spin (a.u.)
  --------------------------------------------------------
      1 C                     0.543495      -0.008541
      2 O                    -0.311577      -0.001970
      3 O                    -0.450471       0.040075
      4 O                    -0.084696       0.212459
      5 O                    -0.075781       0.758363
      6 H                     0.379031      -0.000386
  --------------------------------------------------------
  Sum of atomic charges =    -0.000000
  Sum of spin   charges =     1.000000

 -----------------------------------------------------------------
                    Cartesian Multipole Moments
 -----------------------------------------------------------------
    Charge (ESU x 10^10)
                -0.0000
    Dipole Moment (Debye)
         X      -0.9693      Y      -3.1146      Z       1.1708
       Tot       3.4657
    Quadrupole Moments (Debye-Ang)
        XX     -25.7830     XY       3.5134     YY     -20.0036
        XZ      -5.0976     YZ      -3.6714     ZZ     -32.2582
    Octopole Moments (Debye-Ang^2)
       XXX      50.8475    XXY       4.6746    XYY       4.2385
       YYY       8.6367    XXZ      -8.7758    XYZ       5.7070
       YYZ      -9.4432    XZZ      18.5737    YZZ      11.1808
       ZZZ     -54.5841
    Hexadecapole Moments (Debye-Ang^3)
      XXXX    -145.6106   XXXY     -44.8253   XXYY     -32.4031
      XYYY     -18.1898   YYYY    -101.5496   XXXZ     -14.1489
      XXYZ      -9.4528   XYYZ     -16.7730   YYYZ     -18.9176
      XXZZ     -61.8500   XYZZ     -18.2081   YYZZ     -61.3979
      XZZZ      -5.0467   YZZZ       4.5733   ZZZZ    -228.9428
 -----------------------------------------------------------------
 Calculating analytic gradient of the SCF energy
 Gradient of CDS energy
            1           2           3           4           5           6
    1  -0.0001778   0.0000965   0.0005088  -0.0003689   0.0000576  -0.0001163
    2  -0.0008462   0.0017004   0.0002117  -0.0008144   0.0001361  -0.0003876
    3   0.0005100  -0.0016831   0.0009937   0.0000436  -0.0000218   0.0001577
 Gradient of SCF Energy
            1           2           3           4           5           6
    1   0.0008617   0.0123923  -0.0030358   0.0009028   0.0003503  -0.0114713
    2  -0.0010971   0.0170156   0.0035711   0.0029004  -0.0009789  -0.0214110
    3   0.0033762   0.0106120  -0.0113580  -0.0013186   0.0021565  -0.0034680
 Max gradient component =       2.141E-02
 RMS gradient           =       8.624E-03
 Computing fast CPCM-SWIG gradient
 Updating gradient with PCM contributions...
 -- total gradient after adding PCM contribution --
---------------------------------------------------
  Atom         X              Y              Z     
---------------------------------------------------
   1       0.000124       0.000055      -0.000026
   2       0.000008       0.000010       0.000110
   3       0.000021       0.000057       0.000063
   4      -0.000083      -0.000019      -0.000124
   5      -0.000058      -0.000110       0.000001
   6      -0.000012       0.000007      -0.000024
---------------------------------------------------
 Number of fixed atoms: 0
 Gradient time:  CPU 27.43 s  wall 4.08 s
rPathMan2.  file_steps = 951
 ------------------------------------------------------------------------
 Reaction path following.  The coordinates are cartesian              
 Step   1 E=    -339.518878 |G|=  0.000279 S_lin= 0.0000 S_tot= 0.0000
 ------------------------------------------------------------------------
 IRC -- neg. force constant =  -1.958773832588331E-004
 IRC -- max trans/rot const =   8.429980378568843E-003
 IRC -- Hessian does not have correct character
 IRC -- Negative curvature direction is not
 IRC -- separated from translations/rotations
 IRC -- Did you run a force constant job first?

 Q-Chem fatal error occurred in module 0, line   83:

 Bad Hessian -- imaginary mode too soft

