
Running Job 1 of 1 Q_in.in
qchem Q_in.in_74673.0 /scratch/ari.fischer/qChem1628460.hpc-mn1/qchem74673/ 0
/usr/local/qchem-5.4.1/exe/qcprog.exe_s Q_in.in_74673.0 /scratch/ari.fischer/qChem1628460.hpc-mn1/qchem74673/
                  Welcome to Q-Chem
     A Quantum Leap Into The Future Of Chemistry


 Q-Chem 5.4, Q-Chem, Inc., Pleasanton, CA (2021)

 License issued to: Nanyang Technological University (site)

 E. Epifanovsky,  A. T. B. Gilbert,  Xintian Feng,  Joonho Lee,  Yuezhi Mao,  
 N. Mardirossian,  P. Pokhilko,  A. White,  M. Wormit,  M. P. Coons,  
 A. L. Dempwolff,  Zhengting Gan,  D. Hait,  P. R. Horn,  L. D. Jacobson,  
 I. Kaliman,  J. Kussmann,  A. W. Lange,  Ka Un Lao,  D. S. Levine,  Jie Liu,  
 S. C. McKenzie,  A. F. Morrison,  K. Nanda,  F. Plasser,  D. R. Rehn,  
 M. L. Vidal,  Zhi-Qiang You,  Ying Zhu,  B. Alam,  B. Albrecht,  
 A. Aldossary,  E. Alguire,  J. H. Andersen,  D. Barton,  K. Begam,  A. Behn,  
 Y. A. Bernard,  E. J. Berquist,  H. Burton,  A. Carreras,  K. Carter-Fenk,  
 R. Chakraborty,  A. D. Chien,  K. D. Closser,  V. Cofer-Shabica,  
 S. Dasgupta,  Jia Deng,  M. de Wergifosse,  M. Diedenhofen,  Hainam Do,  
 S. Ehlert,  Po-Tung Fang,  S. Fatehi,  Qingguo Feng,  T. Friedhoff,  
 J. Gayvert,  Qinghui Ge,  G. Gidofalvi,  M. Goldey,  J. Gomes,  
 C. Gonzalez-Espinoza,  S. Gulania,  A. Gunina,  M. W. D. Hanson-Heine,  
 P. H. P. Harbach,  A. W. Hauser,  M. F. Herbst,  M. Hernandez Vera,  
 M. Hodecker,  Z. C. Holden,  S. Houck,  Xunkun Huang,  Kerwin Hui,  
 B. C. Huynh,  M. Ivanov,  Hyunjun Ji,  Hanjie Jiang,  B. Kaduk,  S. Kaehler,  
 K. Khistyaev,  Jaehoon Kim,  P. Klunzinger,  Z. Koczor-Benda,  
 Joong Hoon Koh,  D. Kosenkov,  L. Koulias,  T. Kowalczyk,  C. M. Krauter,  
 K. Kue,  A. Kunitsa,  T. Kus,  A. Landau,  K. V. Lawler,  D. Lefrancois,  
 S. Lehtola,  Rain Li,  Yi-Pei Li,  Jiashu Liang,  M. Liebenthal,  
 Hung-Hsuan Lin,  You-Sheng Lin,  Fenglai Liu,  Kuan-Yu Liu,  
 M. Loipersberger,  A. Luenser,  A. Manjanath,  P. Manohar,  E. Mansoor,  
 S. F. Manzer,  Shan-Ping Mao,  A. V. Marenich,  T. Markovich,  S. Mason,  
 S. A. Maurer,  P. F. McLaughlin,  M. F. S. J. Menger,  J.-M. Mewes,  
 S. A. Mewes,  P. Morgante,  J. W. Mullinax,  K. J. Oosterbaan,  G. Paran,  
 Alexander C. Paul,  Suranjan K. Paul,  F. Pavosevic,  Zheng Pei,  S. Prager,  
 E. I. Proynov,  E. Ramos,  B. Rana,  A. E. Rask,  A. Rettig,  R. M. Richard,  
 F. Rob,  E. Rossomme,  T. Scheele,  M. Scheurer,  M. Schneider,  
 N. Sergueev,  S. M. Sharada,  W. Skomorowski,  D. W. Small,  C. J. Stein,  
 Yu-Chuan Su,  E. J. Sundstrom,  Zhen Tao,  J. Thirman,  T. Tsuchimochi,  
 N. M. Tubman,  S. P. Veccham,  O. Vydrov,  J. Wenzel,  J. Witte,  A. Yamada,  
 Kun Yao,  S. Yeganeh,  S. R. Yost,  A. Zech,  Igor Ying Zhang,  Xing Zhang,  
 Yu Zhang,  D. Zuev,  A. Aspuru-Guzik,  A. T. Bell,  N. A. Besley,  
 K. B. Bravaya,  B. R. Brooks,  D. Casanova,  Jeng-Da Chai,  S. Coriani,  
 C. J. Cramer,  A. E. DePrince, III,  R. A. DiStasio Jr.,  A. Dreuw,  
 B. D. Dunietz,  T. R. Furlani,  W. A. Goddard III,  S. Grimme,  
 S. Hammes-Schiffer,  T. Head-Gordon,  W. J. Hehre,  Chao-Ping Hsu,  
 T.-C. Jagau,  Yousung Jung,  A. Klamt,  Jing Kong,  D. S. Lambrecht,  
 WanZhen Liang,  N. J. Mayhall,  C. W. McCurdy,  J. B. Neaton,  
 C. Ochsenfeld,  J. A. Parkhill,  R. Peverati,  V. A. Rassolov,  Yihan Shao,  
 L. V. Slipchenko,  T. Stauch,  R. P. Steele,  J. E. Subotnik,  
 A. J. W. Thom,  A. Tkatchenko,  D. G. Truhlar,  T. Van Voorhis,  
 T. A. Wesolowski,  K. B. Whaley,  H. L. Woodcock III,  P. M. Zimmerman,  
 S. Faraji,  P. M. W. Gill,  M. Head-Gordon,  J. M. Herbert,  A. I. Krylov

 Additional authors for Version 5.4.1: 
 S. Kotaru,  Shaozhi Li,  Xiangyuan Li,  F. Matz,  A. Molle,  Haisheng Ren,  
 Yingli Su,  Hung-Yi Tsai,  C. Utku,  Fang Wang

 Contributors to earlier versions of Q-Chem not listed above: 
 R. D. Adamson,  B. Austin,  R. Baer,  J. Baker,  G. J. O. Beran,  
 K. Brandhorst,  S. T. Brown,  E. F. C. Byrd,  A. K. Chakraborty,  
 G. K. L. Chan,  Chun-Min Chang,  Yunqing Chen,  C.-L. Cheng,  
 Siu Hung Chien,  D. M. Chipman,  D. L. Crittenden,  H. Dachsel,  
 R. J. Doerksen,  A. D. Dutoi,  R. G. Edgar,  J. Fosso-Tande,  
 L. Fusti-Molnar,  D. Ghosh,  A. Ghysels,  A. Golubeva-Zadorozhnaya,  
 J. Gonthier,  M. S. Gordon,  S. R. Gwaltney,  G. Hawkins,  J. E. Herr,  
 A. Heyden,  S. Hirata,  E. G. Hohenstein,  G. Kedziora,  F. J. Keil,  
 C. Kelley,  Jihan Kim,  R. A. King,  R. Z. Khaliullin,  P. P. Korambath,  
 W. Kurlancheek,  A. Laurent,  A. M. Lee,  M. S. Lee,  S. V. Levchenko,  
 Ching Yeh Lin,  D. Liotard,  E. Livshits,  R. C. Lochan,  I. Lotan,  
 L. A. Martinez-Martinez,  P. E. Maslen,  N. Nair,  D. P. O'Neill,  
 D. Neuhauser,  E. Neuscamman,  C. M. Oana,  R. Olivares-Amaya,  R. Olson,  
 T. M. Perrine,  B. Peters,  P. A. Pieniazek,  A. Prociuk,  Y. M. Rhee,  
 J. Ritchie,  M. A. Rohrdanz,  E. Rosta,  N. J. Russ,  H. F. Schaefer III,  
 M. W. Schmidt,  N. E. Schultz,  S. Sharma,  N. Shenvi,  C. D. Sherrill,  
 A. C. Simmonett,  A. Sodt,  T. Stein,  D. Stuck,  K. S. Thanthiriwatte,  
 V. Vanovschi,  L. Vogt,  Tao Wang,  A. Warshel,  M. A. Watson,  
 C. F. Williams,  Q. Wu,  X. Xu,  Jun Yang,  W. Zhang,  Yan Zhao

 Please cite Q-Chem as follows:
 Y. Shao et al., Mol. Phys. 113, 184-215 (2015)
 DOI: 10.1080/00268976.2014.952696

 Q-Chem 5.4.1 for Intel X86 EM64T Linux

 Parts of Q-Chem use Armadillo 9.800.1 (Horizon Scraper).
 http://arma.sourceforge.net/

 Q-Chem begins on Mon Jul 17 16:56:02 2023  

 Host: 
0

     Scratch files written to /scratch/ari.fischer/qChem1628460.hpc-mn1/qchem74673//
 Aug1521 |scratch|qcdevops|jenkins|workspace|build_RNUM 8249   
 Processing $rem in /usr/local/qchem-5.4.1/config/preferences:
 Processing $rem in /home/ari.fischer/.qchemrc:
 Symmetry turned off for PCM/SM12/SMD calculation


!!********************************************.
!!******************Warning*******************.
!!Desired Analytical derivatives not available.
!!Finite difference job might take a long time.
!!********************************************.
!!********************************************.


 2-order derivative to be evaluated numerically with 1-order analytical derivatives

 Checking the input file for inconsistencies... 	...done.

--------------------------------------------------------------
User input:
--------------------------------------------------------------
$molecule
0 1
O        -0.6678554955    1.1020238419    0.2612852811
C        -0.3656352537   -0.2442880346    0.5330946241
O        -1.0087321239   -1.1308296264   -0.3381898993
C         1.1413976584   -0.4349469172    0.3500214906
O         1.8712152688    0.6730078684    0.4158507821
O         1.6501434675   -1.5191886229    0.2019956850
H        -1.3958858049    1.3819609322    0.8267715306
H        -1.8915177107   -1.3065397044    0.0066128236
H         1.2716528173    1.4364649447    0.4903475041
H        -0.6024757234   -0.4811881816    1.5723379780
$end

$rem
BASIS = 6-311++G(2df,2p)
GUI = 2
JOB_TYPE = Frequency
METHOD = wB97M-V
SOLVENT_METHOD = SMD
SCF_ALGORITHM = DIIS_GDM
MAX_SCF_CYCLES = 400
SCF_CONVERGENCE = 7
THRESH = 12
SYMMETRY_IGNORE = 1
$end
--------------------------------------------------------------
 ----------------------------------------------------------------
             Standard Nuclear Orientation (Angstroms)
    I     Atom           X                Y                Z
 ----------------------------------------------------------------
    1      O      -0.6678554955     1.1020238419     0.2612852811
    2      C      -0.3656352537    -0.2442880346     0.5330946241
    3      O      -1.0087321239    -1.1308296264    -0.3381898993
    4      C       1.1413976584    -0.4349469172     0.3500214906
    5      O       1.8712152688     0.6730078684     0.4158507821
    6      O       1.6501434675    -1.5191886229     0.2019956850
    7      H      -1.3958858049     1.3819609322     0.8267715306
    8      H      -1.8915177107    -1.3065397044     0.0066128236
    9      H       1.2716528173     1.4364649447     0.4903475041
   10      H      -0.6024757234    -0.4811881816     1.5723379780
 ----------------------------------------------------------------
 Nuclear Repulsion Energy =         252.32741783 hartrees
 There are       24 alpha and       24 beta electrons
 Requested basis set is 6-311++G(2df,2p)
 There are 72 shells and 244 basis functions

 Total QAlloc Memory Limit 288000 MB
 Mega-Array Size       188 MB
 MEM_STATIC part       192 MB
 
 Citation of the SMD model:
 Marenich, A.V.; Cramer, C.J.; Truhlar, D.G.
 J. Phys. Chem. B 2009, 113, 6378-6396.
 iSolventCode=           1
 Solvent: water                                                           
 
 vradii
            1           2           3           4           5           6
    1   1.5200000   1.8500000   1.5200000   1.8500000   1.5200000   1.5200000
            7           8           9          10
    1   1.2000000   1.2000000   1.2000000   1.2000000
 Changing PCM_VDW_RADII to SMD_RADIUS
 Discretize the solute cavity surface with Lebedev spheres
	Using 110 Lebedev grid points for each H atom
	Using 194 Lebedev grid points for other atoms
	Atomic van der Waals radii will be scaled by 1.20
 Remove points where switching function is < 1.0e-08
 Keep 850 surface tesserae and discard 754 interior tesserae
 Molecular Surface Area = 100.712 Angst**2

                       Distance Matrix (Angstroms)
             O (  1)   C (  2)   O (  3)   C (  4)   O (  5)   O (  6)
   C (  2)  1.406333
   O (  3)  2.336921  1.399524
   C (  4)  2.375616  1.530038  2.362403
   O (  5)  2.579695  2.420471  3.480877  1.328357
   O (  6)  3.499627  2.407979  2.740847  1.206778  2.213669
   H (  7)  0.963415  1.947395  2.796630  3.156937  3.368296  4.252682
   H (  8)  2.713556  1.932325  0.963885  3.174300  4.271328  3.553415
   H (  9)  1.981417  2.346800  3.532369  1.881181  0.973597  2.993708
   H ( 10)  2.056622  1.091898  2.058445  2.130092  2.964587  2.833651
             H (  7)   H (  8)   H (  9)
   H (  8)  2.854181
   H (  9)  2.689222  4.214703
   H ( 10)  2.157937  2.189596  2.891445
 
 A cutoff of  1.0D-12 yielded   2505 shell pairs
 There are     29015 function pairs (     36595 Cartesian)
 Smallest overlap matrix eigenvalue = 8.77E-05
 Guess from superposition of atomic densities
 Warning:  Energy on first SCF cycle will be non-variational
 SAD guess density has 48.000000 electrons

 -----------------------------------------------------------------------
  General SCF calculation program by
  Eric Jon Sundstrom, Paul Horn, Yuezhi Mao, Dmitri Zuev, Alec White,
  David Stuck, Shaama M.S., Shane Yost, Joonho Lee, David Small,
  Daniel Levine, Susi Lehtola, Hugh Burton, Evgeny Epifanovsky,
  Bang C. Huynh
 -----------------------------------------------------------------------
 Exchange:     0.1500 Hartree-Fock + 1.0000 wB97M-V + LR-HF
 Correlation:  1.0000 wB97M-V
 Using SG-2 standard quadrature grid
 Nonlocal Correlation:  VV10 with C = 0.0100 and b = 6.00 and scale = 1.00000
 Grid used for NLC:  SG-1 standard quadrature
 using 8 threads for integral computing
 -------------------------------------------------------
 OpenMP Integral computing Module                
 Release: version 1.0, May 2013, Q-Chem Inc. Pittsburgh 
 -------------------------------------------------------
 
 Citation of the SMD model:
 Marenich, A.V.; Cramer, C.J.; Truhlar, D.G.
 J. Phys. Chem. B 2009, 113, 6378-6396.
 iSolventCode=           1
 Solvent: water                                                           
 
 vradii
            1           2           3           4           5           6
    1   1.5200000   1.8500000   1.5200000   1.8500000   1.5200000   1.5200000
            7           8           9          10
    1   1.2000000   1.2000000   1.2000000   1.2000000
 -------------------------------------------------------
 OpenMP BLAS3 based DFT computing Module                
 Release: version 1.0, May 2013, Q-Chem Inc. Pittsburgh 
 -------------------------------------------------------
 A restricted SCF calculation will be
 performed using DIIS, GDM
 SCF converges when RMS gradient is below 1.0e-07
 ---------------------------------------
  Cycle       Energy         DIIS error
 ---------------------------------------
    1    -380.7082897172      3.35e-02  
    2    -379.4108854696      5.43e-03  Done DIIS. Switching to GDM
 ---------------------------------------
  Cycle       Energy        RMS Gradient
 ---------------------------------------
    1    -379.4108854696      9.19e-02   Descent step
    2    -379.5608123681      4.23e-02   Normal BFGS step
    3    -379.5777283534      1.44e-02   Normal BFGS step
    4    -379.5784587416      9.10e-03   Normal BFGS step
    5    -379.5793626830      5.49e-04   Normal BFGS step
    6    -379.5793710678      3.66e-04   Normal BFGS step
    7    -379.5793726812      1.58e-04   Normal BFGS step
    8    -379.5793730211      3.36e-05   Normal BFGS step
    9    -379.5793730428      1.61e-05   Normal BFGS step
   10    -379.5793730447      5.07e-06   Normal BFGS step
   11    -379.5793730451      1.19e-06   Normal BFGS step
   12    -379.5793730451      4.24e-07   Normal BFGS step
   13    -379.5793730451      1.65e-07   Normal BFGS step
   14    -379.5793730451      9.03e-08  Convergence criterion met
 ---------------------------------------
 SCF time:   CPU 327.00s  wall 42.00s 
(3)  G-ENP(liq) elect-nuc-pol free energy of system     -379.579373045 a.u.
(4)  G-CDS(liq) cavity-dispersion-solvent structure 
     free energy                                                4.3442 kcal/mol
(6)  G-S(liq) free energy of system                     -379.572450082 a.u.
 SCF   energy in the final basis set =     -379.5724500816
 Total energy in the final basis set =     -379.5724500816
 
 --------------------------------------------------------------
 
                    Orbital Energies (a.u.)
 --------------------------------------------------------------
 
 Alpha MOs
 -- Occupied --
-19.3890 -19.3603 -19.3554 -19.3389 -10.4942 -10.4668  -1.2587  -1.2087
 -1.1738  -1.1463  -0.8502  -0.7394  -0.6754  -0.6612  -0.6596  -0.5856
 -0.5645  -0.5299  -0.5178  -0.4929  -0.4460  -0.4325  -0.4278  -0.3998
 -- Virtual --
  0.0227   0.0468   0.0554   0.0599   0.0754   0.0862   0.1041   0.1080
  0.1169   0.1418   0.1442   0.1552   0.1661   0.2088   0.2243   0.2323
  0.2436   0.2505   0.2714   0.2716   0.2820   0.2913   0.3012   0.3105
  0.3173   0.3215   0.3344   0.3412   0.3500   0.3528   0.3620   0.3832
  0.4007   0.4088   0.4317   0.4542   0.4844   0.5367   0.5619   0.5882
  0.6284   0.6350   0.6369   0.6638   0.6657   0.6857   0.7090   0.7491
  0.7945   0.8169   0.8237   0.8496   0.8883   0.9081   0.9265   0.9659
  0.9843   1.0341   1.0733   1.0831   1.0956   1.1012   1.1180   1.1383
  1.1469   1.1629   1.1868   1.1987   1.2171   1.2261   1.2490   1.2729
  1.3037   1.3327   1.3451   1.3977   1.4286   1.4531   1.5095   1.5236
  1.5385   1.5524   1.6004   1.6430   1.6631   1.7044   1.7156   1.7341
  1.7910   1.8331   1.8584   1.8869   1.9387   1.9761   2.0612   2.1454
  2.2143   2.2255   2.2482   2.3317   2.3401   2.3694   2.4014   2.4526
  2.4655   2.4899   2.5422   2.6132   2.6789   2.7572   2.8018   2.8181
  2.8717   2.8968   3.0570   3.1116   3.1438   3.1705   3.2565   3.2729
  3.2968   3.3399   3.3678   3.3958   3.4278   3.5002   3.5155   3.5815
  3.6043   3.6212   3.6445   3.7141   3.7415   3.7836   3.7948   3.8548
  3.8722   3.8877   3.9448   3.9573   4.0547   4.1135   4.1353   4.1459
  4.2217   4.2602   4.2925   4.3129   4.3266   4.3877   4.4649   4.4811
  4.7685   5.1274   5.1521   5.1697   5.1969   5.1990   5.2111   5.2416
  5.2630   5.2681   5.2800   5.2905   5.3047   5.3287   5.3468   5.3923
  5.4391   5.4943   5.5149   5.5331   5.5797   5.6018   5.6277   5.6468
  5.6693   5.6991   5.7193   5.8112   5.9673   6.0541   6.1063   6.1221
  6.2031   6.4416   6.5136   6.6898   6.7101   6.9328   6.9708   7.0250
  7.0300   7.1029   7.1334   7.1794   7.2319   7.2441   7.2725   7.2851
  7.3077   7.3535   7.3846   7.4382   7.4658   7.5244   7.5502   7.6083
  7.6805   7.7687   7.7699   7.8152   7.8609   7.8750  24.7736  25.1237
 50.5683  50.5752  50.6125  50.7303
 --------------------------------------------------------------
 
          Ground-State Mulliken Net Atomic Charges

     Atom                 Charge (a.u.)
  ----------------------------------------
      1 O                    -0.445768
      2 C                     0.087118
      3 O                    -0.431382
      4 C                     0.286587
      5 O                    -0.309340
      6 O                    -0.470878
      7 H                     0.359064
      8 H                     0.347109
      9 H                     0.334071
     10 H                     0.243420
  ----------------------------------------
  Sum of atomic charges =     0.000000

 -----------------------------------------------------------------
                    Cartesian Multipole Moments
 -----------------------------------------------------------------
    Charge (ESU x 10^10)
                 0.0000
    Dipole Moment (Debye)
         X      -6.3273      Y       4.1588      Z       4.1804
       Tot       8.6491
    Quadrupole Moments (Debye-Ang)
        XX     -36.2307     XY       6.3894     YY     -38.2370
        XZ      -4.9594     YZ       1.0265     ZZ     -32.1244
    Octopole Moments (Debye-Ang^2)
       XXX     -79.7779    XXY      14.4241    XYY     -26.1478
       YYY      44.4318    XXZ      -5.1487    XYZ      -0.1832
       YYZ      -3.6285    XZZ     -15.2879    YZZ       9.9562
       ZZZ     -21.2715
    Hexadecapole Moments (Debye-Ang^3)
      XXXX    -377.7392   XXXY      40.7483   XXYY     -97.0962
      XYYY      41.1499   YYYY    -247.6386   XXXZ     -36.8928
      XXYZ       2.5342   XYYZ     -13.7751   YYYZ      -0.4324
      XXZZ     -69.3227   XYZZ       3.2582   YYZZ     -49.2549
      XZZZ     -27.4755   YZZZ      -8.4931   ZZZZ     -63.8189
 -----------------------------------------------------------------
 Calculating analytic gradient of the SCF energy
 Gradient of CDS energy
            1           2           3           4           5           6
    1   0.0004923  -0.0026247   0.0019036   0.0035639  -0.0020529  -0.0005644
    2  -0.0023642  -0.0005017   0.0027580   0.0016498  -0.0032756   0.0012133
    3   0.0003040  -0.0027465   0.0024877  -0.0000658  -0.0002217   0.0001225
            7           8           9          10
    1  -0.0002639  -0.0004005   0.0000304  -0.0000838
    2   0.0004260  -0.0003045   0.0003852   0.0000137
    3   0.0001227  -0.0001048   0.0000310   0.0000709
 Gradient of SCF Energy
            1           2           3           4           5           6
    1   0.0165465   0.0059058   0.0214847  -0.0009228   0.0100027  -0.0016014
    2  -0.0102093   0.0066750  -0.0005408  -0.0040312  -0.0117479   0.0037433
    3  -0.0206593  -0.0182602  -0.0119648   0.0073001  -0.0030405  -0.0028987
            7           8           9          10
    1  -0.0181537  -0.0185161  -0.0079317  -0.0068140
    2   0.0063599  -0.0005527   0.0117045  -0.0014009
    3   0.0176705   0.0109106   0.0040476   0.0168946
 Max gradient component =       2.148E-02
 RMS gradient           =       1.134E-02
 Computing fast CPCM-SWIG gradient
 Updating gradient with PCM contributions...
 -- total gradient after adding PCM contribution --
---------------------------------------------------
  Atom         X              Y              Z     
---------------------------------------------------
   1      -0.000019      -0.000004      -0.000002
   2      -0.000001       0.000014       0.000052
   3      -0.000011      -0.000001      -0.000008
   4       0.000016       0.000065       0.000011
   5      -0.000024      -0.000065      -0.000041
   6      -0.000028      -0.000047       0.000017
   7       0.000041       0.000018      -0.000017
   8       0.000017       0.000018       0.000011
   9       0.000006       0.000003       0.000002
  10       0.000004      -0.000002      -0.000025
---------------------------------------------------
 Number of fixed atoms: 0
 Gradient time:  CPU 65.19 s  wall 9.74 s
 ######################################################
 ######################################################
 # Starting finite difference calculation for IDERIV  #
 Finite diff step size:  1.88973e-03 a.u.
 ----------------------------------------------------------------
             Standard Nuclear Orientation (Angstroms)
    I     Atom           X                Y                Z
 ----------------------------------------------------------------
    1      O      -0.6668554955     1.1020238419     0.2612852811
    2      C      -0.3656352537    -0.2442880346     0.5330946241
    3      O      -1.0087321239    -1.1308296264    -0.3381898993
    4      C       1.1413976584    -0.4349469172     0.3500214906
    5      O       1.8712152688     0.6730078684     0.4158507821
    6      O       1.6501434675    -1.5191886229     0.2019956850
    7      H      -1.3958858049     1.3819609322     0.8267715306
    8      H      -1.8915177107    -1.3065397044     0.0066128236
    9      H       1.2716528173     1.4364649447     0.4903475041
   10      H      -0.6024757234    -0.4811881816     1.5723379780
 ----------------------------------------------------------------
 Nuclear Repulsion Energy =         252.33692239 hartrees
 There are       24 alpha and       24 beta electrons
 Discretize the solute cavity surface with Lebedev spheres
	Using 110 Lebedev grid points for each H atom
	Using 194 Lebedev grid points for other atoms
	Atomic van der Waals radii will be scaled by 1.20
 Remove points where switching function is < 1.0e-08
 Keep 849 surface tesserae and discard 755 interior tesserae
 Molecular Surface Area = 100.711 Angst**2

                       Distance Matrix (Angstroms)
             O (  1)   C (  2)   O (  3)   C (  4)   O (  5)   O (  6)
   C (  2)  1.406119
   O (  3)  2.337068  1.399524
   C (  4)  2.374854  1.530038  2.362403
   O (  5)  2.578711  2.420471  3.480877  1.328357
   O (  6)  3.498965  2.407979  2.740847  1.206778  2.213669
   H (  7)  0.964170  1.947395  2.796630  3.156937  3.368296  4.252682
   H (  8)  2.714007  1.932325  0.963885  3.174300  4.271328  3.553415
   H (  9)  1.980438  2.346800  3.532369  1.881181  0.973597  2.993708
   H ( 10)  2.056590  1.091898  2.058445  2.130092  2.964587  2.833651
             H (  7)   H (  8)   H (  9)
   H (  8)  2.854181
   H (  9)  2.689222  4.214703
   H ( 10)  2.157937  2.189596  2.891445
 
 Requested basis set is 6-311++G(2df,2p)
 There are 72 shells and 244 basis functions
 A cutoff of  1.0D-12 yielded   2505 shell pairs
 There are     29015 function pairs (     36595 Cartesian)
 Smallest overlap matrix eigenvalue = 8.77E-05
 Guess MOs from SCF MO coefficient file

 -----------------------------------------------------------------------
  General SCF calculation program by
  Eric Jon Sundstrom, Paul Horn, Yuezhi Mao, Dmitri Zuev, Alec White,
  David Stuck, Shaama M.S., Shane Yost, Joonho Lee, David Small,
  Daniel Levine, Susi Lehtola, Hugh Burton, Evgeny Epifanovsky,
  Bang C. Huynh
 -----------------------------------------------------------------------
 Exchange:     0.1500 Hartree-Fock + 1.0000 wB97M-V + LR-HF
 Correlation:  1.0000 wB97M-V
 Using SG-2 standard quadrature grid
 Nonlocal Correlation:  VV10 with C = 0.0100 and b = 6.00 and scale = 1.00000
 Grid used for NLC:  SG-1 standard quadrature
 
 Citation of the SMD model:
 Marenich, A.V.; Cramer, C.J.; Truhlar, D.G.
 J. Phys. Chem. B 2009, 113, 6378-6396.
 iSolventCode=           1
 Solvent: water                                                           
 
 vradii
            1           2           3           4           5           6
    1   1.5200000   1.8500000   1.5200000   1.8500000   1.5200000   1.5200000
            7           8           9          10
    1   1.2000000   1.2000000   1.2000000   1.2000000
 -------------------------------------------------------
 OpenMP BLAS3 based DFT computing Module                
 Release: version 1.0, May 2013, Q-Chem Inc. Pittsburgh 
 -------------------------------------------------------
 A restricted SCF calculation will be
 performed using Roothaan-Hall, DIIS, GDM
 SCF converges when RMS gradient is below 1.0e-07
 ---------------------------------------
  Cycle       Energy         DIIS error
 ---------------------------------------
    1    -379.5285141518      9.31e-04  Roothaan Step
 ---------------------------------------
  Cycle       Energy         DIIS error
 ---------------------------------------
    1    -379.5661731259      1.11e-03  
    2    -379.5736390882      1.08e-03  Done DIIS. Switching to GDM
 ---------------------------------------
  Cycle       Energy        RMS Gradient
 ---------------------------------------
    1    -379.5736390882      1.98e-02   Normal BFGS step
    2    -379.5715580923      3.38e-02  Line search: overstep
    3    -379.5790094315      2.69e-03   Normal BFGS step
    4    -379.5793193370      1.06e-03   Normal BFGS step
    5    -379.5793587527      1.64e-03   Normal BFGS step
    6    -379.5793723778      1.70e-04   Normal BFGS step
    7    -379.5793731442      7.43e-05   Normal BFGS step
    8    -379.5793732829      3.26e-05   Normal BFGS step
    9    -379.5793732942      1.70e-05   Normal BFGS step
   10    -379.5793732986      2.92e-06   Normal BFGS step
   11    -379.5793732989      1.55e-06   Normal BFGS step
   12    -379.5793732989      7.01e-07   Normal BFGS step
   13    -379.5793732989      2.21e-07   Normal BFGS step
   14    -379.5793732989      1.28e-07   Normal BFGS step
   15    -379.5793732989      5.53e-08  Convergence criterion met
 ---------------------------------------
 SCF time:   CPU 379.75s  wall 48.00s 
(3)  G-ENP(liq) elect-nuc-pol free energy of system     -379.579373299 a.u.
(4)  G-CDS(liq) cavity-dispersion-solvent structure 
     free energy                                                4.3448 kcal/mol
(6)  G-S(liq) free energy of system                     -379.572449398 a.u.
 SCF   energy in the final basis set =     -379.5724493980
 Total energy in the final basis set =     -379.5724493980
 
 --------------------------------------------------------------
 
                    Orbital Energies (a.u.)
 --------------------------------------------------------------
 
 Alpha MOs
 -- Occupied --
-19.3889 -19.3604 -19.3554 -19.3388 -10.4941 -10.4667  -1.2587  -1.2087
 -1.1738  -1.1462  -0.8502  -0.7394  -0.6754  -0.6612  -0.6596  -0.5856
 -0.5645  -0.5299  -0.5178  -0.4929  -0.4460  -0.4325  -0.4277  -0.3998
 -- Virtual --
  0.0227   0.0468   0.0553   0.0599   0.0755   0.0861   0.1041   0.1080
  0.1169   0.1418   0.1442   0.1552   0.1661   0.2088   0.2243   0.2323
  0.2436   0.2505   0.2713   0.2716   0.2820   0.2913   0.3012   0.3105
  0.3173   0.3215   0.3344   0.3412   0.3499   0.3529   0.3620   0.3832
  0.4008   0.4088   0.4318   0.4542   0.4843   0.5366   0.5619   0.5882
  0.6283   0.6349   0.6369   0.6637   0.6658   0.6857   0.7089   0.7491
  0.7946   0.8169   0.8237   0.8496   0.8882   0.9081   0.9265   0.9659
  0.9843   1.0341   1.0733   1.0831   1.0957   1.1012   1.1181   1.1383
  1.1469   1.1629   1.1868   1.1987   1.2171   1.2261   1.2490   1.2729
  1.3036   1.3326   1.3452   1.3977   1.4286   1.4532   1.5096   1.5237
  1.5383   1.5523   1.6004   1.6429   1.6631   1.7044   1.7157   1.7341
  1.7910   1.8332   1.8584   1.8869   1.9386   1.9762   2.0611   2.1455
  2.2144   2.2256   2.2483   2.3319   2.3402   2.3694   2.4014   2.4526
  2.4660   2.4899   2.5423   2.6130   2.6790   2.7571   2.8017   2.8181
  2.8718   2.8967   3.0570   3.1117   3.1438   3.1705   3.2564   3.2730
  3.2968   3.3399   3.3680   3.3958   3.4278   3.5003   3.5156   3.5815
  3.6042   3.6214   3.6445   3.7141   3.7416   3.7835   3.7949   3.8548
  3.8722   3.8877   3.9448   3.9573   4.0547   4.1136   4.1351   4.1459
  4.2215   4.2599   4.2918   4.3127   4.3265   4.3874   4.4649   4.4811
  4.7686   5.1275   5.1521   5.1697   5.1969   5.1990   5.2111   5.2416
  5.2630   5.2681   5.2800   5.2905   5.3045   5.3287   5.3470   5.3921
  5.4391   5.4943   5.5149   5.5330   5.5797   5.6019   5.6274   5.6466
  5.6689   5.6989   5.7192   5.8109   5.9672   6.0539   6.1062   6.1222
  6.2036   6.4416   6.5139   6.6899   6.7103   6.9328   6.9708   7.0250
  7.0301   7.1028   7.1335   7.1794   7.2317   7.2437   7.2723   7.2838
  7.3073   7.3535   7.3844   7.4376   7.4658   7.5245   7.5501   7.6082
  7.6805   7.7687   7.7701   7.8152   7.8610   7.8749  24.7740  25.1238
 50.5681  50.5752  50.6124  50.7303
 --------------------------------------------------------------
 
          Ground-State Mulliken Net Atomic Charges

     Atom                 Charge (a.u.)
  ----------------------------------------
      1 O                    -0.445795
      2 C                     0.087052
      3 O                    -0.431423
      4 C                     0.286624
      5 O                    -0.309396
      6 O                    -0.470947
      7 H                     0.359312
      8 H                     0.347101
      9 H                     0.334064
     10 H                     0.243407
  ----------------------------------------
  Sum of atomic charges =     0.000000

 -----------------------------------------------------------------
                    Cartesian Multipole Moments
 -----------------------------------------------------------------
    Charge (ESU x 10^10)
                 0.0000
    Dipole Moment (Debye)
         X      -6.3314      Y       4.1603      Z       4.1799
       Tot       8.6525
    Quadrupole Moments (Debye-Ang)
        XX     -36.2296     XY       6.3866     YY     -38.2372
        XZ      -4.9600     YZ       1.0265     ZZ     -32.1257
    Octopole Moments (Debye-Ang^2)
       XXX     -79.8050    XXY      14.4299    XYY     -26.1591
       YYY      44.4349    XXZ      -5.1492    XYZ      -0.1837
       YYZ      -3.6298    XZZ     -15.2938    YZZ       9.9560
       ZZZ     -21.2733
    Hexadecapole Moments (Debye-Ang^3)
      XXXX    -377.7098   XXXY      40.7287   XXYY     -97.0912
      XYYY      41.1327   YYYY    -247.6424   XXXZ     -36.8979
      XXYZ       2.5343   XYYZ     -13.7767   YYYZ      -0.4340
      XXZZ     -69.3177   XYZZ       3.2521   YYZZ     -49.2574
      XZZZ     -27.4786   YZZZ      -8.4943   ZZZZ     -63.8234
 -----------------------------------------------------------------
 Calculating analytic gradient of the SCF energy
 Gradient of CDS energy
            1           2           3           4           5           6
    1   0.0004996  -0.0026325   0.0019038   0.0035639  -0.0020530  -0.0005644
    2  -0.0024047  -0.0004609   0.0027581   0.0016498  -0.0032756   0.0012133
    3   0.0003123  -0.0027549   0.0024879  -0.0000658  -0.0002218   0.0001225
            7           8           9          10
    1  -0.0002637  -0.0004004   0.0000304  -0.0000838
    2   0.0004258  -0.0003047   0.0003852   0.0000137
    3   0.0001226  -0.0001048   0.0000312   0.0000709
 Gradient of SCF Energy
            1           2           3           4           5           6
    1   0.0173449   0.0057112   0.0215171  -0.0009409   0.0099685  -0.0016238
    2  -0.0105522   0.0068054  -0.0005744  -0.0039744  -0.0117267   0.0037632
    3  -0.0211074  -0.0182732  -0.0119623   0.0072779  -0.0030368  -0.0028916
            7           8           9          10
    1  -0.0187332  -0.0185206  -0.0079231  -0.0068001
    2   0.0065066  -0.0005493   0.0117028  -0.0014011
    3   0.0181371   0.0109128   0.0040454   0.0168981
 Max gradient component =       2.152E-02
 RMS gradient           =       1.148E-02
 Computing fast CPCM-SWIG gradient
 Updating gradient with PCM contributions...
 -- total gradient after adding PCM contribution --
---------------------------------------------------
  Atom         X              Y              Z     
---------------------------------------------------
   1       0.000742      -0.000346      -0.000448
   2      -0.000190       0.000137       0.000037
   3       0.000012      -0.000028      -0.000003
   4       0.000003       0.000120      -0.000011
   5      -0.000049      -0.000050      -0.000038
   6      -0.000050      -0.000031       0.000024
   7      -0.000514       0.000177       0.000447
   8       0.000018       0.000019       0.000012
   9       0.000011       0.000006       0.000001
  10       0.000017      -0.000004      -0.000022
---------------------------------------------------
 Number of fixed atoms: 0
 Gradient time:  CPU 70.25 s  wall 10.16 s
 ----------------------------------------------------------------
             Standard Nuclear Orientation (Angstroms)
    I     Atom           X                Y                Z
 ----------------------------------------------------------------
    1      O      -0.6688554955     1.1020238419     0.2612852811
    2      C      -0.3656352537    -0.2442880346     0.5330946241
    3      O      -1.0087321239    -1.1308296264    -0.3381898993
    4      C       1.1413976584    -0.4349469172     0.3500214906
    5      O       1.8712152688     0.6730078684     0.4158507821
    6      O       1.6501434675    -1.5191886229     0.2019956850
    7      H      -1.3958858049     1.3819609322     0.8267715306
    8      H      -1.8915177107    -1.3065397044     0.0066128236
    9      H       1.2716528173     1.4364649447     0.4903475041
   10      H      -0.6024757234    -0.4811881816     1.5723379780
 ----------------------------------------------------------------
 Nuclear Repulsion Energy =         252.31791216 hartrees
 There are       24 alpha and       24 beta electrons
 Discretize the solute cavity surface with Lebedev spheres
	Using 110 Lebedev grid points for each H atom
	Using 194 Lebedev grid points for other atoms
	Atomic van der Waals radii will be scaled by 1.20
 Remove points where switching function is < 1.0e-08
 Keep 850 surface tesserae and discard 754 interior tesserae
 Molecular Surface Area = 100.713 Angst**2

                       Distance Matrix (Angstroms)
             O (  1)   C (  2)   O (  3)   C (  4)   O (  5)   O (  6)
   C (  2)  1.406548
   O (  3)  2.336776  1.399524
   C (  4)  2.376377  1.530038  2.362403
   O (  5)  2.580679  2.420471  3.480877  1.328357
   O (  6)  3.500289  2.407979  2.740847  1.206778  2.213669
   H (  7)  0.962659  1.947395  2.796630  3.156937  3.368296  4.252682
   H (  8)  2.713105  1.932325  0.963885  3.174300  4.271328  3.553415
   H (  9)  1.982396  2.346800  3.532369  1.881181  0.973597  2.993708
   H ( 10)  2.056654  1.091898  2.058445  2.130092  2.964587  2.833651
             H (  7)   H (  8)   H (  9)
   H (  8)  2.854181
   H (  9)  2.689222  4.214703
   H ( 10)  2.157937  2.189596  2.891445
 
 Requested basis set is 6-311++G(2df,2p)
 There are 72 shells and 244 basis functions
 A cutoff of  1.0D-12 yielded   2505 shell pairs
 There are     29015 function pairs (     36595 Cartesian)
 Smallest overlap matrix eigenvalue = 8.78E-05
 Guess MOs from SCF MO coefficient file

 -----------------------------------------------------------------------
  General SCF calculation program by
  Eric Jon Sundstrom, Paul Horn, Yuezhi Mao, Dmitri Zuev, Alec White,
  David Stuck, Shaama M.S., Shane Yost, Joonho Lee, David Small,
  Daniel Levine, Susi Lehtola, Hugh Burton, Evgeny Epifanovsky,
  Bang C. Huynh
 -----------------------------------------------------------------------
 Exchange:     0.1500 Hartree-Fock + 1.0000 wB97M-V + LR-HF
 Correlation:  1.0000 wB97M-V
 Using SG-2 standard quadrature grid
 Nonlocal Correlation:  VV10 with C = 0.0100 and b = 6.00 and scale = 1.00000
 Grid used for NLC:  SG-1 standard quadrature
 
 Citation of the SMD model:
 Marenich, A.V.; Cramer, C.J.; Truhlar, D.G.
 J. Phys. Chem. B 2009, 113, 6378-6396.
 iSolventCode=           1
 Solvent: water                                                           
 
 vradii
            1           2           3           4           5           6
    1   1.5200000   1.8500000   1.5200000   1.8500000   1.5200000   1.5200000
            7           8           9          10
    1   1.2000000   1.2000000   1.2000000   1.2000000
 -------------------------------------------------------
 OpenMP BLAS3 based DFT computing Module                
 Release: version 1.0, May 2013, Q-Chem Inc. Pittsburgh 
 -------------------------------------------------------
 A restricted SCF calculation will be
 performed using Roothaan-Hall, DIIS, GDM
 SCF converges when RMS gradient is below 1.0e-07
 ---------------------------------------
  Cycle       Energy         DIIS error
 ---------------------------------------
    1    -379.5285254052      9.33e-04  Roothaan Step
 ---------------------------------------
  Cycle       Energy         DIIS error
 ---------------------------------------
    1    -379.5661675554      1.11e-03  
    2    -379.5736308464      1.08e-03  Done DIIS. Switching to GDM
 ---------------------------------------
  Cycle       Energy        RMS Gradient
 ---------------------------------------
    1    -379.5736308464      1.99e-02   Normal BFGS step
    2    -379.5715416424      3.39e-02  Line search: overstep
    3    -379.5790072187      2.67e-03   Normal BFGS step
    4    -379.5793174715      1.06e-03   Normal BFGS step
    5    -379.5793568208      1.64e-03   Normal BFGS step
    6    -379.5793704406      1.70e-04   Normal BFGS step
    7    -379.5793712098      7.38e-05   Normal BFGS step
    8    -379.5793713487      3.27e-05   Normal BFGS step
    9    -379.5793713601      1.69e-05   Normal BFGS step
   10    -379.5793713645      2.94e-06   Normal BFGS step
   11    -379.5793713647      1.56e-06   Normal BFGS step
   12    -379.5793713648      7.05e-07   Normal BFGS step
   13    -379.5793713648      2.25e-07   Normal BFGS step
   14    -379.5793713648      1.27e-07   Normal BFGS step
   15    -379.5793713648      5.49e-08  Convergence criterion met
 ---------------------------------------
 SCF time:   CPU 377.38s  wall 48.00s 
(3)  G-ENP(liq) elect-nuc-pol free energy of system     -379.579371365 a.u.
(4)  G-CDS(liq) cavity-dispersion-solvent structure 
     free energy                                                4.3436 kcal/mol
(6)  G-S(liq) free energy of system                     -379.572449325 a.u.
 SCF   energy in the final basis set =     -379.5724493245
 Total energy in the final basis set =     -379.5724493245
 
 --------------------------------------------------------------
 
                    Orbital Energies (a.u.)
 --------------------------------------------------------------
 
 Alpha MOs
 -- Occupied --
-19.3890 -19.3602 -19.3554 -19.3389 -10.4942 -10.4668  -1.2587  -1.2087
 -1.1738  -1.1463  -0.8503  -0.7394  -0.6754  -0.6613  -0.6596  -0.5857
 -0.5645  -0.5299  -0.5178  -0.4928  -0.4461  -0.4325  -0.4278  -0.3998
 -- Virtual --
  0.0227   0.0468   0.0554   0.0599   0.0754   0.0862   0.1041   0.1080
  0.1169   0.1419   0.1442   0.1552   0.1661   0.2088   0.2243   0.2323
  0.2436   0.2504   0.2714   0.2716   0.2820   0.2913   0.3012   0.3105
  0.3173   0.3215   0.3344   0.3412   0.3500   0.3528   0.3620   0.3832
  0.4006   0.4088   0.4317   0.4543   0.4844   0.5367   0.5619   0.5882
  0.6285   0.6351   0.6370   0.6639   0.6657   0.6857   0.7090   0.7491
  0.7945   0.8169   0.8237   0.8496   0.8884   0.9081   0.9265   0.9659
  0.9843   1.0341   1.0733   1.0830   1.0954   1.1011   1.1180   1.1383
  1.1469   1.1628   1.1868   1.1986   1.2171   1.2261   1.2490   1.2728
  1.3037   1.3327   1.3450   1.3977   1.4286   1.4531   1.5095   1.5236
  1.5388   1.5526   1.6004   1.6431   1.6631   1.7044   1.7155   1.7341
  1.7909   1.8331   1.8585   1.8869   1.9388   1.9761   2.0612   2.1453
  2.2141   2.2255   2.2482   2.3315   2.3400   2.3693   2.4014   2.4525
  2.4651   2.4899   2.5422   2.6133   2.6788   2.7573   2.8019   2.8181
  2.8716   2.8969   3.0569   3.1116   3.1437   3.1705   3.2565   3.2729
  3.2968   3.3399   3.3677   3.3958   3.4278   3.5002   3.5154   3.5815
  3.6043   3.6211   3.6446   3.7140   3.7414   3.7836   3.7948   3.8548
  3.8722   3.8877   3.9448   3.9574   4.0548   4.1134   4.1355   4.1459
  4.2218   4.2605   4.2933   4.3131   4.3267   4.3879   4.4649   4.4812
  4.7684   5.1274   5.1521   5.1697   5.1969   5.1990   5.2110   5.2416
  5.2630   5.2680   5.2800   5.2905   5.3048   5.3287   5.3466   5.3924
  5.4391   5.4943   5.5149   5.5331   5.5797   5.6017   5.6279   5.6470
  5.6698   5.6993   5.7194   5.8115   5.9675   6.0543   6.1063   6.1219
  6.2026   6.4416   6.5134   6.6897   6.7099   6.9328   6.9708   7.0249
  7.0300   7.1029   7.1333   7.1794   7.2320   7.2445   7.2727   7.2863
  7.3080   7.3535   7.3847   7.4389   7.4659   7.5244   7.5502   7.6085
  7.6804   7.7688   7.7697   7.8151   7.8608   7.8750  24.7732  25.1237
 50.5685  50.5752  50.6126  50.7302
 --------------------------------------------------------------
 
          Ground-State Mulliken Net Atomic Charges

     Atom                 Charge (a.u.)
  ----------------------------------------
      1 O                    -0.445741
      2 C                     0.087183
      3 O                    -0.431341
      4 C                     0.286551
      5 O                    -0.309285
      6 O                    -0.470809
      7 H                     0.358815
      8 H                     0.347116
      9 H                     0.334078
     10 H                     0.243434
  ----------------------------------------
  Sum of atomic charges =     0.000000

 -----------------------------------------------------------------
                    Cartesian Multipole Moments
 -----------------------------------------------------------------
    Charge (ESU x 10^10)
                 0.0000
    Dipole Moment (Debye)
         X      -6.3233      Y       4.1572      Z       4.1808
       Tot       8.6456
    Quadrupole Moments (Debye-Ang)
        XX     -36.2318     XY       6.3922     YY     -38.2367
        XZ      -4.9587     YZ       1.0265     ZZ     -32.1231
    Octopole Moments (Debye-Ang^2)
       XXX     -79.7508    XXY      14.4183    XYY     -26.1366
       YYY      44.4286    XXZ      -5.1483    XYZ      -0.1827
       YYZ      -3.6273    XZZ     -15.2819    YZZ       9.9564
       ZZZ     -21.2696
    Hexadecapole Moments (Debye-Ang^3)
      XXXX    -377.7687   XXXY      40.7679   XXYY     -97.1012
      XYYY      41.1671   YYYY    -247.6347   XXXZ     -36.8876
      XXYZ       2.5342   XYYZ     -13.7734   YYYZ      -0.4308
      XXZZ     -69.3278   XYZZ       3.2643   YYZZ     -49.2524
      XZZZ     -27.4724   YZZZ      -8.4918   ZZZZ     -63.8144
 -----------------------------------------------------------------
 Calculating analytic gradient of the SCF energy
 Gradient of CDS energy
            1           2           3           4           5           6
    1   0.0004849  -0.0026167   0.0019033   0.0035640  -0.0020529  -0.0005644
    2  -0.0023233  -0.0005428   0.0027579   0.0016499  -0.0032757   0.0012133
    3   0.0002956  -0.0027380   0.0024875  -0.0000659  -0.0002216   0.0001225
            7           8           9          10
    1  -0.0002642  -0.0004005   0.0000303  -0.0000838
    2   0.0004262  -0.0003044   0.0003853   0.0000137
    3   0.0001229  -0.0001048   0.0000309   0.0000709
 Gradient of SCF Energy
            1           2           3           4           5           6
    1   0.0157462   0.0061006   0.0214521  -0.0009048   0.0100367  -0.0015789
    2  -0.0098645   0.0065443  -0.0005072  -0.0040878  -0.0117690   0.0037233
    3  -0.0202084  -0.0182472  -0.0119673   0.0073223  -0.0030441  -0.0029059
            7           8           9          10
    1  -0.0175721  -0.0185117  -0.0079403  -0.0068279
    2   0.0062118  -0.0005562   0.0117062  -0.0014008
    3   0.0172011   0.0109084   0.0040499   0.0168913
 Max gradient component =       2.145E-02
 RMS gradient           =       1.121E-02
 Computing fast CPCM-SWIG gradient
 Updating gradient with PCM contributions...
 -- total gradient after adding PCM contribution --
---------------------------------------------------
  Atom         X              Y              Z     
---------------------------------------------------
   1      -0.000782       0.000341       0.000447
   2       0.000188      -0.000108       0.000066
   3      -0.000035       0.000027      -0.000013
   4       0.000029       0.000010       0.000034
   5       0.000002      -0.000081      -0.000043
   6      -0.000006      -0.000062       0.000009
   7       0.000597      -0.000142      -0.000484
   8       0.000015       0.000017       0.000010
   9       0.000001      -0.000000       0.000003
  10      -0.000010       0.000001      -0.000028
---------------------------------------------------
 Number of fixed atoms: 0
 Gradient time:  CPU 66.01 s  wall 9.58 s
 ----------------------------------------------------------------
             Standard Nuclear Orientation (Angstroms)
    I     Atom           X                Y                Z
 ----------------------------------------------------------------
    1      O      -0.6678554955     1.1030238419     0.2612852811
    2      C      -0.3656352537    -0.2442880346     0.5330946241
    3      O      -1.0087321239    -1.1308296264    -0.3381898993
    4      C       1.1413976584    -0.4349469172     0.3500214906
    5      O       1.8712152688     0.6730078684     0.4158507821
    6      O       1.6501434675    -1.5191886229     0.2019956850
    7      H      -1.3958858049     1.3819609322     0.8267715306
    8      H      -1.8915177107    -1.3065397044     0.0066128236
    9      H       1.2716528173     1.4364649447     0.4903475041
   10      H      -0.6024757234    -0.4811881816     1.5723379780
 ----------------------------------------------------------------
 Nuclear Repulsion Energy =         252.30360296 hartrees
 There are       24 alpha and       24 beta electrons
 Discretize the solute cavity surface with Lebedev spheres
	Using 110 Lebedev grid points for each H atom
	Using 194 Lebedev grid points for other atoms
	Atomic van der Waals radii will be scaled by 1.20
 Remove points where switching function is < 1.0e-08
 Keep 849 surface tesserae and discard 755 interior tesserae
 Molecular Surface Area = 100.716 Angst**2

                       Distance Matrix (Angstroms)
             O (  1)   C (  2)   O (  3)   C (  4)   O (  5)   O (  6)
   C (  2)  1.407291
   O (  3)  2.337877  1.399524
   C (  4)  2.376263  1.530038  2.362403
   O (  5)  2.579861  2.420471  3.480877  1.328357
   O (  6)  3.500376  2.407979  2.740847  1.206778  2.213669
   H (  7)  0.963124  1.947395  2.796630  3.156937  3.368296  4.252682
   H (  8)  2.714444  1.932325  0.963885  3.174300  4.271328  3.553415
   H (  9)  1.981248  2.346800  3.532369  1.881181  0.973597  2.993708
   H ( 10)  2.057392  1.091898  2.058445  2.130092  2.964587  2.833651
             H (  7)   H (  8)   H (  9)
   H (  8)  2.854181
   H (  9)  2.689222  4.214703
   H ( 10)  2.157937  2.189596  2.891445
 
 Requested basis set is 6-311++G(2df,2p)
 There are 72 shells and 244 basis functions
 A cutoff of  1.0D-12 yielded   2505 shell pairs
 There are     29015 function pairs (     36595 Cartesian)
 Smallest overlap matrix eigenvalue = 8.78E-05
 Guess MOs from SCF MO coefficient file

 -----------------------------------------------------------------------
  General SCF calculation program by
  Eric Jon Sundstrom, Paul Horn, Yuezhi Mao, Dmitri Zuev, Alec White,
  David Stuck, Shaama M.S., Shane Yost, Joonho Lee, David Small,
  Daniel Levine, Susi Lehtola, Hugh Burton, Evgeny Epifanovsky,
  Bang C. Huynh
 -----------------------------------------------------------------------
 Exchange:     0.1500 Hartree-Fock + 1.0000 wB97M-V + LR-HF
 Correlation:  1.0000 wB97M-V
 Using SG-2 standard quadrature grid
 Nonlocal Correlation:  VV10 with C = 0.0100 and b = 6.00 and scale = 1.00000
 Grid used for NLC:  SG-1 standard quadrature
 
 Citation of the SMD model:
 Marenich, A.V.; Cramer, C.J.; Truhlar, D.G.
 J. Phys. Chem. B 2009, 113, 6378-6396.
 iSolventCode=           1
 Solvent: water                                                           
 
 vradii
            1           2           3           4           5           6
    1   1.5200000   1.8500000   1.5200000   1.8500000   1.5200000   1.5200000
            7           8           9          10
    1   1.2000000   1.2000000   1.2000000   1.2000000
 -------------------------------------------------------
 OpenMP BLAS3 based DFT computing Module                
 Release: version 1.0, May 2013, Q-Chem Inc. Pittsburgh 
 -------------------------------------------------------
 A restricted SCF calculation will be
 performed using Roothaan-Hall, DIIS, GDM
 SCF converges when RMS gradient is below 1.0e-07
 ---------------------------------------
  Cycle       Energy         DIIS error
 ---------------------------------------
    1    -379.5285326774      9.32e-04  Roothaan Step
 ---------------------------------------
  Cycle       Energy         DIIS error
 ---------------------------------------
    1    -379.5661774240      1.11e-03  
    2    -379.5736358112      1.08e-03  Done DIIS. Switching to GDM
 ---------------------------------------
  Cycle       Energy        RMS Gradient
 ---------------------------------------
    1    -379.5736358112      1.99e-02   Normal BFGS step
    2    -379.5715527216      3.38e-02  Line search: overstep
    3    -379.5790043916      2.68e-03   Normal BFGS step
    4    -379.5793140605      1.06e-03   Normal BFGS step
    5    -379.5793533988      1.64e-03   Normal BFGS step
    6    -379.5793670152      1.70e-04   Normal BFGS step
    7    -379.5793677810      7.42e-05   Normal BFGS step
    8    -379.5793679194      3.26e-05   Normal BFGS step
    9    -379.5793679307      1.69e-05   Normal BFGS step
   10    -379.5793679351      2.90e-06   Normal BFGS step
   11    -379.5793679353      1.54e-06   Normal BFGS step
   12    -379.5793679353      7.00e-07   Normal BFGS step
   13    -379.5793679353      2.21e-07   Normal BFGS step
   14    -379.5793679353      1.28e-07   Normal BFGS step
   15    -379.5793679353      5.51e-08  Convergence criterion met
 ---------------------------------------
 SCF time:   CPU 377.62s  wall 48.00s 
(3)  G-ENP(liq) elect-nuc-pol free energy of system     -379.579367935 a.u.
(4)  G-CDS(liq) cavity-dispersion-solvent structure 
     free energy                                                4.3415 kcal/mol
(6)  G-S(liq) free energy of system                     -379.572449266 a.u.
 SCF   energy in the final basis set =     -379.5724492664
 Total energy in the final basis set =     -379.5724492664
 
 --------------------------------------------------------------
 
                    Orbital Energies (a.u.)
 --------------------------------------------------------------
 
 Alpha MOs
 -- Occupied --
-19.3890 -19.3603 -19.3554 -19.3389 -10.4942 -10.4669  -1.2587  -1.2086
 -1.1738  -1.1463  -0.8503  -0.7394  -0.6753  -0.6611  -0.6596  -0.5856
 -0.5645  -0.5299  -0.5179  -0.4929  -0.4461  -0.4325  -0.4278  -0.3999
 -- Virtual --
  0.0227   0.0468   0.0554   0.0599   0.0754   0.0862   0.1041   0.1080
  0.1169   0.1418   0.1442   0.1552   0.1661   0.2088   0.2242   0.2324
  0.2436   0.2504   0.2714   0.2715   0.2820   0.2913   0.3011   0.3105
  0.3173   0.3215   0.3344   0.3412   0.3499   0.3528   0.3620   0.3832
  0.4004   0.4087   0.4317   0.4543   0.4843   0.5366   0.5619   0.5882
  0.6284   0.6350   0.6369   0.6638   0.6657   0.6856   0.7089   0.7491
  0.7944   0.8169   0.8237   0.8496   0.8883   0.9081   0.9265   0.9658
  0.9843   1.0341   1.0733   1.0830   1.0955   1.1012   1.1180   1.1383
  1.1469   1.1628   1.1868   1.1987   1.2171   1.2260   1.2490   1.2729
  1.3036   1.3326   1.3451   1.3976   1.4286   1.4530   1.5095   1.5236
  1.5386   1.5525   1.6004   1.6429   1.6631   1.7043   1.7156   1.7339
  1.7908   1.8331   1.8584   1.8869   1.9387   1.9761   2.0610   2.1454
  2.2141   2.2252   2.2480   2.3316   2.3400   2.3692   2.4011   2.4524
  2.4655   2.4896   2.5422   2.6129   2.6789   2.7572   2.8018   2.8181
  2.8717   2.8966   3.0568   3.1116   3.1438   3.1702   3.2564   3.2729
  3.2963   3.3398   3.3676   3.3957   3.4278   3.5001   3.5155   3.5814
  3.6044   3.6212   3.6445   3.7141   3.7413   3.7835   3.7948   3.8545
  3.8720   3.8876   3.9447   3.9571   4.0546   4.1134   4.1352   4.1459
  4.2217   4.2602   4.2928   4.3128   4.3266   4.3877   4.4647   4.4810
  4.7685   5.1274   5.1521   5.1697   5.1969   5.1990   5.2110   5.2415
  5.2629   5.2682   5.2800   5.2903   5.3047   5.3287   5.3467   5.3921
  5.4390   5.4943   5.5148   5.5329   5.5797   5.6014   5.6278   5.6467
  5.6691   5.6989   5.7193   5.8106   5.9669   6.0530   6.1059   6.1219
  6.2021   6.4415   6.5125   6.6894   6.7089   6.9328   6.9707   7.0250
  7.0300   7.1028   7.1333   7.1792   7.2318   7.2442   7.2725   7.2855
  7.3077   7.3535   7.3846   7.4385   7.4658   7.5242   7.5498   7.6076
  7.6803   7.7687   7.7698   7.8151   7.8609   7.8748  24.7720  25.1236
 50.5682  50.5751  50.6123  50.7303
 --------------------------------------------------------------
 
          Ground-State Mulliken Net Atomic Charges

     Atom                 Charge (a.u.)
  ----------------------------------------
      1 O                    -0.445951
      2 C                     0.087001
      3 O                    -0.431140
      4 C                     0.286600
      5 O                    -0.309301
      6 O                    -0.470832
      7 H                     0.358901
      8 H                     0.347151
      9 H                     0.334063
     10 H                     0.243507
  ----------------------------------------
  Sum of atomic charges =     0.000000

 -----------------------------------------------------------------
                    Cartesian Multipole Moments
 -----------------------------------------------------------------
    Charge (ESU x 10^10)
                 0.0000
    Dipole Moment (Debye)
         X      -6.3267      Y       4.1519      Z       4.1798
       Tot       8.6450
    Quadrupole Moments (Debye-Ang)
        XX     -36.2298     XY       6.3942     YY     -38.2423
        XZ      -4.9586     YZ       1.0242     ZZ     -32.1238
    Octopole Moments (Debye-Ang^2)
       XXX     -79.7752    XXY      14.4095    XYY     -26.1426
       YYY      44.3889    XXZ      -5.1497    XYZ      -0.1823
       YYZ      -3.6323    XZZ     -15.2877    YZZ       9.9450
       ZZZ     -21.2707
    Hexadecapole Moments (Debye-Ang^3)
      XXXX    -377.7284   XXXY      40.7670   XXYY     -97.1077
      XYYY      41.1771   YYYY    -247.7276   XXXZ     -36.8904
      XXYZ       2.5316   XYYZ     -13.7722   YYYZ      -0.4429
      XXZZ     -69.3214   XYZZ       3.2653   YYZZ     -49.2685
      XZZZ     -27.4751   YZZZ      -8.5022   ZZZZ     -63.8122
 -----------------------------------------------------------------
 Calculating analytic gradient of the SCF energy
 Gradient of CDS energy
            1           2           3           4           5           6
    1   0.0004511  -0.0025829   0.0019036   0.0035639  -0.0020529  -0.0005644
    2  -0.0021802  -0.0006870   0.0027583   0.0016499  -0.0032756   0.0012133
    3   0.0002666  -0.0027091   0.0024877  -0.0000659  -0.0002217   0.0001225
            7           8           9          10
    1  -0.0002642  -0.0004005   0.0000301  -0.0000838
    2   0.0004267  -0.0003046   0.0003855   0.0000137
    3   0.0001227  -0.0001048   0.0000310   0.0000709
 Gradient of SCF Energy
            1           2           3           4           5           6
    1   0.0161913   0.0060010   0.0214688  -0.0009258   0.0099964  -0.0015777
    2  -0.0092712   0.0061498  -0.0006584  -0.0040716  -0.0117308   0.0037302
    3  -0.0206450  -0.0180847  -0.0120075   0.0073051  -0.0030394  -0.0029001
            7           8           9          10
    1  -0.0179191  -0.0185205  -0.0079190  -0.0067954
    2   0.0061853  -0.0005577   0.0116884  -0.0014640
    3   0.0175003   0.0109117   0.0040435   0.0169160
 Max gradient component =       2.147E-02
 RMS gradient           =       1.126E-02
 Computing fast CPCM-SWIG gradient
 Updating gradient with PCM contributions...
 -- total gradient after adding PCM contribution --
---------------------------------------------------
  Atom         X              Y              Z     
---------------------------------------------------
   1      -0.000363       0.000867       0.000011
   2       0.000095      -0.000506       0.000232
   3      -0.000036      -0.000122      -0.000050
   4       0.000021       0.000025       0.000016
   5      -0.000025      -0.000059      -0.000041
   6      -0.000010      -0.000055       0.000015
   7       0.000265      -0.000114      -0.000179
   8       0.000021       0.000018       0.000009
   9       0.000009      -0.000001       0.000000
  10       0.000021      -0.000053      -0.000012
---------------------------------------------------
 Number of fixed atoms: 0
 Gradient time:  CPU 65.96 s  wall 9.68 s
 ----------------------------------------------------------------
             Standard Nuclear Orientation (Angstroms)
    I     Atom           X                Y                Z
 ----------------------------------------------------------------
    1      O      -0.6678554955     1.1010238419     0.2612852811
    2      C      -0.3656352537    -0.2442880346     0.5330946241
    3      O      -1.0087321239    -1.1308296264    -0.3381898993
    4      C       1.1413976584    -0.4349469172     0.3500214906
    5      O       1.8712152688     0.6730078684     0.4158507821
    6      O       1.6501434675    -1.5191886229     0.2019956850
    7      H      -1.3958858049     1.3819609322     0.8267715306
    8      H      -1.8915177107    -1.3065397044     0.0066128236
    9      H       1.2716528173     1.4364649447     0.4903475041
   10      H      -0.6024757234    -0.4811881816     1.5723379780
 ----------------------------------------------------------------
 Nuclear Repulsion Energy =         252.35124914 hartrees
 There are       24 alpha and       24 beta electrons
 Discretize the solute cavity surface with Lebedev spheres
	Using 110 Lebedev grid points for each H atom
	Using 194 Lebedev grid points for other atoms
	Atomic van der Waals radii will be scaled by 1.20
 Remove points where switching function is < 1.0e-08
 Keep 850 surface tesserae and discard 754 interior tesserae
 Molecular Surface Area = 100.708 Angst**2

                       Distance Matrix (Angstroms)
             O (  1)   C (  2)   O (  3)   C (  4)   O (  5)   O (  6)
   C (  2)  1.405376
   O (  3)  2.335966  1.399524
   C (  4)  2.374969  1.530038  2.362403
   O (  5)  2.579529  2.420471  3.480877  1.328357
   O (  6)  3.498878  2.407979  2.740847  1.206778  2.213669
   H (  7)  0.963706  1.947395  2.796630  3.156937  3.368296  4.252682
   H (  8)  2.712668  1.932325  0.963885  3.174300  4.271328  3.553415
   H (  9)  1.981586  2.346800  3.532369  1.881181  0.973597  2.993708
   H ( 10)  2.055852  1.091898  2.058445  2.130092  2.964587  2.833651
             H (  7)   H (  8)   H (  9)
   H (  8)  2.854181
   H (  9)  2.689222  4.214703
   H ( 10)  2.157937  2.189596  2.891445
 
 Requested basis set is 6-311++G(2df,2p)
 There are 72 shells and 244 basis functions
 A cutoff of  1.0D-12 yielded   2505 shell pairs
 There are     29015 function pairs (     36595 Cartesian)
 Smallest overlap matrix eigenvalue = 8.77E-05
 Guess MOs from SCF MO coefficient file

 -----------------------------------------------------------------------
  General SCF calculation program by
  Eric Jon Sundstrom, Paul Horn, Yuezhi Mao, Dmitri Zuev, Alec White,
  David Stuck, Shaama M.S., Shane Yost, Joonho Lee, David Small,
  Daniel Levine, Susi Lehtola, Hugh Burton, Evgeny Epifanovsky,
  Bang C. Huynh
 -----------------------------------------------------------------------
 Exchange:     0.1500 Hartree-Fock + 1.0000 wB97M-V + LR-HF
 Correlation:  1.0000 wB97M-V
 Using SG-2 standard quadrature grid
 Nonlocal Correlation:  VV10 with C = 0.0100 and b = 6.00 and scale = 1.00000
 Grid used for NLC:  SG-1 standard quadrature
 
 Citation of the SMD model:
 Marenich, A.V.; Cramer, C.J.; Truhlar, D.G.
 J. Phys. Chem. B 2009, 113, 6378-6396.
 iSolventCode=           1
 Solvent: water                                                           
 
 vradii
            1           2           3           4           5           6
    1   1.5200000   1.8500000   1.5200000   1.8500000   1.5200000   1.5200000
            7           8           9          10
    1   1.2000000   1.2000000   1.2000000   1.2000000
 -------------------------------------------------------
 OpenMP BLAS3 based DFT computing Module                
 Release: version 1.0, May 2013, Q-Chem Inc. Pittsburgh 
 -------------------------------------------------------
 A restricted SCF calculation will be
 performed using Roothaan-Hall, DIIS, GDM
 SCF converges when RMS gradient is below 1.0e-07
 ---------------------------------------
  Cycle       Energy         DIIS error
 ---------------------------------------
    1    -379.5285276445      9.31e-04  Roothaan Step
 ---------------------------------------
  Cycle       Energy         DIIS error
 ---------------------------------------
    1    -379.5661732497      1.11e-03  
    2    -379.5736389773      1.08e-03  Done DIIS. Switching to GDM
 ---------------------------------------
  Cycle       Energy        RMS Gradient
 ---------------------------------------
    1    -379.5736389773      1.99e-02   Normal BFGS step
    2    -379.5715565124      3.38e-02  Line search: overstep
    3    -379.5790128135      2.68e-03   Normal BFGS step
    4    -379.5793228689      1.06e-03   Normal BFGS step
    5    -379.5793622957      1.64e-03   Normal BFGS step
    6    -379.5793759336      1.70e-04   Normal BFGS step
    7    -379.5793766998      7.44e-05   Normal BFGS step
    8    -379.5793768386      3.26e-05   Normal BFGS step
    9    -379.5793768500      1.70e-05   Normal BFGS step
   10    -379.5793768544      2.94e-06   Normal BFGS step
   11    -379.5793768546      1.55e-06   Normal BFGS step
   12    -379.5793768546      7.03e-07   Normal BFGS step
   13    -379.5793768546      2.23e-07   Normal BFGS step
   14    -379.5793768546      1.27e-07   Normal BFGS step
   15    -379.5793768546      5.53e-08  Convergence criterion met
 ---------------------------------------
 SCF time:   CPU 375.79s  wall 48.00s 
(3)  G-ENP(liq) elect-nuc-pol free energy of system     -379.579376855 a.u.
(4)  G-CDS(liq) cavity-dispersion-solvent structure 
     free energy                                                4.3471 kcal/mol
(6)  G-S(liq) free energy of system                     -379.572449254 a.u.
 SCF   energy in the final basis set =     -379.5724492536
 Total energy in the final basis set =     -379.5724492536
 
 --------------------------------------------------------------
 
                    Orbital Energies (a.u.)
 --------------------------------------------------------------
 
 Alpha MOs
 -- Occupied --
-19.3890 -19.3603 -19.3553 -19.3388 -10.4941 -10.4667  -1.2587  -1.2088
 -1.1738  -1.1463  -0.8502  -0.7394  -0.6754  -0.6614  -0.6597  -0.5856
 -0.5645  -0.5299  -0.5178  -0.4928  -0.4460  -0.4325  -0.4277  -0.3998
 -- Virtual --
  0.0227   0.0468   0.0554   0.0599   0.0755   0.0862   0.1041   0.1081
  0.1169   0.1418   0.1442   0.1552   0.1661   0.2088   0.2243   0.2323
  0.2436   0.2505   0.2714   0.2716   0.2820   0.2914   0.3012   0.3106
  0.3173   0.3215   0.3344   0.3412   0.3500   0.3529   0.3621   0.3833
  0.4011   0.4088   0.4318   0.4542   0.4844   0.5367   0.5619   0.5882
  0.6284   0.6350   0.6369   0.6638   0.6658   0.6858   0.7090   0.7491
  0.7946   0.8169   0.8237   0.8496   0.8883   0.9081   0.9265   0.9659
  0.9842   1.0340   1.0733   1.0831   1.0957   1.1012   1.1180   1.1383
  1.1470   1.1629   1.1868   1.1987   1.2171   1.2261   1.2490   1.2729
  1.3037   1.3327   1.3451   1.3979   1.4286   1.4532   1.5095   1.5236
  1.5385   1.5523   1.6004   1.6430   1.6631   1.7045   1.7156   1.7344
  1.7911   1.8332   1.8585   1.8870   1.9387   1.9762   2.0614   2.1454
  2.2144   2.2259   2.2485   2.3318   2.3402   2.3695   2.4017   2.4527
  2.4655   2.4902   2.5423   2.6134   2.6789   2.7572   2.8018   2.8181
  2.8718   2.8970   3.0571   3.1117   3.1438   3.1708   3.2566   3.2730
  3.2973   3.3401   3.3681   3.3959   3.4279   3.5004   3.5155   3.5815
  3.6041   3.6212   3.6445   3.7140   3.7417   3.7836   3.7949   3.8551
  3.8723   3.8878   3.9449   3.9575   4.0549   4.1136   4.1354   4.1459
  4.2217   4.2602   4.2923   4.3130   4.3266   4.3876   4.4651   4.4813
  4.7685   5.1275   5.1521   5.1697   5.1970   5.1990   5.2111   5.2416
  5.2630   5.2680   5.2800   5.2907   5.3046   5.3287   5.3468   5.3924
  5.4392   5.4943   5.5150   5.5333   5.5797   5.6022   5.6275   5.6469
  5.6696   5.6993   5.7193   5.8118   5.9678   6.0551   6.1067   6.1222
  6.2042   6.4417   6.5147   6.6901   6.7113   6.9328   6.9709   7.0250
  7.0301   7.1029   7.1335   7.1796   7.2319   7.2440   7.2725   7.2846
  7.3076   7.3535   7.3845   7.4380   7.4659   7.5246   7.5505   7.6091
  7.6807   7.7688   7.7701   7.8153   7.8609   7.8751  24.7752  25.1238
 50.5684  50.5753  50.6126  50.7303
 --------------------------------------------------------------
 
          Ground-State Mulliken Net Atomic Charges

     Atom                 Charge (a.u.)
  ----------------------------------------
      1 O                    -0.445585
      2 C                     0.087233
      3 O                    -0.431624
      4 C                     0.286575
      5 O                    -0.309380
      6 O                    -0.470924
      7 H                     0.359227
      8 H                     0.347066
      9 H                     0.334078
     10 H                     0.243334
  ----------------------------------------
  Sum of atomic charges =     0.000000

 -----------------------------------------------------------------
                    Cartesian Multipole Moments
 -----------------------------------------------------------------
    Charge (ESU x 10^10)
                 0.0000
    Dipole Moment (Debye)
         X      -6.3280      Y       4.1657      Z       4.1810
       Tot       8.6531
    Quadrupole Moments (Debye-Ang)
        XX     -36.2317     XY       6.3846     YY     -38.2316
        XZ      -4.9602     YZ       1.0288     ZZ     -32.1250
    Octopole Moments (Debye-Ang^2)
       XXX     -79.7807    XXY      14.4386    XYY     -26.1531
       YYY      44.4746    XXZ      -5.1478    XYZ      -0.1840
       YYZ      -3.6248    XZZ     -15.2880    YZZ       9.9674
       ZZZ     -21.2723
    Hexadecapole Moments (Debye-Ang^3)
      XXXX    -377.7501   XXXY      40.7295   XXYY     -97.0847
      XYYY      41.1227   YYYY    -247.5497   XXXZ     -36.8951
      XXYZ       2.5369   XYYZ     -13.7779   YYYZ      -0.4219
      XXZZ     -69.3240   XYZZ       3.2510   YYZZ     -49.2413
      XZZZ     -27.4758   YZZZ      -8.4840   ZZZZ     -63.8256
 -----------------------------------------------------------------
 Calculating analytic gradient of the SCF energy
 Gradient of CDS energy
            1           2           3           4           5           6
    1   0.0005323  -0.0026653   0.0019036   0.0035639  -0.0020529  -0.0005644
    2  -0.0025427  -0.0003217   0.0027576   0.0016498  -0.0032756   0.0012133
    3   0.0003402  -0.0027828   0.0024876  -0.0000658  -0.0002217   0.0001225
            7           8           9          10
    1  -0.0002637  -0.0004005   0.0000307  -0.0000838
    2   0.0004252  -0.0003045   0.0003849   0.0000137
    3   0.0001228  -0.0001048   0.0000311   0.0000709
 Gradient of SCF Energy
            1           2           3           4           5           6
    1   0.0169014   0.0058111   0.0215005  -0.0009199   0.0100090  -0.0016251
    2  -0.0111457   0.0071976  -0.0004229  -0.0039906  -0.0117650   0.0037564
    3  -0.0206740  -0.0184354  -0.0119221   0.0072952  -0.0030416  -0.0028974
            7           8           9          10
    1  -0.0183882  -0.0185117  -0.0079444  -0.0068327
    2   0.0065350  -0.0005477   0.0117206  -0.0013378
    3   0.0178409   0.0109095   0.0040518   0.0168732
 Max gradient component =       2.150E-02
 RMS gradient           =       1.143E-02
 Computing fast CPCM-SWIG gradient
 Updating gradient with PCM contributions...
 -- total gradient after adding PCM contribution --
---------------------------------------------------
  Atom         X              Y              Z     
---------------------------------------------------
   1       0.000324      -0.000872      -0.000015
   2      -0.000096       0.000532      -0.000128
   3       0.000013       0.000121       0.000034
   4       0.000011       0.000105       0.000007
   5      -0.000023      -0.000072      -0.000040
   6      -0.000046      -0.000038       0.000018
   7      -0.000184       0.000151       0.000145
   8       0.000012       0.000018       0.000012
   9       0.000003       0.000006       0.000004
  10      -0.000014       0.000050      -0.000037
---------------------------------------------------
 Number of fixed atoms: 0
 Gradient time:  CPU 67.07 s  wall 9.93 s
 ----------------------------------------------------------------
             Standard Nuclear Orientation (Angstroms)
    I     Atom           X                Y                Z
 ----------------------------------------------------------------
    1      O      -0.6678554955     1.1020238419     0.2622852811
    2      C      -0.3656352537    -0.2442880346     0.5330946241
    3      O      -1.0087321239    -1.1308296264    -0.3381898993
    4      C       1.1413976584    -0.4349469172     0.3500214906
    5      O       1.8712152688     0.6730078684     0.4158507821
    6      O       1.6501434675    -1.5191886229     0.2019956850
    7      H      -1.3958858049     1.3819609322     0.8267715306
    8      H      -1.8915177107    -1.3065397044     0.0066128236
    9      H       1.2716528173     1.4364649447     0.4903475041
   10      H      -0.6024757234    -0.4811881816     1.5723379780
 ----------------------------------------------------------------
 Nuclear Repulsion Energy =         252.33211366 hartrees
 There are       24 alpha and       24 beta electrons
 Discretize the solute cavity surface with Lebedev spheres
	Using 110 Lebedev grid points for each H atom
	Using 194 Lebedev grid points for other atoms
	Atomic van der Waals radii will be scaled by 1.20
 Remove points where switching function is < 1.0e-08
 Keep 850 surface tesserae and discard 754 interior tesserae
 Molecular Surface Area = 100.707 Angst**2

                       Distance Matrix (Angstroms)
             O (  1)   C (  2)   O (  3)   C (  4)   O (  5)   O (  6)
   C (  2)  1.406140
   O (  3)  2.337178  1.399524
   C (  4)  2.375579  1.530038  2.362403
   O (  5)  2.579635  2.420471  3.480877  1.328357
   O (  6)  3.499644  2.407979  2.740847  1.206778  2.213669
   H (  7)  0.962828  1.947395  2.796630  3.156937  3.368296  4.252682
   H (  8)  2.713650  1.932325  0.963885  3.174300  4.271328  3.553415
   H (  9)  1.981302  2.346800  3.532369  1.881181  0.973597  2.993708
   H ( 10)  2.055985  1.091898  2.058445  2.130092  2.964587  2.833651
             H (  7)   H (  8)   H (  9)
   H (  8)  2.854181
   H (  9)  2.689222  4.214703
   H ( 10)  2.157937  2.189596  2.891445
 
 Requested basis set is 6-311++G(2df,2p)
 There are 72 shells and 244 basis functions
 A cutoff of  1.0D-12 yielded   2505 shell pairs
 There are     29015 function pairs (     36595 Cartesian)
 Smallest overlap matrix eigenvalue = 8.77E-05
 Guess MOs from SCF MO coefficient file

 -----------------------------------------------------------------------
  General SCF calculation program by
  Eric Jon Sundstrom, Paul Horn, Yuezhi Mao, Dmitri Zuev, Alec White,
  David Stuck, Shaama M.S., Shane Yost, Joonho Lee, David Small,
  Daniel Levine, Susi Lehtola, Hugh Burton, Evgeny Epifanovsky,
  Bang C. Huynh
 -----------------------------------------------------------------------
 Exchange:     0.1500 Hartree-Fock + 1.0000 wB97M-V + LR-HF
 Correlation:  1.0000 wB97M-V
 Using SG-2 standard quadrature grid
 Nonlocal Correlation:  VV10 with C = 0.0100 and b = 6.00 and scale = 1.00000
 Grid used for NLC:  SG-1 standard quadrature
 
 Citation of the SMD model:
 Marenich, A.V.; Cramer, C.J.; Truhlar, D.G.
 J. Phys. Chem. B 2009, 113, 6378-6396.
 iSolventCode=           1
 Solvent: water                                                           
 
 vradii
            1           2           3           4           5           6
    1   1.5200000   1.8500000   1.5200000   1.8500000   1.5200000   1.5200000
            7           8           9          10
    1   1.2000000   1.2000000   1.2000000   1.2000000
 -------------------------------------------------------
 OpenMP BLAS3 based DFT computing Module                
 Release: version 1.0, May 2013, Q-Chem Inc. Pittsburgh 
 -------------------------------------------------------
 A restricted SCF calculation will be
 performed using Roothaan-Hall, DIIS, GDM
 SCF converges when RMS gradient is below 1.0e-07
 ---------------------------------------
  Cycle       Energy         DIIS error
 ---------------------------------------
    1    -379.5285313650      9.32e-04  Roothaan Step
 ---------------------------------------
  Cycle       Energy         DIIS error
 ---------------------------------------
    1    -379.5661769691      1.11e-03  
    2    -379.5736388176      1.08e-03  Done DIIS. Switching to GDM
 ---------------------------------------
  Cycle       Energy        RMS Gradient
 ---------------------------------------
    1    -379.5736388176      1.98e-02   Normal BFGS step
    2    -379.5715531685      3.38e-02  Line search: overstep
    3    -379.5790092019      2.68e-03   Normal BFGS step
    4    -379.5793192662      1.06e-03   Normal BFGS step
    5    -379.5793586017      1.64e-03   Normal BFGS step
    6    -379.5793722059      1.70e-04   Normal BFGS step
    7    -379.5793729754      7.38e-05   Normal BFGS step
    8    -379.5793731144      3.28e-05   Normal BFGS step
    9    -379.5793731258      1.69e-05   Normal BFGS step
   10    -379.5793731302      2.93e-06   Normal BFGS step
   11    -379.5793731304      1.55e-06   Normal BFGS step
   12    -379.5793731304      7.03e-07   Normal BFGS step
   13    -379.5793731304      2.25e-07   Normal BFGS step
   14    -379.5793731304      1.28e-07   Normal BFGS step
   15    -379.5793731304      5.50e-08  Convergence criterion met
 ---------------------------------------
 SCF time:   CPU 380.08s  wall 48.00s 
(3)  G-ENP(liq) elect-nuc-pol free energy of system     -379.579373130 a.u.
(4)  G-CDS(liq) cavity-dispersion-solvent structure 
     free energy                                                4.3446 kcal/mol
(6)  G-S(liq) free energy of system                     -379.572449587 a.u.
 SCF   energy in the final basis set =     -379.5724495872
 Total energy in the final basis set =     -379.5724495872
 
 --------------------------------------------------------------
 
                    Orbital Energies (a.u.)
 --------------------------------------------------------------
 
 Alpha MOs
 -- Occupied --
-19.3890 -19.3603 -19.3554 -19.3389 -10.4942 -10.4668  -1.2587  -1.2087
 -1.1738  -1.1463  -0.8503  -0.7394  -0.6754  -0.6613  -0.6597  -0.5856
 -0.5645  -0.5299  -0.5178  -0.4929  -0.4460  -0.4324  -0.4278  -0.3998
 -- Virtual --
  0.0227   0.0468   0.0554   0.0599   0.0754   0.0862   0.1041   0.1081
  0.1169   0.1419   0.1442   0.1552   0.1661   0.2088   0.2243   0.2324
  0.2436   0.2505   0.2714   0.2716   0.2820   0.2914   0.3012   0.3106
  0.3173   0.3215   0.3344   0.3412   0.3499   0.3529   0.3620   0.3832
  0.4007   0.4087   0.4317   0.4542   0.4844   0.5367   0.5620   0.5882
  0.6285   0.6351   0.6370   0.6639   0.6658   0.6858   0.7090   0.7491
  0.7945   0.8169   0.8237   0.8496   0.8883   0.9081   0.9265   0.9659
  0.9843   1.0340   1.0733   1.0831   1.0955   1.1012   1.1181   1.1383
  1.1469   1.1629   1.1868   1.1987   1.2172   1.2261   1.2489   1.2729
  1.3037   1.3327   1.3451   1.3979   1.4286   1.4532   1.5095   1.5237
  1.5387   1.5526   1.6005   1.6430   1.6631   1.7044   1.7156   1.7339
  1.7910   1.8332   1.8585   1.8870   1.9386   1.9762   2.0612   2.1454
  2.2143   2.2257   2.2482   2.3317   2.3400   2.3693   2.4014   2.4526
  2.4656   2.4901   2.5423   2.6134   2.6790   2.7573   2.8018   2.8181
  2.8717   2.8966   3.0570   3.1117   3.1438   3.1707   3.2565   3.2730
  3.2970   3.3400   3.3678   3.3958   3.4278   3.5003   3.5155   3.5815
  3.6043   3.6211   3.6446   3.7140   3.7415   3.7836   3.7949   3.8548
  3.8723   3.8877   3.9448   3.9574   4.0548   4.1136   4.1356   4.1460
  4.2218   4.2606   4.2930   4.3135   4.3268   4.3876   4.4651   4.4812
  4.7685   5.1275   5.1521   5.1697   5.1970   5.1990   5.2110   5.2416
  5.2630   5.2680   5.2800   5.2905   5.3046   5.3287   5.3468   5.3925
  5.4392   5.4944   5.5148   5.5332   5.5798   5.6017   5.6278   5.6469
  5.6696   5.6991   5.7197   5.8113   5.9676   6.0550   6.1065   6.1221
  6.2038   6.4416   6.5138   6.6899   6.7103   6.9328   6.9708   7.0250
  7.0301   7.1029   7.1335   7.1795   7.2319   7.2443   7.2726   7.2860
  7.3080   7.3536   7.3847   7.4388   7.4659   7.5245   7.5501   7.6086
  7.6806   7.7688   7.7701   7.8153   7.8609   7.8750  24.7739  25.1238
 50.5685  50.5752  50.6127  50.7303
 --------------------------------------------------------------
 
          Ground-State Mulliken Net Atomic Charges

     Atom                 Charge (a.u.)
  ----------------------------------------
      1 O                    -0.445597
      2 C                     0.087044
      3 O                    -0.431353
      4 C                     0.286640
      5 O                    -0.309355
      6 O                    -0.470880
      7 H                     0.358940
      8 H                     0.347113
      9 H                     0.334080
     10 H                     0.243368
  ----------------------------------------
  Sum of atomic charges =     0.000000

 -----------------------------------------------------------------
                    Cartesian Multipole Moments
 -----------------------------------------------------------------
    Charge (ESU x 10^10)
                 0.0000
    Dipole Moment (Debye)
         X      -6.3279      Y       4.1590      Z       4.1776
       Tot       8.6483
    Quadrupole Moments (Debye-Ang)
        XX     -36.2284     XY       6.3886     YY     -38.2360
        XZ      -4.9577     YZ       1.0245     ZZ     -32.1262
    Octopole Moments (Debye-Ang^2)
       XXX     -79.7822    XXY      14.4262    XYY     -26.1496
       YYY      44.4336    XXZ      -5.1551    XYZ      -0.1820
       YYZ      -3.6373    XZZ     -15.2875    YZZ       9.9565
       ZZZ     -21.2913
    Hexadecapole Moments (Debye-Ang^3)
      XXXX    -377.7268   XXXY      40.7426   XXYY     -97.0907
      XYYY      41.1463   YYYY    -247.6275   XXXZ     -36.8818
      XXYZ       2.5278   XYYZ     -13.7703   YYYZ      -0.4510
      XXZZ     -69.3250   XYZZ       3.2573   YYZZ     -49.2596
      XZZZ     -27.4635   YZZZ      -8.5103   ZZZZ     -63.8408
 -----------------------------------------------------------------
 Calculating analytic gradient of the SCF energy
 Gradient of CDS energy
            1           2           3           4           5           6
    1   0.0005006  -0.0026332   0.0019037   0.0035639  -0.0020529  -0.0005644
    2  -0.0024009  -0.0004648   0.0027580   0.0016499  -0.0032757   0.0012133
[...]
     6   -3.451012383423764e-04   7.405940974087642e-04   4.970900371769984e-04
     7    1.315272245916439e-04  -2.053148496954701e-04   1.068887864493712e-04
     8   -1.584766568136473e-01  -1.100226920542560e-02   9.902017095279432e-02
     9   -1.471983454449316e-05   4.633468646980260e-04  -3.883537847585874e-05
    10   -8.015027772845893e-04   5.524307680959907e-04   1.203872042374153e-03


     9 Order 1, Length 30
    Atom      X          Y          Z
     1    2.525545055977798e-03   1.732709516336494e-03  -8.206526090365584e-04
     2   -2.716399236561239e-03  -1.087331792209368e-02  -3.616834770896572e-04
     3    5.639682818065171e-04   2.321153092249555e-03   8.380082486180763e-04
     4    2.223237028414624e-02  -9.744273769874362e-03  -1.571197521572046e-03
     5   -2.178509532684718e-01   2.266123405613878e-01   2.421341377216655e-02
     6   -1.973375260040324e-03  -1.295628499416396e-02  -9.739615984179170e-04
     7    3.384850686541275e-04   2.593152642658426e-03   1.235226179239295e-03
     8   -1.126565053283261e-04  -4.366060183880639e-05  -1.471983454449316e-05
     9    1.973454421953558e-01  -2.002298263705056e-01  -2.231467015702717e-02
    10   -3.524921246502235e-04   5.880233979451371e-04  -2.297780443080990e-04

Order 1, Length 30
    Atom      X          Y          Z
     1    1.653840911398187e-03  -1.862068330986030e-03  -2.952517017053842e-04
     2   -4.372509911461937e-03  -8.692766964163342e-04  -4.749393051976655e-04
     3    2.217308111480066e-03   6.532342585279720e-04   5.401920335972365e-04
     4    2.134265467853297e-02  -4.917702206033000e-02  -5.188026342684011e-03
     5    1.844457782864589e-01  -2.906486400455250e-01  -2.584777492935452e-02
     6   -5.924056141092655e-03   1.892459881361721e-03   7.962496323480254e-06
     7    3.726531443621276e-04   1.135176519856915e-04   2.656035673583551e-04
     8   -2.897901021376134e-05  -8.708850366387697e-05   4.633468646980260e-04
     9   -2.002298263705056e-01   3.401565896790803e-01   3.052620490768657e-02
    10    5.231716074810835e-04  -1.716887325182465e-04   2.681507000093436e-06

Order 1, Length 30
    Atom      X          Y          Z
     1   -5.099397390202014e-04  -1.072718058567087e-03  -2.070901338413850e-03
     2    6.875644203627321e-04   4.085703503243188e-04  -1.289136069719210e-03
     3   -2.679036034814769e-04   6.754411189833703e-05   1.730542161844327e-04
     4    7.018024809875207e-04  -3.326520233976757e-03  -5.151622025901505e-03
     5    2.095648023305327e-02  -2.718609669207516e-02  -1.625186115269125e-02
     6   -4.614442908037616e-04  -2.738692777297795e-04   7.276582335348152e-03
     7    6.790971152298573e-04   8.563479511574379e-04  -4.865524333703233e-05
     8   -3.415191581707367e-05  -4.222986233200754e-05  -3.883537847585874e-05
     9   -2.231467015702717e-02   3.052620490768657e-02   1.744674206581048e-02
    10    5.631578253594012e-04   4.276155882939418e-05  -4.535660645650222e-05


    10 Order 1, Length 30
    Atom      X          Y          Z
     1    7.138199932812387e-03   9.307156646213104e-03  -1.054506238388143e-02
     2   -7.821710067352994e-02  -1.445460978713610e-02   7.489346422133555e-02
     3    4.537327197630173e-03  -4.740746053128050e-03  -2.472907789365087e-02
     4   -1.675097433385525e-03  -7.394468025822368e-03   3.152876374263509e-02
     5   -3.671604489163546e-03  -1.369999361261977e-03  -3.805595051903012e-03
     6   -2.768991935953827e-03   2.757526192631532e-03  -3.555978017897286e-03
     7    1.013043186443672e-03  -1.045730572451185e-03  -1.641682862349950e-03
     8    2.237513880299143e-03   1.434074865037466e-03  -8.015027772845893e-04
     9   -3.524921246502235e-04   5.231716074810835e-04   5.631578253594012e-04
    10    7.175924392093377e-02   1.498362905946436e-02  -6.190645585507862e-02

Order 1, Length 30
    Atom      X          Y          Z
     1   -1.122384385167787e-03  -2.728949194757930e-02   3.499136621415797e-02
     2   -1.031094883946041e-02  -5.430093303813066e-02   5.219291109289791e-02
     3   -4.355595359505144e-03  -7.295993952828610e-04  -3.056323689360327e-02
     4   -1.968293254033115e-04   2.810261096651757e-03  -3.227943232296642e-03
     5    7.003921069097085e-04   6.377999607109542e-04   3.795478078328408e-04
     6    2.465736010419959e-04  -1.841249177123610e-04   3.958499272201950e-04
     7   -2.773713158975273e-03   1.822084702602080e-03   5.876996155061650e-04
     8    2.240849392490823e-03   2.047639863972521e-04   5.524307680959907e-04
     9    5.880233979451371e-04  -1.716887325182465e-04   4.276155882939418e-05
    10    1.498362905946436e-02   7.720093170870351e-02  -5.535137678271802e-02

Order 1, Length 30
    Atom      X          Y          Z
     1    1.538149336974268e-03   6.540263044012430e-03  -2.192009504296222e-03
     2    5.782071270938518e-02   5.481746289958293e-02  -2.799730551545686e-01
     3   -3.311129032797826e-03  -6.782352426291565e-03  -2.558312453145221e-02
     4    5.567314605316057e-03   7.859932277089110e-04  -2.868703230699497e-03
     5    2.581062902905568e-04  -5.397815879775668e-04  -5.039718339646553e-04
     6   -6.062198807567910e-04   8.230506529614641e-04   4.407499564308993e-04
     7   -3.521814383555800e-04  -1.129264322017385e-04   1.032922811642867e-03
     8    1.221501770111615e-03  -1.830241672890744e-04   1.203872042374153e-03
     9   -2.297780443080990e-04   2.681507000093436e-06  -4.535660645650222e-05
    10   -6.190645585507862e-02  -5.535137678271802e-02   3.084886739605132e-01




 # Finishing finite difference calculation for IDERIV #
 ######################################################
 ######################################################
 Requested basis set is 6-311++G(2df,2p)
 There are 72 shells and 244 basis functions
 **********************************************************************
 **                                                                  **
 **                       VIBRATIONAL ANALYSIS                       **
 **                       --------------------                       **
 **                                                                  **
 **        VIBRATIONAL FREQUENCIES (CM**-1) AND NORMAL MODES         **
 **     FORCE CONSTANTS (mDYN/ANGSTROM) AND REDUCED MASSES (AMU)     **
 **                  INFRARED INTENSITIES (KM/MOL)                   **
 **                                                                  **
 **********************************************************************
 

 Mode:                 1                      2                      3
 Frequency:        53.96                 255.62                 281.91
 Force Cnst:      0.0115                 0.0464                 0.1570
 Red. Mass:       6.7297                 1.2050                 3.3525
 IR Active:          YES                    YES                    YES
 IR Intens:        6.433                128.877                 13.252
 Raman Active:       YES                    YES                    YES
               X      Y      Z        X      Y      Z        X      Y      Z
 O          0.030  0.010 -0.275   -0.062 -0.006 -0.035   -0.129  0.021  0.049
 C          0.009  0.058  0.002    0.005  0.016  0.017   -0.001  0.065  0.064
 O         -0.056 -0.126  0.245    0.068 -0.037  0.029    0.224 -0.054  0.006
 C         -0.000  0.024 -0.024   -0.002 -0.008  0.005   -0.026  0.063  0.037
 O          0.043 -0.020  0.338   -0.009 -0.007  0.005    0.150 -0.046 -0.056
 O         -0.027  0.054 -0.320   -0.008 -0.009 -0.019   -0.210 -0.009 -0.041
 H         -0.056  0.092 -0.426    0.402  0.192  0.462   -0.619 -0.264 -0.437
 H         -0.024 -0.067  0.357   -0.231  0.589 -0.409    0.110  0.034 -0.240
 H          0.079 -0.004  0.435   -0.027 -0.016 -0.028    0.325  0.068  0.092
 H          0.064  0.295  0.071    0.001  0.066  0.029   -0.049  0.026  0.045
 TransDip   0.012  0.038  0.071    0.068  0.356  0.031   -0.018  0.025 -0.112

 Mode:                 4                      5                      6
 Frequency:       302.73                 367.89                 505.80
 Force Cnst:      0.0796                 0.2457                 1.2010
 Red. Mass:       1.4751                 3.0808                 7.9674
 IR Active:          YES                    YES                    YES
 IR Intens:      213.674                 31.447                 48.478
 Raman Active:       YES                    YES                    YES
               X      Y      Z        X      Y      Z        X      Y      Z
 O          0.125 -0.013  0.023    0.175  0.033 -0.018   -0.224 -0.064 -0.180
 C         -0.008 -0.035  0.051   -0.029 -0.002  0.097   -0.099  0.045  0.298
 O         -0.007 -0.008  0.021    0.183 -0.029 -0.019    0.047  0.321 -0.023
 C         -0.016 -0.020  0.029   -0.079 -0.016  0.093    0.038 -0.165  0.274
 O         -0.083  0.025 -0.029   -0.172  0.034 -0.044   -0.019 -0.138 -0.114
 O          0.036  0.012 -0.024   -0.119 -0.011 -0.078    0.269 -0.022 -0.131
 H         -0.363 -0.145 -0.537    0.415  0.325  0.144   -0.168  0.104 -0.190
 H         -0.268  0.554 -0.353    0.326 -0.557  0.070    0.169 -0.214  0.005
 H         -0.122 -0.010  0.030   -0.286 -0.048 -0.018    0.019 -0.147  0.231
 H         -0.070 -0.014  0.044   -0.212  0.047  0.059   -0.420  0.149  0.240
 TransDip  -0.338  0.128 -0.298   -0.019 -0.080  0.159   -0.020 -0.091  0.203

 Mode:                 7                      8                      9
 Frequency:       547.25                 589.32                 642.47
 Force Cnst:      0.8742                 1.0680                 0.2787
 Red. Mass:       4.9545                 5.2196                 1.1460
 IR Active:          YES                    YES                    YES
 IR Intens:       38.754                 26.626                194.147
 Raman Active:       YES                    YES                    YES
               X      Y      Z        X      Y      Z        X      Y      Z
 O          0.119 -0.193 -0.051    0.027  0.253  0.101   -0.001 -0.013 -0.017
 C         -0.130 -0.158  0.110   -0.241  0.086 -0.079    0.042 -0.002 -0.023
 O         -0.149 -0.037 -0.088   -0.007 -0.238 -0.007   -0.002  0.012  0.003
 C         -0.036  0.140  0.184   -0.103 -0.040  0.031    0.016  0.002 -0.017
 O          0.226  0.058 -0.069    0.044 -0.164 -0.068   -0.024  0.029 -0.055
 O         -0.092  0.173 -0.026    0.208  0.104 -0.004   -0.023 -0.025  0.030
 H          0.411  0.218  0.113   -0.013  0.263  0.051    0.039 -0.048  0.054
 H         -0.174 -0.009 -0.131   -0.085 -0.230 -0.195    0.009  0.043  0.048
 H          0.442  0.193  0.180    0.305 -0.029  0.475   -0.014 -0.067  0.984
 H         -0.346 -0.210  0.043   -0.417  0.144 -0.112    0.073 -0.000 -0.014
 TransDip   0.069  0.081  0.169   -0.155  0.044  0.035    0.104 -0.024  0.433

 Mode:                10                     11                     12
 Frequency:       775.60                 879.20                1160.25
 Force Cnst:      2.7772                 1.9029                 1.9795
 Red. Mass:       7.8358                 4.1782                 2.4957
 IR Active:          YES                    YES                    YES
 IR Intens:       21.098                 54.729                211.174
 Raman Active:       YES                    YES                    YES
               X      Y      Z        X      Y      Z        X      Y      Z
 O         -0.064  0.164  0.036    0.003 -0.009  0.002   -0.052  0.087 -0.013
 C         -0.011  0.029 -0.126    0.227  0.018 -0.204    0.109 -0.032  0.148
 O         -0.123 -0.148 -0.049   -0.013 -0.004  0.005   -0.066 -0.087 -0.106
 C          0.308 -0.110  0.395   -0.087  0.034  0.305    0.144  0.106  0.012
 O          0.078  0.295 -0.048   -0.100 -0.170 -0.056   -0.045 -0.107 -0.006
 O         -0.048 -0.251 -0.132   -0.024  0.152 -0.048   -0.033  0.044  0.007
 H         -0.130 -0.084  0.083   -0.006 -0.501  0.236   -0.041  0.627 -0.263
 H         -0.107  0.061  0.114    0.085  0.322  0.427   -0.038  0.035  0.052
 H         -0.430 -0.065 -0.134    0.174  0.036 -0.113   -0.244 -0.241  0.013
 H         -0.390  0.092 -0.207    0.226  0.011 -0.202    0.429 -0.290  0.166
 TransDip   0.043 -0.128  0.058    0.153  0.112  0.142    0.257  0.361  0.143

 Mode:                13                     14                     15
 Frequency:      1216.22                1234.87                1250.29
 Force Cnst:      1.2146                 1.3535                 1.4756
 Red. Mass:       1.3936                 1.5065                 1.6021
 IR Active:          YES                    YES                    YES
 IR Intens:       91.900                130.368                187.515
 Raman Active:       YES                    YES                    YES
               X      Y      Z        X      Y      Z        X      Y      Z
 O          0.007  0.066 -0.036   -0.017 -0.040  0.026   -0.004 -0.049  0.031
 C          0.060 -0.018  0.078    0.016  0.073 -0.004   -0.077 -0.003 -0.145
 O         -0.046 -0.025 -0.037    0.014 -0.027 -0.040    0.019  0.058  0.085
 C         -0.072 -0.051  0.027   -0.118 -0.081  0.024    0.004 -0.005  0.076
 O         -0.006  0.043  0.002   -0.003  0.069  0.003    0.026 -0.005 -0.014
 O          0.010 -0.019 -0.006    0.034 -0.051 -0.011   -0.004  0.016 -0.011
 H         -0.007 -0.325  0.151    0.016  0.542 -0.230    0.003  0.391 -0.187
 H         -0.134 -0.330 -0.420    0.106  0.270  0.363   -0.105 -0.311 -0.447
 H          0.288  0.251 -0.005    0.378  0.336  0.011   -0.225 -0.188  0.013
 H          0.538  0.200  0.250    0.267 -0.264 -0.017    0.596 -0.120 -0.007
 TransDip   0.087 -0.290  0.048    0.032  0.349  0.103   -0.317 -0.111 -0.282

 Mode:                16                     17                     18
 Frequency:      1259.70                1326.02                1407.02
 Force Cnst:      3.3626                 1.7977                 1.6113
 Red. Mass:       3.5966                 1.7352                 1.3814
 IR Active:          YES                    YES                    YES
 IR Intens:      439.810                510.033                 11.696
 Raman Active:       YES                    YES                    YES
               X      Y      Z        X      Y      Z        X      Y      Z
 O          0.036 -0.215  0.076   -0.002 -0.006  0.004   -0.022  0.010  0.037
 C          0.005  0.354  0.024   -0.010 -0.016 -0.038   -0.006 -0.164 -0.049
 O         -0.062 -0.075 -0.086   -0.004  0.026  0.054    0.019  0.020 -0.016
 C          0.084  0.048  0.002    0.143  0.109  0.004    0.012  0.013  0.001
 O         -0.042 -0.040 -0.001   -0.118 -0.041  0.002   -0.009 -0.001 -0.001
 O          0.004 -0.012 -0.004   -0.001 -0.064 -0.008   -0.005 -0.003  0.000
 H          0.043  0.014 -0.048    0.024  0.113 -0.030   -0.023  0.311 -0.125
 H         -0.075 -0.165 -0.158   -0.074 -0.185 -0.254    0.066  0.121  0.167
 H         -0.047 -0.045  0.001    0.662  0.531 -0.004    0.120  0.096  0.005
 H          0.025  0.840  0.135   -0.213 -0.203 -0.134    0.029  0.864  0.193
 TransDip   0.092  0.662  0.066    0.439  0.568 -0.091    0.057 -0.070 -0.063

 Mode:                19                     20                     21
 Frequency:      1474.74                1795.40                3083.29
 Force Cnst:      2.4076                17.4321                 6.0793
 Red. Mass:       1.8789                 9.1786                 1.0854
 IR Active:          YES                    YES                    YES
 IR Intens:       88.706                616.464                 19.575
 Raman Active:       YES                    YES                    YES
               X      Y      Z        X      Y      Z        X      Y      Z
 O         -0.040 -0.006  0.028   -0.002  0.001 -0.000   -0.001 -0.000  0.001
 C          0.234 -0.007 -0.012    0.101 -0.030  0.004    0.020  0.018 -0.079
 O         -0.043  0.002  0.034   -0.017 -0.004  0.001   -0.001 -0.000  0.000
 C         -0.076 -0.083 -0.018   -0.371  0.581  0.082    0.001 -0.000 -0.000
 O          0.025  0.023  0.002    0.069 -0.017 -0.004   -0.000 -0.000 -0.000
 O         -0.008  0.040  0.007    0.192 -0.373 -0.052   -0.000  0.000 -0.000
 H         -0.020  0.408 -0.163   -0.005  0.015 -0.011    0.006  0.003 -0.004
 H         -0.140 -0.328 -0.413   -0.044 -0.071 -0.098    0.005 -0.004 -0.003
 H         -0.046 -0.032  0.007   -0.438 -0.304 -0.005   -0.001 -0.002 -0.000
 H         -0.615  0.065 -0.216   -0.139  0.045 -0.038   -0.239 -0.214  0.943
 TransDip  -0.019 -0.276 -0.121   -0.358  0.702  0.104   -0.075  0.038 -0.114

 Mode:                22                     23                     24
 Frequency:      3668.11                3824.49                3832.85
 Force Cnst:      8.4435                 9.1947                 9.2381
 Red. Mass:       1.0651                 1.0669                 1.0673
 IR Active:          YES                    YES                    YES
 IR Intens:      376.262                148.688                203.266
 Raman Active:       YES                    YES                    YES
               X      Y      Z        X      Y      Z        X      Y      Z
 O          0.001 -0.001 -0.001    0.005 -0.002 -0.004   -0.047  0.020  0.036
 C         -0.000  0.001 -0.000   -0.001 -0.000  0.001   -0.001 -0.000  0.002
 O         -0.000 -0.000  0.000   -0.057 -0.013  0.021   -0.006 -0.002  0.002
 C          0.001 -0.006 -0.001    0.000  0.000  0.000   -0.000 -0.000 -0.000
 O          0.037 -0.049 -0.005   -0.000  0.000  0.000    0.001 -0.001 -0.000
 O         -0.001  0.003  0.000    0.000 -0.000 -0.000    0.000 -0.000 -0.000
 H         -0.014  0.003  0.010   -0.075  0.029  0.058    0.748 -0.298 -0.581
 H          0.004  0.001 -0.001    0.910  0.190 -0.349    0.091  0.019 -0.034
 H         -0.579  0.809  0.080    0.003 -0.005 -0.000   -0.012  0.013  0.002
 H          0.001 -0.001  0.001    0.004  0.004 -0.002    0.004 -0.003 -0.006
 TransDip  -0.353  0.509  0.041    0.350  0.165 -0.053    0.348 -0.192 -0.225

 STANDARD THERMODYNAMIC QUANTITIES AT   298.15 K  AND     1.00 ATM

   This Molecule has  0 Imaginary Frequencies
   Zero point vibrational energy:       45.367 kcal/mol

   Atom    1 Element O  Has Mass   15.99491
   Atom    2 Element C  Has Mass   12.00000
   Atom    3 Element O  Has Mass   15.99491
   Atom    4 Element C  Has Mass   12.00000
   Atom    5 Element O  Has Mass   15.99491
   Atom    6 Element O  Has Mass   15.99491
   Atom    7 Element H  Has Mass    1.00783
   Atom    8 Element H  Has Mass    1.00783
   Atom    9 Element H  Has Mass    1.00783
   Atom   10 Element H  Has Mass    1.00783
   Molecular Mass:    92.010960 amu
   Principal axes and moments of inertia in amu*Bohr^2:
                             1           2           3
    Eigenvalues --      340.57446   504.73011   804.46143
          X               0.98779     0.11341    -0.10680
          Y              -0.13010     0.97765    -0.16513
          Z               0.08569     0.17701     0.98047
   Rotational Symmetry Number is   1
   The Molecule is an Asymmetric Top
   Translational Enthalpy:        0.889 kcal/mol
   Rotational Enthalpy:           0.889 kcal/mol
   Vibrational Enthalpy:         47.543 kcal/mol
   gas constant (RT):             0.592 kcal/mol
   Translational Entropy:        39.470  cal/mol.K
   Rotational Entropy:           26.428  cal/mol.K
   Vibrational Entropy:          13.042  cal/mol.K

   Total Enthalpy:               49.913 kcal/mol
   Total Entropy:                78.939  cal/mol.K
 Total job time:  3539.68s(wall), 27287.08s(cpu) 
 Mon Jul 17 17:55:01 2023

        *************************************************************
        *                                                           *
        *  Thank you very much for using Q-Chem.  Have a nice day.  *
        *                                                           *
        *************************************************************


