
Running Job 1 of 1 Q_in.in
qchem Q_in.in_88662.0 /scratch/ari.fischer/qChem1530101.hpc-mn1/qchem88662/ 0
/usr/local/qchem-5.4.1/exe/qcprog.exe_s Q_in.in_88662.0 /scratch/ari.fischer/qChem1530101.hpc-mn1/qchem88662/
                  Welcome to Q-Chem
     A Quantum Leap Into The Future Of Chemistry


 Q-Chem 5.4, Q-Chem, Inc., Pleasanton, CA (2021)

 License issued to: Nanyang Technological University (site)

 E. Epifanovsky,  A. T. B. Gilbert,  Xintian Feng,  Joonho Lee,  Yuezhi Mao,  
 N. Mardirossian,  P. Pokhilko,  A. White,  M. Wormit,  M. P. Coons,  
 A. L. Dempwolff,  Zhengting Gan,  D. Hait,  P. R. Horn,  L. D. Jacobson,  
 I. Kaliman,  J. Kussmann,  A. W. Lange,  Ka Un Lao,  D. S. Levine,  Jie Liu,  
 S. C. McKenzie,  A. F. Morrison,  K. Nanda,  F. Plasser,  D. R. Rehn,  
 M. L. Vidal,  Zhi-Qiang You,  Ying Zhu,  B. Alam,  B. Albrecht,  
 A. Aldossary,  E. Alguire,  J. H. Andersen,  D. Barton,  K. Begam,  A. Behn,  
 Y. A. Bernard,  E. J. Berquist,  H. Burton,  A. Carreras,  K. Carter-Fenk,  
 R. Chakraborty,  A. D. Chien,  K. D. Closser,  V. Cofer-Shabica,  
 S. Dasgupta,  Jia Deng,  M. de Wergifosse,  M. Diedenhofen,  Hainam Do,  
 S. Ehlert,  Po-Tung Fang,  S. Fatehi,  Qingguo Feng,  T. Friedhoff,  
 J. Gayvert,  Qinghui Ge,  G. Gidofalvi,  M. Goldey,  J. Gomes,  
 C. Gonzalez-Espinoza,  S. Gulania,  A. Gunina,  M. W. D. Hanson-Heine,  
 P. H. P. Harbach,  A. W. Hauser,  M. F. Herbst,  M. Hernandez Vera,  
 M. Hodecker,  Z. C. Holden,  S. Houck,  Xunkun Huang,  Kerwin Hui,  
 B. C. Huynh,  M. Ivanov,  Hyunjun Ji,  Hanjie Jiang,  B. Kaduk,  S. Kaehler,  
 K. Khistyaev,  Jaehoon Kim,  P. Klunzinger,  Z. Koczor-Benda,  
 Joong Hoon Koh,  D. Kosenkov,  L. Koulias,  T. Kowalczyk,  C. M. Krauter,  
 K. Kue,  A. Kunitsa,  T. Kus,  A. Landau,  K. V. Lawler,  D. Lefrancois,  
 S. Lehtola,  Rain Li,  Yi-Pei Li,  Jiashu Liang,  M. Liebenthal,  
 Hung-Hsuan Lin,  You-Sheng Lin,  Fenglai Liu,  Kuan-Yu Liu,  
 M. Loipersberger,  A. Luenser,  A. Manjanath,  P. Manohar,  E. Mansoor,  
 S. F. Manzer,  Shan-Ping Mao,  A. V. Marenich,  T. Markovich,  S. Mason,  
 S. A. Maurer,  P. F. McLaughlin,  M. F. S. J. Menger,  J.-M. Mewes,  
 S. A. Mewes,  P. Morgante,  J. W. Mullinax,  K. J. Oosterbaan,  G. Paran,  
 Alexander C. Paul,  Suranjan K. Paul,  F. Pavosevic,  Zheng Pei,  S. Prager,  
 E. I. Proynov,  E. Ramos,  B. Rana,  A. E. Rask,  A. Rettig,  R. M. Richard,  
 F. Rob,  E. Rossomme,  T. Scheele,  M. Scheurer,  M. Schneider,  
 N. Sergueev,  S. M. Sharada,  W. Skomorowski,  D. W. Small,  C. J. Stein,  
 Yu-Chuan Su,  E. J. Sundstrom,  Zhen Tao,  J. Thirman,  T. Tsuchimochi,  
 N. M. Tubman,  S. P. Veccham,  O. Vydrov,  J. Wenzel,  J. Witte,  A. Yamada,  
 Kun Yao,  S. Yeganeh,  S. R. Yost,  A. Zech,  Igor Ying Zhang,  Xing Zhang,  
 Yu Zhang,  D. Zuev,  A. Aspuru-Guzik,  A. T. Bell,  N. A. Besley,  
 K. B. Bravaya,  B. R. Brooks,  D. Casanova,  Jeng-Da Chai,  S. Coriani,  
 C. J. Cramer,  A. E. DePrince, III,  R. A. DiStasio Jr.,  A. Dreuw,  
 B. D. Dunietz,  T. R. Furlani,  W. A. Goddard III,  S. Grimme,  
 S. Hammes-Schiffer,  T. Head-Gordon,  W. J. Hehre,  Chao-Ping Hsu,  
 T.-C. Jagau,  Yousung Jung,  A. Klamt,  Jing Kong,  D. S. Lambrecht,  
 WanZhen Liang,  N. J. Mayhall,  C. W. McCurdy,  J. B. Neaton,  
 C. Ochsenfeld,  J. A. Parkhill,  R. Peverati,  V. A. Rassolov,  Yihan Shao,  
 L. V. Slipchenko,  T. Stauch,  R. P. Steele,  J. E. Subotnik,  
 A. J. W. Thom,  A. Tkatchenko,  D. G. Truhlar,  T. Van Voorhis,  
 T. A. Wesolowski,  K. B. Whaley,  H. L. Woodcock III,  P. M. Zimmerman,  
 S. Faraji,  P. M. W. Gill,  M. Head-Gordon,  J. M. Herbert,  A. I. Krylov

 Additional authors for Version 5.4.1: 
 S. Kotaru,  Shaozhi Li,  Xiangyuan Li,  F. Matz,  A. Molle,  Haisheng Ren,  
 Yingli Su,  Hung-Yi Tsai,  C. Utku,  Fang Wang

 Contributors to earlier versions of Q-Chem not listed above: 
 R. D. Adamson,  B. Austin,  R. Baer,  J. Baker,  G. J. O. Beran,  
 K. Brandhorst,  S. T. Brown,  E. F. C. Byrd,  A. K. Chakraborty,  
 G. K. L. Chan,  Chun-Min Chang,  Yunqing Chen,  C.-L. Cheng,  
 Siu Hung Chien,  D. M. Chipman,  D. L. Crittenden,  H. Dachsel,  
 R. J. Doerksen,  A. D. Dutoi,  R. G. Edgar,  J. Fosso-Tande,  
 L. Fusti-Molnar,  D. Ghosh,  A. Ghysels,  A. Golubeva-Zadorozhnaya,  
 J. Gonthier,  M. S. Gordon,  S. R. Gwaltney,  G. Hawkins,  J. E. Herr,  
 A. Heyden,  S. Hirata,  E. G. Hohenstein,  G. Kedziora,  F. J. Keil,  
 C. Kelley,  Jihan Kim,  R. A. King,  R. Z. Khaliullin,  P. P. Korambath,  
 W. Kurlancheek,  A. Laurent,  A. M. Lee,  M. S. Lee,  S. V. Levchenko,  
 Ching Yeh Lin,  D. Liotard,  E. Livshits,  R. C. Lochan,  I. Lotan,  
 L. A. Martinez-Martinez,  P. E. Maslen,  N. Nair,  D. P. O'Neill,  
 D. Neuhauser,  E. Neuscamman,  C. M. Oana,  R. Olivares-Amaya,  R. Olson,  
 T. M. Perrine,  B. Peters,  P. A. Pieniazek,  A. Prociuk,  Y. M. Rhee,  
 J. Ritchie,  M. A. Rohrdanz,  E. Rosta,  N. J. Russ,  H. F. Schaefer III,  
 M. W. Schmidt,  N. E. Schultz,  S. Sharma,  N. Shenvi,  C. D. Sherrill,  
 A. C. Simmonett,  A. Sodt,  T. Stein,  D. Stuck,  K. S. Thanthiriwatte,  
 V. Vanovschi,  L. Vogt,  Tao Wang,  A. Warshel,  M. A. Watson,  
 C. F. Williams,  Q. Wu,  X. Xu,  Jun Yang,  W. Zhang,  Yan Zhao

 Please cite Q-Chem as follows:
 Y. Shao et al., Mol. Phys. 113, 184-215 (2015)
 DOI: 10.1080/00268976.2014.952696

 Q-Chem 5.4.1 for Intel X86 EM64T Linux

 Parts of Q-Chem use Armadillo 9.800.1 (Horizon Scraper).
 http://arma.sourceforge.net/

 Q-Chem begins on Mon May  8 13:13:50 2023  

 Host: 
0

     Scratch files written to /scratch/ari.fischer/qChem1530101.hpc-mn1/qchem88662//
 Aug1521 |scratch|qcdevops|jenkins|workspace|build_RNUM 8249   
 Processing $rem in /usr/local/qchem-5.4.1/config/preferences:
 Processing $rem in /home/ari.fischer/.qchemrc:
 Symmetry turned off for PCM/SM12/SMD calculation


!!********************************************.
!!******************Warning*******************.
!!Desired Analytical derivatives not available.
!!Finite difference job might take a long time.
!!********************************************.
!!********************************************.


 2-order derivative to be evaluated numerically with 1-order analytical derivatives

 Checking the input file for inconsistencies... 	...done.

--------------------------------------------------------------
User input:
--------------------------------------------------------------
$molecule
0 2
C         0.5259361465    0.2043921395    0.4740676009
O         1.2874533448   -0.5711169147    0.9869908096
H        -2.5875831013    0.7760436896   -0.2342908893
C        -0.9933530291   -0.0778802264    0.4538855820
O        -1.1924198531   -1.3245821325   -0.0584423260
O        -1.6382660789    0.9534424243   -0.1592693111
O         0.9252740252    1.3236119123   -0.1025326688
H         0.1686586019    1.8175050908   -0.4603742573
O        -1.4339563021   -0.1633635542    1.8680049276
O        -1.1076507085    0.9154251556    2.5200574009
H        -2.1404694451   -1.4927940843   -0.1674083686
$end

$rem
BASIS = 6-311++G(2df,2p)
GUI = 2
JOB_TYPE = Frequency
METHOD = wB97M-V
SOLVENT_METHOD = SMD
SCF_ALGORITHM = DIIS_GDM
MAX_SCF_CYCLES = 400
SCF_CONVERGENCE = 7
THRESH = 12
UNRESTRICTED = 1
SYMMETRY_IGNORE = 1
$end
--------------------------------------------------------------
 ----------------------------------------------------------------
             Standard Nuclear Orientation (Angstroms)
    I     Atom           X                Y                Z
 ----------------------------------------------------------------
    1      C       0.5259361465     0.2043921395     0.4740676009
    2      O       1.2874533448    -0.5711169147     0.9869908096
    3      H      -2.5875831013     0.7760436896    -0.2342908893
    4      C      -0.9933530291    -0.0778802264     0.4538855820
    5      O      -1.1924198531    -1.3245821325    -0.0584423260
    6      O      -1.6382660789     0.9534424243    -0.1592693111
    7      O       0.9252740252     1.3236119123    -0.1025326688
    8      H       0.1686586019     1.8175050908    -0.4603742573
    9      O      -1.4339563021    -0.1633635542     1.8680049276
   10      O      -1.1076507085     0.9154251556     2.5200574009
   11      H      -2.1404694451    -1.4927940843    -0.1674083686
 ----------------------------------------------------------------
 Nuclear Repulsion Energy =         417.95628510 hartrees
 There are       32 alpha and       31 beta electrons
 Requested basis set is 6-311++G(2df,2p)
 There are 82 shells and 302 basis functions

 Total QAlloc Memory Limit 288000 MB
 Mega-Array Size       188 MB
 MEM_STATIC part       192 MB
 
 Citation of the SMD model:
 Marenich, A.V.; Cramer, C.J.; Truhlar, D.G.
 J. Phys. Chem. B 2009, 113, 6378-6396.
 iSolventCode=           1
 Solvent: water                                                           
 
 vradii
            1           2           3           4           5           6
    1   1.8500000   1.5200000   1.2000000   1.8500000   1.5200000   1.5200000
            7           8           9          10          11
    1   1.5200000   1.2000000   1.5200000   1.5200000   1.2000000
 Changing PCM_VDW_RADII to SMD_RADIUS
 Discretize the solute cavity surface with Lebedev spheres
	Using 110 Lebedev grid points for each H atom
	Using 194 Lebedev grid points for other atoms
	Atomic van der Waals radii will be scaled by 1.20
 Remove points where switching function is < 1.0e-08
 Keep 1006 surface tesserae and discard 876 interior tesserae
 Molecular Surface Area = 117.604 Angst**2

                       Distance Matrix (Angstroms)
             C (  1)   O (  2)   H (  3)   C (  4)   O (  5)   O (  6)
   O (  2)  1.201837
   H (  3)  3.243849  4.280453
   C (  4)  1.545421  2.393650  1.935030
   O (  5)  2.360948  2.794711  2.527851  1.362488
   O (  6)  2.376124  3.492567  0.968660  1.362167  2.323433
   O (  7)  1.320830  2.215453  3.557718  2.440269  3.391092  2.590749
   H (  8)  1.898147  3.008668  2.955101  2.403878  3.447723  2.025400
   O (  9)  2.432999  2.889380  2.575459  1.483635  2.262293  2.323540
   O ( 10)  2.712978  3.208835  3.129866  2.295384  3.416647  2.731628
   H ( 11)  3.225159  3.732664  2.313441  1.924542  0.969003  2.497268
             O (  7)   H (  8)   O (  9)   O ( 10)
   H (  8)  0.971827
   O (  9)  3.414686  3.451603
   O ( 10)  3.343259  3.365366  1.302088
   H ( 11)  4.163548  4.046725  2.531690  3.753493
 
 A cutoff of  1.0D-12 yielded   3160 shell pairs
 There are     43628 function pairs (     55934 Cartesian)
 Smallest overlap matrix eigenvalue = 5.38E-05
 Guess from superposition of atomic densities
 Warning:  Energy on first SCF cycle will be non-variational
 SAD guess density has 63.000000 electrons

 -----------------------------------------------------------------------
  General SCF calculation program by
  Eric Jon Sundstrom, Paul Horn, Yuezhi Mao, Dmitri Zuev, Alec White,
  David Stuck, Shaama M.S., Shane Yost, Joonho Lee, David Small,
  Daniel Levine, Susi Lehtola, Hugh Burton, Evgeny Epifanovsky,
  Bang C. Huynh
 -----------------------------------------------------------------------
 Exchange:     0.1500 Hartree-Fock + 1.0000 wB97M-V + LR-HF
 Correlation:  1.0000 wB97M-V
 Using SG-2 standard quadrature grid
 Nonlocal Correlation:  VV10 with C = 0.0100 and b = 6.00 and scale = 1.00000
 Grid used for NLC:  SG-1 standard quadrature
 using 8 threads for integral computing
 -------------------------------------------------------
 OpenMP Integral computing Module                
 Release: version 1.0, May 2013, Q-Chem Inc. Pittsburgh 
 -------------------------------------------------------
 
 Citation of the SMD model:
 Marenich, A.V.; Cramer, C.J.; Truhlar, D.G.
 J. Phys. Chem. B 2009, 113, 6378-6396.
 iSolventCode=           1
 Solvent: water                                                           
 
 vradii
            1           2           3           4           5           6
    1   1.8500000   1.5200000   1.2000000   1.8500000   1.5200000   1.5200000
            7           8           9          10          11
    1   1.5200000   1.2000000   1.5200000   1.5200000   1.2000000
 -------------------------------------------------------
 OpenMP BLAS3 based DFT computing Module                
 Release: version 1.0, May 2013, Q-Chem Inc. Pittsburgh 
 -------------------------------------------------------
 A unrestricted SCF calculation will be
 performed using DIIS, GDM
 SCF converges when RMS gradient is below 1.0e-07
 ---------------------------------------
  Cycle       Energy         DIIS error
 ---------------------------------------
    1    -530.7660659979      1.49e-02  
    2    -529.0850351218      2.55e-03  Done DIIS. Switching to GDM
 ---------------------------------------
  Cycle       Energy        RMS Gradient
 ---------------------------------------
    1    -529.0850351218      1.62e-01   Descent step
    2    -529.2845578486      3.59e-02   Normal BFGS step
    3    -529.3132072104      2.96e-02   Normal BFGS step
    4    -529.3153577699      1.47e-02   Normal BFGS step
    5    -529.3173074995      7.10e-03   Normal BFGS step
    6    -529.3174686490      3.54e-03   Normal BFGS step
    7    -529.3175730326      2.83e-03   Normal BFGS step
    8    -529.3175975720      1.15e-03   Normal BFGS step
    9    -529.3176032755      8.96e-04   Normal BFGS step
   10    -529.3176060340      8.82e-04   Normal BFGS step
   11    -529.3176085413      7.24e-04   Normal BFGS step
   12    -529.3176105784      3.97e-04   Normal BFGS step
   13    -529.3176113765      1.96e-04   Normal BFGS step
   14    -529.3176115290      4.03e-05   Normal BFGS step
   15    -529.3176115565      1.19e-05   Normal BFGS step
   16    -529.3176115607      6.22e-06   Normal BFGS step
   17    -529.3176115612      1.82e-06   Normal BFGS step
   18    -529.3176115614      9.17e-07   Normal BFGS step
   19    -529.3176115614      5.87e-07   Normal BFGS step
   20    -529.3176115614      1.88e-07   Normal BFGS step
   21    -529.3176115614      9.53e-08  Convergence criterion met
 ---------------------------------------
 SCF time:   CPU 805.89s  wall 102.00s 
<S^2> =          0.753812550
(3)  G-ENP(liq) elect-nuc-pol free energy of system     -529.317611561 a.u.
(4)  G-CDS(liq) cavity-dispersion-solvent structure 
     free energy                                                4.2101 kcal/mol
(6)  G-S(liq) free energy of system                     -529.310902355 a.u.
 SCF   energy in the final basis set =     -529.3109023547
 Total energy in the final basis set =     -529.3109023547
 
 --------------------------------------------------------------
 
                    Orbital Energies (a.u.)
 --------------------------------------------------------------
 
 Alpha MOs
 -- Occupied --
-19.4730 -19.4328 -19.4009 -19.3853 -19.3815 -19.3506 -10.5454 -10.5109
 -1.3654  -1.2741  -1.2452  -1.1934  -1.1747  -1.0123  -0.8614  -0.7559
 -0.7187  -0.7107  -0.6902  -0.6260  -0.6164  -0.5996  -0.5771  -0.5742
 -0.5331  -0.5083  -0.4964  -0.4549  -0.4508  -0.4288  -0.4141  -0.4055
 -- Virtual --
  0.0285   0.0468   0.0548   0.0596   0.0764   0.0875   0.1019   0.1055
  0.1212   0.1309   0.1420   0.1592   0.1836   0.1918   0.2052   0.2315
  0.2343   0.2424   0.2453   0.2508   0.2630   0.2726   0.2850   0.2899
  0.2976   0.3078   0.3217   0.3263   0.3313   0.3351   0.3412   0.3448
  0.3479   0.3541   0.3691   0.3738   0.3883   0.3967   0.4122   0.4239
  0.4277   0.4582   0.4674   0.4986   0.5036   0.5632   0.5787   0.5954
  0.6194   0.6473   0.6689   0.6842   0.7183   0.7478   0.7745   0.7980
  0.8296   0.8323   0.8498   0.8775   0.9123   0.9437   0.9743   0.9868
  1.0465   1.0646   1.0795   1.0834   1.0979   1.1091   1.1179   1.1284
  1.1404   1.1563   1.1768   1.1836   1.1864   1.2067   1.2245   1.2323
  1.2385   1.2453   1.2582   1.2856   1.3119   1.3302   1.3986   1.4250
  1.4576   1.4875   1.4968   1.5094   1.5320   1.5559   1.5666   1.6137
  1.6195   1.6450   1.6657   1.6840   1.7099   1.7424   1.7871   1.8174
  1.8412   1.8717   1.8877   1.9122   1.9714   2.0084   2.0217   2.0745
  2.1020   2.1243   2.2047   2.2303   2.2406   2.2941   2.3361   2.3545
  2.3880   2.4150   2.4361   2.4809   2.5207   2.5414   2.5953   2.6290
  2.6594   2.7709   2.8113   2.8451   2.8852   2.9335   2.9781   3.0208
  3.1292   3.1790   3.1993   3.2853   3.2951   3.3443   3.3881   3.3963
  3.4187   3.4770   3.5415   3.5748   3.5905   3.6198   3.6407   3.6786
  3.7129   3.7255   3.7403   3.7774   3.8116   3.8362   3.8513   3.8940
  3.9388   4.0418   4.0529   4.1179   4.1731   4.2302   4.2625   4.2807
  4.3473   4.3851   4.4406   4.5709   4.6981   4.7330   4.8153   4.8338
  4.9603   5.0470   5.0689   5.0744   5.1191   5.1204   5.1414   5.1539
  5.1603   5.1900   5.1965   5.2056   5.2203   5.2281   5.2423   5.2621
  5.2771   5.3098   5.3194   5.3349   5.3414   5.3859   5.4035   5.4387
  5.4664   5.4787   5.5474   5.5556   5.5655   5.5774   5.6186   5.6476
  5.6568   5.6929   5.7203   5.7226   5.7436   5.8337   6.0068   6.0379
  6.0842   6.1936   6.2305   6.3943   6.4450   6.4707   6.5804   6.6007
  6.7245   6.8311   6.8543   6.8787   6.9190   6.9404   6.9990   7.0274
  7.0373   7.0744   7.0768   7.1173   7.1201   7.1990   7.2082   7.2443
  7.2532   7.2722   7.2933   7.3192   7.3638   7.3868   7.4086   7.4448
  7.4689   7.5181   7.5293   7.5442   7.6811   7.7296   7.7744   7.7934
  7.8321   7.8641   7.8890   7.9059   8.0411   8.1324  24.8275  25.1407
 50.4037  50.5139  50.5717  50.6026  50.6383  50.7500
 
 Beta MOs
 -- Occupied --
-19.4634 -19.4133 -19.4008 -19.3851 -19.3815 -19.3506 -10.5458 -10.5108
 -1.3423  -1.2717  -1.2430  -1.1933  -1.1746  -0.9777  -0.8563  -0.7554
 -0.7166  -0.6977  -0.6845  -0.6027  -0.5989  -0.5836  -0.5742  -0.5514
 -0.5306  -0.4980  -0.4893  -0.4529  -0.4498  -0.4222  -0.3928
 -- Virtual --
 -0.0425   0.0287   0.0470   0.0552   0.0602   0.0769   0.0877   0.1023
  0.1060   0.1223   0.1325   0.1422   0.1605   0.1874   0.1943   0.2085
  0.2327   0.2363   0.2450   0.2472   0.2536   0.2717   0.2747   0.2872
  0.2900   0.2999   0.3087   0.3228   0.3268   0.3317   0.3374   0.3420
  0.3456   0.3487   0.3552   0.3695   0.3746   0.3900   0.3985   0.4144
  0.4250   0.4285   0.4586   0.4673   0.4992   0.5043   0.5638   0.5794
  0.5954   0.6196   0.6478   0.6696   0.6844   0.7197   0.7506   0.7749
  0.7982   0.8302   0.8330   0.8503   0.8788   0.9125   0.9446   0.9750
  0.9877   1.0483   1.0669   1.0837   1.0888   1.0995   1.1147   1.1290
  1.1319   1.1448   1.1596   1.1800   1.1894   1.1942   1.2133   1.2274
  1.2339   1.2438   1.2483   1.2665   1.2920   1.3161   1.3326   1.4000
  1.4275   1.4611   1.4988   1.5027   1.5149   1.5387   1.5592   1.5743
  1.6190   1.6294   1.6478   1.6838   1.6928   1.7119   1.7456   1.7938
  1.8257   1.8492   1.8723   1.8949   1.9141   1.9737   2.0113   2.0254
  2.0789   2.1077   2.1310   2.2095   2.2336   2.2488   2.2986   2.3434
  2.3623   2.3888   2.4169   2.4399   2.4831   2.5232   2.5421   2.5971
  2.6345   2.6609   2.7733   2.8128   2.8467   2.8857   2.9352   2.9790
  3.0215   3.1295   3.1796   3.1996   3.2856   3.2956   3.3446   3.3892
  3.3965   3.4192   3.4779   3.5418   3.5752   3.5911   3.6205   3.6412
  3.6785   3.7138   3.7267   3.7409   3.7779   3.8118   3.8363   3.8516
  3.8944   3.9392   4.0419   4.0534   4.1183   4.1733   4.2312   4.2633
  4.2810   4.3478   4.3853   4.4412   4.6058   4.7157   4.7381   4.8372
  4.8455   4.9777   5.1029   5.1146   5.1198   5.1246   5.1420   5.1600
  5.1652   5.1755   5.2006   5.2077   5.2181   5.2366   5.2495   5.2614
  5.2708   5.2810   5.3138   5.3268   5.3480   5.3548   5.3976   5.4055
  5.4416   5.4678   5.4916   5.5504   5.5607   5.5676   5.5800   5.6240
  5.6492   5.6601   5.6949   5.7286   5.7353   5.7456   5.8421   6.0098
  6.0397   6.0855   6.1970   6.2360   6.3974   6.4484   6.5127   6.5916
  6.6084   6.7301   6.8529   6.9196   6.9307   6.9423   6.9860   7.0042
  7.0313   7.0485   7.0804   7.0865   7.1266   7.1487   7.2005   7.2251
  7.2475   7.2610   7.2873   7.2961   7.3205   7.3695   7.3956   7.4307
  7.4651   7.4859   7.5196   7.5376   7.5461   7.6832   7.7356   7.7752
  7.7959   7.8370   7.8663   7.8911   7.9081   8.0528   8.1496  24.8273
 25.1408  50.4166  50.5223  50.5720  50.6027  50.6388  50.7503
 --------------------------------------------------------------
 
          Ground-State Mulliken Net Atomic Charges

     Atom                 Charge (a.u.)    Spin (a.u.)
  --------------------------------------------------------
      1 C                     0.288492       0.012867
      2 O                    -0.439541      -0.002339
      3 H                     0.368492       0.000265
      4 C                     0.344626      -0.004367
      5 O                    -0.380251      -0.000006
      6 O                    -0.400557       0.001816
      7 O                    -0.269766       0.000758
      8 H                     0.342111      -0.000074
      9 O                    -0.011554       0.290179
     10 O                    -0.193376       0.701191
     11 H                     0.351323      -0.000291
  --------------------------------------------------------
  Sum of atomic charges =    -0.000000
  Sum of spin   charges =     1.000000

 -----------------------------------------------------------------
                    Cartesian Multipole Moments
 -----------------------------------------------------------------
    Charge (ESU x 10^10)
                 0.0000
    Dipole Moment (Debye)
         X      -7.4054      Y       1.4156      Z      -4.6164
       Tot       8.8406
    Quadrupole Moments (Debye-Ang)
        XX     -34.6217     XY       3.2251     YY     -44.8775
        XZ       2.0385     YZ      -1.2904     ZZ     -54.0485
    Octopole Moments (Debye-Ang^2)
       XXX       6.8425    XXY     -13.8061    XYY      13.8524
       YYY     -15.6538    XXZ     -44.1456    XYZ       3.2212
       YYZ     -40.0617    XZZ      29.2091    YZZ      -9.5114
       ZZZ    -119.2663
    Hexadecapole Moments (Debye-Ang^3)
      XXXX    -311.8604   XXXY       8.1020   XXYY    -100.4691
      XYYY       9.1373   YYYY    -231.2950   XXXZ      77.0317
      XXYZ      -3.9815   XYYZ      25.8049   YYYZ     -25.8797
      XXZZ    -158.6319   XYZZ       7.4015   YYZZ    -115.7143
      XZZZ      91.0071   YZZZ     -33.0825   ZZZZ    -473.1132
 -----------------------------------------------------------------
 Calculating analytic gradient of the SCF energy
 Gradient of CDS energy
            1           2           3           4           5           6
    1   0.0027353  -0.0008378  -0.0003661  -0.0025661   0.0006795   0.0017605
    2   0.0020568   0.0008048   0.0002459  -0.0016428   0.0043351  -0.0027988
    3  -0.0010321  -0.0004927  -0.0001194  -0.0035513   0.0019425   0.0018166
            7           8           9          10          11
    1  -0.0009994  -0.0000465   0.0000613  -0.0001746  -0.0002459
    2  -0.0029841   0.0003041   0.0000959  -0.0000508  -0.0003659
    3   0.0016040  -0.0001768   0.0000534   0.0000683  -0.0001126
 Gradient of SCF Energy
            1           2           3           4           5           6
    1   0.0030120  -0.0021841  -0.0305330  -0.0024893   0.0306138   0.0263069
    2  -0.0029932   0.0022777  -0.0059296   0.0017874  -0.0018470   0.0064894
    3   0.0010928  -0.0017324  -0.0044742  -0.0020621   0.0041696   0.0041713
            7           8           9          10          11
    1   0.0130758  -0.0110286   0.0013593   0.0000972  -0.0282299
    2  -0.0080505   0.0091021   0.0003119   0.0006068  -0.0017549
    3   0.0072139  -0.0077742   0.0042624   0.0004865  -0.0053538
 Max gradient component =       3.061E-02
 RMS gradient           =       1.121E-02
 Computing fast CPCM-SWIG gradient
 Updating gradient with PCM contributions...
 -- total gradient after adding PCM contribution --
---------------------------------------------------
  Atom         X              Y              Z     
---------------------------------------------------
   1       0.000020       0.000047       0.000016
   2       0.000005      -0.000013      -0.000013
   3      -0.000040      -0.000018      -0.000032
   4      -0.000042      -0.000018       0.000104
   5       0.000008      -0.000057       0.000087
   6      -0.000005      -0.000017       0.000001
   7       0.000099       0.000032       0.000016
   8      -0.000055      -0.000040      -0.000085
   9       0.000053       0.000079      -0.000054
  10      -0.000016       0.000008      -0.000022
  11      -0.000027      -0.000004      -0.000017
---------------------------------------------------
 Number of fixed atoms: 0
 Gradient time:  CPU 111.61 s  wall 16.36 s
 ######################################################
 ######################################################
 # Starting finite difference calculation for IDERIV  #
 Finite diff step size:  1.88973e-03 a.u.
 ----------------------------------------------------------------
             Standard Nuclear Orientation (Angstroms)
    I     Atom           X                Y                Z
 ----------------------------------------------------------------
    1      C       0.5269361465     0.2043921395     0.4740676009
    2      O       1.2874533448    -0.5711169147     0.9869908096
    3      H      -2.5875831013     0.7760436896    -0.2342908893
    4      C      -0.9933530291    -0.0778802264     0.4538855820
    5      O      -1.1924198531    -1.3245821325    -0.0584423260
    6      O      -1.6382660789     0.9534424243    -0.1592693111
    7      O       0.9252740252     1.3236119123    -0.1025326688
    8      H       0.1686586019     1.8175050908    -0.4603742573
    9      O      -1.4339563021    -0.1633635542     1.8680049276
   10      O      -1.1076507085     0.9154251556     2.5200574009
   11      H      -2.1404694451    -1.4927940843    -0.1674083686
 ----------------------------------------------------------------
 Nuclear Repulsion Energy =         417.95033647 hartrees
 There are       32 alpha and       31 beta electrons
 Discretize the solute cavity surface with Lebedev spheres
	Using 110 Lebedev grid points for each H atom
	Using 194 Lebedev grid points for other atoms
	Atomic van der Waals radii will be scaled by 1.20
 Remove points where switching function is < 1.0e-08
 Keep 1006 surface tesserae and discard 876 interior tesserae
 Molecular Surface Area = 117.607 Angst**2

                       Distance Matrix (Angstroms)
             C (  1)   O (  2)   H (  3)   C (  4)   O (  5)   O (  6)
   O (  2)  1.201204
   H (  3)  3.244809  4.280453
   C (  4)  1.546404  2.393650  1.935030
   O (  5)  2.361676  2.794711  2.527851  1.362488
   O (  6)  2.377034  3.492567  0.968660  1.362167  2.323433
   O (  7)  1.320528  2.215453  3.557718  2.440269  3.391092  2.590749
   H (  8)  1.898336  3.008668  2.955101  2.403878  3.447723  2.025400
   O (  9)  2.433805  2.889380  2.575459  1.483635  2.262293  2.323540
   O ( 10)  2.713580  3.208835  3.129866  2.295384  3.416647  2.731628
   H ( 11)  3.225986  3.732664  2.313441  1.924542  0.969003  2.497268
             O (  7)   H (  8)   O (  9)   O ( 10)
   H (  8)  0.971827
   O (  9)  3.414686  3.451603
   O ( 10)  3.343259  3.365366  1.302088
   H ( 11)  4.163548  4.046725  2.531690  3.753493
 
 Requested basis set is 6-311++G(2df,2p)
 There are 82 shells and 302 basis functions
 A cutoff of  1.0D-12 yielded   3160 shell pairs
 There are     43628 function pairs (     55934 Cartesian)
 Smallest overlap matrix eigenvalue = 5.40E-05
 Guess MOs from SCF MO coefficient file

 -----------------------------------------------------------------------
  General SCF calculation program by
  Eric Jon Sundstrom, Paul Horn, Yuezhi Mao, Dmitri Zuev, Alec White,
  David Stuck, Shaama M.S., Shane Yost, Joonho Lee, David Small,
  Daniel Levine, Susi Lehtola, Hugh Burton, Evgeny Epifanovsky,
  Bang C. Huynh
 -----------------------------------------------------------------------
 Exchange:     0.1500 Hartree-Fock + 1.0000 wB97M-V + LR-HF
 Correlation:  1.0000 wB97M-V
 Using SG-2 standard quadrature grid
 Nonlocal Correlation:  VV10 with C = 0.0100 and b = 6.00 and scale = 1.00000
 Grid used for NLC:  SG-1 standard quadrature
 
 Citation of the SMD model:
 Marenich, A.V.; Cramer, C.J.; Truhlar, D.G.
 J. Phys. Chem. B 2009, 113, 6378-6396.
 iSolventCode=           1
 Solvent: water                                                           
 
 vradii
            1           2           3           4           5           6
    1   1.8500000   1.5200000   1.2000000   1.8500000   1.5200000   1.5200000
            7           8           9          10          11
    1   1.5200000   1.2000000   1.5200000   1.5200000   1.2000000
 -------------------------------------------------------
 OpenMP BLAS3 based DFT computing Module                
 Release: version 1.0, May 2013, Q-Chem Inc. Pittsburgh 
 -------------------------------------------------------
 A unrestricted SCF calculation will be
 performed using Roothaan-Hall, DIIS, GDM
 SCF converges when RMS gradient is below 1.0e-07
 ---------------------------------------
  Cycle       Energy         DIIS error
 ---------------------------------------
    1    -529.2663506324      3.67e-04  Roothaan Step
 ---------------------------------------
  Cycle       Energy         DIIS error
 ---------------------------------------
    1    -529.3054191744      4.28e-04  
    2    -529.3124530744      4.11e-04  Done DIIS. Switching to GDM
 ---------------------------------------
  Cycle       Energy        RMS Gradient
 ---------------------------------------
    1    -529.3124530744      1.97e-02   Normal BFGS step
    2    -529.3100448105      3.35e-02  Line search: overstep
    3    -529.3172912601      3.61e-03   Normal BFGS step
    4    -529.3175583341      1.11e-03   Normal BFGS step
    5    -529.3175992274      1.87e-03   Normal BFGS step
    6    -529.3176129308      2.99e-04   Normal BFGS step
    7    -529.3176145116      4.37e-04   Normal BFGS step
    8    -529.3176151258      1.62e-04   Normal BFGS step
    9    -529.3176152766      9.84e-05   Normal BFGS step
   10    -529.3176153380      3.88e-05   Normal BFGS step
   11    -529.3176153492      2.92e-05   Normal BFGS step
   12    -529.3176153520      2.62e-05   Normal BFGS step
   13    -529.3176153537      2.09e-05   Normal BFGS step
   14    -529.3176153553      1.17e-05   Normal BFGS step
   15    -529.3176153562      7.31e-06   Normal BFGS step
   16    -529.3176153566      2.11e-06   Normal BFGS step
   17    -529.3176153567      4.23e-07   Normal BFGS step
   18    -529.3176153567      1.87e-07   Normal BFGS step
   19    -529.3176153567      8.57e-08  Convergence criterion met
 ---------------------------------------
 SCF time:   CPU 773.31s  wall 97.00s 
<S^2> =          0.753812481
(3)  G-ENP(liq) elect-nuc-pol free energy of system     -529.317615357 a.u.
(4)  G-CDS(liq) cavity-dispersion-solvent structure 
     free energy                                                4.2133 kcal/mol
(6)  G-S(liq) free energy of system                     -529.310900991 a.u.
 SCF   energy in the final basis set =     -529.3109009906
 Total energy in the final basis set =     -529.3109009906
 
 --------------------------------------------------------------
 
                    Orbital Energies (a.u.)
 --------------------------------------------------------------
 
 Alpha MOs
 -- Occupied --
-19.4730 -19.4328 -19.4008 -19.3853 -19.3815 -19.3506 -10.5454 -10.5108
 -1.3653  -1.2742  -1.2452  -1.1935  -1.1748  -1.0123  -0.8611  -0.7561
 -0.7186  -0.7107  -0.6901  -0.6260  -0.6164  -0.5997  -0.5772  -0.5742
 -0.5331  -0.5082  -0.4964  -0.4550  -0.4509  -0.4288  -0.4141  -0.4054
 -- Virtual --
  0.0285   0.0468   0.0549   0.0597   0.0764   0.0875   0.1019   0.1055
  0.1212   0.1310   0.1420   0.1592   0.1836   0.1919   0.2053   0.2316
  0.2343   0.2424   0.2453   0.2508   0.2630   0.2726   0.2849   0.2898
  0.2976   0.3078   0.3218   0.3263   0.3313   0.3351   0.3412   0.3448
  0.3479   0.3542   0.3691   0.3738   0.3883   0.3966   0.4123   0.4238
  0.4277   0.4582   0.4674   0.4986   0.5036   0.5635   0.5787   0.5954
  0.6195   0.6473   0.6689   0.6842   0.7183   0.7479   0.7746   0.7980
  0.8296   0.8323   0.8498   0.8776   0.9124   0.9438   0.9743   0.9868
  1.0465   1.0646   1.0794   1.0835   1.0978   1.1091   1.1179   1.1283
  1.1403   1.1563   1.1768   1.1836   1.1864   1.2067   1.2245   1.2322
  1.2385   1.2453   1.2582   1.2855   1.3119   1.3302   1.3985   1.4249
  1.4576   1.4876   1.4969   1.5094   1.5319   1.5559   1.5666   1.6137
  1.6196   1.6449   1.6657   1.6840   1.7100   1.7424   1.7871   1.8174
  1.8412   1.8718   1.8877   1.9123   1.9713   2.0084   2.0218   2.0746
  2.1021   2.1244   2.2046   2.2303   2.2407   2.2941   2.3361   2.3545
  2.3879   2.4153   2.4361   2.4810   2.5206   2.5415   2.5951   2.6291
  2.6594   2.7708   2.8112   2.8453   2.8853   2.9334   2.9781   3.0208
  3.1288   3.1787   3.1991   3.2854   3.2951   3.3445   3.3880   3.3965
  3.4188   3.4771   3.5414   3.5749   3.5911   3.6197   3.6405   3.6785
  3.7130   3.7255   3.7403   3.7771   3.8116   3.8361   3.8511   3.8940
  3.9386   4.0425   4.0519   4.1175   4.1728   4.2302   4.2622   4.2805
  4.3477   4.3851   4.4404   4.5709   4.6980   4.7324   4.8152   4.8338
  4.9603   5.0471   5.0689   5.0744   5.1191   5.1204   5.1415   5.1539
  5.1603   5.1900   5.1965   5.2056   5.2204   5.2280   5.2424   5.2624
  5.2771   5.3099   5.3194   5.3349   5.3415   5.3859   5.4036   5.4387
  5.4665   5.4787   5.5474   5.5556   5.5661   5.5777   5.6187   5.6480
  5.6570   5.6932   5.7203   5.7226   5.7437   5.8337   6.0069   6.0380
  6.0853   6.1938   6.2301   6.3945   6.4469   6.4709   6.5805   6.6008
  6.7256   6.8313   6.8544   6.8788   6.9191   6.9403   6.9991   7.0274
  7.0373   7.0743   7.0775   7.1182   7.1202   7.1995   7.2083   7.2444
  7.2532   7.2722   7.2933   7.3193   7.3639   7.3872   7.4086   7.4450
  7.4689   7.5183   7.5293   7.5453   7.6811   7.7294   7.7746   7.7933
  7.8322   7.8643   7.8890   7.9060   8.0411   8.1324  24.8271  25.1417
 50.4038  50.5140  50.5718  50.6026  50.6384  50.7508
 
 Beta MOs
 -- Occupied --
-19.4634 -19.4133 -19.4008 -19.3851 -19.3815 -19.3506 -10.5457 -10.5107
 -1.3423  -1.2717  -1.2430  -1.1934  -1.1747  -0.9777  -0.8560  -0.7555
 -0.7165  -0.6977  -0.6844  -0.6027  -0.5990  -0.5837  -0.5742  -0.5514
 -0.5306  -0.4980  -0.4892  -0.4530  -0.4498  -0.4221  -0.3928
 -- Virtual --
 -0.0425   0.0287   0.0470   0.0554   0.0603   0.0769   0.0877   0.1023
  0.1060   0.1223   0.1325   0.1422   0.1605   0.1874   0.1943   0.2086
  0.2327   0.2363   0.2450   0.2472   0.2536   0.2717   0.2747   0.2872
  0.2899   0.2998   0.3087   0.3228   0.3268   0.3316   0.3373   0.3420
  0.3456   0.3486   0.3552   0.3695   0.3746   0.3900   0.3985   0.4144
  0.4249   0.4284   0.4586   0.4673   0.4992   0.5043   0.5641   0.5794
  0.5954   0.6197   0.6479   0.6696   0.6844   0.7197   0.7506   0.7749
  0.7982   0.8302   0.8331   0.8503   0.8788   0.9126   0.9447   0.9750
  0.9878   1.0483   1.0669   1.0837   1.0888   1.0994   1.1146   1.1290
  1.1318   1.1448   1.1596   1.1800   1.1894   1.1942   1.2133   1.2274
  1.2338   1.2437   1.2483   1.2665   1.2920   1.3161   1.3326   1.3999
  1.4274   1.4611   1.4989   1.5027   1.5149   1.5387   1.5592   1.5743
  1.6190   1.6294   1.6477   1.6837   1.6929   1.7120   1.7456   1.7938
  1.8258   1.8492   1.8725   1.8949   1.9142   1.9737   2.0113   2.0255
  2.0789   2.1077   2.1311   2.2095   2.2336   2.2490   2.2986   2.3434
  2.3623   2.3887   2.4172   2.4400   2.4833   2.5232   2.5421   2.5969
  2.6346   2.6610   2.7733   2.8126   2.8469   2.8859   2.9351   2.9790
  3.0215   3.1291   3.1793   3.1994   3.2857   3.2957   3.3448   3.3891
  3.3967   3.4193   3.4780   3.5416   3.5753   3.5916   3.6204   3.6410
  3.6784   3.7138   3.7267   3.7409   3.7776   3.8118   3.8362   3.8513
  3.8944   3.9390   4.0425   4.0524   4.1178   4.1731   4.2312   4.2630
  4.2808   4.3482   4.3853   4.4410   4.6058   4.7155   4.7376   4.8371
  4.8455   4.9777   5.1030   5.1146   5.1198   5.1247   5.1420   5.1600
  5.1653   5.1755   5.2006   5.2077   5.2181   5.2367   5.2495   5.2615
  5.2709   5.2810   5.3139   5.3268   5.3480   5.3549   5.3976   5.4056
  5.4416   5.4678   5.4916   5.5504   5.5607   5.5682   5.5802   5.6241
  5.6496   5.6602   5.6951   5.7286   5.7353   5.7456   5.8421   6.0099
  6.0399   6.0866   6.1973   6.2356   6.3976   6.4504   6.5128   6.5916
  6.6086   6.7313   6.8532   6.9196   6.9307   6.9423   6.9860   7.0043
  7.0312   7.0485   7.0804   7.0875   7.1272   7.1487   7.2010   7.2252
  7.2476   7.2610   7.2874   7.2960   7.3206   7.3696   7.3960   7.4307
  7.4652   7.4859   7.5198   7.5375   7.5471   7.6831   7.7354   7.7755
  7.7958   7.8371   7.8666   7.8911   7.9081   8.0528   8.1496  24.8268
 25.1417  50.4166  50.5223  50.5721  50.6027  50.6389  50.7512
 --------------------------------------------------------------
 
          Ground-State Mulliken Net Atomic Charges

     Atom                 Charge (a.u.)    Spin (a.u.)
  --------------------------------------------------------
      1 C                     0.288789       0.012890
      2 O                    -0.439095      -0.002329
      3 H                     0.368468       0.000266
      4 C                     0.344098      -0.004390
      5 O                    -0.380334      -0.000004
      6 O                    -0.400603       0.001812
      7 O                    -0.269786       0.000762
      8 H                     0.342195      -0.000073
      9 O                    -0.011500       0.290221
     10 O                    -0.193533       0.701137
     11 H                     0.351301      -0.000291
  --------------------------------------------------------
  Sum of atomic charges =     0.000000
  Sum of spin   charges =     1.000000

 -----------------------------------------------------------------
                    Cartesian Multipole Moments
 -----------------------------------------------------------------
    Charge (ESU x 10^10)
                 0.0000
    Dipole Moment (Debye)
         X      -7.3982      Y       1.4147      Z      -4.6162
       Tot       8.8343
    Quadrupole Moments (Debye-Ang)
        XX     -34.6209     XY       3.2240     YY     -44.8780
        XZ       2.0436     YZ      -1.2925     ZZ     -54.0500
    Octopole Moments (Debye-Ang^2)
       XXX       6.8508    XXY     -13.8080    XYY      13.8540
       YYY     -15.6551    XXZ     -44.1440    XYZ       3.2227
       YYZ     -40.0612    XZZ      29.2166    YZZ      -9.5157
       ZZZ    -119.2724
    Hexadecapole Moments (Debye-Ang^3)
      XXXX    -311.9085   XXXY       8.0968   XXYY    -100.4852
      XYYY       9.1251   YYYY    -231.2968   XXXZ      77.0380
      XXYZ      -3.9812   XYYZ      25.8087   YYYZ     -25.8872
      XXZZ    -158.6437   XYZZ       7.4022   YYZZ    -115.7163
      XZZZ      91.0263   YZZZ     -33.0954   ZZZZ    -473.1416
 -----------------------------------------------------------------
 Calculating analytic gradient of the SCF energy
 Gradient of CDS energy
            1           2           3           4           5           6
    1   0.0027251  -0.0008322  -0.0003661  -0.0025668   0.0006793   0.0017605
    2   0.0020522   0.0007995   0.0002459  -0.0016430   0.0043352  -0.0027988
    3  -0.0010304  -0.0004892  -0.0001194  -0.0035515   0.0019426   0.0018166
            7           8           9          10          11
    1  -0.0009938  -0.0000467   0.0000612  -0.0001747  -0.0002459
    2  -0.0029740   0.0003038   0.0000959  -0.0000507  -0.0003659
    3   0.0015990  -0.0001767   0.0000534   0.0000682  -0.0001126
 Gradient of SCF Energy
            1           2           3           4           5           6
    1   0.0043985  -0.0029064  -0.0305191  -0.0028513   0.0306092   0.0262787
    2  -0.0032986   0.0027812  -0.0059304   0.0017359  -0.0018533   0.0064938
    3   0.0013602  -0.0020751  -0.0044713  -0.0020641   0.0041652   0.0041674
            7           8           9          10          11
    1   0.0127678  -0.0109982   0.0013453   0.0000950  -0.0282196
    2  -0.0082645   0.0091681   0.0003086   0.0006071  -0.0017479
    3   0.0073121  -0.0078070   0.0042794   0.0004842  -0.0053510
 Max gradient component =       3.061E-02
 RMS gradient           =       1.123E-02
 Computing fast CPCM-SWIG gradient
 Updating gradient with PCM contributions...
 -- total gradient after adding PCM contribution --
---------------------------------------------------
  Atom         X              Y              Z     
---------------------------------------------------
   1       0.001424      -0.000261       0.000289
   2      -0.000732       0.000495      -0.000359
   3      -0.000039      -0.000019      -0.000031
   4      -0.000398      -0.000071       0.000100
   5       0.000014      -0.000064       0.000085
   6      -0.000024      -0.000011      -0.000004
   7      -0.000207      -0.000178       0.000112
   8      -0.000029       0.000023      -0.000115
   9       0.000038       0.000076      -0.000036
  10      -0.000017       0.000010      -0.000024
  11      -0.000029       0.000000      -0.000017
---------------------------------------------------
 Number of fixed atoms: 0
 Gradient time:  CPU 112.30 s  wall 16.42 s
 ----------------------------------------------------------------
             Standard Nuclear Orientation (Angstroms)
    I     Atom           X                Y                Z
 ----------------------------------------------------------------
    1      C       0.5249361465     0.2043921395     0.4740676009
    2      O       1.2874533448    -0.5711169147     0.9869908096
    3      H      -2.5875831013     0.7760436896    -0.2342908893
    4      C      -0.9933530291    -0.0778802264     0.4538855820
    5      O      -1.1924198531    -1.3245821325    -0.0584423260
    6      O      -1.6382660789     0.9534424243    -0.1592693111
    7      O       0.9252740252     1.3236119123    -0.1025326688
    8      H       0.1686586019     1.8175050908    -0.4603742573
    9      O      -1.4339563021    -0.1633635542     1.8680049276
   10      O      -1.1076507085     0.9154251556     2.5200574009
   11      H      -2.1404694451    -1.4927940843    -0.1674083686
 ----------------------------------------------------------------
 Nuclear Repulsion Energy =         417.96224412 hartrees
 There are       32 alpha and       31 beta electrons
 Discretize the solute cavity surface with Lebedev spheres
	Using 110 Lebedev grid points for each H atom
	Using 194 Lebedev grid points for other atoms
	Atomic van der Waals radii will be scaled by 1.20
 Remove points where switching function is < 1.0e-08
 Keep 1006 surface tesserae and discard 876 interior tesserae
 Molecular Surface Area = 117.600 Angst**2

                       Distance Matrix (Angstroms)
             C (  1)   O (  2)   H (  3)   C (  4)   O (  5)   O (  6)
   O (  2)  1.202471
   H (  3)  3.242890  4.280453
   C (  4)  1.544437  2.393650  1.935030
   O (  5)  2.360220  2.794711  2.527851  1.362488
   O (  6)  2.375213  3.492567  0.968660  1.362167  2.323433
   O (  7)  1.321133  2.215453  3.557718  2.440269  3.391092  2.590749
   H (  8)  1.897959  3.008668  2.955101  2.403878  3.447723  2.025400
   O (  9)  2.432193  2.889380  2.575459  1.483635  2.262293  2.323540
   O ( 10)  2.712376  3.208835  3.129866  2.295384  3.416647  2.731628
   H ( 11)  3.224332  3.732664  2.313441  1.924542  0.969003  2.497268
             O (  7)   H (  8)   O (  9)   O ( 10)
   H (  8)  0.971827
   O (  9)  3.414686  3.451603
   O ( 10)  3.343259  3.365366  1.302088
   H ( 11)  4.163548  4.046725  2.531690  3.753493
 
 Requested basis set is 6-311++G(2df,2p)
 There are 82 shells and 302 basis functions
 A cutoff of  1.0D-12 yielded   3160 shell pairs
 There are     43628 function pairs (     55934 Cartesian)
 Smallest overlap matrix eigenvalue = 5.36E-05
 Guess MOs from SCF MO coefficient file

 -----------------------------------------------------------------------
  General SCF calculation program by
  Eric Jon Sundstrom, Paul Horn, Yuezhi Mao, Dmitri Zuev, Alec White,
  David Stuck, Shaama M.S., Shane Yost, Joonho Lee, David Small,
  Daniel Levine, Susi Lehtola, Hugh Burton, Evgeny Epifanovsky,
  Bang C. Huynh
 -----------------------------------------------------------------------
 Exchange:     0.1500 Hartree-Fock + 1.0000 wB97M-V + LR-HF
 Correlation:  1.0000 wB97M-V
 Using SG-2 standard quadrature grid
 Nonlocal Correlation:  VV10 with C = 0.0100 and b = 6.00 and scale = 1.00000
 Grid used for NLC:  SG-1 standard quadrature
 
 Citation of the SMD model:
 Marenich, A.V.; Cramer, C.J.; Truhlar, D.G.
 J. Phys. Chem. B 2009, 113, 6378-6396.
 iSolventCode=           1
 Solvent: water                                                           
 
 vradii
            1           2           3           4           5           6
    1   1.8500000   1.5200000   1.2000000   1.8500000   1.5200000   1.5200000
            7           8           9          10          11
    1   1.5200000   1.2000000   1.5200000   1.5200000   1.2000000
 -------------------------------------------------------
 OpenMP BLAS3 based DFT computing Module                
 Release: version 1.0, May 2013, Q-Chem Inc. Pittsburgh 
 -------------------------------------------------------
 A unrestricted SCF calculation will be
 performed using Roothaan-Hall, DIIS, GDM
 SCF converges when RMS gradient is below 1.0e-07
 ---------------------------------------
  Cycle       Energy         DIIS error
 ---------------------------------------
    1    -529.2663211773      3.67e-04  Roothaan Step
 ---------------------------------------
  Cycle       Energy         DIIS error
 ---------------------------------------
    1    -529.3053245094      4.30e-04  
    2    -529.3123297034      4.16e-04  Done DIIS. Switching to GDM
 ---------------------------------------
  Cycle       Energy        RMS Gradient
 ---------------------------------------
    1    -529.3123297034      2.10e-02   Normal BFGS step
    2    -529.3098366978      3.57e-02  Line search: overstep
    3    -529.3172793477      3.72e-03   Normal BFGS step
    4    -529.3175476580      1.13e-03   Normal BFGS step
    5    -529.3175890196      1.85e-03   Normal BFGS step
    6    -529.3176026664      3.00e-04   Normal BFGS step
    7    -529.3176042536      4.38e-04   Normal BFGS step
    8    -529.3176048657      1.58e-04   Normal BFGS step
    9    -529.3176050145      9.83e-05   Normal BFGS step
   10    -529.3176050749      3.51e-05   Normal BFGS step
   11    -529.3176050858      2.63e-05   Normal BFGS step
   12    -529.3176050884      2.37e-05   Normal BFGS step
   13    -529.3176050897      1.93e-05   Normal BFGS step
   14    -529.3176050910      1.14e-05   Normal BFGS step
   15    -529.3176050918      6.99e-06   Normal BFGS step
   16    -529.3176050922      2.28e-06   Normal BFGS step
   17    -529.3176050922      4.45e-07   Normal BFGS step
   18    -529.3176050922      2.06e-07   Normal BFGS step
   19    -529.3176050922      9.12e-08  Convergence criterion met
 ---------------------------------------
 SCF time:   CPU 768.00s  wall 97.00s 
<S^2> =          0.753812629
(3)  G-ENP(liq) elect-nuc-pol free energy of system     -529.317605092 a.u.
(4)  G-CDS(liq) cavity-dispersion-solvent structure 
     free energy                                                4.2068 kcal/mol
(6)  G-S(liq) free energy of system                     -529.310901064 a.u.
 SCF   energy in the final basis set =     -529.3109010642
 Total energy in the final basis set =     -529.3109010642
 
 --------------------------------------------------------------
 
                    Orbital Energies (a.u.)
 --------------------------------------------------------------
 
 Alpha MOs
 -- Occupied --
-19.4731 -19.4329 -19.4009 -19.3854 -19.3815 -19.3506 -10.5455 -10.5110
 -1.3654  -1.2741  -1.2452  -1.1933  -1.1746  -1.0124  -0.8616  -0.7558
 -0.7187  -0.7108  -0.6902  -0.6260  -0.6165  -0.5994  -0.5770  -0.5742
 -0.5332  -0.5083  -0.4965  -0.4549  -0.4508  -0.4288  -0.4141  -0.4056
 -- Virtual --
  0.0285   0.0468   0.0546   0.0595   0.0764   0.0875   0.1020   0.1055
  0.1212   0.1309   0.1420   0.1592   0.1836   0.1918   0.2052   0.2315
  0.2343   0.2424   0.2453   0.2508   0.2630   0.2726   0.2850   0.2899
  0.2977   0.3078   0.3217   0.3264   0.3313   0.3352   0.3412   0.3448
  0.3479   0.3541   0.3691   0.3739   0.3883   0.3967   0.4122   0.4240
  0.4277   0.4582   0.4674   0.4986   0.5035   0.5629   0.5787   0.5953
  0.6193   0.6473   0.6689   0.6842   0.7184   0.7478   0.7745   0.7980
  0.8296   0.8323   0.8497   0.8775   0.9123   0.9436   0.9743   0.9868
  1.0465   1.0646   1.0795   1.0833   1.0980   1.1092   1.1179   1.1284
  1.1404   1.1563   1.1768   1.1836   1.1864   1.2066   1.2245   1.2323
  1.2385   1.2453   1.2582   1.2856   1.3119   1.3302   1.3987   1.4251
  1.4576   1.4874   1.4968   1.5093   1.5320   1.5559   1.5666   1.6138
  1.6194   1.6452   1.6657   1.6840   1.7098   1.7423   1.7871   1.8174
  1.8412   1.8715   1.8877   1.9121   1.9714   2.0084   2.0217   2.0745
  2.1020   2.1242   2.2048   2.2303   2.2404   2.2940   2.3362   2.3546
  2.3881   2.4148   2.4361   2.4807   2.5207   2.5414   2.5955   2.6289
  2.6593   2.7710   2.8115   2.8448   2.8850   2.9337   2.9780   3.0209
  3.1295   3.1793   3.1995   3.2851   3.2950   3.3440   3.3882   3.3960
  3.4186   3.4770   3.5416   3.5748   3.5900   3.6198   3.6409   3.6787
  3.7129   3.7255   3.7403   3.7777   3.8116   3.8363   3.8515   3.8941
  3.9390   4.0412   4.0539   4.1184   4.1733   4.2303   4.2627   4.2809
  4.3469   4.3851   4.4408   4.5709   4.6981   4.7336   4.8153   4.8338
  4.9603   5.0470   5.0689   5.0744   5.1191   5.1203   5.1414   5.1539
  5.1603   5.1900   5.1965   5.2055   5.2203   5.2282   5.2422   5.2618
  5.2771   5.3097   5.3194   5.3349   5.3414   5.3859   5.4035   5.4387
  5.4664   5.4787   5.5474   5.5557   5.5650   5.5771   5.6184   5.6472
  5.6567   5.6927   5.7202   5.7225   5.7436   5.8338   6.0067   6.0377
  6.0831   6.1934   6.2309   6.3941   6.4432   6.4705   6.5804   6.6005
  6.7233   6.8310   6.8542   6.8785   6.9190   6.9404   6.9989   7.0274
  7.0372   7.0744   7.0761   7.1164   7.1201   7.1985   7.2082   7.2443
  7.2531   7.2722   7.2934   7.3191   7.3637   7.3865   7.4085   7.4446
  7.4689   7.5179   7.5292   7.5431   7.6812   7.7297   7.7741   7.7935
  7.8319   7.8639   7.8890   7.9058   8.0410   8.1324  24.8280  25.1398
 50.4037  50.5139  50.5716  50.6026  50.6382  50.7491
 
 Beta MOs
 -- Occupied --
-19.4634 -19.4134 -19.4008 -19.3852 -19.3816 -19.3506 -10.5459 -10.5109
 -1.3424  -1.2716  -1.2430  -1.1932  -1.1744  -0.9778  -0.8565  -0.7553
 -0.7166  -0.6978  -0.6845  -0.6027  -0.5988  -0.5835  -0.5742  -0.5515
 -0.5306  -0.4981  -0.4893  -0.4528  -0.4498  -0.4222  -0.3929
 -- Virtual --
 -0.0425   0.0287   0.0470   0.0550   0.0601   0.0769   0.0877   0.1023
  0.1060   0.1223   0.1325   0.1422   0.1605   0.1874   0.1943   0.2085
  0.2327   0.2363   0.2450   0.2472   0.2536   0.2717   0.2747   0.2872
  0.2900   0.2999   0.3087   0.3227   0.3268   0.3317   0.3374   0.3421
  0.3455   0.3487   0.3552   0.3695   0.3746   0.3900   0.3985   0.4144
  0.4251   0.4285   0.4586   0.4673   0.4992   0.5042   0.5636   0.5794
  0.5953   0.6195   0.6478   0.6696   0.6844   0.7198   0.7505   0.7749
  0.7981   0.8303   0.8330   0.8503   0.8787   0.9125   0.9445   0.9750
  0.9877   1.0483   1.0669   1.0836   1.0888   1.0996   1.1147   1.1290
  1.1320   1.1449   1.1597   1.1800   1.1894   1.1942   1.2133   1.2274
  1.2339   1.2438   1.2483   1.2665   1.2920   1.3161   1.3326   1.4001
  1.4276   1.4611   1.4987   1.5027   1.5148   1.5387   1.5592   1.5743
  1.6190   1.6294   1.6480   1.6839   1.6928   1.7119   1.7455   1.7938
  1.8257   1.8492   1.8722   1.8950   1.9140   1.9737   2.0112   2.0254
  2.0788   2.1076   2.1309   2.2096   2.2336   2.2487   2.2986   2.3434
  2.3624   2.3889   2.4167   2.4399   2.4830   2.5233   2.5421   2.5973
  2.6344   2.6609   2.7734   2.8129   2.8465   2.8855   2.9353   2.9789
  3.0215   3.1299   3.1799   3.1997   3.2854   3.2956   3.3443   3.3893
  3.3962   3.4191   3.4778   3.5419   3.5752   3.5905   3.6205   3.6414
  3.6786   3.7137   3.7267   3.7410   3.7782   3.8118   3.8364   3.8518
  3.8945   3.9394   4.0413   4.0544   4.1187   4.1736   4.2313   4.2635
  4.2812   4.3474   4.3853   4.4414   4.6058   4.7159   4.7386   4.8372
  4.8455   4.9777   5.1029   5.1146   5.1198   5.1246   5.1420   5.1600
  5.1652   5.1755   5.2006   5.2077   5.2181   5.2366   5.2494   5.2613
  5.2707   5.2810   5.3137   5.3268   5.3480   5.3548   5.3975   5.4055
  5.4416   5.4678   5.4915   5.5504   5.5608   5.5669   5.5797   5.6238
  5.6487   5.6599   5.6946   5.7286   5.7353   5.7455   5.8421   6.0097
  6.0395   6.0844   6.1968   6.2364   6.3971   6.4465   6.5127   6.5915
  6.6082   6.7289   6.8527   6.9196   6.9307   6.9423   6.9860   7.0041
  7.0313   7.0485   7.0803   7.0854   7.1260   7.1487   7.2000   7.2251
  7.2474   7.2609   7.2872   7.2961   7.3204   7.3694   7.3951   7.4306
  7.4649   7.4860   7.5194   7.5376   7.5450   7.6832   7.7357   7.7750
  7.7960   7.8369   7.8660   7.8912   7.9080   8.0528   8.1497  24.8277
 25.1399  50.4166  50.5222  50.5719  50.6027  50.6387  50.7494
 --------------------------------------------------------------
 
          Ground-State Mulliken Net Atomic Charges

     Atom                 Charge (a.u.)    Spin (a.u.)
  --------------------------------------------------------
      1 C                     0.288196       0.012845
      2 O                    -0.439987      -0.002349
      3 H                     0.368516       0.000264
      4 C                     0.345152      -0.004344
      5 O                    -0.380167      -0.000009
      6 O                    -0.400511       0.001820
      7 O                    -0.269745       0.000755
      8 H                     0.342026      -0.000074
      9 O                    -0.011607       0.290139
     10 O                    -0.193218       0.701244
     11 H                     0.351345      -0.000290
  --------------------------------------------------------
  Sum of atomic charges =     0.000000
  Sum of spin   charges =     1.000000

 -----------------------------------------------------------------
                    Cartesian Multipole Moments
 -----------------------------------------------------------------
    Charge (ESU x 10^10)
                 0.0000
    Dipole Moment (Debye)
         X      -7.4126      Y       1.4164      Z      -4.6167
       Tot       8.8468
    Quadrupole Moments (Debye-Ang)
        XX     -34.6225     XY       3.2262     YY     -44.8771
        XZ       2.0335     YZ      -1.2883     ZZ     -54.0471
    Octopole Moments (Debye-Ang^2)
       XXX       6.8343    XXY     -13.8043    XYY      13.8509
       YYY     -15.6526    XXZ     -44.1471    XYZ       3.2197
       YYZ     -40.0622    XZZ      29.2017    YZZ      -9.5071
       ZZZ    -119.2602
    Hexadecapole Moments (Debye-Ang^3)
      XXXX    -311.8124   XXXY       8.1073   XXYY    -100.4532
      XYYY       9.1496   YYYY    -231.2931   XXXZ      77.0255
      XXYZ      -3.9818   XYYZ      25.8010   YYYZ     -25.8722
      XXZZ    -158.6201   XYZZ       7.4009   YYZZ    -115.7123
      XZZZ      90.9879   YZZZ     -33.0696   ZZZZ    -473.0849
 -----------------------------------------------------------------
 Calculating analytic gradient of the SCF energy
 Gradient of CDS energy
            1           2           3           4           5           6
    1   0.0027455  -0.0008436  -0.0003661  -0.0025654   0.0006796   0.0017605
    2   0.0020614   0.0008101   0.0002459  -0.0016427   0.0043351  -0.0027989
    3  -0.0010338  -0.0004961  -0.0001194  -0.0035511   0.0019425   0.0018165
            7           8           9          10          11
    1  -0.0010051  -0.0000464   0.0000613  -0.0001745  -0.0002459
    2  -0.0029943   0.0003043   0.0000958  -0.0000508  -0.0003659
    3   0.0016092  -0.0001769   0.0000534   0.0000683  -0.0001126
 Gradient of SCF Energy
            1           2           3           4           5           6
    1   0.0016243  -0.0014634  -0.0305468  -0.0021253   0.0306184   0.0263353
    2  -0.0026906   0.0017768  -0.0059289   0.0018391  -0.0018405   0.0064849
    3   0.0008271  -0.0013915  -0.0044770  -0.0020599   0.0041741   0.0041754
            7           8           9          10          11
    1   0.0133838  -0.0110589   0.0013733   0.0000994  -0.0282401
    2  -0.0078366   0.0090361   0.0003153   0.0006065  -0.0017619
    3   0.0071156  -0.0077413   0.0042454   0.0004888  -0.0053566
 Max gradient component =       3.062E-02
 RMS gradient           =       1.119E-02
 Computing fast CPCM-SWIG gradient
 Updating gradient with PCM contributions...
 -- total gradient after adding PCM contribution --
---------------------------------------------------
  Atom         X              Y              Z     
---------------------------------------------------
   1      -0.001386       0.000353      -0.000254
   2       0.000740      -0.000519       0.000331
   3      -0.000040      -0.000017      -0.000033
   4       0.000316       0.000035       0.000107
   5       0.000002      -0.000050       0.000089
   6       0.000015      -0.000023       0.000005
   7       0.000406       0.000242      -0.000081
   8      -0.000081      -0.000102      -0.000055
   9       0.000068       0.000083      -0.000072
  10      -0.000015       0.000007      -0.000021
  11      -0.000026      -0.000009      -0.000016
---------------------------------------------------
 Number of fixed atoms: 0
 Gradient time:  CPU 112.76 s  wall 16.60 s
 ----------------------------------------------------------------
             Standard Nuclear Orientation (Angstroms)
    I     Atom           X                Y                Z
 ----------------------------------------------------------------
    1      C       0.5259361465     0.2053921395     0.4740676009
    2      O       1.2874533448    -0.5711169147     0.9869908096
    3      H      -2.5875831013     0.7760436896    -0.2342908893
    4      C      -0.9933530291    -0.0778802264     0.4538855820
    5      O      -1.1924198531    -1.3245821325    -0.0584423260
    6      O      -1.6382660789     0.9534424243    -0.1592693111
    7      O       0.9252740252     1.3236119123    -0.1025326688
    8      H       0.1686586019     1.8175050908    -0.4603742573
    9      O      -1.4339563021    -0.1633635542     1.8680049276
   10      O      -1.1076507085     0.9154251556     2.5200574009
   11      H      -2.1404694451    -1.4927940843    -0.1674083686
 ----------------------------------------------------------------
 Nuclear Repulsion Energy =         417.95518692 hartrees
 There are       32 alpha and       31 beta electrons
 Discretize the solute cavity surface with Lebedev spheres
	Using 110 Lebedev grid points for each H atom
	Using 194 Lebedev grid points for other atoms
	Atomic van der Waals radii will be scaled by 1.20
 Remove points where switching function is < 1.0e-08
 Keep 1006 surface tesserae and discard 876 interior tesserae
 Molecular Surface Area = 117.604 Angst**2

                       Distance Matrix (Angstroms)
             C (  1)   O (  2)   H (  3)   C (  4)   O (  5)   O (  6)
   O (  2)  1.202483
   H (  3)  3.243673  4.280453
   C (  4)  1.545603  2.393650  1.935030
   O (  5)  2.361596  2.794711  2.527851  1.362488
   O (  6)  2.375809  3.492567  0.968660  1.362167  2.323433
   O (  7)  1.319983  2.215453  3.557718  2.440269  3.391092  2.590749
   H (  8)  1.897297  3.008668  2.955101  2.403878  3.447723  2.025400
   O (  9)  2.433150  2.889380  2.575459  1.483635  2.262293  2.323540
   O ( 10)  2.712716  3.208835  3.129866  2.295384  3.416647  2.731628
   H ( 11)  3.225685  3.732664  2.313441  1.924542  0.969003  2.497268
             O (  7)   H (  8)   O (  9)   O ( 10)
   H (  8)  0.971827
   O (  9)  3.414686  3.451603
   O ( 10)  3.343259  3.365366  1.302088
   H ( 11)  4.163548  4.046725  2.531690  3.753493
 
 Requested basis set is 6-311++G(2df,2p)
 There are 82 shells and 302 basis functions
 A cutoff of  1.0D-12 yielded   3160 shell pairs
 There are     43628 function pairs (     55934 Cartesian)
 Smallest overlap matrix eigenvalue = 5.38E-05
 Guess MOs from SCF MO coefficient file

 -----------------------------------------------------------------------
  General SCF calculation program by
  Eric Jon Sundstrom, Paul Horn, Yuezhi Mao, Dmitri Zuev, Alec White,
  David Stuck, Shaama M.S., Shane Yost, Joonho Lee, David Small,
  Daniel Levine, Susi Lehtola, Hugh Burton, Evgeny Epifanovsky,
  Bang C. Huynh
 -----------------------------------------------------------------------
 Exchange:     0.1500 Hartree-Fock + 1.0000 wB97M-V + LR-HF
 Correlation:  1.0000 wB97M-V
 Using SG-2 standard quadrature grid
 Nonlocal Correlation:  VV10 with C = 0.0100 and b = 6.00 and scale = 1.00000
 Grid used for NLC:  SG-1 standard quadrature
 
 Citation of the SMD model:
 Marenich, A.V.; Cramer, C.J.; Truhlar, D.G.
 J. Phys. Chem. B 2009, 113, 6378-6396.
 iSolventCode=           1
 Solvent: water                                                           
 
 vradii
            1           2           3           4           5           6
    1   1.8500000   1.5200000   1.2000000   1.8500000   1.5200000   1.5200000
            7           8           9          10          11
    1   1.5200000   1.2000000   1.5200000   1.5200000   1.2000000
 -------------------------------------------------------
 OpenMP BLAS3 based DFT computing Module                
 Release: version 1.0, May 2013, Q-Chem Inc. Pittsburgh 
 -------------------------------------------------------
 A unrestricted SCF calculation will be
 performed using Roothaan-Hall, DIIS, GDM
 SCF converges when RMS gradient is below 1.0e-07
 ---------------------------------------
  Cycle       Energy         DIIS error
 ---------------------------------------
    1    -529.2662913029      3.67e-04  Roothaan Step
 ---------------------------------------
  Cycle       Energy         DIIS error
 ---------------------------------------
    1    -529.3053674759      4.29e-04  
    2    -529.3123956555      4.14e-04  Done DIIS. Switching to GDM
 ---------------------------------------
  Cycle       Energy        RMS Gradient
 ---------------------------------------
    1    -529.3123956555      2.05e-02   Normal BFGS step
    2    -529.3099369387      3.49e-02  Line search: overstep
    3    -529.3172883300      3.70e-03   Normal BFGS step
    4    -529.3175569232      1.14e-03   Normal BFGS step
    5    -529.3175980112      1.86e-03   Normal BFGS step
    6    -529.3176117140      3.01e-04   Normal BFGS step
    7    -529.3176133066      4.39e-04   Normal BFGS step
    8    -529.3176139226      1.61e-04   Normal BFGS step
    9    -529.3176140735      9.85e-05   Normal BFGS step
   10    -529.3176141346      3.72e-05   Normal BFGS step
   11    -529.3176141457      2.80e-05   Normal BFGS step
   12    -529.3176141484      2.52e-05   Normal BFGS step
   13    -529.3176141500      2.03e-05   Normal BFGS step
   14    -529.3176141514      1.17e-05   Normal BFGS step
   15    -529.3176141523      7.22e-06   Normal BFGS step
   16    -529.3176141527      2.20e-06   Normal BFGS step
   17    -529.3176141528      4.34e-07   Normal BFGS step
   18    -529.3176141528      1.95e-07   Normal BFGS step
   19    -529.3176141528      8.86e-08  Convergence criterion met
 ---------------------------------------
 SCF time:   CPU 772.04s  wall 98.00s 
<S^2> =          0.753812616
(3)  G-ENP(liq) elect-nuc-pol free energy of system     -529.317614153 a.u.
(4)  G-CDS(liq) cavity-dispersion-solvent structure 
     free energy                                                4.2125 kcal/mol
(6)  G-S(liq) free energy of system                     -529.310901090 a.u.
 SCF   energy in the final basis set =     -529.3109010904
 Total energy in the final basis set =     -529.3109010904
 
 --------------------------------------------------------------
 
                    Orbital Energies (a.u.)
 --------------------------------------------------------------
 
 Alpha MOs
 -- Occupied --
-19.4730 -19.4328 -19.4011 -19.3853 -19.3815 -19.3504 -10.5454 -10.5109
 -1.3654  -1.2743  -1.2453  -1.1933  -1.1746  -1.0123  -0.8613  -0.7562
 -0.7186  -0.7107  -0.6902  -0.6260  -0.6165  -0.5995  -0.5772  -0.5743
 -0.5331  -0.5083  -0.4964  -0.4549  -0.4508  -0.4287  -0.4141  -0.4055
 -- Virtual --
  0.0285   0.0468   0.0548   0.0596   0.0764   0.0875   0.1019   0.1055
  0.1212   0.1310   0.1420   0.1592   0.1836   0.1918   0.2053   0.2315
  0.2343   0.2424   0.2453   0.2508   0.2630   0.2726   0.2850   0.2899
  0.2976   0.3078   0.3217   0.3264   0.3313   0.3351   0.3412   0.3448
  0.3479   0.3541   0.3692   0.3739   0.3883   0.3967   0.4123   0.4239
  0.4277   0.4582   0.4674   0.4986   0.5037   0.5631   0.5787   0.5954
  0.6194   0.6473   0.6689   0.6842   0.7184   0.7478   0.7744   0.7979
  0.8297   0.8323   0.8497   0.8775   0.9122   0.9435   0.9744   0.9868
  1.0465   1.0646   1.0795   1.0834   1.0979   1.1091   1.1179   1.1284
  1.1404   1.1562   1.1768   1.1836   1.1865   1.2067   1.2245   1.2322
  1.2385   1.2453   1.2583   1.2856   1.3117   1.3303   1.3985   1.4251
  1.4575   1.4875   1.4969   1.5093   1.5320   1.5558   1.5666   1.6138
  1.6195   1.6450   1.6656   1.6840   1.7099   1.7423   1.7869   1.8173
  1.8411   1.8716   1.8877   1.9122   1.9713   2.0083   2.0217   2.0745
  2.1021   2.1243   2.2048   2.2302   2.2405   2.2940   2.3360   2.3544
  2.3882   2.4151   2.4361   2.4808   2.5208   2.5414   2.5951   2.6291
  2.6595   2.7711   2.8114   2.8450   2.8851   2.9336   2.9779   3.0211
  3.1290   3.1794   3.1996   3.2854   3.2952   3.3444   3.3879   3.3961
  3.4189   3.4770   3.5416   3.5750   3.5904   3.6196   3.6406   3.6784
  3.7130   3.7255   3.7405   3.7772   3.8115   3.8362   3.8513   3.8941
  3.9391   4.0419   4.0526   4.1175   4.1730   4.2301   4.2626   4.2806
  4.3472   4.3849   4.4403   4.5709   4.6980   4.7329   4.8153   4.8338
  4.9603   5.0470   5.0689   5.0744   5.1191   5.1204   5.1414   5.1539
  5.1604   5.1900   5.1965   5.2056   5.2203   5.2281   5.2423   5.2621
  5.2771   5.3098   5.3194   5.3348   5.3414   5.3859   5.4035   5.4386
  5.4661   5.4787   5.5473   5.5555   5.5655   5.5778   5.6185   5.6474
  5.6568   5.6928   5.7203   5.7226   5.7435   5.8338   6.0070   6.0381
  6.0851   6.1940   6.2305   6.3939   6.4437   6.4706   6.5804   6.6007
  6.7249   6.8312   6.8544   6.8786   6.9191   6.9404   6.9989   7.0274
  7.0373   7.0743   7.0768   7.1173   7.1201   7.1984   7.2082   7.2444
  7.2532   7.2722   7.2934   7.3192   7.3638   7.3871   7.4086   7.4450
  7.4688   7.5180   7.5293   7.5445   7.6811   7.7295   7.7744   7.7934
  7.8319   7.8641   7.8891   7.9059   8.0411   8.1324  24.8273  25.1410
 50.4037  50.5139  50.5720  50.6026  50.6384  50.7491
 
 Beta MOs
 -- Occupied --
-19.4634 -19.4133 -19.4010 -19.3851 -19.3816 -19.3505 -10.5458 -10.5108
 -1.3423  -1.2718  -1.2431  -1.1932  -1.1745  -0.9777  -0.8562  -0.7556
 -0.7165  -0.6978  -0.6845  -0.6027  -0.5988  -0.5836  -0.5743  -0.5515
 -0.5306  -0.4980  -0.4893  -0.4528  -0.4498  -0.4221  -0.3928
 -- Virtual --
 -0.0425   0.0287   0.0470   0.0552   0.0602   0.0769   0.0878   0.1023
  0.1060   0.1223   0.1325   0.1422   0.1605   0.1874   0.1943   0.2085
  0.2327   0.2363   0.2449   0.2472   0.2536   0.2717   0.2747   0.2872
  0.2900   0.2999   0.3087   0.3228   0.3269   0.3316   0.3373   0.3420
  0.3456   0.3487   0.3552   0.3696   0.3746   0.3900   0.3985   0.4144
  0.4249   0.4285   0.4586   0.4673   0.4992   0.5044   0.5637   0.5794
  0.5954   0.6195   0.6478   0.6696   0.6844   0.7198   0.7506   0.7747
  0.7981   0.8303   0.8330   0.8503   0.8787   0.9124   0.9444   0.9751
  0.9877   1.0483   1.0669   1.0837   1.0889   1.0995   1.1147   1.1290
  1.1319   1.1449   1.1596   1.1800   1.1894   1.1942   1.2133   1.2275
  1.2339   1.2437   1.2482   1.2666   1.2920   1.3160   1.3327   1.3999
  1.4276   1.4610   1.4988   1.5028   1.5148   1.5388   1.5591   1.5743
  1.6191   1.6294   1.6478   1.6838   1.6928   1.7120   1.7455   1.7936
  1.8256   1.8492   1.8722   1.8950   1.9140   1.9737   2.0113   2.0254
  2.0789   2.1078   2.1310   2.2096   2.2335   2.2488   2.2986   2.3432
  2.3623   2.3890   2.4170   2.4399   2.4830   2.5234   2.5420   2.5970
  2.6346   2.6611   2.7735   2.8128   2.8466   2.8856   2.9353   2.9788
  3.0218   3.1293   3.1799   3.1998   3.2858   3.2958   3.3447   3.3890
  3.3963   3.4194   3.4778   3.5418   3.5754   3.5910   3.6203   3.6411
  3.6784   3.7139   3.7267   3.7411   3.7778   3.8117   3.8363   3.8515
  3.8944   3.9395   4.0420   4.0531   4.1179   4.1732   4.2311   4.2634
  4.2810   4.3476   4.3851   4.4409   4.6058   4.7156   4.7380   4.8372
  4.8455   4.9777   5.1029   5.1146   5.1198   5.1247   5.1420   5.1600
  5.1653   5.1755   5.2006   5.2077   5.2182   5.2366   5.2495   5.2614
  5.2708   5.2811   5.3139   5.3269   5.3479   5.3548   5.3976   5.4055
  5.4415   5.4674   5.4916   5.5503   5.5607   5.5676   5.5803   5.6239
  5.6490   5.6601   5.6949   5.7286   5.7353   5.7455   5.8422   6.0099
  6.0399   6.0864   6.1974   6.2360   6.3969   6.4471   6.5127   6.5915
  6.6084   6.7306   6.8528   6.9197   6.9307   6.9423   6.9861   7.0041
  7.0313   7.0485   7.0804   7.0864   7.1266   7.1487   7.1999   7.2251
  7.2476   7.2610   7.2872   7.2962   7.3204   7.3695   7.3960   7.4307
  7.4652   7.4858   7.5195   7.5376   7.5464   7.6832   7.7355   7.7753
  7.7959   7.8368   7.8663   7.8911   7.9080   8.0528   8.1496  24.8271
 25.1411  50.4166  50.5223  50.5723  50.6027  50.6389  50.7495
 --------------------------------------------------------------
 
          Ground-State Mulliken Net Atomic Charges

     Atom                 Charge (a.u.)    Spin (a.u.)
  --------------------------------------------------------
      1 C                     0.288282       0.012872
      2 O                    -0.440274      -0.002340
      3 H                     0.368490       0.000264
      4 C                     0.344688      -0.004370
      5 O                    -0.380301      -0.000007
      6 O                    -0.400536       0.001822
      7 O                    -0.268958       0.000756
      8 H                     0.342241      -0.000073
      9 O                    -0.011630       0.290191
     10 O                    -0.193333       0.701175
     11 H                     0.351330      -0.000291
  --------------------------------------------------------
  Sum of atomic charges =     0.000000
  Sum of spin   charges =     1.000000

 -----------------------------------------------------------------
                    Cartesian Multipole Moments
 -----------------------------------------------------------------
    Charge (ESU x 10^10)
                 0.0000
    Dipole Moment (Debye)
         X      -7.4068      Y       1.4262      Z      -4.6214
       Tot       8.8460
    Quadrupole Moments (Debye-Ang)
        XX     -34.6263     XY       3.2359     YY     -44.8690
        XZ       2.0327     YZ      -1.2881     ZZ     -54.0532
    Octopole Moments (Debye-Ang^2)
       XXX       6.8321    XXY     -13.7981    XYY      13.8584
       YYY     -15.6405    XXZ     -44.1570    XYZ       3.2233
       YYZ     -40.0651    XZZ      29.2035    YZZ      -9.5075
       ZZZ    -119.2832
    Hexadecapole Moments (Debye-Ang^3)
      XXXX    -311.8959   XXXY       8.1248   XXYY    -100.4621
      XYYY       9.1571   YYYY    -231.2657   XXXZ      77.0096
      XXYZ      -3.9808   XYYZ      25.8017   YYYZ     -25.8829
      XXZZ    -158.6460   XYZZ       7.4077   YYZZ    -115.7134
      XZZZ      90.9892   YZZZ     -33.0850   ZZZZ    -473.1400
 -----------------------------------------------------------------
 Calculating analytic gradient of the SCF energy
 Gradient of CDS energy
            1           2           3           4           5           6
    1   0.0027307  -0.0008430  -0.0003661  -0.0025662   0.0006796   0.0017604
    2   0.0020239   0.0008104   0.0002459  -0.0016433   0.0043354  -0.0027989
    3  -0.0010154  -0.0004959  -0.0001194  -0.0035514   0.0019427   0.0018165
            7           8           9          10          11
    1  -0.0009890  -0.0000470   0.0000614  -0.0001749  -0.0002459
    2  -0.0029555   0.0003034   0.0000958  -0.0000511  -0.0003659
    3   0.0015899  -0.0001764   0.0000534   0.0000686  -0.0001126
 Gradient of SCF Energy
            1           2           3           4           5           6
    1   0.0027217  -0.0017347  -0.0305317  -0.0025575   0.0305526   0.0263561
    2  -0.0017576   0.0016765  -0.0059371   0.0016513  -0.0018829   0.0064782
    3   0.0006057  -0.0014209  -0.0044675  -0.0020779   0.0041621   0.0041858
            7           8           9          10          11
    1   0.0130061  -0.0110371   0.0013634   0.0000909  -0.0282297
    2  -0.0084611   0.0090716   0.0003152   0.0006063  -0.0017604
    3   0.0073781  -0.0077656   0.0042635   0.0004936  -0.0053569
 Max gradient component =       3.055E-02
 RMS gradient           =       1.120E-02
 Computing fast CPCM-SWIG gradient
 Updating gradient with PCM contributions...
 -- total gradient after adding PCM contribution --
---------------------------------------------------
  Atom         X              Y              Z     
---------------------------------------------------
   1      -0.000286       0.001291      -0.000471
   2       0.000459      -0.000619       0.000295
   3      -0.000038      -0.000027      -0.000025
   4      -0.000100      -0.000162       0.000091
   5      -0.000059      -0.000092       0.000075
   6       0.000051      -0.000018       0.000012
   7       0.000015      -0.000360       0.000169
   8      -0.000050      -0.000098      -0.000059
   9       0.000053       0.000083      -0.000051
  10      -0.000018       0.000012      -0.000017
  11      -0.000027      -0.000012      -0.000019
---------------------------------------------------
 Number of fixed atoms: 0
 Gradient time:  CPU 116.93 s  wall 17.13 s
 ----------------------------------------------------------------
             Standard Nuclear Orientation (Angstroms)
    I     Atom           X                Y                Z
 ----------------------------------------------------------------
    1      C       0.5259361465     0.2033921395     0.4740676009
    2      O       1.2874533448    -0.5711169147     0.9869908096
    3      H      -2.5875831013     0.7760436896    -0.2342908893
    4      C      -0.9933530291    -0.0778802264     0.4538855820
    5      O      -1.1924198531    -1.3245821325    -0.0584423260
    6      O      -1.6382660789     0.9534424243    -0.1592693111
    7      O       0.9252740252     1.3236119123    -0.1025326688
    8      H       0.1686586019     1.8175050908    -0.4603742573
    9      O      -1.4339563021    -0.1633635542     1.8680049276
   10      O      -1.1076507085     0.9154251556     2.5200574009
   11      H      -2.1404694451    -1.4927940843    -0.1674083686
 ----------------------------------------------------------------
 Nuclear Repulsion Energy =         417.95739197 hartrees
 There are       32 alpha and       31 beta electrons
 Discretize the solute cavity surface with Lebedev spheres
	Using 110 Lebedev grid points for each H atom
	Using 194 Lebedev grid points for other atoms
	Atomic van der Waals radii will be scaled by 1.20
 Remove points where switching function is < 1.0e-08
 Keep 1005 surface tesserae and discard 877 interior tesserae
 Molecular Surface Area = 117.604 Angst**2

                       Distance Matrix (Angstroms)
             C (  1)   O (  2)   H (  3)   C (  4)   O (  5)   O (  6)
   O (  2)  1.201192
   H (  3)  3.244026  4.280453
   C (  4)  1.545238  2.393650  1.935030
   O (  5)  2.360301  2.794711  2.527851  1.362488
   O (  6)  2.376439  3.492567  0.968660  1.362167  2.323433
   O (  7)  1.321677  2.215453  3.557718  2.440269  3.391092  2.590749
   H (  8)  1.898997  3.008668  2.955101  2.403878  3.447723  2.025400
   O (  9)  2.432848  2.889380  2.575459  1.483635  2.262293  2.323540
   O ( 10)  2.713240  3.208835  3.129866  2.295384  3.416647  2.731628
   H ( 11)  3.224633  3.732664  2.313441  1.924542  0.969003  2.497268
             O (  7)   H (  8)   O (  9)   O ( 10)
   H (  8)  0.971827
   O (  9)  3.414686  3.451603
   O ( 10)  3.343259  3.365366  1.302088
   H ( 11)  4.163548  4.046725  2.531690  3.753493
 
 Requested basis set is 6-311++G(2df,2p)
 There are 82 shells and 302 basis functions
 A cutoff of  1.0D-12 yielded   3160 shell pairs
 There are     43628 function pairs (     55934 Cartesian)
 Smallest overlap matrix eigenvalue = 5.38E-05
 Guess MOs from SCF MO coefficient file

 -----------------------------------------------------------------------
  General SCF calculation program by
  Eric Jon Sundstrom, Paul Horn, Yuezhi Mao, Dmitri Zuev, Alec White,
  David Stuck, Shaama M.S., Shane Yost, Joonho Lee, David Small,
  Daniel Levine, Susi Lehtola, Hugh Burton, Evgeny Epifanovsky,
  Bang C. Huynh
 -----------------------------------------------------------------------
 Exchange:     0.1500 Hartree-Fock + 1.0000 wB97M-V + LR-HF
 Correlation:  1.0000 wB97M-V
 Using SG-2 standard quadrature grid
 Nonlocal Correlation:  VV10 with C = 0.0100 and b = 6.00 and scale = 1.00000
 Grid used for NLC:  SG-1 standard quadrature
 
 Citation of the SMD model:
 Marenich, A.V.; Cramer, C.J.; Truhlar, D.G.
 J. Phys. Chem. B 2009, 113, 6378-6396.
 iSolventCode=           1
 Solvent: water                                                           
 
 vradii
            1           2           3           4           5           6
    1   1.8500000   1.5200000   1.2000000   1.8500000   1.5200000   1.5200000
            7           8           9          10          11
    1   1.5200000   1.2000000   1.5200000   1.5200000   1.2000000
 -------------------------------------------------------
 OpenMP BLAS3 based DFT computing Module                
 Release: version 1.0, May 2013, Q-Chem Inc. Pittsburgh 
 -------------------------------------------------------
 A unrestricted SCF calculation will be
 performed using Roothaan-Hall, DIIS, GDM
 SCF converges when RMS gradient is below 1.0e-07
 ---------------------------------------
  Cycle       Energy         DIIS error
 ---------------------------------------
    1    -529.2663000409      3.67e-04  Roothaan Step
 ---------------------------------------
  Cycle       Energy         DIIS error
 ---------------------------------------
    1    -529.3054121116      4.28e-04  
    2    -529.3124524964      4.11e-04  Done DIIS. Switching to GDM
 ---------------------------------------
  Cycle       Energy        RMS Gradient
 ---------------------------------------
    1    -529.3124524964      2.00e-02   Normal BFGS step
    2    -529.3100552771      3.40e-02  Line search: overstep
    3    -529.3172833601      3.63e-03   Normal BFGS step
    4    -529.3175495656      1.09e-03   Normal BFGS step
    5    -529.3175904797      1.86e-03   Normal BFGS step
    6    -529.3176041491      2.97e-04   Normal BFGS step
    7    -529.3176057165      4.36e-04   Normal BFGS step
    8    -529.3176063273      1.60e-04   Normal BFGS step
    9    -529.3176064776      9.80e-05   Normal BFGS step
   10    -529.3176065391      4.03e-05   Normal BFGS step
   11    -529.3176065504      3.05e-05   Normal BFGS step
   12    -529.3176065533      2.72e-05   Normal BFGS step
   13    -529.3176065552      2.15e-05   Normal BFGS step
   14    -529.3176065569      1.18e-05   Normal BFGS step
   15    -529.3176065579      7.56e-06   Normal BFGS step
   16    -529.3176065583      2.12e-06   Normal BFGS step
[...]
     5    1.227176461676830e-03  -7.331235456962681e-03  -1.421753557573808e-02
     6    1.348928777489175e-03  -2.471186686486444e-03   3.292326155324983e-03
     7    3.292223816747018e-04  -1.195323794880281e-03  -1.533055984334487e-03
     8   -1.556205464840428e-05  -1.014872184746719e-05   3.149839125700277e-04
     9   -3.137634343402500e-02  -1.489182342484823e-01  -1.455783378086370e-01
    10    4.588645107196006e-02   2.017314224104496e-01   1.814966581027006e-01
    11    1.364876061544206e-03   2.794339384457388e-04  -5.029356441223796e-05


    11 Order 1, Length 33
    Atom      X          Y          Z
     1   -9.870375854318233e-04   1.632843357781980e-04   2.323542757916761e-04
     2    1.028832118006172e-03  -3.845599822920195e-04   2.714280404018036e-04
     3    1.668135295423685e-04   4.392715390656331e-04   7.477039932704021e-04
     4   -3.789994620843500e-03  -5.694093184629206e-03  -1.957621212654627e-03
     5   -4.820248027600040e-01  -8.581621695923156e-02  -5.699008956042942e-02
     6    7.877394221388878e-04   3.958823456419739e-03   3.087709045935023e-04
     7    7.399496310026191e-04   3.433425977229116e-04  -5.539094180569300e-04
     8   -4.084635437730748e-05  -1.869201800262188e-04   1.403201001410569e-04
     9    2.681651429006182e-04   1.726260698019647e-03   9.587796317530521e-04
    10   -1.976145239251517e-04   5.217200743266593e-04   1.364876061544206e-03
    11    4.840488731833733e-01   8.492908351629076e-02   5.547782124612261e-02

Order 1, Length 33
    Atom      X          Y          Z
     1    2.441651578404942e-03  -4.360260640149387e-03  -2.620801504880270e-03
     2   -3.424344730722817e-04   1.186676101761654e-03   3.246931090610335e-04
     3    1.600902828699847e-03  -5.095954386051409e-03   3.769743165883936e-04
     4   -4.914286098793462e-02  -1.964478072584808e-02  -1.087601552976885e-02
     5   -3.966118667909249e-02  -4.349828879168348e-02  -1.817624938058449e-02
     6    1.065345962599897e-03   5.436999777581273e-03   6.168869590855398e-04
     7   -1.022473617254340e-03  -3.146056273854966e-04   8.006436935191056e-04
     8   -3.771174235877718e-04  -7.571108368640029e-06  -1.420582710516124e-04
     9    3.046272179820915e-04   1.045580363274491e-03   7.220192326211187e-04
    10    2.045529796759126e-04  -3.188751456005018e-05   2.794339384457388e-04
    11    8.492908351629076e-02   6.528410399637667e-02   2.869446557463026e-02

Order 1, Length 33
    Atom      X          Y          Z
     1   -2.548834342923663e-04  -1.063253813100554e-03   1.659629487891352e-03
     2    5.635846788821328e-04  -3.038034745949882e-04   7.822313115407781e-05
     3    5.292836439362954e-04   1.678788091583575e-05   4.246135424584146e-04
     4   -1.837450289689711e-02  -6.054422811657526e-03  -7.863590221143192e-03
     5   -3.808009676475625e-02  -2.072663835528648e-02  -1.215569588789204e-02
     6    1.107894429742036e-03  -3.207445284050254e-05   6.655213475977473e-05
     7   -2.257387778657086e-04  -2.707774631160809e-04  -4.257459381348370e-04
     8    5.102645038593280e-06   9.430029321109575e-05   1.326251773295142e-05
     9   -1.452860300864487e-03  -3.781483455004472e-04   1.458882469597671e-03
    10    7.044513201315235e-04   2.358146242118925e-05  -5.029356441223796e-05
    11    5.547782124612261e-02   2.869446557463026e-02   1.679418600537076e-02




 # Finishing finite difference calculation for IDERIV #
 ######################################################
 ######################################################
 Requested basis set is 6-311++G(2df,2p)
 There are 82 shells and 302 basis functions
 **********************************************************************
 **                                                                  **
 **                       VIBRATIONAL ANALYSIS                       **
 **                       --------------------                       **
 **                                                                  **
 **        VIBRATIONAL FREQUENCIES (CM**-1) AND NORMAL MODES         **
 **     FORCE CONSTANTS (mDYN/ANGSTROM) AND REDUCED MASSES (AMU)     **
 **                  INFRARED INTENSITIES (KM/MOL)                   **
 **                                                                  **
 **********************************************************************
 

 Mode:                 1                      2                      3
 Frequency:        50.34                  84.43                 214.28
 Force Cnst:      0.0132                 0.0559                 0.3802
 Red. Mass:       8.8484                13.3107                14.0556
 IR Active:          YES                    YES                    YES
 IR Intens:       15.899                  3.038                  7.700
 Raman Active:       YES                    YES                    YES
               X      Y      Z        X      Y      Z        X      Y      Z
 C          0.016 -0.047 -0.032   -0.106  0.056  0.102    0.067  0.043 -0.032
 O          0.062 -0.233 -0.383   -0.120  0.066  0.137    0.163 -0.024 -0.283
 H         -0.014 -0.033  0.092   -0.076 -0.080 -0.189    0.125  0.217  0.004
 C          0.017 -0.046 -0.002   -0.088 -0.030 -0.075    0.033  0.100  0.105
 O          0.001 -0.096  0.137   -0.003 -0.087  0.033    0.132 -0.002  0.277
 O          0.014 -0.104 -0.091   -0.063 -0.118 -0.267    0.183  0.007 -0.226
 O         -0.037  0.192  0.396   -0.110  0.118  0.222    0.018 -0.028 -0.220
 H         -0.059  0.297  0.589   -0.099  0.091  0.165   -0.034  0.026 -0.038
 O          0.029  0.093  0.023   -0.227  0.169 -0.118   -0.442  0.163 -0.050
 O         -0.089  0.206 -0.108    0.678 -0.166 -0.008   -0.144 -0.243  0.457
 H         -0.001 -0.083  0.140    0.024 -0.038 -0.271    0.163  0.096 -0.141
 TransDip  -0.009  0.044  0.120   -0.039  0.005 -0.040    0.000  0.082  0.035

 Mode:                 4                      5                      6
 Frequency:       238.75                 274.58                 317.05
 Force Cnst:      0.0387                 0.1935                 0.2871
 Red. Mass:       1.1534                 4.3554                 4.8480
 IR Active:          YES                    YES                    YES
 IR Intens:       78.996                 19.851                 37.202
 Raman Active:       YES                    YES                    YES
               X      Y      Z        X      Y      Z        X      Y      Z
 C         -0.007  0.011 -0.009   -0.045  0.052 -0.005   -0.012 -0.056  0.115
 O         -0.042 -0.025 -0.014   -0.196 -0.118 -0.038    0.110 -0.063 -0.066
 H          0.053 -0.246 -0.465   -0.244 -0.095  0.359    0.161 -0.240 -0.582
 C         -0.009  0.026 -0.007   -0.020  0.081  0.009   -0.011 -0.036  0.122
 O          0.044  0.024 -0.012    0.269  0.031 -0.001    0.174  0.048 -0.118
 O         -0.034  0.021  0.003   -0.224 -0.052  0.023    0.040  0.062  0.204
 O          0.034  0.002  0.005    0.162 -0.039 -0.038   -0.176 -0.089 -0.037
 H          0.057  0.006 -0.040    0.262  0.146  0.011   -0.290 -0.160  0.100
 O         -0.005  0.005 -0.008    0.011  0.036  0.029   -0.202  0.047  0.038
 O          0.007 -0.018  0.022    0.005  0.037  0.036    0.066  0.092 -0.144
 H          0.022 -0.353  0.762    0.339  0.035 -0.608    0.222 -0.047 -0.376
 TransDip   0.064 -0.253  0.113    0.076  0.104 -0.061   -0.057 -0.159 -0.099

 Mode:                 7                      8                      9
 Frequency:       338.74                 408.19                 451.61
 Force Cnst:      0.0861                 0.5961                 1.2356
 Red. Mass:       1.2733                 6.0722                10.2829
 IR Active:          YES                    YES                    YES
 IR Intens:      425.412                 23.129                 26.490
 Raman Active:       YES                    YES                    YES
               X      Y      Z        X      Y      Z        X      Y      Z
 C          0.013 -0.008  0.009    0.123  0.036  0.006   -0.090  0.151 -0.052
 O          0.027  0.005  0.008    0.232  0.108 -0.042   -0.249  0.019 -0.052
 H         -0.124  0.306  0.770   -0.127 -0.477 -0.299    0.232  0.260 -0.348
 C          0.006 -0.008  0.021   -0.054 -0.029  0.014   -0.012  0.009  0.049
 O          0.034 -0.002 -0.024   -0.183 -0.021  0.034    0.042 -0.176  0.410
 O         -0.009  0.008  0.034   -0.236 -0.072  0.137    0.195  0.213  0.209
 O          0.005 -0.014 -0.007    0.305  0.014  0.028    0.087  0.117 -0.065
 H         -0.006  0.029  0.075    0.444  0.149 -0.067    0.149  0.228 -0.043
 O         -0.075  0.011 -0.054   -0.187  0.004 -0.038   -0.048 -0.182 -0.152
 O          0.011 -0.006 -0.064    0.010 -0.027 -0.098    0.020 -0.143 -0.308
 H          0.009 -0.197  0.485   -0.191  0.166 -0.189    0.079  0.031 -0.213
 TransDip  -0.034  0.067  0.656    0.073 -0.049 -0.126   -0.002  0.095 -0.135

 Mode:                10                     11                     12
 Frequency:       552.86                 558.01                 599.97
 Force Cnst:      1.6767                 0.3921                 0.4099
 Red. Mass:       9.3104                 2.1374                 1.9329
 IR Active:          YES                    YES                    YES
 IR Intens:        3.877                281.206                  3.228
 Raman Active:       YES                    YES                    YES
               X      Y      Z        X      Y      Z        X      Y      Z
 C         -0.102  0.155 -0.075   -0.017  0.064  0.128    0.017 -0.051 -0.086
 O         -0.209  0.096 -0.078    0.016 -0.000 -0.017   -0.004  0.020  0.057
 H          0.226  0.141  0.078   -0.008 -0.010 -0.066    0.017 -0.055 -0.100
 C         -0.009 -0.211  0.054   -0.032  0.046  0.093    0.028 -0.037 -0.110
 O         -0.060 -0.129 -0.279   -0.025  0.096  0.016    0.003 -0.102 -0.012
 O          0.283 -0.188  0.070    0.002 -0.041 -0.111   -0.016  0.044  0.086
 O          0.189  0.135 -0.085    0.015 -0.056 -0.078   -0.010 -0.020 -0.035
 H          0.320  0.433  0.059   -0.075  0.457  0.823   -0.115  0.448  0.831
 O         -0.183 -0.012  0.315    0.026 -0.095  0.043    0.012  0.091 -0.064
 O          0.035  0.115  0.057    0.009 -0.020 -0.073   -0.013  0.014  0.073
 H         -0.100 -0.179  0.101   -0.033  0.095  0.094    0.007 -0.092 -0.068
 TransDip  -0.003  0.047  0.042   -0.073  0.234  0.478    0.012  0.055  0.011

 Mode:                13                     14                     15
 Frequency:       654.29                 780.71                 797.31
 Force Cnst:      1.3558                 3.6296                 3.4548
 Red. Mass:       5.3751                10.1070                 9.2241
 IR Active:          YES                    YES                    YES
 IR Intens:       65.846                 61.623                 10.142
 Raman Active:       YES                    YES                    YES
               X      Y      Z        X      Y      Z        X      Y      Z
 C         -0.164 -0.081 -0.016    0.333 -0.156 -0.293    0.159  0.276  0.495
 O          0.124  0.171 -0.069    0.033 -0.192  0.208    0.049 -0.225 -0.020
 H         -0.093  0.537 -0.093   -0.126  0.191 -0.037   -0.119  0.286 -0.031
 C         -0.242 -0.005 -0.086   -0.007  0.022 -0.153   -0.058 -0.032 -0.108
 O          0.089 -0.130  0.002    0.039  0.067  0.079   -0.072 -0.331 -0.103
 O         -0.028  0.228 -0.118   -0.103  0.137 -0.125   -0.093  0.178 -0.041
 O          0.060 -0.164  0.105   -0.022  0.267 -0.094    0.014  0.144 -0.174
 H          0.298  0.082 -0.028   -0.441 -0.100  0.238   -0.263 -0.262 -0.186
 O          0.019 -0.080  0.166   -0.195 -0.179  0.356    0.063  0.027 -0.000
 O          0.016  0.031  0.007    0.035 -0.001 -0.101   -0.006  0.039  0.063
 H          0.167 -0.485 -0.133    0.078 -0.077 -0.020   -0.101 -0.274 -0.025
 TransDip  -0.227 -0.017 -0.125    0.055 -0.182 -0.164    0.015  0.015  0.100

 Mode:                16                     17                     18
 Frequency:       930.10                1061.68                1188.03
 Force Cnst:      4.0792                 2.6110                 1.2438
 Red. Mass:       8.0033                 3.9316                 1.4956
 IR Active:          YES                    YES                    YES
 IR Intens:      251.542                306.689                416.291
 Raman Active:       YES                    YES                    YES
               X      Y      Z        X      Y      Z        X      Y      Z
 C          0.072 -0.133 -0.181    0.024  0.039 -0.075    0.075  0.072 -0.048
 O          0.021 -0.045  0.088   -0.054  0.048 -0.022   -0.024  0.028 -0.015
 H         -0.046  0.321 -0.257    0.015 -0.515  0.150   -0.111  0.627 -0.321
 C         -0.287 -0.005  0.578    0.275  0.031  0.193   -0.025  0.084 -0.008
 O         -0.001 -0.100 -0.113   -0.004 -0.171 -0.071    0.026 -0.047 -0.019
 O         -0.010  0.029 -0.072   -0.085  0.172 -0.106   -0.018 -0.074  0.034
 O          0.065  0.170 -0.037   -0.038 -0.086  0.053    0.013 -0.062  0.038
 H         -0.125 -0.018  0.079    0.090  0.058 -0.007   -0.275 -0.372  0.174
 O          0.095  0.027 -0.184   -0.048 -0.044  0.042   -0.007 -0.005  0.004
 O         -0.003  0.028  0.046    0.010  0.019 -0.008    0.002  0.002 -0.002
 H          0.069 -0.390 -0.240   -0.190  0.631  0.200   -0.085  0.409  0.184
 TransDip  -0.086  0.030  0.500    0.377  0.217  0.354   -0.165  0.620 -0.125

 Mode:                19                     20                     21
 Frequency:      1215.16                1238.45                1265.43
 Force Cnst:      4.5002                 1.3602                14.4871
 Red. Mass:       5.1726                 1.5052                15.3552
 IR Active:          YES                    YES                    YES
 IR Intens:      428.685                 43.881                 16.955
 Raman Active:       YES                    YES                    YES
               X      Y      Z        X      Y      Z        X      Y      Z
 C          0.005 -0.039 -0.021   -0.102 -0.105  0.043   -0.017 -0.018 -0.000
 O          0.053 -0.045  0.039    0.048 -0.039  0.027    0.005 -0.004  0.004
 H          0.129 -0.407  0.203   -0.066  0.330 -0.191   -0.038  0.143 -0.073
 C         -0.081  0.524 -0.039    0.003 -0.028 -0.014    0.012 -0.013  0.102
 O         -0.031 -0.160 -0.053    0.051 -0.015 -0.004    0.008 -0.045 -0.057
 O          0.093 -0.110  0.056   -0.023 -0.012  0.008   -0.019  0.013 -0.019
 O         -0.077  0.001 -0.000   -0.014  0.072 -0.041   -0.000  0.013 -0.005
 H          0.353  0.457 -0.218    0.314  0.427 -0.205    0.052  0.070 -0.033
 O         -0.016 -0.032  0.036    0.000 -0.005 -0.010    0.179  0.586  0.342
 O          0.006 -0.009 -0.028    0.003  0.010  0.008   -0.168 -0.557 -0.335
 H         -0.020 -0.194 -0.063   -0.108  0.637  0.265   -0.022  0.055  0.013
 TransDip  -0.023  0.655 -0.098   -0.051  0.199  0.052   -0.042 -0.122 -0.025

 Mode:                22                     23                     24
 Frequency:      1327.54                1510.33                1815.02
 Force Cnst:      2.0514                 2.8204                19.1095
 Red. Mass:       1.9757                 2.0985                 9.8454
 IR Active:          YES                    YES                    YES
 IR Intens:      587.787                 52.837                596.531
 Raman Active:       YES                    YES                    YES
               X      Y      Z        X      Y      Z        X      Y      Z
 C          0.141  0.155 -0.066   -0.072 -0.096  0.048    0.504 -0.425  0.288
 O          0.003 -0.046  0.025   -0.010  0.024 -0.015   -0.294  0.279 -0.186
 H         -0.061  0.334 -0.158   -0.137  0.596 -0.287    0.002 -0.019  0.009
 C          0.005 -0.069  0.024    0.247  0.072  0.039   -0.094 -0.006 -0.017
 O         -0.017  0.029  0.007   -0.061  0.004 -0.002    0.018  0.003  0.002
 O         -0.018 -0.010  0.001   -0.058 -0.030 -0.000    0.002  0.001  0.001
 O         -0.109 -0.087  0.036    0.016  0.031 -0.015   -0.061  0.009 -0.011
 H          0.520  0.605 -0.283    0.000  0.016 -0.010    0.324  0.350 -0.158
 O         -0.000  0.002 -0.007   -0.018 -0.015  0.005    0.009  0.004 -0.004
 O         -0.001  0.003  0.004    0.003  0.005 -0.005   -0.001 -0.001  0.001
 H          0.047 -0.235 -0.086    0.094 -0.624 -0.223   -0.009  0.121  0.043
 TransDip   0.305  0.579 -0.417    0.114 -0.183  0.088    0.479 -0.540  0.302

 Mode:                25                     26                     27
 Frequency:      3706.87                3758.42                3762.60
 Force Cnst:      8.6279                 8.8738                 8.8941
 Red. Mass:       1.0657                 1.0662                 1.0663
 IR Active:          YES                    YES                    YES
 IR Intens:      362.552                113.699                341.982
 Raman Active:       YES                    YES                    YES
               X      Y      Z        X      Y      Z        X      Y      Z
 C         -0.002  0.003 -0.002   -0.000  0.000  0.000    0.000 -0.000  0.000
 O          0.001 -0.002  0.001    0.000 -0.000  0.000    0.000  0.000 -0.000
 H          0.025  0.008  0.000   -0.296 -0.053 -0.024    0.933  0.163  0.081
 C          0.001 -0.000  0.000   -0.001 -0.001 -0.000   -0.002  0.000 -0.001
 O          0.000  0.000 -0.000   -0.058 -0.012 -0.007   -0.018 -0.004 -0.002
 O         -0.002 -0.000 -0.000    0.019  0.004  0.002   -0.059 -0.010 -0.005
 O         -0.047  0.033 -0.023   -0.001  0.001 -0.001    0.001 -0.001  0.000
 H          0.758 -0.527  0.377    0.013 -0.009  0.007   -0.018  0.011 -0.008
 O         -0.000  0.000 -0.000   -0.000  0.000  0.000    0.000 -0.000  0.000
 O         -0.000 -0.000  0.000   -0.000  0.000  0.000   -0.000 -0.000  0.000
 H         -0.010 -0.003 -0.001    0.927  0.179  0.113    0.294  0.058  0.037
 TransDip   0.419 -0.362  0.255    0.261  0.204  0.084    0.573  0.060  0.136

 STANDARD THERMODYNAMIC QUANTITIES AT   298.15 K  AND     1.00 ATM

   This Molecule has  0 Imaginary Frequencies
   Zero point vibrational energy:       41.602 kcal/mol

   Atom    1 Element C  Has Mass   12.00000
   Atom    2 Element O  Has Mass   15.99491
   Atom    3 Element H  Has Mass    1.00783
   Atom    4 Element C  Has Mass   12.00000
   Atom    5 Element O  Has Mass   15.99491
   Atom    6 Element O  Has Mass   15.99491
   Atom    7 Element O  Has Mass   15.99491
   Atom    8 Element H  Has Mass    1.00783
   Atom    9 Element O  Has Mass   15.99491
   Atom   10 Element O  Has Mass   15.99491
   Atom   11 Element H  Has Mass    1.00783
   Molecular Mass:   122.992950 amu
   Principal axes and moments of inertia in amu*Bohr^2:
                             1           2           3
    Eigenvalues --      699.71729   900.13325   967.31120
          X               0.93126     0.27249    -0.24187
          Y               0.10594     0.43265     0.89531
          Z              -0.34861     0.85940    -0.37405
   Rotational Symmetry Number is   1
   The Molecule is an Asymmetric Top
   Translational Enthalpy:        0.889 kcal/mol
   Rotational Enthalpy:           0.889 kcal/mol
   Vibrational Enthalpy:         44.998 kcal/mol
   gas constant (RT):             0.592 kcal/mol
   Translational Entropy:        40.335  cal/mol.K
   Rotational Entropy:           27.901  cal/mol.K
   Vibrational Entropy:          20.941  cal/mol.K

   Total Enthalpy:               47.368 kcal/mol
   Total Entropy:                89.177  cal/mol.K
 Total job time:  7147.72s(wall), 55529.23s(cpu) 
 Mon May  8 15:12:58 2023

        *************************************************************
        *                                                           *
        *  Thank you very much for using Q-Chem.  Have a nice day.  *
        *                                                           *
        *************************************************************


