
Running Job 1 of 1 Q_in.in
qchem Q_in.in_368383.0 /scratch/ari.fischer/qChem1529886.hpc-mn1/qchem368383/ 0
/usr/local/qchem-5.4.1/exe/qcprog.exe_s Q_in.in_368383.0 /scratch/ari.fischer/qChem1529886.hpc-mn1/qchem368383/
                  Welcome to Q-Chem
     A Quantum Leap Into The Future Of Chemistry


 Q-Chem 5.4, Q-Chem, Inc., Pleasanton, CA (2021)

 License issued to: Nanyang Technological University (site)

 E. Epifanovsky,  A. T. B. Gilbert,  Xintian Feng,  Joonho Lee,  Yuezhi Mao,  
 N. Mardirossian,  P. Pokhilko,  A. White,  M. Wormit,  M. P. Coons,  
 A. L. Dempwolff,  Zhengting Gan,  D. Hait,  P. R. Horn,  L. D. Jacobson,  
 I. Kaliman,  J. Kussmann,  A. W. Lange,  Ka Un Lao,  D. S. Levine,  Jie Liu,  
 S. C. McKenzie,  A. F. Morrison,  K. Nanda,  F. Plasser,  D. R. Rehn,  
 M. L. Vidal,  Zhi-Qiang You,  Ying Zhu,  B. Alam,  B. Albrecht,  
 A. Aldossary,  E. Alguire,  J. H. Andersen,  D. Barton,  K. Begam,  A. Behn,  
 Y. A. Bernard,  E. J. Berquist,  H. Burton,  A. Carreras,  K. Carter-Fenk,  
 R. Chakraborty,  A. D. Chien,  K. D. Closser,  V. Cofer-Shabica,  
 S. Dasgupta,  Jia Deng,  M. de Wergifosse,  M. Diedenhofen,  Hainam Do,  
 S. Ehlert,  Po-Tung Fang,  S. Fatehi,  Qingguo Feng,  T. Friedhoff,  
 J. Gayvert,  Qinghui Ge,  G. Gidofalvi,  M. Goldey,  J. Gomes,  
 C. Gonzalez-Espinoza,  S. Gulania,  A. Gunina,  M. W. D. Hanson-Heine,  
 P. H. P. Harbach,  A. W. Hauser,  M. F. Herbst,  M. Hernandez Vera,  
 M. Hodecker,  Z. C. Holden,  S. Houck,  Xunkun Huang,  Kerwin Hui,  
 B. C. Huynh,  M. Ivanov,  Hyunjun Ji,  Hanjie Jiang,  B. Kaduk,  S. Kaehler,  
 K. Khistyaev,  Jaehoon Kim,  P. Klunzinger,  Z. Koczor-Benda,  
 Joong Hoon Koh,  D. Kosenkov,  L. Koulias,  T. Kowalczyk,  C. M. Krauter,  
 K. Kue,  A. Kunitsa,  T. Kus,  A. Landau,  K. V. Lawler,  D. Lefrancois,  
 S. Lehtola,  Rain Li,  Yi-Pei Li,  Jiashu Liang,  M. Liebenthal,  
 Hung-Hsuan Lin,  You-Sheng Lin,  Fenglai Liu,  Kuan-Yu Liu,  
 M. Loipersberger,  A. Luenser,  A. Manjanath,  P. Manohar,  E. Mansoor,  
 S. F. Manzer,  Shan-Ping Mao,  A. V. Marenich,  T. Markovich,  S. Mason,  
 S. A. Maurer,  P. F. McLaughlin,  M. F. S. J. Menger,  J.-M. Mewes,  
 S. A. Mewes,  P. Morgante,  J. W. Mullinax,  K. J. Oosterbaan,  G. Paran,  
 Alexander C. Paul,  Suranjan K. Paul,  F. Pavosevic,  Zheng Pei,  S. Prager,  
 E. I. Proynov,  E. Ramos,  B. Rana,  A. E. Rask,  A. Rettig,  R. M. Richard,  
 F. Rob,  E. Rossomme,  T. Scheele,  M. Scheurer,  M. Schneider,  
 N. Sergueev,  S. M. Sharada,  W. Skomorowski,  D. W. Small,  C. J. Stein,  
 Yu-Chuan Su,  E. J. Sundstrom,  Zhen Tao,  J. Thirman,  T. Tsuchimochi,  
 N. M. Tubman,  S. P. Veccham,  O. Vydrov,  J. Wenzel,  J. Witte,  A. Yamada,  
 Kun Yao,  S. Yeganeh,  S. R. Yost,  A. Zech,  Igor Ying Zhang,  Xing Zhang,  
 Yu Zhang,  D. Zuev,  A. Aspuru-Guzik,  A. T. Bell,  N. A. Besley,  
 K. B. Bravaya,  B. R. Brooks,  D. Casanova,  Jeng-Da Chai,  S. Coriani,  
 C. J. Cramer,  A. E. DePrince, III,  R. A. DiStasio Jr.,  A. Dreuw,  
 B. D. Dunietz,  T. R. Furlani,  W. A. Goddard III,  S. Grimme,  
 S. Hammes-Schiffer,  T. Head-Gordon,  W. J. Hehre,  Chao-Ping Hsu,  
 T.-C. Jagau,  Yousung Jung,  A. Klamt,  Jing Kong,  D. S. Lambrecht,  
 WanZhen Liang,  N. J. Mayhall,  C. W. McCurdy,  J. B. Neaton,  
 C. Ochsenfeld,  J. A. Parkhill,  R. Peverati,  V. A. Rassolov,  Yihan Shao,  
 L. V. Slipchenko,  T. Stauch,  R. P. Steele,  J. E. Subotnik,  
 A. J. W. Thom,  A. Tkatchenko,  D. G. Truhlar,  T. Van Voorhis,  
 T. A. Wesolowski,  K. B. Whaley,  H. L. Woodcock III,  P. M. Zimmerman,  
 S. Faraji,  P. M. W. Gill,  M. Head-Gordon,  J. M. Herbert,  A. I. Krylov

 Additional authors for Version 5.4.1: 
 S. Kotaru,  Shaozhi Li,  Xiangyuan Li,  F. Matz,  A. Molle,  Haisheng Ren,  
 Yingli Su,  Hung-Yi Tsai,  C. Utku,  Fang Wang

 Contributors to earlier versions of Q-Chem not listed above: 
 R. D. Adamson,  B. Austin,  R. Baer,  J. Baker,  G. J. O. Beran,  
 K. Brandhorst,  S. T. Brown,  E. F. C. Byrd,  A. K. Chakraborty,  
 G. K. L. Chan,  Chun-Min Chang,  Yunqing Chen,  C.-L. Cheng,  
 Siu Hung Chien,  D. M. Chipman,  D. L. Crittenden,  H. Dachsel,  
 R. J. Doerksen,  A. D. Dutoi,  R. G. Edgar,  J. Fosso-Tande,  
 L. Fusti-Molnar,  D. Ghosh,  A. Ghysels,  A. Golubeva-Zadorozhnaya,  
 J. Gonthier,  M. S. Gordon,  S. R. Gwaltney,  G. Hawkins,  J. E. Herr,  
 A. Heyden,  S. Hirata,  E. G. Hohenstein,  G. Kedziora,  F. J. Keil,  
 C. Kelley,  Jihan Kim,  R. A. King,  R. Z. Khaliullin,  P. P. Korambath,  
 W. Kurlancheek,  A. Laurent,  A. M. Lee,  M. S. Lee,  S. V. Levchenko,  
 Ching Yeh Lin,  D. Liotard,  E. Livshits,  R. C. Lochan,  I. Lotan,  
 L. A. Martinez-Martinez,  P. E. Maslen,  N. Nair,  D. P. O'Neill,  
 D. Neuhauser,  E. Neuscamman,  C. M. Oana,  R. Olivares-Amaya,  R. Olson,  
 T. M. Perrine,  B. Peters,  P. A. Pieniazek,  A. Prociuk,  Y. M. Rhee,  
 J. Ritchie,  M. A. Rohrdanz,  E. Rosta,  N. J. Russ,  H. F. Schaefer III,  
 M. W. Schmidt,  N. E. Schultz,  S. Sharma,  N. Shenvi,  C. D. Sherrill,  
 A. C. Simmonett,  A. Sodt,  T. Stein,  D. Stuck,  K. S. Thanthiriwatte,  
 V. Vanovschi,  L. Vogt,  Tao Wang,  A. Warshel,  M. A. Watson,  
 C. F. Williams,  Q. Wu,  X. Xu,  Jun Yang,  W. Zhang,  Yan Zhao

 Please cite Q-Chem as follows:
 Y. Shao et al., Mol. Phys. 113, 184-215 (2015)
 DOI: 10.1080/00268976.2014.952696

 Q-Chem 5.4.1 for Intel X86 EM64T Linux

 Parts of Q-Chem use Armadillo 9.800.1 (Horizon Scraper).
 http://arma.sourceforge.net/

 Q-Chem begins on Mon May  8 08:45:39 2023  

 Host: 
0

     Scratch files written to /scratch/ari.fischer/qChem1529886.hpc-mn1/qchem368383//
 Aug1521 |scratch|qcdevops|jenkins|workspace|build_RNUM 8249   
 Processing $rem in /usr/local/qchem-5.4.1/config/preferences:
 Processing $rem in /home/ari.fischer/.qchemrc:
 Symmetry turned off for PCM/SM12/SMD calculation

 Checking the input file for inconsistencies... 	...done.

--------------------------------------------------------------
User input:
--------------------------------------------------------------
$molecule
0 2
C         0.5461049446    0.1433778514    0.3961671386
O         1.3402772340   -0.7262817037    0.6634249386
H        -2.5666021038    0.7787768635   -0.2171503077
C        -0.9735121021   -0.1210489475    0.4087911146
O        -1.1981341754   -1.4105067772    0.0254838869
O        -1.5978764144    0.8667478304   -0.3051226606
O         0.9093428965    1.3881707936    0.1088269482
H         0.1155647238    1.9253485056   -0.0901588858
O        -1.4124249585   -0.0578044396    1.8283368827
O        -1.1878297125    1.1342542461    2.3284444577
H        -2.1612867319   -1.5603507225   -0.0263550131
$end

$rem
BASIS = 6-311++G(2df,2p)
GUI = 2
JOB_TYPE = Optimization
METHOD = wB97M-V
SCF_ALGORITHM = DIIS_GDM
MAX_SCF_CYCLES = 400
GEOM_OPT_MAX_CYCLES = 150
SCF_CONVERGENCE = 7
THRESH = 12
UNRESTRICTED = 1
Solvent_method = SMD
$end
--------------------------------------------------------------
 ----------------------------------------------------------------
             Standard Nuclear Orientation (Angstroms)
    I     Atom           X                Y                Z
 ----------------------------------------------------------------
    1      C       0.5461049446     0.1433778514     0.3961671386
    2      O       1.3402772340    -0.7262817037     0.6634249386
    3      H      -2.5666021038     0.7787768635    -0.2171503077
    4      C      -0.9735121021    -0.1210489475     0.4087911146
    5      O      -1.1981341754    -1.4105067772     0.0254838869
    6      O      -1.5978764144     0.8667478304    -0.3051226606
    7      O       0.9093428965     1.3881707936     0.1088269482
    8      H       0.1155647238     1.9253485056    -0.0901588858
    9      O      -1.4124249585    -0.0578044396     1.8283368827
   10      O      -1.1878297125     1.1342542461     2.3284444577
   11      H      -2.1612867319    -1.5603507225    -0.0263550131
 ----------------------------------------------------------------
 Nuclear Repulsion Energy =         417.36306944 hartrees
 There are       32 alpha and       31 beta electrons
 Requested basis set is 6-311++G(2df,2p)
 There are 82 shells and 302 basis functions

 Total QAlloc Memory Limit 288000 MB
 Mega-Array Size       188 MB
 MEM_STATIC part       192 MB
 
 Citation of the SMD model:
 Marenich, A.V.; Cramer, C.J.; Truhlar, D.G.
 J. Phys. Chem. B 2009, 113, 6378-6396.
 iSolventCode=           1
 Solvent: water                                                           
 
 vradii
            1           2           3           4           5           6
    1   1.8500000   1.5200000   1.2000000   1.8500000   1.5200000   1.5200000
            7           8           9          10          11
    1   1.5200000   1.2000000   1.5200000   1.5200000   1.2000000
 Changing PCM_VDW_RADII to SMD_RADIUS
 Discretize the solute cavity surface with Lebedev spheres
	Using 110 Lebedev grid points for each H atom
	Using 194 Lebedev grid points for other atoms
	Atomic van der Waals radii will be scaled by 1.20
 Remove points where switching function is < 1.0e-08
 Keep 1009 surface tesserae and discard 873 interior tesserae
 Molecular Surface Area = 117.874 Angst**2
 A cutoff of  1.0D-12 yielded   3160 shell pairs
 There are     43517 function pairs (     55755 Cartesian)
 Smallest overlap matrix eigenvalue = 5.36E-05

 Scale SEOQF with 1.000000e-01/1.000000e-01/1.000000e-01

 Standard Electronic Orientation quadrupole field applied
 Nucleus-field energy     =    -0.0000000005 hartrees
 Guess from superposition of atomic densities
 Warning:  Energy on first SCF cycle will be non-variational
 SAD guess density has 63.000000 electrons

 -----------------------------------------------------------------------
  General SCF calculation program by
  Eric Jon Sundstrom, Paul Horn, Yuezhi Mao, Dmitri Zuev, Alec White,
  David Stuck, Shaama M.S., Shane Yost, Joonho Lee, David Small,
  Daniel Levine, Susi Lehtola, Hugh Burton, Evgeny Epifanovsky,
  Bang C. Huynh
 -----------------------------------------------------------------------
 Exchange:     0.1500 Hartree-Fock + 1.0000 wB97M-V + LR-HF
 Correlation:  1.0000 wB97M-V
 Using SG-2 standard quadrature grid
 Nonlocal Correlation:  VV10 with C = 0.0100 and b = 6.00 and scale = 1.00000
 Grid used for NLC:  SG-1 standard quadrature
 
 Citation of the SMD model:
 Marenich, A.V.; Cramer, C.J.; Truhlar, D.G.
 J. Phys. Chem. B 2009, 113, 6378-6396.
 iSolventCode=           1
 Solvent: water                                                           
 
 vradii
            1           2           3           4           5           6
    1   1.8500000   1.5200000   1.2000000   1.8500000   1.5200000   1.5200000
            7           8           9          10          11
    1   1.5200000   1.2000000   1.5200000   1.5200000   1.2000000
 using 8 threads for integral computing
 -------------------------------------------------------
 OpenMP Integral computing Module                
 Release: version 1.0, May 2013, Q-Chem Inc. Pittsburgh 
 -------------------------------------------------------
 -------------------------------------------------------
 OpenMP BLAS3 based DFT computing Module                
 Release: version 1.0, May 2013, Q-Chem Inc. Pittsburgh 
 -------------------------------------------------------
 A unrestricted SCF calculation will be
 performed using DIIS, GDM
 SCF converges when RMS gradient is below 1.0e-07
 ---------------------------------------
  Cycle       Energy         DIIS error
 ---------------------------------------
    1    -530.6939748631      1.47e-02  
    2    -529.0787175017      2.57e-03  Done DIIS. Switching to GDM
 ---------------------------------------
  Cycle       Energy        RMS Gradient
 ---------------------------------------
    1    -529.0787175017      1.62e-01   Descent step
    2    -529.2819065801      4.19e-02   Normal BFGS step
    3    -529.3116211888      3.16e-02   Normal BFGS step
    4    -529.3140942753      1.49e-02   Normal BFGS step
    5    -529.3162697839      7.00e-03   Normal BFGS step
    6    -529.3164619157      3.64e-03   Normal BFGS step
    7    -529.3165863148      2.99e-03   Normal BFGS step
    8    -529.3166166794      1.51e-03   Normal BFGS step
    9    -529.3166245584      1.05e-03   Normal BFGS step
   10    -529.3166289863      1.07e-03   Normal BFGS step
   11    -529.3166328469      9.04e-04   Normal BFGS step
   12    -529.3166360430      5.02e-04   Normal BFGS step
   13    -529.3166372902      2.17e-04   Normal BFGS step
   14    -529.3166375011      3.95e-05   Normal BFGS step
   15    -529.3166375400      2.14e-05   Normal BFGS step
   16    -529.3166375460      1.01e-05   Normal BFGS step
   17    -529.3166375469      3.34e-06   Normal BFGS step
   18    -529.3166375472      1.22e-06   Normal BFGS step
   19    -529.3166375472      6.79e-07   Normal BFGS step
   20    -529.3166375472      3.06e-07   Normal BFGS step
   21    -529.3166375472      1.10e-07   Normal BFGS step
   22    -529.3166375472      6.90e-08  Convergence criterion met
 ---------------------------------------
 SCF time:   CPU 731.75s  wall 92.00s 
<S^2> =          0.753908421
(3)  G-ENP(liq) elect-nuc-pol free energy of system     -529.316637547 a.u.
(4)  G-CDS(liq) cavity-dispersion-solvent structure 
     free energy                                                4.1656 kcal/mol
(6)  G-S(liq) free energy of system                     -529.309999221 a.u.
 SCF   energy in the final basis set =     -529.3099992212
 Total energy in the final basis set =     -529.3099992212
 
 --------------------------------------------------------------
 
                    Orbital Energies (a.u.)
 --------------------------------------------------------------
 
 Alpha MOs
 -- Occupied --
-19.4750 -19.4350 -19.4010 -19.3862 -19.3820 -19.3520 -10.5462 -10.5120
 -1.3610  -1.2705  -1.2415  -1.1925  -1.1718  -1.0144  -0.8602  -0.7517
 -0.7117  -0.7102  -0.6892  -0.6255  -0.6168  -0.5991  -0.5752  -0.5683
 -0.5347  -0.5120  -0.4936  -0.4557  -0.4501  -0.4311  -0.4177  -0.4048
 -- Virtual --
  0.0289   0.0463   0.0524   0.0580   0.0799   0.0846   0.1045   0.1074
  0.1234   0.1281   0.1389   0.1598   0.1765   0.1962   0.2068   0.2219
  0.2304   0.2433   0.2489   0.2554   0.2589   0.2668   0.2806   0.2900
  0.3015   0.3094   0.3172   0.3228   0.3278   0.3305   0.3376   0.3472
  0.3520   0.3533   0.3664   0.3726   0.3802   0.3944   0.4077   0.4139
  0.4260   0.4505   0.4794   0.4848   0.5006   0.5639   0.5767   0.5854
  0.6217   0.6630   0.6730   0.6881   0.6941   0.7277   0.7758   0.8017
  0.8162   0.8375   0.8603   0.9094   0.9198   0.9386   0.9652   0.9915
  1.0273   1.0484   1.0755   1.0892   1.1007   1.1124   1.1176   1.1280
  1.1406   1.1670   1.1710   1.1832   1.1894   1.2008   1.2156   1.2278
  1.2411   1.2472   1.2660   1.2701   1.2890   1.3243   1.3953   1.4166
  1.4471   1.4856   1.5146   1.5206   1.5405   1.5619   1.5847   1.5931
  1.6126   1.6365   1.6666   1.6902   1.6982   1.7334   1.7586   1.8271
  1.8520   1.8673   1.8755   1.9117   1.9631   2.0074   2.0352   2.0577
  2.0959   2.1241   2.1744   2.2154   2.2584   2.2939   2.3306   2.3659
  2.3741   2.4029   2.4368   2.5070   2.5250   2.5425   2.5818   2.6099
  2.6662   2.7665   2.8032   2.8298   2.8838   2.8899   2.9419   3.0163
  3.1297   3.1769   3.2161   3.2581   3.3181   3.3441   3.3584   3.3936
  3.4375   3.4757   3.5307   3.5702   3.5750   3.6064   3.6432   3.6715
  3.7126   3.7231   3.7523   3.7924   3.8204   3.8369   3.8594   3.8880
  3.9318   4.0360   4.0445   4.1236   4.1928   4.2021   4.2447   4.2680
  4.3078   4.3650   4.4019   4.5664   4.6951   4.7265   4.8064   4.8191
  4.9483   5.0530   5.0658   5.0732   5.1115   5.1290   5.1303   5.1564
  5.1666   5.1774   5.1972   5.2038   5.2165   5.2333   5.2412   5.2708
  5.2775   5.2895   5.3150   5.3256   5.3333   5.3775   5.4088   5.4340
  5.4583   5.4799   5.5375   5.5454   5.5617   5.5823   5.5891   5.6326
  5.6504   5.6691   5.6967   5.7218   5.7613   5.8196   5.9842   6.0075
  6.0992   6.1555   6.2247   6.3548   6.4141   6.4363   6.5466   6.5873
  6.7054   6.8295   6.8492   6.8741   6.9159   6.9315   6.9868   7.0231
  7.0467   7.0636   7.0780   7.1104   7.1307   7.1617   7.2008   7.2217
  7.2371   7.2574   7.2769   7.3256   7.3578   7.3711   7.4142   7.4294
  7.4565   7.5118   7.5290   7.5474   7.6539   7.7136   7.7682   7.8013
  7.8233   7.8540   7.8771   7.8945   8.0354   8.1132  24.8038  25.1116
 50.3999  50.5020  50.5796  50.6047  50.6192  50.7255
 
 Beta MOs
 -- Occupied --
-19.4656 -19.4152 -19.4009 -19.3860 -19.3821 -19.3521 -10.5466 -10.5119
 -1.3383  -1.2678  -1.2391  -1.1924  -1.1717  -0.9792  -0.8551  -0.7511
 -0.7097  -0.6973  -0.6842  -0.6022  -0.5999  -0.5825  -0.5702  -0.5474
 -0.5327  -0.5004  -0.4874  -0.4542  -0.4494  -0.4219  -0.3942
 -- Virtual --
 -0.0454   0.0292   0.0465   0.0536   0.0584   0.0804   0.0848   0.1048
  0.1080   0.1245   0.1309   0.1391   0.1610   0.1794   0.1978   0.2116
  0.2233   0.2317   0.2459   0.2522   0.2578   0.2651   0.2714   0.2816
  0.2905   0.3032   0.3106   0.3179   0.3236   0.3287   0.3316   0.3381
  0.3481   0.3524   0.3539   0.3673   0.3737   0.3811   0.3961   0.4089
  0.4153   0.4274   0.4508   0.4798   0.4853   0.5016   0.5645   0.5775
  0.5854   0.6220   0.6631   0.6729   0.6902   0.6945   0.7292   0.7761
  0.8026   0.8167   0.8381   0.8607   0.9108   0.9205   0.9396   0.9656
  0.9932   1.0302   1.0512   1.0788   1.0955   1.1055   1.1140   1.1238
  1.1305   1.1469   1.1710   1.1796   1.1880   1.1922   1.2046   1.2256
  1.2322   1.2434   1.2506   1.2716   1.2773   1.2920   1.3276   1.3982
  1.4193   1.4525   1.4923   1.5174   1.5215   1.5480   1.5709   1.5931
  1.6009   1.6313   1.6398   1.6726   1.6980   1.7029   1.7385   1.7656
  1.8313   1.8543   1.8701   1.8840   1.9172   1.9645   2.0125   2.0403
  2.0621   2.0997   2.1313   2.1821   2.2199   2.2650   2.3016   2.3382
  2.3662   2.3766   2.4039   2.4390   2.5093   2.5284   2.5433   2.5842
  2.6160   2.6667   2.7700   2.8042   2.8315   2.8841   2.8906   2.9437
  3.0170   3.1299   3.1773   3.2172   3.2586   3.3181   3.3452   3.3586
  3.3940   3.4381   3.4766   3.5313   3.5701   3.5758   3.6068   3.6432
  3.6714   3.7142   3.7236   3.7529   3.7925   3.8205   3.8370   3.8597
  3.8885   3.9320   4.0363   4.0447   4.1241   4.1931   4.2023   4.2462
  4.2683   4.3080   4.3660   4.4021   4.6014   4.7111   4.7324   4.8186
  4.8411   4.9660   5.1118   5.1122   5.1164   5.1267   5.1381   5.1594
  5.1626   5.1790   5.1935   5.2055   5.2279   5.2331   5.2430   5.2608
  5.2725   5.2895   5.2945   5.3202   5.3320   5.3480   5.3872   5.4135
  5.4382   5.4592   5.4963   5.5407   5.5479   5.5624   5.5872   5.5923
  5.6344   5.6547   5.6707   5.7060   5.7338   5.7635   5.8277   5.9868
  6.0093   6.1004   6.1589   6.2305   6.3571   6.4237   6.4729   6.5571
  6.5936   6.7108   6.8421   6.9147   6.9266   6.9528   6.9713   6.9926
  7.0288   7.0516   7.0745   7.0995   7.1273   7.1392   7.1692   7.2037
  7.2293   7.2467   7.2716   7.2877   7.3269   7.3646   7.3743   7.4311
  7.4487   7.4774   7.5161   7.5331   7.5529   7.6569   7.7187   7.7717
  7.8029   7.8270   7.8547   7.8812   7.8969   8.0480   8.1287  24.8035
 25.1117  50.4125  50.5098  50.5810  50.6049  50.6195  50.7256
 --------------------------------------------------------------
 
          Ground-State Mulliken Net Atomic Charges

     Atom                 Charge (a.u.)    Spin (a.u.)
  --------------------------------------------------------
      1 C                     0.334558       0.014061
      2 O                    -0.443374      -0.001121
      3 H                     0.375857      -0.000185
      4 C                     0.299093      -0.005633
      5 O                    -0.397385      -0.000415
      6 O                    -0.390765       0.002030
      7 O                    -0.279086       0.000045
      8 H                     0.338013      -0.000079
      9 O                    -0.010221       0.281513
     10 O                    -0.183206       0.710061
     11 H                     0.356517      -0.000277
  --------------------------------------------------------
  Sum of atomic charges =     0.000000
  Sum of spin   charges =     1.000000

 -----------------------------------------------------------------
                    Cartesian Multipole Moments
 -----------------------------------------------------------------
    Charge (ESU x 10^10)
                 0.0000
    Dipole Moment (Debye)
         X      -7.5190      Y       1.7130      Z      -2.9944
       Tot       8.2726
    Quadrupole Moments (Debye-Ang)
        XX     -34.8400     XY       3.5656     YY     -45.1766
        XZ       1.4136     YZ      -1.0566     ZZ     -52.5869
    Octopole Moments (Debye-Ang^2)
       XXX       5.3526    XXY     -13.1704    XYY      11.3820
       YYY     -12.2429    XXZ     -38.0930    XYZ       3.4787
       YYZ     -35.5589    XZZ      30.5723    YZZ     -11.5479
       ZZZ    -105.2605
    Hexadecapole Moments (Debye-Ang^3)
      XXXX    -316.5517   XXXY      17.2284   XXYY    -104.9555
      XYYY      15.5738   YYYY    -257.0405   XXXZ      71.2159
      XXYZ     -10.6952   XYYZ      24.4253   YYYZ     -34.1013
      XXZZ    -148.5463   XYZZ       9.7987   YYZZ    -115.4688
      XZZZ      88.8156   YZZZ     -44.7797   ZZZZ    -402.5428
 -----------------------------------------------------------------
 Calculating analytic gradient of the SCF energy
 Gradient of CDS energy
            1           2           3           4           5           6
    1   0.0028050  -0.0009014  -0.0003713  -0.0027145   0.0007812   0.0018155
    2   0.0023393   0.0009640   0.0002510  -0.0017658   0.0045012  -0.0028565
    3  -0.0005737  -0.0002863  -0.0001309  -0.0034781   0.0014759   0.0021965
            7           8           9          10          11
    1  -0.0010025  -0.0000367   0.0000157  -0.0001256  -0.0002655
    2  -0.0034765   0.0003418   0.0001115  -0.0000471  -0.0003629
    3   0.0008970  -0.0001249   0.0000312   0.0000707  -0.0000775
 Gradient of SCF Energy
            1           2           3           4           5           6
    1  -0.0072236   0.0047260  -0.0368163  -0.0021630   0.0387742   0.0339369
    2  -0.0001276  -0.0061992  -0.0050615   0.0026000  -0.0064381   0.0088405
    3  -0.0016908   0.0017488   0.0028026   0.0008797   0.0009228  -0.0068341
            7           8           9          10          11
    1   0.0188465  -0.0164678  -0.0016389   0.0022319  -0.0342057
    2  -0.0053109   0.0116611  -0.0085927   0.0091768  -0.0005483
    3   0.0040523  -0.0049176   0.0025477   0.0029923  -0.0025038
 Max gradient component =       3.877E-02
 RMS gradient           =       1.407E-02
 Computing fast CPCM-SWIG gradient
 Updating gradient with PCM contributions...
 -- total gradient after adding PCM contribution --
---------------------------------------------------
  Atom         X              Y              Z     
---------------------------------------------------
   1      -0.008568       0.002112      -0.001777
   2       0.006660      -0.008119       0.002531
   3      -0.006611      -0.001326       0.001482
   4      -0.000480       0.000414       0.002047
   5       0.008269      -0.003539      -0.000818
   6       0.007156       0.005369      -0.003156
   7       0.006465       0.003174       0.000320
   8      -0.005903       0.002359      -0.000908
   9      -0.002621      -0.008630      -0.001229
  10       0.002251       0.008053       0.001324
  11      -0.006619       0.000133       0.000185
---------------------------------------------------
 Number of fixed atoms: 0
 Gradient time:  CPU 106.91 s  wall 15.65 s
 Geometry Optimization Parameters
   NAtoms,    NIC,     NZ,  NCons,   NDum,   NFix, NCnnct, MaxDiis
       11      62       0       0       0       0       0       0


** GEOMETRY OPTIMIZATION IN DELOCALIZED INTERNAL COORDINATES **
   Searching for a Minimum

   Optimization Cycle:   1

                       Coordinates (Angstroms)
     ATOM                X               Y               Z
      1  C         0.5461049446    0.1433778514    0.3961671386
      2  O         1.3402772340   -0.7262817037    0.6634249386
      3  H        -2.5666021038    0.7787768635   -0.2171503077
      4  C        -0.9735121021   -0.1210489475    0.4087911146
      5  O        -1.1981341754   -1.4105067772    0.0254838869
      6  O        -1.5978764144    0.8667478304   -0.3051226606
      7  O         0.9093428965    1.3881707936    0.1088269482
      8  H         0.1155647238    1.9253485056   -0.0901588858
      9  O        -1.4124249585   -0.0578044396    1.8283368827
     10  O        -1.1878297125    1.1342542461    2.3284444577
     11  H        -2.1612867319   -1.5603507225   -0.0263550131
   Point Group: c1    Number of degrees of freedom:    27


   Energy is   -529.309999221


 Attempting to generate delocalized internal coordinates
 Initial Hessian constructed with Jon Baker's OPTIMIZE code

 27 Hessian modes will be used to form the next step
  Hessian Eigenvalues:
     0.003556    0.004111    0.009107    0.019694    0.020428    0.025148
     0.080845    0.096228    0.106802    0.160000    0.160000    0.160000
     0.192140    0.197560    0.249939    0.250000    0.250000    0.282983
     0.337585    0.510928    0.515997    0.520347    0.521465    0.521773
     0.599417    0.639469    1.010662

 Minimum search - taking simple RFO step
 Searching for Lamda that Minimizes Along All modes
 Value Taken    Lamda =  -0.00104897
 Step Taken.  Stepsize is  0.161858

                             Maximum     Tolerance    Cnvgd?
         Gradient           0.009964      0.000300      NO
         Displacement       0.098360      0.001200      NO
         Energy change     *********      0.000001      NO


 New Cartesian Coordinates Obtained by Inverse Iteration

 Displacement from previous Coordinates is:  0.282491
 ----------------------------------------------------------------
             Standard Nuclear Orientation (Angstroms)
    I     Atom           X                Y                Z
 ----------------------------------------------------------------
    1      C       0.5485415789     0.1556364026     0.4096948132
    2      O       1.3354981071    -0.7055469558     0.6993585876
    3      H      -2.5725349895     0.7800205488    -0.2044402356
    4      C      -0.9735228279    -0.1101742755     0.4192852647
    5      O      -1.1981673744    -1.3900061844     0.0154438008
    6      O      -1.6103970724     0.8751343505    -0.2798405669
    7      O       0.9273952790     1.3742698945     0.0594419580
    8      H       0.1556366017     1.9191792914    -0.1712415949
    9      O      -1.4159489199    -0.0804966679     1.8385474197
   10      O      -1.2304479752     1.0929200910     2.3793541840
   11      H      -2.1524288071    -1.5502529951    -0.0449151306
 ----------------------------------------------------------------
 Nuclear Repulsion Energy =         417.04716464 hartrees
 There are       32 alpha and       31 beta electrons
 Discretize the solute cavity surface with Lebedev spheres
	Using 110 Lebedev grid points for each H atom
	Using 194 Lebedev grid points for other atoms
	Atomic van der Waals radii will be scaled by 1.20
 Remove points where switching function is < 1.0e-08
 Keep 1014 surface tesserae and discard 868 interior tesserae
 Molecular Surface Area = 117.984 Angst**2
 Applying Cartesian multipole field
    Component          Value
    ---------          -----
     (2,0,0)        1.00000E-11
     (0,2,0)        2.00000E-11
     (0,0,2)       -3.00000E-11
 Nucleus-field energy     =    -0.0000000008 hartrees
 Requested basis set is 6-311++G(2df,2p)
 There are 82 shells and 302 basis functions
 A cutoff of  1.0D-12 yielded   3154 shell pairs
 There are     43417 function pairs (     55604 Cartesian)
 Smallest overlap matrix eigenvalue = 5.47E-05
 Guess MOs from SCF MO coefficient file

 -----------------------------------------------------------------------
  General SCF calculation program by
  Eric Jon Sundstrom, Paul Horn, Yuezhi Mao, Dmitri Zuev, Alec White,
  David Stuck, Shaama M.S., Shane Yost, Joonho Lee, David Small,
  Daniel Levine, Susi Lehtola, Hugh Burton, Evgeny Epifanovsky,
  Bang C. Huynh
 -----------------------------------------------------------------------
 Exchange:     0.1500 Hartree-Fock + 1.0000 wB97M-V + LR-HF
 Correlation:  1.0000 wB97M-V
 Using SG-2 standard quadrature grid
 Nonlocal Correlation:  VV10 with C = 0.0100 and b = 6.00 and scale = 1.00000
 Grid used for NLC:  SG-1 standard quadrature
 
 Citation of the SMD model:
 Marenich, A.V.; Cramer, C.J.; Truhlar, D.G.
 J. Phys. Chem. B 2009, 113, 6378-6396.
 iSolventCode=           1
 Solvent: water                                                           
 
 vradii
            1           2           3           4           5           6
    1   1.8500000   1.5200000   1.2000000   1.8500000   1.5200000   1.5200000
            7           8           9          10          11
    1   1.5200000   1.2000000   1.5200000   1.5200000   1.2000000
 -------------------------------------------------------
 OpenMP BLAS3 based DFT computing Module                
 Release: version 1.0, May 2013, Q-Chem Inc. Pittsburgh 
 -------------------------------------------------------
 A unrestricted SCF calculation will be
 performed using Roothaan-Hall, DIIS, GDM
 SCF converges when RMS gradient is below 1.0e-07
 ---------------------------------------
  Cycle       Energy         DIIS error
 ---------------------------------------
    1    -529.2639706153      4.32e-04  Roothaan Step
 ---------------------------------------
  Cycle       Energy         DIIS error
 ---------------------------------------
    1    -529.3052502716      4.27e-04  
    2    -529.3120311040      4.13e-04  Done DIIS. Switching to GDM
 ---------------------------------------
  Cycle       Energy        RMS Gradient
 ---------------------------------------
    1    -529.3120311040      2.38e-02   Normal BFGS step
    2    -529.3095057236      4.05e-02  Line search: overstep
    3    -529.3169250082      4.46e-03   Normal BFGS step
    4    -529.3171972174      1.36e-03   Normal BFGS step
    5    -529.3172372736      1.97e-03   Normal BFGS step
    6    -529.3172539101      3.88e-04   Normal BFGS step
    7    -529.3172555157      3.99e-04   Normal BFGS step
    8    -529.3172563134      3.18e-04   Normal BFGS step
    9    -529.3172566390      2.72e-04   Normal BFGS step
   10    -529.3172568605      1.97e-04   Normal BFGS step
   11    -529.3172569911      1.14e-04   Normal BFGS step
   12    -529.3172570771      8.37e-05   Normal BFGS step
   13    -529.3172571271      4.03e-05   Normal BFGS step
   14    -529.3172571410      1.89e-05   Normal BFGS step
   15    -529.3172571439      9.01e-06   Normal BFGS step
   16    -529.3172571446      2.70e-06   Normal BFGS step
   17    -529.3172571447      1.05e-06   Normal BFGS step
   18    -529.3172571447      4.79e-07   Normal BFGS step
   19    -529.3172571447      2.12e-07   Normal BFGS step
   20    -529.3172571447      9.09e-08  Convergence criterion met
 ---------------------------------------
 SCF time:   CPU 836.84s  wall 106.00s 
<S^2> =          0.753886109
(3)  G-ENP(liq) elect-nuc-pol free energy of system     -529.317257145 a.u.
(4)  G-CDS(liq) cavity-dispersion-solvent structure 
     free energy                                                4.2385 kcal/mol
(6)  G-S(liq) free energy of system                     -529.310502592 a.u.
 SCF   energy in the final basis set =     -529.3105025918
 Total energy in the final basis set =     -529.3105025918
 
 --------------------------------------------------------------
 
                    Orbital Energies (a.u.)
 --------------------------------------------------------------
 
 Alpha MOs
 -- Occupied --
-19.4741 -19.4337 -19.4008 -19.3848 -19.3806 -19.3513 -10.5459 -10.5113
 -1.3634  -1.2734  -1.2443  -1.1936  -1.1736  -1.0136  -0.8604  -0.7552
 -0.7142  -0.7110  -0.6909  -0.6264  -0.6171  -0.5999  -0.5776  -0.5694
 -0.5339  -0.5111  -0.4938  -0.4556  -0.4499  -0.4308  -0.4156  -0.4039
 -- Virtual --
  0.0291   0.0462   0.0541   0.0580   0.0792   0.0852   0.1043   0.1076
  0.1228   0.1286   0.1401   0.1600   0.1792   0.1961   0.2071   0.2243
  0.2329   0.2433   0.2474   0.2557   0.2596   0.2693   0.2809   0.2901
  0.3018   0.3103   0.3170   0.3239   0.3284   0.3314   0.3386   0.3474
  0.3508   0.3561   0.3665   0.3735   0.3828   0.3975   0.4069   0.4153
  0.4272   0.4520   0.4817   0.4857   0.5015   0.5682   0.5775   0.5898
  0.6238   0.6629   0.6739   0.6877   0.6965   0.7314   0.7785   0.8023
  0.8150   0.8425   0.8590   0.9066   0.9176   0.9373   0.9654   0.9839
  1.0375   1.0462   1.0731   1.0856   1.0982   1.1129   1.1205   1.1322
  1.1411   1.1603   1.1716   1.1828   1.1919   1.2041   1.2193   1.2267
  1.2393   1.2480   1.2641   1.2731   1.2910   1.3211   1.4006   1.4179
  1.4427   1.4914   1.5161   1.5245   1.5430   1.5642   1.5854   1.5946
  1.6114   1.6355   1.6696   1.6847   1.6987   1.7338   1.7612   1.8228
  1.8509   1.8693   1.8746   1.9163   1.9602   2.0070   2.0334   2.0666
  2.0858   2.1173   2.1819   2.2267   2.2572   2.2958   2.3335   2.3594
  2.3861   2.4033   2.4330   2.5021   2.5168   2.5466   2.5819   2.6095
  2.6646   2.7658   2.8038   2.8421   2.8889   2.8989   2.9445   3.0241
  3.1305   3.1744   3.2071   3.2659   3.3188   3.3499   3.3677   3.3936
  3.4296   3.4753   3.5343   3.5671   3.5824   3.6062   3.6435   3.6800
  3.7119   3.7181   3.7554   3.7886   3.8178   3.8363   3.8579   3.8907
  3.9378   4.0378   4.0458   4.1216   4.1952   4.2138   4.2456   4.2787
  4.3303   4.3851   4.4130   4.5697   4.6957   4.7279   4.8103   4.8296
  4.9522   5.0514   5.0650   5.0705   5.1153   5.1267   5.1311   5.1562
  5.1660   5.1759   5.1981   5.2071   5.2179   5.2318   5.2418   5.2708
  5.2756   5.2935   5.3189   5.3234   5.3353   5.3799   5.4073   5.4379
  5.4648   5.4821   5.5470   5.5513   5.5639   5.5871   5.5958   5.6443
  5.6606   5.6811   5.7111   5.7321   5.7639   5.8300   5.9998   6.0272
  6.0994   6.1770   6.2320   6.3681   6.4342   6.4580   6.5766   6.5915
  6.7156   6.8284   6.8549   6.8763   6.9202   6.9340   6.9921   7.0240
  7.0502   7.0705   7.0763   7.1196   7.1336   7.1785   7.2204   7.2374
  7.2599   7.2636   7.2823   7.3257   7.3584   7.3828   7.4141   7.4374
  7.4620   7.5137   7.5287   7.5454   7.6644   7.7222   7.7703   7.8063
  7.8304   7.8620   7.8745   7.9009   8.0435   8.1279  24.8178  25.1293
 50.4053  50.5040  50.5785  50.6087  50.6256  50.7361
 
 Beta MOs
 -- Occupied --
-19.4646 -19.4141 -19.4007 -19.3846 -19.3807 -19.3513 -10.5463 -10.5112
 -1.3405  -1.2709  -1.2419  -1.1934  -1.1735  -0.9790  -0.8552  -0.7547
 -0.7123  -0.6978  -0.6857  -0.6026  -0.6005  -0.5843  -0.5712  -0.5484
 -0.5317  -0.5001  -0.4877  -0.4543  -0.4492  -0.4222  -0.3925
 -- Virtual --
 -0.0435   0.0294   0.0464   0.0553   0.0584   0.0796   0.0855   0.1046
  0.1082   0.1239   0.1310   0.1403   0.1612   0.1819   0.1976   0.2120
  0.2257   0.2342   0.2458   0.2496   0.2587   0.2659   0.2749   0.2821
  0.2906   0.3037   0.3115   0.3177   0.3249   0.3296   0.3322   0.3391
  0.3483   0.3511   0.3570   0.3673   0.3744   0.3837   0.3992   0.4081
  0.4169   0.4285   0.4522   0.4817   0.4865   0.5025   0.5688   0.5783
  0.5899   0.6241   0.6630   0.6738   0.6896   0.6968   0.7332   0.7788
  0.8031   0.8154   0.8431   0.8595   0.9076   0.9185   0.9382   0.9660
  0.9857   1.0398   1.0489   1.0782   1.0909   1.1027   1.1173   1.1256
  1.1346   1.1473   1.1686   1.1738   1.1872   1.1954   1.2095   1.2267
  1.2319   1.2421   1.2516   1.2716   1.2789   1.2938   1.3241   1.4034
  1.4206   1.4483   1.4993   1.5183   1.5247   1.5502   1.5735   1.5931
  1.6052   1.6279   1.6392   1.6746   1.6967   1.7010   1.7387   1.7679
  1.8289   1.8525   1.8730   1.8820   1.9212   1.9613   2.0115   2.0383
  2.0702   2.0911   2.1240   2.1897   2.2307   2.2634   2.3019   2.3428
  2.3600   2.3885   2.4045   2.4355   2.5040   2.5209   2.5472   2.5840
  2.6159   2.6654   2.7692   2.8048   2.8437   2.8891   2.8997   2.9464
  3.0247   3.1308   3.1748   3.2080   3.2663   3.3189   3.3508   3.3680
  3.3940   3.4301   3.4762   3.5349   3.5671   3.5831   3.6067   3.6435
  3.6799   3.7136   3.7186   3.7560   3.7886   3.8180   3.8364   3.8582
  3.8913   3.9380   4.0382   4.0460   4.1220   4.1955   4.2140   4.2471
  4.2789   4.3306   4.3859   4.4133   4.6048   4.7121   4.7339   4.8303
  4.8437   4.9692   5.1107   5.1132   5.1156   5.1252   5.1373   5.1593
  5.1633   5.1794   5.1898   5.2062   5.2253   5.2361   5.2456   5.2619
  5.2719   5.2865   5.3014   5.3234   5.3343   5.3460   5.3891   5.4123
  5.4417   5.4657   5.4984   5.5492   5.5552   5.5646   5.5936   5.5982
  5.6455   5.6641   5.6835   5.7211   5.7438   5.7661   5.8377   6.0030
  6.0288   6.1007   6.1803   6.2375   6.3702   6.4382   6.5008   6.5875
  6.5981   6.7217   6.8539   6.9125   6.9277   6.9521   6.9775   6.9968
  7.0289   7.0605   7.0798   7.0906   7.1369   7.1436   7.1876   7.2308
  7.2446   7.2638   7.2785   7.2898   7.3267   7.3653   7.3882   7.4317
  7.4539   7.4823   7.5180   7.5332   7.5506   7.6671   7.7267   7.7739
  7.8077   7.8346   7.8632   7.8785   7.9030   8.0554   8.1443  24.8175
 25.1294  50.4181  50.5119  50.5797  50.6088  50.6258  50.7362
 --------------------------------------------------------------
 
          Ground-State Mulliken Net Atomic Charges

     Atom                 Charge (a.u.)    Spin (a.u.)
  --------------------------------------------------------
      1 C                     0.336983       0.013970
      2 O                    -0.440574      -0.001204
      3 H                     0.374102      -0.000122
      4 C                     0.301945      -0.005320
      5 O                    -0.393098      -0.000163
      6 O                    -0.395700       0.001657
      7 O                    -0.278440       0.000170
      8 H                     0.337874      -0.000057
      9 O                    -0.007756       0.285931
     10 O                    -0.189651       0.705475
     11 H                     0.354317      -0.000338
  --------------------------------------------------------
  Sum of atomic charges =     0.000000
  Sum of spin   charges =     1.000000

 -----------------------------------------------------------------
                    Cartesian Multipole Moments
 -----------------------------------------------------------------
    Charge (ESU x 10^10)
                 0.0000
    Dipole Moment (Debye)
         X      -7.3504      Y       1.7302      Z      -3.2219
       Tot       8.2099
    Quadrupole Moments (Debye-Ang)
        XX     -35.0310     XY       3.6822     YY     -44.9949
        XZ       1.6591     YZ      -1.1400     ZZ     -52.8333
    Octopole Moments (Debye-Ang^2)
       XXX       6.3467    XXY     -13.2806    XYY      12.2761
       YYY     -12.3899    XXZ     -39.0229    XYZ       3.5759
       YYZ     -36.5827    XZZ      31.2235    YZZ     -11.2612
       ZZZ    -107.7172
    Hexadecapole Moments (Debye-Ang^3)
      XXXX    -322.3578   XXXY      16.1075   XXYY    -105.1668
      XYYY      15.9000   YYYY    -250.1695   XXXZ      75.3684
      XXYZ      -9.6220   XYYZ      25.9013   YYYZ     -33.0006
      XXZZ    -152.4390   XYZZ      10.0728   YYZZ    -115.6747
      XZZZ      94.1931   YZZZ     -42.7359   ZZZZ    -416.5694
 -----------------------------------------------------------------
 Calculating analytic gradient of the SCF energy
 Gradient of CDS energy
            1           2           3           4           5           6
    1   0.0027395  -0.0008452  -0.0003713  -0.0026842   0.0007567   0.0018028
    2   0.0021905   0.0009042   0.0002463  -0.0016772   0.0043354  -0.0027784
    3  -0.0006791  -0.0002936  -0.0001254  -0.0034191   0.0015064   0.0020978
            7           8           9          10          11
    1  -0.0009845  -0.0000357   0.0000174  -0.0001330  -0.0002626
    2  -0.0032608   0.0003372   0.0001100  -0.0000471  -0.0003601
    3   0.0010188  -0.0001329   0.0000330   0.0000763  -0.0000822
 Gradient of SCF Energy
            1           2           3           4           5           6
    1  -0.0006093  -0.0003514  -0.0307554   0.0002640   0.0299540   0.0254294
    2  -0.0016947   0.0010329  -0.0037084   0.0010672  -0.0023180   0.0039558
    3   0.0036807  -0.0022555   0.0010624  -0.0002963   0.0016339  -0.0045964
            7           8           9          10          11
    1   0.0152005  -0.0115159   0.0006124  -0.0001702  -0.0280580
    2  -0.0082485   0.0097628  -0.0027483   0.0041881  -0.0012889
    3   0.0035949  -0.0050070   0.0018310   0.0032921  -0.0029398
 Max gradient component =       3.076E-02
 RMS gradient           =       1.098E-02
 Computing fast CPCM-SWIG gradient
 Updating gradient with PCM contributions...
 -- total gradient after adding PCM contribution --
---------------------------------------------------
  Atom         X              Y              Z     
---------------------------------------------------
   1      -0.002179       0.000468       0.003537
   2       0.001433      -0.000583      -0.001582
   3      -0.000705       0.000075       0.000410
   4       0.001853      -0.001011       0.000972
   5      -0.000114       0.000020      -0.000524
   6      -0.000764       0.000387      -0.001815
   7       0.002426       0.000501      -0.000701
   8      -0.000762       0.000074      -0.000366
   9      -0.000565      -0.002704      -0.001788
  10       0.000063       0.002934       0.001695
  11      -0.000687      -0.000160       0.000161
---------------------------------------------------
 Number of fixed atoms: 0
 Gradient time:  CPU 112.33 s  wall 16.27 s
 Geometry Optimization Parameters
   NAtoms,    NIC,     NZ,  NCons,   NDum,   NFix, NCnnct, MaxDiis
       11      62       0       0       0       0       0       0

 Cartesian Hessian Update
 Hessian updated using BFGS update


** GEOMETRY OPTIMIZATION IN DELOCALIZED INTERNAL COORDINATES **
   Searching for a Minimum

   Optimization Cycle:   2

                       Coordinates (Angstroms)
     ATOM                X               Y               Z
      1  C         0.5485415789    0.1556364026    0.4096948132
      2  O         1.3354981071   -0.7055469558    0.6993585876
      3  H        -2.5725349895    0.7800205488   -0.2044402356
      4  C        -0.9735228279   -0.1101742755    0.4192852647
      5  O        -1.1981673744   -1.3900061844    0.0154438008
      6  O        -1.6103970724    0.8751343505   -0.2798405669
      7  O         0.9273952790    1.3742698945    0.0594419580
      8  H         0.1556366017    1.9191792914   -0.1712415949
      9  O        -1.4159489199   -0.0804966679    1.8385474197
     10  O        -1.2304479752    1.0929200910    2.3793541840
     11  H        -2.1524288071   -1.5502529951   -0.0449151306
   Point Group: c1    Number of degrees of freedom:    27


   Energy is   -529.310502592

 Hessian updated using BFGS update

 26 Hessian modes will be used to form the next step
  Hessian Eigenvalues:
     0.003192    0.004180    0.011158    0.019460    0.020378    0.025268
     0.080875    0.098084    0.112717    0.154127    0.160426    0.193003
     0.198043    0.246648    0.249992    0.272334    0.294190    0.337548
     0.445153    0.516541    0.519274    0.520959    0.521727    0.585635
     0.621331    0.994189

 Minimum search - taking simple RFO step
 Searching for Lamda that Minimizes Along All modes
 Value Taken    Lamda =  -0.00050980
 Step Taken.  Stepsize is  0.239894

                             Maximum     Tolerance    Cnvgd?
         Gradient           0.002520      0.000300      NO
         Displacement       0.123353      0.001200      NO
         Energy change     -0.000503      0.000001      NO


 New Cartesian Coordinates Obtained by Inverse Iteration

 Displacement from previous Coordinates is:  0.253802
 ----------------------------------------------------------------
             Standard Nuclear Orientation (Angstroms)
    I     Atom           X                Y                Z
 ----------------------------------------------------------------
    1      C       0.5428742109     0.1553939162     0.3934522133
    2      O       1.3178662408    -0.6699374239     0.7875446939
    3      H      -2.5773998785     0.7854472848    -0.2034016274
    4      C      -0.9790624853    -0.1076798723     0.4124710202
    5      O      -1.2058490376    -1.3822025331    -0.0005497846
    6      O      -1.6188939636     0.8823436827    -0.2702195214
    7      O       0.9194948726     1.3722980651     0.0477100132
    8      H       0.1609274885     1.9110578509    -0.2218561083
    9      O      -1.4069278367    -0.0937438176     1.8361814644
   10      O      -1.1840941689     1.0542472605     2.4024991318
   11      H      -2.1553118418    -1.5465409132    -0.0631429948
 ----------------------------------------------------------------
 Nuclear Repulsion Energy =         418.01268579 hartrees
 There are       32 alpha and       31 beta electrons
 Discretize the solute cavity surface with Lebedev spheres
	Using 110 Lebedev grid points for each H atom
	Using 194 Lebedev grid points for other atoms
	Atomic van der Waals radii will be scaled by 1.20
 Remove points where switching function is < 1.0e-08
 Keep 1008 surface tesserae and discard 874 interior tesserae
 Molecular Surface Area = 117.872 Angst**2
 Applying Cartesian multipole field
    Component          Value
    ---------          -----
     (2,0,0)        1.00000E-11
     (0,2,0)        2.00000E-11
     (0,0,2)       -3.00000E-11
 Nucleus-field energy     =    -0.0000000011 hartrees
 Requested basis set is 6-311++G(2df,2p)
 There are 82 shells and 302 basis functions
 A cutoff of  1.0D-12 yielded   3161 shell pairs
 There are     43594 function pairs (     55864 Cartesian)
 Smallest overlap matrix eigenvalue = 5.57E-05
 Guess MOs from SCF MO coefficient file

 -----------------------------------------------------------------------
  General SCF calculation program by
  Eric Jon Sundstrom, Paul Horn, Yuezhi Mao, Dmitri Zuev, Alec White,
  David Stuck, Shaama M.S., Shane Yost, Joonho Lee, David Small,
  Daniel Levine, Susi Lehtola, Hugh Burton, Evgeny Epifanovsky,
  Bang C. Huynh
 -----------------------------------------------------------------------
 Exchange:     0.1500 Hartree-Fock + 1.0000 wB97M-V + LR-HF
 Correlation:  1.0000 wB97M-V
 Using SG-2 standard quadrature grid
 Nonlocal Correlation:  VV10 with C = 0.0100 and b = 6.00 and scale = 1.00000
 Grid used for NLC:  SG-1 standard quadrature
 
 Citation of the SMD model:
 Marenich, A.V.; Cramer, C.J.; Truhlar, D.G.
 J. Phys. Chem. B 2009, 113, 6378-6396.
 iSolventCode=           1
 Solvent: water                                                           
 
 vradii
            1           2           3           4           5           6
    1   1.8500000   1.5200000   1.2000000   1.8500000   1.5200000   1.5200000
            7           8           9          10          11
    1   1.5200000   1.2000000   1.5200000   1.5200000   1.2000000
 -------------------------------------------------------
 OpenMP BLAS3 based DFT computing Module                
 Release: version 1.0, May 2013, Q-Chem Inc. Pittsburgh 
 -------------------------------------------------------
 A unrestricted SCF calculation will be
 performed using Roothaan-Hall, DIIS, GDM
 SCF converges when RMS gradient is below 1.0e-07
 ---------------------------------------
  Cycle       Energy         DIIS error
 ---------------------------------------
    1    -529.2597147790      4.97e-04  Roothaan Step
 ---------------------------------------
  Cycle       Energy         DIIS error
 ---------------------------------------
    1    -529.3045286690      4.34e-04  
    2    -529.3115500170      4.21e-04  Done DIIS. Switching to GDM
 ---------------------------------------
  Cycle       Energy        RMS Gradient
 ---------------------------------------
    1    -529.3115500170      2.27e-02   Normal BFGS step
    2    -529.3090192374      3.81e-02  Line search: overstep
    3    -529.3166370425      3.74e-03   Normal BFGS step
    4    -529.3169256504      1.23e-03   Normal BFGS step
    5    -529.3169676241      1.89e-03   Normal BFGS step
    6    -529.3169846467      2.86e-04   Normal BFGS step
    7    -529.3169863015      3.85e-04   Normal BFGS step
    8    -529.3169870686      1.95e-04   Normal BFGS step
    9    -529.3169872976      1.66e-04   Normal BFGS step
   10    -529.3169874036      1.37e-04   Normal BFGS step
   11    -529.3169874557      1.06e-04   Normal BFGS step
   12    -529.3169874959      6.62e-05   Normal BFGS step
   13    -529.3169875281      2.95e-05   Normal BFGS step
   14    -529.3169875380      1.59e-05   Normal BFGS step
   15    -529.3169875404      9.69e-06   Normal BFGS step
   16    -529.3169875410      5.26e-06   Normal BFGS step
   17    -529.3169875411      1.89e-06   Normal BFGS step
   18    -529.3169875411      5.49e-07   Normal BFGS step
   19    -529.3169875411      1.55e-07   Normal BFGS step
   20    -529.3169875411      6.88e-08  Convergence criterion met
 ---------------------------------------
 SCF time:   CPU 823.21s  wall 104.00s 
<S^2> =          0.753842825
(3)  G-ENP(liq) elect-nuc-pol free energy of system     -529.316987541 a.u.
(4)  G-CDS(liq) cavity-dispersion-solvent structure 
     free energy                                                4.2844 kcal/mol
(6)  G-S(liq) free energy of system                     -529.310159855 a.u.
 SCF   energy in the final basis set =     -529.3101598550
 Total energy in the final basis set =     -529.3101598550
 
 --------------------------------------------------------------
 
                    Orbital Energies (a.u.)
 --------------------------------------------------------------
 
 Alpha MOs
 -- Occupied --
-19.4742 -19.4327 -19.4002 -19.3844 -19.3798 -19.3506 -10.5450 -10.5101
 -1.3665  -1.2750  -1.2460  -1.1947  -1.1749  -1.0127  -0.8609  -0.7574
 -0.7163  -0.7117  -0.6919  -0.6279  -0.6178  -0.6002  -0.5780  -0.5701
 -0.5335  -0.5108  -0.4945  -0.4558  -0.4500  -0.4296  -0.4141  -0.4034
 -- Virtual --
  0.0290   0.0465   0.0533   0.0591   0.0784   0.0854   0.1039   0.1071
  0.1239   0.1299   0.1404   0.1606   0.1802   0.1968   0.2077   0.2254
  0.2352   0.2437   0.2475   0.2558   0.2613   0.2719   0.2811   0.2902
  0.3014   0.3120   0.3193   0.3237   0.3285   0.3315   0.3397   0.3480
  0.3514   0.3552   0.3659   0.3738   0.3819   0.3982   0.4076   0.4158
  0.4303   0.4559   0.4807   0.4871   0.5013   0.5688   0.5791   0.5920
  0.6230   0.6633   0.6740   0.6885   0.6980   0.7375   0.7748   0.8023
  0.8200   0.8451   0.8544   0.9150   0.9186   0.9457   0.9670   0.9729
  1.0391   1.0461   1.0766   1.0837   1.0989   1.1105   1.1149   1.1306
  1.1418   1.1593   1.1710   1.1850   1.1936   1.2018   1.2205   1.2262
  1.2387   1.2465   1.2550   1.2747   1.2947   1.3276   1.4049   1.4156
  1.4468   1.4890   1.5159   1.5335   1.5361   1.5653   1.5800   1.5957
  1.6115   1.6336   1.6776   1.6870   1.6962   1.7420   1.7751   1.8204
  1.8567   1.8662   1.8729   1.9281   1.9652   2.0049   2.0369   2.0747
  2.0871   2.1209   2.1862   2.2323   2.2533   2.3008   2.3384   2.3517
  2.3874   2.4047   2.4412   2.4982   2.5094   2.5403   2.5949   2.6154
  2.6580   2.7664   2.8066   2.8481   2.9002   2.9218   2.9402   3.0287
  3.1323   3.1740   3.2087   3.2734   3.3204   3.3517   3.3688   3.3968
  3.4327   3.4773   3.5478   3.5621   3.5897   3.6162   3.6414   3.6639
  3.7110   3.7162   3.7574   3.7871   3.8148   3.8454   3.8591   3.8935
  3.9423   4.0400   4.0491   4.1256   4.1942   4.2245   4.2462   4.2820
  4.3437   4.4008   4.4257   4.5724   4.6972   4.7302   4.8093   4.8408
  4.9554   5.0495   5.0657   5.0691   5.1140   5.1265   5.1324   5.1595
  5.1698   5.1774   5.2002   5.2094   5.2210   5.2293   5.2435   5.2725
  5.2786   5.3006   5.3181   5.3224   5.3394   5.3769   5.4080   5.4385
  5.4666   5.4877   5.5523   5.5559   5.5657   5.5872   5.6066   5.6584
  5.6623   5.6902   5.7183   5.7386   5.7608   5.8362   6.0068   6.0384
  6.1127   6.1905   6.2319   6.3932   6.4503   6.4798   6.5966   6.5999
  6.7265   6.8347   6.8571   6.8786   6.9252   6.9371   6.9952   7.0287
  7.0547   7.0712   7.0802   7.1281   7.1351   7.1871   7.2240   7.2492
  7.2614   7.2789   7.2860   7.3265   7.3656   7.3915   7.4121   7.4490
  7.4730   7.5175   7.5301   7.5433   7.6753   7.7267   7.7754   7.8021
  7.8363   7.8688   7.8771   7.9016   8.0473   8.1402  24.8319  25.1494
 50.4111  50.5087  50.5833  50.6124  50.6291  50.7437
 
 Beta MOs
 -- Occupied --
-19.4646 -19.4132 -19.4001 -19.3842 -19.3799 -19.3507 -10.5453 -10.5100
 -1.3434  -1.2726  -1.2438  -1.1945  -1.1748  -0.9784  -0.8556  -0.7569
 -0.7145  -0.6982  -0.6866  -0.6033  -0.6007  -0.5854  -0.5712  -0.5495
 -0.5315  -0.4997  -0.4887  -0.4544  -0.4493  -0.4220  -0.3913
 -- Virtual --
 -0.0422   0.0292   0.0467   0.0543   0.0597   0.0788   0.0856   0.1043
  0.1077   0.1250   0.1319   0.1406   0.1618   0.1830   0.1983   0.2123
  0.2265   0.2367   0.2462   0.2494   0.2587   0.2678   0.2779   0.2826
  0.2905   0.3037   0.3130   0.3202   0.3243   0.3303   0.3321   0.3402
  0.3491   0.3515   0.3562   0.3667   0.3745   0.3829   0.4000   0.4088
  0.4176   0.4317   0.4559   0.4808   0.4879   0.5021   0.5695   0.5799
  0.5921   0.6233   0.6636   0.6740   0.6896   0.6990   0.7392   0.7751
  0.8032   0.8203   0.8457   0.8551   0.9161   0.9194   0.9467   0.9673
  0.9745   1.0421   1.0492   1.0808   1.0892   1.1027   1.1148   1.1214
  1.1333   1.1475   1.1667   1.1747   1.1872   1.1988   1.2079   1.2260
  1.2304   1.2413   1.2504   1.2630   1.2806   1.2988   1.3305   1.4068
  1.4183   1.4528   1.4980   1.5182   1.5341   1.5439   1.5741   1.5871
  1.6069   1.6250   1.6367   1.6823   1.6964   1.7036   1.7476   1.7808
  1.8266   1.8603   1.8699   1.8796   1.9323   1.9666   2.0081   2.0421
  2.0790   2.0912   2.1284   2.1932   2.2359   2.2600   2.3065   2.3465
  2.3545   2.3898   2.4060   2.4435   2.5002   2.5132   2.5407   2.5971
  2.6220   2.6590   2.7694   2.8075   2.8500   2.9009   2.9223   2.9418
  3.0293   3.1326   3.1747   3.2093   3.2739   3.3204   3.3527   3.3692
  3.3972   3.4335   3.4782   3.5482   3.5621   3.5906   3.6166   3.6415
  3.6636   3.7126   3.7169   3.7579   3.7872   3.8150   3.8456   3.8593
  3.8942   3.9426   4.0404   4.0493   4.1261   4.1945   4.2248   4.2476
  4.2823   4.3440   4.4016   4.4261   4.6075   4.7146   4.7355   4.8318
  4.8524   4.9721   5.1088   5.1125   5.1162   5.1241   5.1375   5.1592
  5.1655   5.1820   5.1913   5.2089   5.2250   5.2362   5.2488   5.2656
  5.2736   5.2870   5.3094   5.3232   5.3327   5.3510   5.3860   5.4128
  5.4426   5.4676   5.5039   5.5542   5.5598   5.5669   5.5924   5.6096
  5.6603   5.6655   5.6929   5.7286   5.7497   5.7630   5.8438   6.0099
  6.0407   6.1138   6.1938   6.2373   6.3956   6.4520   6.5247   6.6042
  6.6106   6.7340   6.8580   6.9168   6.9314   6.9512   6.9830   6.9991
  7.0337   7.0691   7.0837   7.0878   7.1399   7.1513   7.1959   7.2393
  7.2506   7.2782   7.2841   7.2919   7.3277   7.3710   7.3993   7.4307
  7.4654   7.4913   7.5204   7.5371   7.5467   7.6776   7.7305   7.7787
  7.8040   7.8409   7.8698   7.8812   7.9035   8.0587   8.1573  24.8317
 25.1495  50.4240  50.5167  50.5844  50.6126  50.6293  50.7438
 --------------------------------------------------------------
 
          Ground-State Mulliken Net Atomic Charges

     Atom                 Charge (a.u.)    Spin (a.u.)
  --------------------------------------------------------
      1 C                     0.334087       0.014239
      2 O                    -0.440415      -0.001554
      3 H                     0.372950      -0.000054
      4 C                     0.307220      -0.005252
      5 O                    -0.390290      -0.000053
      6 O                    -0.396249       0.001647
      7 O                    -0.276597       0.000200
      8 H                     0.337407      -0.000115
      9 O                    -0.008010       0.289017
     10 O                    -0.193210       0.702277
     11 H                     0.353108      -0.000352
  --------------------------------------------------------
  Sum of atomic charges =     0.000000
  Sum of spin   charges =     1.000000

 -----------------------------------------------------------------
                    Cartesian Multipole Moments
 -----------------------------------------------------------------
    Charge (ESU x 10^10)
                 0.0000
    Dipole Moment (Debye)
         X      -7.3408      Y       1.6621      Z      -3.6284
       Tot       8.3555
    Quadrupole Moments (Debye-Ang)
        XX     -34.7686     XY       3.4511     YY     -44.8421
        XZ       1.3319     YZ      -1.1993     ZZ     -53.2289
    Octopole Moments (Debye-Ang^2)
       XXX       6.2145    XXY     -13.2454    XYY      12.4124
       YYY     -12.5947    XXZ     -39.6558    XYZ       3.4042
       YYZ     -37.2513    XZZ      30.5270    YZZ     -10.9707
       ZZZ    -109.7204
    Hexadecapole Moments (Debye-Ang^3)
      XXXX    -315.8471   XXXY      12.9301   XXYY    -103.0120
      XYYY      13.2868   YYYY    -245.2472   XXXZ      71.4454
      XXYZ      -8.2133   XYYZ      24.6352   YYYZ     -31.5273
      XXZZ    -152.5892   XYZZ       9.0458   YYZZ    -115.6235
      XZZZ      89.9882   YZZZ     -40.6593   ZZZZ    -425.6006
 -----------------------------------------------------------------
 Calculating analytic gradient of the SCF energy
 Gradient of CDS energy
            1           2           3           4           5           6
    1   0.0026518  -0.0008159  -0.0003710  -0.0026533   0.0007531   0.0017640
    2   0.0021148   0.0008404   0.0002470  -0.0016562   0.0042605  -0.0027204
    3  -0.0005739  -0.0003698  -0.0001137  -0.0033454   0.0015263   0.0019973
            7           8           9          10          11
    1  -0.0009334  -0.0000349   0.0000418  -0.0001403  -0.0002619
    2  -0.0031170   0.0003304   0.0001027  -0.0000437  -0.0003586
    3   0.0009924  -0.0001421   0.0000387   0.0000744  -0.0000842
 Gradient of SCF Energy
            1           2           3           4           5           6
    1   0.0059058  -0.0050597  -0.0270985  -0.0015078   0.0268426   0.0229537
    2  -0.0087401   0.0073549  -0.0030469   0.0025905  -0.0003289   0.0016883
    3  -0.0099667   0.0010989   0.0001123   0.0029182   0.0026294  -0.0027374
            7           8           9          10          11
    1   0.0099958  -0.0083822   0.0013194  -0.0006163  -0.0243528
    2  -0.0082812   0.0088027   0.0020307  -0.0009202  -0.0011498
    3   0.0086327  -0.0045090   0.0036098   0.0014089  -0.0031969
 Max gradient component =       2.710E-02
 RMS gradient           =       1.008E-02
 Computing fast CPCM-SWIG gradient
 Updating gradient with PCM contributions...
 -- total gradient after adding PCM contribution --
---------------------------------------------------
  Atom         X              Y              Z     
---------------------------------------------------
   1       0.004167      -0.006637      -0.010825
   2      -0.003279       0.005907       0.002561
   3       0.003002       0.000669      -0.000038
   4       0.000132       0.000528       0.004409
   5      -0.003037       0.001811       0.000080
   6      -0.003100      -0.001988      -0.000720
   7      -0.002649       0.000423       0.003406
   8       0.002345      -0.000860       0.001007
   9       0.000054       0.001918      -0.000036
  10      -0.000599      -0.001963      -0.000044
  11       0.002963       0.000191       0.000201
---------------------------------------------------
 Number of fixed atoms: 0
 Gradient time:  CPU 112.23 s  wall 16.23 s
 Geometry Optimization Parameters
   NAtoms,    NIC,     NZ,  NCons,   NDum,   NFix, NCnnct, MaxDiis
       11      62       0       0       0       0       0       0

 Cartesian Hessian Update
 Hessian updated using BFGS update


** GEOMETRY OPTIMIZATION IN DELOCALIZED INTERNAL COORDINATES **
   Searching for a Minimum

   Optimization Cycle:   3

                       Coordinates (Angstroms)
     ATOM                X               Y               Z
      1  C         0.5428742109    0.1553939162    0.3934522133
      2  O         1.3178662408   -0.6699374239    0.7875446939
      3  H        -2.5773998785    0.7854472848   -0.2034016274
      4  C        -0.9790624853   -0.1076798723    0.4124710202
      5  O        -1.2058490376   -1.3822025331   -0.0005497846
      6  O        -1.6188939636    0.8823436827   -0.2702195214
      7  O         0.9194948726    1.3722980651    0.0477100132
      8  H         0.1609274885    1.9110578509   -0.2218561083
      9  O        -1.4069278367   -0.0937438176    1.8361814644
     10  O        -1.1840941689    1.0542472605    2.4024991318
     11  H        -2.1553118418   -1.5465409132   -0.0631429948
   Point Group: c1    Number of degrees of freedom:    27


   Energy is   -529.310159855

 Hessian updated using BFGS update

 27 Hessian modes will be used to form the next step
  Hessian Eigenvalues:
     0.002937    0.004138    0.019003    0.020350    0.024874    0.046547
     0.082050    0.097994    0.107328    0.155953    0.160017    0.160454
     0.193084    0.198379    0.245732    0.250281    0.265701    0.285546
     0.337532    0.466732    0.516667    0.520719    0.521470    0.524426
     0.581871    0.616184    1.011399

 Minimum search - taking simple RFO step
 Searching for Lamda that Minimizes Along All modes
 Value Taken    Lamda =  -0.00098393
 Step Taken.  Stepsize is  0.136459

                             Maximum     Tolerance    Cnvgd?
         Gradient           0.004286      0.000300      NO
         Displacement       0.084909      0.001200      NO
         Energy change      0.000343      0.000001      NO


 New Cartesian Coordinates Obtained by Inverse Iteration

 Displacement from previous Coordinates is:  0.108597
 ----------------------------------------------------------------
             Standard Nuclear Orientation (Angstroms)
    I     Atom           X                Y                Z
 ----------------------------------------------------------------
    1      C       0.5399053983     0.1639345232     0.4219949731
    2      O       1.3185528392    -0.6753501256     0.7839339967
    3      H      -2.5725183307     0.7918433974    -0.2036955752
    4      C      -0.9797865162    -0.1051546615     0.4212867522
    5      O      -1.1964860016    -1.3792037670    -0.0023408658
    6      O      -1.6114365319     0.8930600711    -0.2579965293
    7      O       0.9159414702     1.3670172508     0.0264100049
    8      H       0.1504830441     1.8988721022    -0.2444766920
    9      O      -1.4183421604    -0.0984230889     1.8417833588
   10      O      -1.1854450548     1.0478866810     2.4101228719
   11      H      -2.1472445559    -1.5437988827    -0.0763337952
 ----------------------------------------------------------------
 Nuclear Repulsion Energy =         417.97120017 hartrees
 There are       32 alpha and       31 beta electrons
 Discretize the solute cavity surface with Lebedev spheres
	Using 110 Lebedev grid points for each H atom
	Using 194 Lebedev grid points for other atoms
	Atomic van der Waals radii will be scaled by 1.20
 Remove points where switching function is < 1.0e-08
 Keep 1009 surface tesserae and discard 873 interior tesserae
 Molecular Surface Area = 117.714 Angst**2
 Applying Cartesian multipole field
    Component          Value
    ---------          -----
     (2,0,0)        1.00000E-11
     (0,2,0)        2.00000E-11
     (0,0,2)       -3.00000E-11
 Nucleus-field energy     =    -0.0000000012 hartrees
 Requested basis set is 6-311++G(2df,2p)
 There are 82 shells and 302 basis functions
 A cutoff of  1.0D-12 yielded   3160 shell pairs
 There are     43579 function pairs (     55846 Cartesian)
 Smallest overlap matrix eigenvalue = 5.50E-05
 Guess MOs from SCF MO coefficient file

 -----------------------------------------------------------------------
  General SCF calculation program by
  Eric Jon Sundstrom, Paul Horn, Yuezhi Mao, Dmitri Zuev, Alec White,
  David Stuck, Shaama M.S., Shane Yost, Joonho Lee, David Small,
  Daniel Levine, Susi Lehtola, Hugh Burton, Evgeny Epifanovsky,
  Bang C. Huynh
 -----------------------------------------------------------------------
 Exchange:     0.1500 Hartree-Fock + 1.0000 wB97M-V + LR-HF
 Correlation:  1.0000 wB97M-V
 Using SG-2 standard quadrature grid
 Nonlocal Correlation:  VV10 with C = 0.0100 and b = 6.00 and scale = 1.00000
 Grid used for NLC:  SG-1 standard quadrature
 
 Citation of the SMD model:
 Marenich, A.V.; Cramer, C.J.; Truhlar, D.G.
 J. Phys. Chem. B 2009, 113, 6378-6396.
 iSolventCode=           1
 Solvent: water                                                           
 
 vradii
            1           2           3           4           5           6
    1   1.8500000   1.5200000   1.2000000   1.8500000   1.5200000   1.5200000
            7           8           9          10          11
    1   1.5200000   1.2000000   1.5200000   1.5200000   1.2000000
 -------------------------------------------------------
 OpenMP BLAS3 based DFT computing Module                
 Release: version 1.0, May 2013, Q-Chem Inc. Pittsburgh 
 -------------------------------------------------------
 A unrestricted SCF calculation will be
 performed using Roothaan-Hall, DIIS, GDM
 SCF converges when RMS gradient is below 1.0e-07
 ---------------------------------------
  Cycle       Energy         DIIS error
 ---------------------------------------
    1    -529.2660786765      3.90e-04  Roothaan Step
 ---------------------------------------
  Cycle       Energy         DIIS error
 ---------------------------------------
    1    -529.3056113008      4.24e-04  
    2    -529.3123068908      4.11e-04  Done DIIS. Switching to GDM
 ---------------------------------------
  Cycle       Energy        RMS Gradient
 ---------------------------------------
    1    -529.3123068908      2.11e-02   Normal BFGS step
    2    -529.3099042745      3.64e-02  Line search: overstep
    3    -529.3171417615      4.03e-03   Normal BFGS step
    4    -529.3174018418      1.26e-03   Normal BFGS step
    5    -529.3174417445      1.80e-03   Normal BFGS step
    6    -529.3174565151      2.97e-04   Normal BFGS step
    7    -529.3174579603      3.77e-04   Normal BFGS step
    8    -529.3174586197      2.46e-04   Normal BFGS step
    9    -529.3174588461      2.12e-04   Normal BFGS step
   10    -529.3174590009      1.67e-04   Normal BFGS step
   11    -529.3174590952      1.11e-04   Normal BFGS step
   12    -529.3174591483      6.86e-05   Normal BFGS step
   13    -529.3174591876      3.93e-05   Normal BFGS step
   14    -529.3174591987      1.50e-05   Normal BFGS step
   15    -529.3174592010      7.69e-06   Normal BFGS step
   16    -529.3174592016      2.87e-06   Normal BFGS step
   17    -529.3174592017      8.49e-07   Normal BFGS step
   18    -529.3174592017      3.88e-07   Normal BFGS step
   19    -529.3174592017      1.32e-07   Normal BFGS step
   20    -529.3174592017      6.84e-08  Convergence criterion met
 ---------------------------------------
 SCF time:   CPU 817.69s  wall 103.00s 
<S^2> =          0.753858539
(3)  G-ENP(liq) elect-nuc-pol free energy of system     -529.317459202 a.u.
(4)  G-CDS(liq) cavity-dispersion-solvent structure 
     free energy                                                4.2563 kcal/mol
(6)  G-S(liq) free energy of system                     -529.310676392 a.u.
 SCF   energy in the final basis set =     -529.3106763923
 Total energy in the final basis set =     -529.3106763923
 
 --------------------------------------------------------------
 
                    Orbital Energies (a.u.)
 --------------------------------------------------------------
 
 Alpha MOs
 -- Occupied --
-19.4740 -19.4327 -19.4002 -19.3852 -19.3806 -19.3508 -10.5449 -10.5104
 -1.3661  -1.2743  -1.2450  -1.1947  -1.1745  -1.0126  -0.8610  -0.7564
 -0.7160  -0.7116  -0.6916  -0.6274  -0.6177  -0.6001  -0.5774  -0.5699
 -0.5345  -0.5104  -0.4946  -0.4559  -0.4503  -0.4296  -0.4144  -0.4036
 -- Virtual --
  0.0290   0.0465   0.0547   0.0584   0.0783   0.0858   0.1037   0.1072
  0.1231   0.1297   0.1407   0.1602   0.1815   0.1957   0.2073   0.2264
  0.2346   0.2437   0.2473   0.2555   0.2614   0.2715   0.2820   0.2903
  0.3009   0.3109   0.3184   0.3251   0.3291   0.3316   0.3409   0.3477
  0.3498   0.3555   0.3664   0.3735   0.3836   0.3980   0.4083   0.4158
  0.4278   0.4562   0.4795   0.4858   0.5006   0.5695   0.5777   0.5927
  0.6242   0.6626   0.6733   0.6890   0.7003   0.7361   0.7768   0.8010
  0.8199   0.8428   0.8544   0.9107   0.9143   0.9388   0.9652   0.9798
  1.0449   1.0473   1.0747   1.0852   1.0971   1.1118   1.1183   1.1320
  1.1418   1.1591   1.1707   1.1843   1.1958   1.2026   1.2222   1.2314
  1.2391   1.2454   1.2597   1.2764   1.2972   1.3240   1.4059   1.4198
  1.4472   1.4868   1.5147   1.5279   1.5382   1.5671   1.5805   1.6020
  1.6139   1.6360   1.6763   1.6849   1.6992   1.7427   1.7716   1.8230
  1.8560   1.8635   1.8729   1.9248   1.9606   2.0111   2.0299   2.0778
  2.0848   2.1214   2.1911   2.2308   2.2540   2.2963   2.3382   2.3501
  2.3943   2.3995   2.4422   2.5063   2.5103   2.5435   2.5900   2.6182
  2.6617   2.7691   2.8069   2.8461   2.8973   2.9182   2.9419   3.0231
  3.1302   3.1813   3.1988   3.2736   3.3177   3.3553   3.3746   3.3982
  3.4208   3.4777   3.5446   3.5645   3.5909   3.6078   3.6415   3.6772
  3.7129   3.7174   3.7556   3.7834   3.8158   3.8419   3.8566   3.8932
  3.9410   4.0428   4.0512   4.1267   4.1942   4.2231   4.2468   4.2795
  4.3414   4.3962   4.4242   4.5718   4.6975   4.7304   4.8106   4.8378
  4.9543   5.0496   5.0662   5.0702   5.1147   5.1262   5.1337   5.1589
  5.1670   5.1789   5.1997   5.2081   5.2196   5.2308   5.2434   5.2713
  5.2774   5.3038   5.3191   5.3240   5.3386   5.3796   5.4074   5.4407
  5.4643   5.4870   5.5500   5.5541   5.5666   5.5867   5.6038   5.6496
  5.6638   5.6880   5.7178   5.7318   5.7645   5.8315   6.0041   6.0335
  6.1022   6.1881   6.2346   6.3950   6.4413   6.4747   6.5920   6.5962
  6.7253   6.8349   6.8581   6.8797   6.9225   6.9378   6.9945   7.0280
  7.0558   7.0667   7.0763   7.1251   7.1375   7.1834   7.2214   7.2435
  7.2588   7.2706   7.2847   7.3255   7.3639   7.3903   7.4136   7.4459
  7.4705   7.5171   7.5294   7.5499   7.6721   7.7245   7.7736   7.8029
  7.8352   7.8671   7.8775   7.9032   8.0471   8.1378  24.8282  25.1415
 50.4094  50.5081  50.5798  50.6094  50.6314  50.7424
 
 Beta MOs
 -- Occupied --
-19.4643 -19.4132 -19.4001 -19.3850 -19.3807 -19.3509 -10.5453 -10.5102
 -1.3430  -1.2719  -1.2428  -1.1946  -1.1744  -0.9781  -0.8558  -0.7559
 -0.7142  -0.6981  -0.6864  -0.6032  -0.6004  -0.5846  -0.5709  -0.5498
 -0.5324  -0.4993  -0.4886  -0.4544  -0.4497  -0.4218  -0.3917
 -- Virtual --
 -0.0424   0.0292   0.0467   0.0556   0.0590   0.0787   0.0860   0.1040
  0.1078   0.1241   0.1318   0.1409   0.1614   0.1844   0.1970   0.2119
  0.2276   0.2360   0.2460   0.2493   0.2584   0.2684   0.2768   0.2835
  0.2907   0.3030   0.3119   0.3194   0.3257   0.3308   0.3323   0.3414
  0.3488   0.3499   0.3565   0.3671   0.3743   0.3846   0.3997   0.4096
  0.4175   0.4292   0.4562   0.4796   0.4866   0.5014   0.5702   0.5785
  0.5927   0.6245   0.6628   0.6732   0.6903   0.7012   0.7380   0.7770
  0.8017   0.8203   0.8433   0.8551   0.9119   0.9150   0.9397   0.9657
  0.9815   1.0470   1.0506   1.0802   1.0905   1.1005   1.1192   1.1214
  1.1344   1.1477   1.1668   1.1736   1.1883   1.2002   1.2087   1.2287
  1.2355   1.2412   1.2494   1.2680   1.2818   1.3009   1.3269   1.4079
  1.4223   1.4529   1.4968   1.5166   1.5292   1.5457   1.5749   1.5878
  1.6123   1.6286   1.6391   1.6815   1.6988   1.7010   1.7476   1.7783
  1.8302   1.8574   1.8694   1.8784   1.9286   1.9621   2.0150   2.0346
  2.0808   2.0905   2.1286   2.1980   2.2344   2.2606   2.3025   2.3474
  2.3519   2.3965   2.4006   2.4449   2.5101   2.5121   2.5440   2.5922
  2.6246   2.6626   2.7722   2.8080   2.8479   2.8977   2.9189   2.9437
  3.0237   3.1305   3.1818   3.1996   3.2740   3.3178   3.3560   3.3752
  3.3985   3.4214   3.4786   3.5452   3.5645   3.5918   3.6082   3.6416
  3.6770   3.7134   3.7192   3.7562   3.7834   3.8161   3.8420   3.8568
  3.8938   3.9413   4.0432   4.0515   4.1271   4.1944   4.2234   4.2483
  4.2797   4.3417   4.3968   4.4247   4.6068   4.7149   4.7357   4.8327
  4.8496   4.9713   5.1089   5.1130   5.1167   5.1233   5.1376   5.1603
  5.1646   5.1811   5.1919   5.2092   5.2247   5.2367   5.2482   5.2645
  5.2731   5.2859   5.3121   5.3243   5.3343   5.3505   5.3891   5.4120
  5.4443   5.4650   5.5029   5.5529   5.5573   5.5674   5.5921   5.6069
  5.6511   5.6673   5.6902   5.7274   5.7443   5.7667   5.8393   6.0072
  6.0353   6.1034   6.1918   6.2400   6.3975   6.4431   6.5195   6.6022
  6.6040   6.7320   6.8588   6.9179   6.9300   6.9510   6.9828   6.9991
  7.0328   7.0668   7.0795   7.0863   7.1411   7.1500   7.1915   7.2356
  7.2461   7.2711   7.2813   7.2886   7.3266   7.3708   7.3982   7.4319
  7.4634   7.4890   7.5201   7.5357   7.5535   7.6745   7.7288   7.7768
  7.8046   7.8397   7.8688   7.8805   7.9056   8.0587   8.1547  24.8280
 25.1416  50.4222  50.5162  50.5809  50.6096  50.6316  50.7426
 --------------------------------------------------------------
 
          Ground-State Mulliken Net Atomic Charges

     Atom                 Charge (a.u.)    Spin (a.u.)
  --------------------------------------------------------
      1 C                     0.328377       0.014310
      2 O                    -0.440713      -0.001870
      3 H                     0.373052      -0.000043
      4 C                     0.311755      -0.005309
      5 O                    -0.389152      -0.000091
      6 O                    -0.395998       0.001754
      7 O                    -0.277976       0.000318
      8 H                     0.338460      -0.000092
      9 O                    -0.008143       0.289489
     10 O                    -0.192736       0.701887
     11 H                     0.353075      -0.000352
  --------------------------------------------------------
  Sum of atomic charges =     0.000000
  Sum of spin   charges =     1.000000

 -----------------------------------------------------------------
                    Cartesian Multipole Moments
 -----------------------------------------------------------------
    Charge (ESU x 10^10)
                 0.0000
    Dipole Moment (Debye)
         X      -7.3963      Y       1.6679      Z      -3.6184
       Tot       8.4012
    Quadrupole Moments (Debye-Ang)
        XX     -34.8045     XY       3.4402     YY     -44.8899
        XZ       1.5884     YZ      -1.1791     ZZ     -53.1849
    Octopole Moments (Debye-Ang^2)
       XXX       6.4415    XXY     -13.0745    XYY      12.3090
       YYY     -12.9593    XXZ     -40.0814    XYZ       3.4426
       YYZ     -37.6004    XZZ      30.6320    YZZ     -10.8788
       ZZZ    -110.3984
    Hexadecapole Moments (Debye-Ang^3)
      XXXX    -316.2952   XXXY      13.1189   XXYY    -102.8330
      XYYY      13.6057   YYYY    -245.6059   XXXZ      73.5871
      XXYZ      -7.7920   XYYZ      25.3180   YYYZ     -31.1105
      XXZZ    -153.0137   XYZZ       9.3145   YYZZ    -115.7726
      XZZZ      91.7504   YZZZ     -40.1972   ZZZZ    -428.6391
 -----------------------------------------------------------------
 Calculating analytic gradient of the SCF energy
 Gradient of CDS energy
            1           2           3           4           5           6
    1   0.0026876  -0.0008350  -0.0003703  -0.0025866   0.0007266   0.0017338
    2   0.0021169   0.0008655   0.0002485  -0.0016888   0.0042988  -0.0027273
    3  -0.0007112  -0.0003543  -0.0001151  -0.0033773   0.0015766   0.0019795
            7           8           9          10          11
    1  -0.0009514  -0.0000365   0.0000402  -0.0001484  -0.0002600
    2  -0.0031422   0.0003293   0.0001022  -0.0000425  -0.0003603
    3   0.0011239  -0.0001446   0.0000406   0.0000723  -0.0000904
 Gradient of SCF Energy
            1           2           3           4           5           6
    1   0.0028580  -0.0030015  -0.0293004  -0.0025154   0.0296019   0.0263805
    2  -0.0038902   0.0027053  -0.0036225   0.0017290  -0.0020951   0.0039273
    3   0.0010155  -0.0016850   0.0002315  -0.0013273   0.0029425  -0.0022596
            7           8           9          10          11
    1   0.0107317  -0.0098377   0.0019266  -0.0004226  -0.0264211
    2  -0.0081364   0.0093173   0.0012345   0.0000437  -0.0012128
    3   0.0053588  -0.0055502   0.0035735   0.0011301  -0.0034301
 Max gradient component =       2.960E-02
 RMS gradient           =       1.057E-02
 Computing fast CPCM-SWIG gradient
 Updating gradient with PCM contributions...
 -- total gradient after adding PCM contribution --
---------------------------------------------------
  Atom         X              Y              Z     
---------------------------------------------------
   1       0.000967      -0.001572       0.000383
   2      -0.001088       0.000936      -0.000585
   3       0.000999       0.000246       0.000399
   4      -0.000598      -0.000326       0.000318
   5      -0.000552       0.000150       0.000174
   6      -0.000165       0.000045      -0.000744
   7      -0.001918       0.000497       0.000174
   8       0.000997      -0.000177       0.000024
   9       0.000688       0.001141      -0.000146
  10      -0.000377      -0.001053      -0.000260
  11       0.001047       0.000113       0.000263
---------------------------------------------------
 Number of fixed atoms: 0
 Gradient time:  CPU 112.03 s  wall 16.30 s
 Geometry Optimization Parameters
   NAtoms,    NIC,     NZ,  NCons,   NDum,   NFix, NCnnct, MaxDiis
       11      62       0       0       0       0       0       0

 Cartesian Hessian Update
 Hessian updated using BFGS update


** GEOMETRY OPTIMIZATION IN DELOCALIZED INTERNAL COORDINATES **
   Searching for a Minimum

   Optimization Cycle:   4

                       Coordinates (Angstroms)
     ATOM                X               Y               Z
      1  C         0.5399053983    0.1639345232    0.4219949731
      2  O         1.3185528392   -0.6753501256    0.7839339967
      3  H        -2.5725183307    0.7918433974   -0.2036955752
      4  C        -0.9797865162   -0.1051546615    0.4212867522
      5  O        -1.1964860016   -1.3792037670   -0.0023408658
      6  O        -1.6114365319    0.8930600711   -0.2579965293
      7  O         0.9159414702    1.3670172508    0.0264100049
      8  H         0.1504830441    1.8988721022   -0.2444766920
      9  O        -1.4183421604   -0.0984230889    1.8417833588
     10  O        -1.1854450548    1.0478866810    2.4101228719
     11  H        -2.1472445559   -1.5437988827   -0.0763337952
   Point Group: c1    Number of degrees of freedom:    27


   Energy is   -529.310676392

 Hessian updated using BFGS update

 27 Hessian modes will be used to form the next step
  Hessian Eigenvalues:
     0.002876    0.004141    0.018847    0.020346    0.024717    0.048139
     0.081899    0.098071    0.109657    0.154129    0.160029    0.160630
     0.192949    0.198065    0.245839    0.249812    0.266380    0.289130
     0.337813    0.454012    0.514983    0.518288    0.520935    0.522032
     0.581884    0.616998    0.999224

 Minimum search - taking simple RFO step
 Searching for Lamda that Minimizes Along All modes
 Value Taken    Lamda =  -0.00010323
 Step Taken.  Stepsize is  0.129155

                             Maximum     Tolerance    Cnvgd?
[...]
  7.8321   7.8641   7.8890   7.9059   8.0411   8.1324  24.8275  25.1407
 50.4037  50.5139  50.5717  50.6026  50.6383  50.7500
 
 Beta MOs
 -- Occupied --
-19.4634 -19.4133 -19.4008 -19.3851 -19.3815 -19.3506 -10.5458 -10.5108
 -1.3423  -1.2717  -1.2430  -1.1933  -1.1746  -0.9777  -0.8563  -0.7554
 -0.7166  -0.6977  -0.6845  -0.6027  -0.5989  -0.5836  -0.5742  -0.5514
 -0.5306  -0.4980  -0.4893  -0.4529  -0.4498  -0.4222  -0.3928
 -- Virtual --
 -0.0425   0.0287   0.0470   0.0552   0.0602   0.0769   0.0877   0.1023
  0.1060   0.1223   0.1325   0.1422   0.1605   0.1874   0.1943   0.2085
  0.2327   0.2363   0.2450   0.2472   0.2536   0.2717   0.2747   0.2872
  0.2900   0.2999   0.3087   0.3228   0.3268   0.3317   0.3374   0.3420
  0.3456   0.3487   0.3552   0.3695   0.3746   0.3900   0.3985   0.4144
  0.4250   0.4285   0.4586   0.4673   0.4992   0.5043   0.5638   0.5794
  0.5954   0.6196   0.6478   0.6696   0.6844   0.7197   0.7506   0.7749
  0.7982   0.8302   0.8330   0.8503   0.8788   0.9125   0.9446   0.9750
  0.9877   1.0483   1.0669   1.0837   1.0888   1.0995   1.1147   1.1290
  1.1319   1.1448   1.1596   1.1800   1.1894   1.1942   1.2133   1.2274
  1.2339   1.2438   1.2483   1.2665   1.2920   1.3161   1.3326   1.4000
  1.4275   1.4611   1.4988   1.5027   1.5149   1.5387   1.5592   1.5743
  1.6190   1.6294   1.6478   1.6838   1.6928   1.7119   1.7456   1.7938
  1.8257   1.8492   1.8723   1.8949   1.9141   1.9737   2.0113   2.0254
  2.0789   2.1077   2.1310   2.2095   2.2336   2.2488   2.2986   2.3434
  2.3623   2.3888   2.4169   2.4399   2.4831   2.5232   2.5421   2.5971
  2.6345   2.6609   2.7733   2.8128   2.8467   2.8857   2.9352   2.9790
  3.0215   3.1295   3.1796   3.1996   3.2856   3.2956   3.3446   3.3892
  3.3965   3.4192   3.4779   3.5418   3.5752   3.5911   3.6205   3.6412
  3.6785   3.7138   3.7267   3.7409   3.7779   3.8118   3.8363   3.8516
  3.8944   3.9392   4.0419   4.0534   4.1183   4.1733   4.2312   4.2633
  4.2810   4.3478   4.3853   4.4412   4.6058   4.7157   4.7381   4.8372
  4.8455   4.9777   5.1029   5.1146   5.1198   5.1246   5.1420   5.1600
  5.1652   5.1755   5.2006   5.2077   5.2181   5.2366   5.2495   5.2614
  5.2708   5.2810   5.3138   5.3268   5.3480   5.3548   5.3976   5.4055
  5.4416   5.4678   5.4916   5.5504   5.5607   5.5676   5.5800   5.6240
  5.6492   5.6601   5.6949   5.7286   5.7353   5.7456   5.8421   6.0098
  6.0397   6.0855   6.1970   6.2360   6.3974   6.4484   6.5127   6.5916
  6.6084   6.7301   6.8529   6.9196   6.9307   6.9423   6.9860   7.0042
  7.0313   7.0485   7.0804   7.0865   7.1266   7.1487   7.2005   7.2251
  7.2475   7.2610   7.2873   7.2961   7.3205   7.3695   7.3956   7.4307
  7.4651   7.4859   7.5196   7.5376   7.5461   7.6832   7.7356   7.7752
  7.7959   7.8370   7.8663   7.8911   7.9081   8.0528   8.1496  24.8273
 25.1408  50.4166  50.5223  50.5720  50.6027  50.6388  50.7503
 --------------------------------------------------------------
 
          Ground-State Mulliken Net Atomic Charges

     Atom                 Charge (a.u.)    Spin (a.u.)
  --------------------------------------------------------
      1 C                     0.288493       0.012867
      2 O                    -0.439542      -0.002339
      3 H                     0.368492       0.000265
      4 C                     0.344626      -0.004367
      5 O                    -0.380251      -0.000006
      6 O                    -0.400557       0.001816
      7 O                    -0.269766       0.000758
      8 H                     0.342111      -0.000074
      9 O                    -0.011554       0.290180
     10 O                    -0.193376       0.701191
     11 H                     0.351323      -0.000291
  --------------------------------------------------------
  Sum of atomic charges =     0.000000
  Sum of spin   charges =     1.000000

 -----------------------------------------------------------------
                    Cartesian Multipole Moments
 -----------------------------------------------------------------
    Charge (ESU x 10^10)
                 0.0000
    Dipole Moment (Debye)
         X      -7.4054      Y       1.4156      Z      -4.6164
       Tot       8.8406
    Quadrupole Moments (Debye-Ang)
        XX     -34.6217     XY       3.2251     YY     -44.8775
        XZ       2.0385     YZ      -1.2904     ZZ     -54.0485
    Octopole Moments (Debye-Ang^2)
       XXX       6.8425    XXY     -13.8061    XYY      13.8524
       YYY     -15.6538    XXZ     -44.1456    XYZ       3.2212
       YYZ     -40.0617    XZZ      29.2091    YZZ      -9.5114
       ZZZ    -119.2663
    Hexadecapole Moments (Debye-Ang^3)
      XXXX    -311.8604   XXXY       8.1020   XXYY    -100.4691
      XYYY       9.1373   YYYY    -231.2949   XXXZ      77.0317
      XXYZ      -3.9815   XYYZ      25.8049   YYYZ     -25.8797
      XXZZ    -158.6319   XYZZ       7.4015   YYZZ    -115.7143
      XZZZ      91.0071   YZZZ     -33.0825   ZZZZ    -473.1132
 -----------------------------------------------------------------
 Calculating analytic gradient of the SCF energy
 Gradient of CDS energy
            1           2           3           4           5           6
    1   0.0027353  -0.0008378  -0.0003661  -0.0025661   0.0006795   0.0017605
    2   0.0020568   0.0008048   0.0002459  -0.0016428   0.0043351  -0.0027988
    3  -0.0010321  -0.0004927  -0.0001194  -0.0035513   0.0019425   0.0018166
            7           8           9          10          11
    1  -0.0009994  -0.0000465   0.0000613  -0.0001746  -0.0002459
    2  -0.0029841   0.0003041   0.0000959  -0.0000508  -0.0003659
    3   0.0016040  -0.0001768   0.0000534   0.0000683  -0.0001126
 Gradient of SCF Energy
            1           2           3           4           5           6
    1   0.0030120  -0.0021841  -0.0305330  -0.0024894   0.0306138   0.0263069
    2  -0.0029932   0.0022776  -0.0059296   0.0017874  -0.0018470   0.0064894
    3   0.0010928  -0.0017324  -0.0044742  -0.0020620   0.0041696   0.0041713
            7           8           9          10          11
    1   0.0130758  -0.0110286   0.0013593   0.0000972  -0.0282299
    2  -0.0080505   0.0091021   0.0003119   0.0006068  -0.0017549
    3   0.0072139  -0.0077742   0.0042624   0.0004865  -0.0053538
 Max gradient component =       3.061E-02
 RMS gradient           =       1.121E-02
 Computing fast CPCM-SWIG gradient
 Updating gradient with PCM contributions...
 -- total gradient after adding PCM contribution --
---------------------------------------------------
  Atom         X              Y              Z     
---------------------------------------------------
   1       0.000020       0.000047       0.000016
   2       0.000005      -0.000013      -0.000013
   3      -0.000040      -0.000018      -0.000032
   4      -0.000042      -0.000018       0.000104
   5       0.000008      -0.000057       0.000087
   6      -0.000005      -0.000017       0.000001
   7       0.000099       0.000032       0.000016
   8      -0.000055      -0.000040      -0.000085
   9       0.000053       0.000079      -0.000054
  10      -0.000016       0.000008      -0.000022
  11      -0.000027      -0.000004      -0.000017
---------------------------------------------------
 Number of fixed atoms: 0
 Gradient time:  CPU 96.94 s  wall 14.23 s
 Geometry Optimization Parameters
   NAtoms,    NIC,     NZ,  NCons,   NDum,   NFix, NCnnct, MaxDiis
       11      62       0       0       0       0       0       0

 Cartesian Hessian Update
 Hessian updated using BFGS update


** GEOMETRY OPTIMIZATION IN DELOCALIZED INTERNAL COORDINATES **
   Searching for a Minimum

   Optimization Cycle:  12

                       Coordinates (Angstroms)
     ATOM                X               Y               Z
      1  C         0.5259361465    0.2043921395    0.4740676009
      2  O         1.2874533448   -0.5711169147    0.9869908096
      3  H        -2.5875831013    0.7760436896   -0.2342908893
      4  C        -0.9933530291   -0.0778802264    0.4538855820
      5  O        -1.1924198531   -1.3245821325   -0.0584423260
      6  O        -1.6382660789    0.9534424243   -0.1592693111
      7  O         0.9252740252    1.3236119123   -0.1025326688
      8  H         0.1686586019    1.8175050908   -0.4603742573
      9  O        -1.4339563021   -0.1633635542    1.8680049276
     10  O        -1.1076507085    0.9154251556    2.5200574009
     11  H        -2.1404694451   -1.4927940843   -0.1674083686
   Point Group: c1    Number of degrees of freedom:    27


   Energy is   -529.310902354

 Hessian updated using BFGS update

 27 Hessian modes will be used to form the next step
  Hessian Eigenvalues:
     0.001265    0.002164    0.004828    0.009483    0.025641    0.050946
     0.082396    0.109821    0.123952    0.159430    0.161672    0.175175
     0.193869    0.199016    0.256199    0.260434    0.274505    0.305931
     0.365267    0.463667    0.515836    0.520891    0.527659    0.531494
     0.587671    0.625431    1.011498

 Minimum search - taking simple RFO step
 Searching for Lamda that Minimizes Along All modes
 Value Taken    Lamda =  -0.00000074
 Step Taken.  Stepsize is  0.013339

                             Maximum     Tolerance    Cnvgd?
         Gradient           0.000069      0.000300     YES
         Displacement       0.006348      0.001200      NO
         Energy change     -0.000001      0.000001     YES


                       Distance Matrix (Angstroms)
             C (  1)   O (  2)   H (  3)   C (  4)   O (  5)   O (  6)
   O (  2)  1.201837
   H (  3)  3.243849  4.280453
   C (  4)  1.545421  2.393650  1.935030
   O (  5)  2.360948  2.794711  2.527851  1.362488
   O (  6)  2.376124  3.492567  0.968660  1.362167  2.323433
   O (  7)  1.320830  2.215453  3.557718  2.440269  3.391092  2.590749
   H (  8)  1.898147  3.008668  2.955101  2.403878  3.447723  2.025400
   O (  9)  2.432999  2.889380  2.575459  1.483635  2.262293  2.323540
   O ( 10)  2.712978  3.208835  3.129866  2.295384  3.416647  2.731628
   H ( 11)  3.225159  3.732664  2.313441  1.924542  0.969003  2.497268
             O (  7)   H (  8)   O (  9)   O ( 10)
   H (  8)  0.971827
   O (  9)  3.414686  3.451603
   O ( 10)  3.343259  3.365366  1.302088
   H ( 11)  4.163548  4.046725  2.531690  3.753493
 
 Final energy is   -529.310902354419     


 ******************************
 **  OPTIMIZATION CONVERGED  **
 ******************************

                       Coordinates (Angstroms)
     ATOM                X               Y               Z
      1  C         0.5259361465    0.2043921395    0.4740676009
      2  O         1.2874533448   -0.5711169147    0.9869908096
      3  H        -2.5875831013    0.7760436896   -0.2342908893
      4  C        -0.9933530291   -0.0778802264    0.4538855820
      5  O        -1.1924198531   -1.3245821325   -0.0584423260
      6  O        -1.6382660789    0.9534424243   -0.1592693111
      7  O         0.9252740252    1.3236119123   -0.1025326688
      8  H         0.1686586019    1.8175050908   -0.4603742573
      9  O        -1.4339563021   -0.1633635542    1.8680049276
     10  O        -1.1076507085    0.9154251556    2.5200574009
     11  H        -2.1404694451   -1.4927940843   -0.1674083686

Z-matrix Print:
$molecule
0 2
O 
O  1 1.302088
C  1 1.483635 2 110.802745
O  3 1.362167 1 109.394007 2 -62.938958 0
H  4 0.968660 3 111.112305 1 -66.747624 0
O  3 1.362488 1 105.206252 2 170.559767 0
H  6 0.969003 3 110.125111 1 71.758459 0
C  3 1.545421 1 106.859786 2 55.460083 0
O  8 1.201837 3 120.705670 1 60.603789 0
O  8 1.320830 3 116.506331 1 -119.772354 0
H  10 0.971827 8 110.854422 3 0.301665 0
$end

 
 --------------------------------------------------------------
 
                    Orbital Energies (a.u.)
 --------------------------------------------------------------
 
 Alpha MOs
 -- Occupied --
-19.4730 -19.4328 -19.4009 -19.3853 -19.3815 -19.3506 -10.5454 -10.5109
 -1.3654  -1.2741  -1.2452  -1.1934  -1.1747  -1.0123  -0.8614  -0.7559
 -0.7187  -0.7107  -0.6902  -0.6260  -0.6164  -0.5996  -0.5771  -0.5742
 -0.5331  -0.5083  -0.4964  -0.4549  -0.4508  -0.4288  -0.4141  -0.4055
 -- Virtual --
  0.0285   0.0468   0.0548   0.0596   0.0764   0.0875   0.1019   0.1055
  0.1212   0.1309   0.1420   0.1592   0.1836   0.1918   0.2052   0.2315
  0.2343   0.2424   0.2453   0.2508   0.2630   0.2726   0.2850   0.2899
  0.2976   0.3078   0.3217   0.3263   0.3313   0.3351   0.3412   0.3448
  0.3479   0.3541   0.3691   0.3738   0.3883   0.3967   0.4122   0.4239
  0.4277   0.4582   0.4674   0.4986   0.5036   0.5632   0.5787   0.5954
  0.6194   0.6473   0.6689   0.6842   0.7183   0.7478   0.7745   0.7980
  0.8296   0.8323   0.8498   0.8775   0.9123   0.9437   0.9743   0.9868
  1.0465   1.0646   1.0795   1.0834   1.0979   1.1091   1.1179   1.1284
  1.1404   1.1563   1.1768   1.1836   1.1864   1.2067   1.2245   1.2323
  1.2385   1.2453   1.2582   1.2856   1.3119   1.3302   1.3986   1.4250
  1.4576   1.4875   1.4968   1.5094   1.5320   1.5559   1.5666   1.6137
  1.6195   1.6450   1.6657   1.6840   1.7099   1.7424   1.7871   1.8174
  1.8412   1.8717   1.8877   1.9122   1.9714   2.0084   2.0217   2.0745
  2.1020   2.1243   2.2047   2.2303   2.2406   2.2941   2.3361   2.3545
  2.3880   2.4150   2.4361   2.4809   2.5207   2.5414   2.5953   2.6290
  2.6594   2.7709   2.8113   2.8451   2.8852   2.9335   2.9781   3.0208
  3.1292   3.1790   3.1993   3.2853   3.2951   3.3443   3.3881   3.3963
  3.4187   3.4770   3.5415   3.5748   3.5905   3.6198   3.6407   3.6786
  3.7129   3.7255   3.7403   3.7774   3.8116   3.8362   3.8513   3.8940
  3.9388   4.0418   4.0529   4.1179   4.1731   4.2302   4.2625   4.2807
  4.3473   4.3851   4.4406   4.5709   4.6981   4.7330   4.8153   4.8338
  4.9603   5.0470   5.0689   5.0744   5.1191   5.1204   5.1414   5.1539
  5.1603   5.1900   5.1965   5.2056   5.2203   5.2281   5.2423   5.2621
  5.2771   5.3098   5.3194   5.3349   5.3414   5.3859   5.4035   5.4387
  5.4664   5.4787   5.5474   5.5556   5.5655   5.5774   5.6186   5.6476
  5.6568   5.6929   5.7203   5.7226   5.7436   5.8337   6.0068   6.0379
  6.0842   6.1936   6.2305   6.3943   6.4450   6.4707   6.5804   6.6007
  6.7245   6.8311   6.8543   6.8787   6.9190   6.9404   6.9990   7.0274
  7.0373   7.0744   7.0768   7.1173   7.1201   7.1990   7.2082   7.2443
  7.2532   7.2722   7.2933   7.3192   7.3638   7.3868   7.4086   7.4448
  7.4689   7.5181   7.5293   7.5442   7.6811   7.7296   7.7744   7.7934
  7.8321   7.8641   7.8890   7.9059   8.0411   8.1324  24.8275  25.1407
 50.4037  50.5139  50.5717  50.6026  50.6383  50.7500
 
 Beta MOs
 -- Occupied --
-19.4634 -19.4133 -19.4008 -19.3851 -19.3815 -19.3506 -10.5458 -10.5108
 -1.3423  -1.2717  -1.2430  -1.1933  -1.1746  -0.9777  -0.8563  -0.7554
 -0.7166  -0.6977  -0.6845  -0.6027  -0.5989  -0.5836  -0.5742  -0.5514
 -0.5306  -0.4980  -0.4893  -0.4529  -0.4498  -0.4222  -0.3928
 -- Virtual --
 -0.0425   0.0287   0.0470   0.0552   0.0602   0.0769   0.0877   0.1023
  0.1060   0.1223   0.1325   0.1422   0.1605   0.1874   0.1943   0.2085
  0.2327   0.2363   0.2450   0.2472   0.2536   0.2717   0.2747   0.2872
  0.2900   0.2999   0.3087   0.3228   0.3268   0.3317   0.3374   0.3420
  0.3456   0.3487   0.3552   0.3695   0.3746   0.3900   0.3985   0.4144
  0.4250   0.4285   0.4586   0.4673   0.4992   0.5043   0.5638   0.5794
  0.5954   0.6196   0.6478   0.6696   0.6844   0.7197   0.7506   0.7749
  0.7982   0.8302   0.8330   0.8503   0.8788   0.9125   0.9446   0.9750
  0.9877   1.0483   1.0669   1.0837   1.0888   1.0995   1.1147   1.1290
  1.1319   1.1448   1.1596   1.1800   1.1894   1.1942   1.2133   1.2274
  1.2339   1.2438   1.2483   1.2665   1.2920   1.3161   1.3326   1.4000
  1.4275   1.4611   1.4988   1.5027   1.5149   1.5387   1.5592   1.5743
  1.6190   1.6294   1.6478   1.6838   1.6928   1.7119   1.7456   1.7938
  1.8257   1.8492   1.8723   1.8949   1.9141   1.9737   2.0113   2.0254
  2.0789   2.1077   2.1310   2.2095   2.2336   2.2488   2.2986   2.3434
  2.3623   2.3888   2.4169   2.4399   2.4831   2.5232   2.5421   2.5971
  2.6345   2.6609   2.7733   2.8128   2.8467   2.8857   2.9352   2.9790
  3.0215   3.1295   3.1796   3.1996   3.2856   3.2956   3.3446   3.3892
  3.3965   3.4192   3.4779   3.5418   3.5752   3.5911   3.6205   3.6412
  3.6785   3.7138   3.7267   3.7409   3.7779   3.8118   3.8363   3.8516
  3.8944   3.9392   4.0419   4.0534   4.1183   4.1733   4.2312   4.2633
  4.2810   4.3478   4.3853   4.4412   4.6058   4.7157   4.7381   4.8372
  4.8455   4.9777   5.1029   5.1146   5.1198   5.1246   5.1420   5.1600
  5.1652   5.1755   5.2006   5.2077   5.2181   5.2366   5.2495   5.2614
  5.2708   5.2810   5.3138   5.3268   5.3480   5.3548   5.3976   5.4055
  5.4416   5.4678   5.4916   5.5504   5.5607   5.5676   5.5800   5.6240
  5.6492   5.6601   5.6949   5.7286   5.7353   5.7456   5.8421   6.0098
  6.0397   6.0855   6.1970   6.2360   6.3974   6.4484   6.5127   6.5916
  6.6084   6.7301   6.8529   6.9196   6.9307   6.9423   6.9860   7.0042
  7.0313   7.0485   7.0804   7.0865   7.1266   7.1487   7.2005   7.2251
  7.2475   7.2610   7.2873   7.2961   7.3205   7.3695   7.3956   7.4307
  7.4651   7.4859   7.5196   7.5376   7.5461   7.6832   7.7356   7.7752
  7.7959   7.8370   7.8663   7.8911   7.9081   8.0528   8.1496  24.8273
 25.1408  50.4166  50.5223  50.5720  50.6027  50.6388  50.7503
 --------------------------------------------------------------
 
          Ground-State Mulliken Net Atomic Charges

     Atom                 Charge (a.u.)    Spin (a.u.)
  --------------------------------------------------------
      1 C                     0.288493       0.012867
      2 O                    -0.439542      -0.002339
      3 H                     0.368492       0.000265
      4 C                     0.344626      -0.004367
      5 O                    -0.380251      -0.000006
      6 O                    -0.400557       0.001816
      7 O                    -0.269766       0.000758
      8 H                     0.342111      -0.000074
      9 O                    -0.011554       0.290180
     10 O                    -0.193376       0.701191
     11 H                     0.351323      -0.000291
  --------------------------------------------------------
  Sum of atomic charges =     0.000000
  Sum of spin   charges =     1.000000

 -----------------------------------------------------------------
                    Cartesian Multipole Moments
 -----------------------------------------------------------------
    Charge (ESU x 10^10)
                 0.0000
    Dipole Moment (Debye)
         X      -7.4054      Y       1.4156      Z      -4.6164
       Tot       8.8406
    Quadrupole Moments (Debye-Ang)
        XX     -34.6217     XY       3.2251     YY     -44.8775
        XZ       2.0385     YZ      -1.2904     ZZ     -54.0485
    Octopole Moments (Debye-Ang^2)
       XXX       6.8425    XXY     -13.8061    XYY      13.8524
       YYY     -15.6538    XXZ     -44.1456    XYZ       3.2212
       YYZ     -40.0617    XZZ      29.2091    YZZ      -9.5114
       ZZZ    -119.2663
    Hexadecapole Moments (Debye-Ang^3)
      XXXX    -311.8604   XXXY       8.1020   XXYY    -100.4691
      XYYY       9.1373   YYYY    -231.2949   XXXZ      77.0317
      XXYZ      -3.9815   XYYZ      25.8049   YYYZ     -25.8797
      XXZZ    -158.6319   XYZZ       7.4015   YYZZ    -115.7143
      XZZZ      91.0071   YZZZ     -33.0825   ZZZZ    -473.1132
 -----------------------------------------------------------------
 Total job time:  1363.25s(wall), 10594.92s(cpu) 
 Mon May  8 09:08:22 2023

        *************************************************************
        *                                                           *
        *  Thank you very much for using Q-Chem.  Have a nice day.  *
        *                                                           *
        *************************************************************


