
Running Job 1 of 1 Q_in.in
qchem Q_in.in_158531.0 /scratch/ari.fischer/qChem1628458.hpc-mn1/qchem158531/ 0
/usr/local/qchem-5.4.1/exe/qcprog.exe_s Q_in.in_158531.0 /scratch/ari.fischer/qChem1628458.hpc-mn1/qchem158531/
                  Welcome to Q-Chem
     A Quantum Leap Into The Future Of Chemistry


 Q-Chem 5.4, Q-Chem, Inc., Pleasanton, CA (2021)

 License issued to: Nanyang Technological University (site)

 E. Epifanovsky,  A. T. B. Gilbert,  Xintian Feng,  Joonho Lee,  Yuezhi Mao,  
 N. Mardirossian,  P. Pokhilko,  A. White,  M. Wormit,  M. P. Coons,  
 A. L. Dempwolff,  Zhengting Gan,  D. Hait,  P. R. Horn,  L. D. Jacobson,  
 I. Kaliman,  J. Kussmann,  A. W. Lange,  Ka Un Lao,  D. S. Levine,  Jie Liu,  
 S. C. McKenzie,  A. F. Morrison,  K. Nanda,  F. Plasser,  D. R. Rehn,  
 M. L. Vidal,  Zhi-Qiang You,  Ying Zhu,  B. Alam,  B. Albrecht,  
 A. Aldossary,  E. Alguire,  J. H. Andersen,  D. Barton,  K. Begam,  A. Behn,  
 Y. A. Bernard,  E. J. Berquist,  H. Burton,  A. Carreras,  K. Carter-Fenk,  
 R. Chakraborty,  A. D. Chien,  K. D. Closser,  V. Cofer-Shabica,  
 S. Dasgupta,  Jia Deng,  M. de Wergifosse,  M. Diedenhofen,  Hainam Do,  
 S. Ehlert,  Po-Tung Fang,  S. Fatehi,  Qingguo Feng,  T. Friedhoff,  
 J. Gayvert,  Qinghui Ge,  G. Gidofalvi,  M. Goldey,  J. Gomes,  
 C. Gonzalez-Espinoza,  S. Gulania,  A. Gunina,  M. W. D. Hanson-Heine,  
 P. H. P. Harbach,  A. W. Hauser,  M. F. Herbst,  M. Hernandez Vera,  
 M. Hodecker,  Z. C. Holden,  S. Houck,  Xunkun Huang,  Kerwin Hui,  
 B. C. Huynh,  M. Ivanov,  Hyunjun Ji,  Hanjie Jiang,  B. Kaduk,  S. Kaehler,  
 K. Khistyaev,  Jaehoon Kim,  P. Klunzinger,  Z. Koczor-Benda,  
 Joong Hoon Koh,  D. Kosenkov,  L. Koulias,  T. Kowalczyk,  C. M. Krauter,  
 K. Kue,  A. Kunitsa,  T. Kus,  A. Landau,  K. V. Lawler,  D. Lefrancois,  
 S. Lehtola,  Rain Li,  Yi-Pei Li,  Jiashu Liang,  M. Liebenthal,  
 Hung-Hsuan Lin,  You-Sheng Lin,  Fenglai Liu,  Kuan-Yu Liu,  
 M. Loipersberger,  A. Luenser,  A. Manjanath,  P. Manohar,  E. Mansoor,  
 S. F. Manzer,  Shan-Ping Mao,  A. V. Marenich,  T. Markovich,  S. Mason,  
 S. A. Maurer,  P. F. McLaughlin,  M. F. S. J. Menger,  J.-M. Mewes,  
 S. A. Mewes,  P. Morgante,  J. W. Mullinax,  K. J. Oosterbaan,  G. Paran,  
 Alexander C. Paul,  Suranjan K. Paul,  F. Pavosevic,  Zheng Pei,  S. Prager,  
 E. I. Proynov,  E. Ramos,  B. Rana,  A. E. Rask,  A. Rettig,  R. M. Richard,  
 F. Rob,  E. Rossomme,  T. Scheele,  M. Scheurer,  M. Schneider,  
 N. Sergueev,  S. M. Sharada,  W. Skomorowski,  D. W. Small,  C. J. Stein,  
 Yu-Chuan Su,  E. J. Sundstrom,  Zhen Tao,  J. Thirman,  T. Tsuchimochi,  
 N. M. Tubman,  S. P. Veccham,  O. Vydrov,  J. Wenzel,  J. Witte,  A. Yamada,  
 Kun Yao,  S. Yeganeh,  S. R. Yost,  A. Zech,  Igor Ying Zhang,  Xing Zhang,  
 Yu Zhang,  D. Zuev,  A. Aspuru-Guzik,  A. T. Bell,  N. A. Besley,  
 K. B. Bravaya,  B. R. Brooks,  D. Casanova,  Jeng-Da Chai,  S. Coriani,  
 C. J. Cramer,  A. E. DePrince, III,  R. A. DiStasio Jr.,  A. Dreuw,  
 B. D. Dunietz,  T. R. Furlani,  W. A. Goddard III,  S. Grimme,  
 S. Hammes-Schiffer,  T. Head-Gordon,  W. J. Hehre,  Chao-Ping Hsu,  
 T.-C. Jagau,  Yousung Jung,  A. Klamt,  Jing Kong,  D. S. Lambrecht,  
 WanZhen Liang,  N. J. Mayhall,  C. W. McCurdy,  J. B. Neaton,  
 C. Ochsenfeld,  J. A. Parkhill,  R. Peverati,  V. A. Rassolov,  Yihan Shao,  
 L. V. Slipchenko,  T. Stauch,  R. P. Steele,  J. E. Subotnik,  
 A. J. W. Thom,  A. Tkatchenko,  D. G. Truhlar,  T. Van Voorhis,  
 T. A. Wesolowski,  K. B. Whaley,  H. L. Woodcock III,  P. M. Zimmerman,  
 S. Faraji,  P. M. W. Gill,  M. Head-Gordon,  J. M. Herbert,  A. I. Krylov

 Additional authors for Version 5.4.1: 
 S. Kotaru,  Shaozhi Li,  Xiangyuan Li,  F. Matz,  A. Molle,  Haisheng Ren,  
 Yingli Su,  Hung-Yi Tsai,  C. Utku,  Fang Wang

 Contributors to earlier versions of Q-Chem not listed above: 
 R. D. Adamson,  B. Austin,  R. Baer,  J. Baker,  G. J. O. Beran,  
 K. Brandhorst,  S. T. Brown,  E. F. C. Byrd,  A. K. Chakraborty,  
 G. K. L. Chan,  Chun-Min Chang,  Yunqing Chen,  C.-L. Cheng,  
 Siu Hung Chien,  D. M. Chipman,  D. L. Crittenden,  H. Dachsel,  
 R. J. Doerksen,  A. D. Dutoi,  R. G. Edgar,  J. Fosso-Tande,  
 L. Fusti-Molnar,  D. Ghosh,  A. Ghysels,  A. Golubeva-Zadorozhnaya,  
 J. Gonthier,  M. S. Gordon,  S. R. Gwaltney,  G. Hawkins,  J. E. Herr,  
 A. Heyden,  S. Hirata,  E. G. Hohenstein,  G. Kedziora,  F. J. Keil,  
 C. Kelley,  Jihan Kim,  R. A. King,  R. Z. Khaliullin,  P. P. Korambath,  
 W. Kurlancheek,  A. Laurent,  A. M. Lee,  M. S. Lee,  S. V. Levchenko,  
 Ching Yeh Lin,  D. Liotard,  E. Livshits,  R. C. Lochan,  I. Lotan,  
 L. A. Martinez-Martinez,  P. E. Maslen,  N. Nair,  D. P. O'Neill,  
 D. Neuhauser,  E. Neuscamman,  C. M. Oana,  R. Olivares-Amaya,  R. Olson,  
 T. M. Perrine,  B. Peters,  P. A. Pieniazek,  A. Prociuk,  Y. M. Rhee,  
 J. Ritchie,  M. A. Rohrdanz,  E. Rosta,  N. J. Russ,  H. F. Schaefer III,  
 M. W. Schmidt,  N. E. Schultz,  S. Sharma,  N. Shenvi,  C. D. Sherrill,  
 A. C. Simmonett,  A. Sodt,  T. Stein,  D. Stuck,  K. S. Thanthiriwatte,  
 V. Vanovschi,  L. Vogt,  Tao Wang,  A. Warshel,  M. A. Watson,  
 C. F. Williams,  Q. Wu,  X. Xu,  Jun Yang,  W. Zhang,  Yan Zhao

 Please cite Q-Chem as follows:
 Y. Shao et al., Mol. Phys. 113, 184-215 (2015)
 DOI: 10.1080/00268976.2014.952696

 Q-Chem 5.4.1 for Intel X86 EM64T Linux

 Parts of Q-Chem use Armadillo 9.800.1 (Horizon Scraper).
 http://arma.sourceforge.net/

 Q-Chem begins on Mon Jul 17 16:56:01 2023  

 Host: 
0

     Scratch files written to /scratch/ari.fischer/qChem1628458.hpc-mn1/qchem158531//
 Aug1521 |scratch|qcdevops|jenkins|workspace|build_RNUM 8249   
 Processing $rem in /usr/local/qchem-5.4.1/config/preferences:
 Processing $rem in /home/ari.fischer/.qchemrc:
 Symmetry turned off for PCM/SM12/SMD calculation


!!********************************************.
!!******************Warning*******************.
!!Desired Analytical derivatives not available.
!!Finite difference job might take a long time.
!!********************************************.
!!********************************************.


 2-order derivative to be evaluated numerically with 1-order analytical derivatives

 Checking the input file for inconsistencies... 	...done.

--------------------------------------------------------------
User input:
--------------------------------------------------------------
$molecule
-1 1
O        -0.7700752962    1.0095248173   -0.0901959350
C        -0.3608196099   -0.2115914739    0.4922317158
O        -1.0496930004   -1.3042071768   -0.0673185286
C         1.1546408297   -0.3521732406    0.2396058149
O         1.8571576590    0.5647537115    0.7328913092
O         1.5662840877   -1.3426908188   -0.4048193267
H        -1.6025330528    1.2738191661    0.3164522571
H        -1.9354580049   -1.3186989432    0.3121775248
H        -0.5354792121   -0.1788818416    1.5697029686
$end

$rem
BASIS = 6-311++G(2df,2p)
GUI = 2
JOB_TYPE = Frequency
METHOD = wB97M-V
SOLVENT_METHOD = SMD
SCF_ALGORITHM = DIIS_GDM
MAX_SCF_CYCLES = 400
SCF_CONVERGENCE = 7
THRESH = 12
UNRESTRICTED = 1
SYMMETRY_IGNORE = 1
$end
--------------------------------------------------------------
 ----------------------------------------------------------------
             Standard Nuclear Orientation (Angstroms)
    I     Atom           X                Y                Z
 ----------------------------------------------------------------
    1      O      -0.7700752962     1.0095248173    -0.0901959350
    2      C      -0.3608196099    -0.2115914739     0.4922317158
    3      O      -1.0496930004    -1.3042071768    -0.0673185286
    4      C       1.1546408297    -0.3521732406     0.2396058149
    5      O       1.8571576590     0.5647537115     0.7328913092
    6      O       1.5662840877    -1.3426908188    -0.4048193267
    7      H      -1.6025330528     1.2738191661     0.3164522571
    8      H      -1.9354580049    -1.3186989432     0.3121775248
    9      H      -0.5354792121    -0.1788818416     1.5697029686
 ----------------------------------------------------------------
 Nuclear Repulsion Energy =         239.46429984 hartrees
 There are       24 alpha and       24 beta electrons
 Requested basis set is 6-311++G(2df,2p)
 There are 66 shells and 234 basis functions

 Total QAlloc Memory Limit 288000 MB
 Mega-Array Size       188 MB
 MEM_STATIC part       192 MB
 
 Citation of the SMD model:
 Marenich, A.V.; Cramer, C.J.; Truhlar, D.G.
 J. Phys. Chem. B 2009, 113, 6378-6396.
 iSolventCode=           1
 Solvent: water                                                           
 
 vradii
            1           2           3           4           5           6
    1   1.5200000   1.8500000   1.5200000   1.8500000   1.5200000   1.5200000
            7           8           9
    1   1.2000000   1.2000000   1.2000000
 Changing PCM_VDW_RADII to SMD_RADIUS
 Discretize the solute cavity surface with Lebedev spheres
	Using 110 Lebedev grid points for each H atom
	Using 194 Lebedev grid points for other atoms
	Atomic van der Waals radii will be scaled by 1.20
 Remove points where switching function is < 1.0e-08
 Keep 826 surface tesserae and discard 668 interior tesserae
 Molecular Surface Area = 99.736 Angst**2

                       Distance Matrix (Angstroms)
             O (  1)   C (  2)   O (  3)   C (  4)   O (  5)   O (  6)
   C (  2)  1.413449
   O (  3)  2.330679  1.407641
   C (  4)  2.380656  1.542791  2.420673
   O (  5)  2.788843  2.362213  3.547271  1.256032
   O (  6)  3.330237  2.407865  2.637939  1.251343  2.239941
   H (  7)  0.963431  1.944015  2.664420  3.201838  3.556073  4.172261
   H (  8)  2.634511  1.933285  0.963746  3.238541  4.255388  3.574473
   H (  9)  2.054899  1.092026  2.051978  2.157706  2.641583  3.109759
             H (  7)   H (  8)
   H (  8)  2.613811
   H (  9)  2.195355  2.200112
 
 A cutoff of  1.0D-12 yielded   2098 shell pairs
 There are     26685 function pairs (     33993 Cartesian)
 Smallest overlap matrix eigenvalue = 9.47E-05
 Guess from superposition of atomic densities
 Warning:  Energy on first SCF cycle will be non-variational
 SAD guess density has 47.000000 electrons

 -----------------------------------------------------------------------
  General SCF calculation program by
  Eric Jon Sundstrom, Paul Horn, Yuezhi Mao, Dmitri Zuev, Alec White,
  David Stuck, Shaama M.S., Shane Yost, Joonho Lee, David Small,
  Daniel Levine, Susi Lehtola, Hugh Burton, Evgeny Epifanovsky,
  Bang C. Huynh
 -----------------------------------------------------------------------
 Exchange:     0.1500 Hartree-Fock + 1.0000 wB97M-V + LR-HF
 Correlation:  1.0000 wB97M-V
 Using SG-2 standard quadrature grid
 Nonlocal Correlation:  VV10 with C = 0.0100 and b = 6.00 and scale = 1.00000
 Grid used for NLC:  SG-1 standard quadrature
 using 8 threads for integral computing
 -------------------------------------------------------
 OpenMP Integral computing Module                
 Release: version 1.0, May 2013, Q-Chem Inc. Pittsburgh 
 -------------------------------------------------------
 
 Citation of the SMD model:
 Marenich, A.V.; Cramer, C.J.; Truhlar, D.G.
 J. Phys. Chem. B 2009, 113, 6378-6396.
 iSolventCode=           1
 Solvent: water                                                           
 
 vradii
            1           2           3           4           5           6
    1   1.5200000   1.8500000   1.5200000   1.8500000   1.5200000   1.5200000
            7           8           9
    1   1.2000000   1.2000000   1.2000000
 -------------------------------------------------------
 OpenMP BLAS3 based DFT computing Module                
 Release: version 1.0, May 2013, Q-Chem Inc. Pittsburgh 
 -------------------------------------------------------
 A unrestricted SCF calculation will be
 performed using DIIS, GDM
 SCF converges when RMS gradient is below 1.0e-07
 ---------------------------------------
  Cycle       Energy         DIIS error
 ---------------------------------------
    1    -379.8543929890      1.64e-02  
    2    -378.9096358253      3.22e-03  Done DIIS. Switching to GDM
 ---------------------------------------
  Cycle       Energy        RMS Gradient
 ---------------------------------------
    1    -378.9096358253      1.18e-01   Descent step
    2    -379.1038907825      2.63e-02   Normal BFGS step
    3    -379.1269968178      3.84e-03   Normal BFGS step
    4    -379.1277249622      3.64e-03   Normal BFGS step
    5    -379.1279229306      6.56e-04   Normal BFGS step
    6    -379.1279362218      3.82e-04   Normal BFGS step
    7    -379.1279401165      8.03e-05   Normal BFGS step
    8    -379.1279402092      7.43e-05   Normal BFGS step
    9    -379.1279402440      2.67e-05   Normal BFGS step
   10    -379.1279402513      3.49e-06   Normal BFGS step
   11    -379.1279402518      1.38e-06   Normal BFGS step
   12    -379.1279402518      5.46e-07   Normal BFGS step
   13    -379.1279402518      2.21e-07   Normal BFGS step
   14    -379.1279402518      6.96e-08  Convergence criterion met
 ---------------------------------------
 SCF time:   CPU 379.26s  wall 61.00s 
<S^2> =         -0.000000000
(3)  G-ENP(liq) elect-nuc-pol free energy of system     -379.127940252 a.u.
(4)  G-CDS(liq) cavity-dispersion-solvent structure 
     free energy                                                4.1889 kcal/mol
(6)  G-S(liq) free energy of system                     -379.121264877 a.u.
 SCF   energy in the final basis set =     -379.1212648767
 Total energy in the final basis set =     -379.1212648767
 
 --------------------------------------------------------------
 
                    Orbital Energies (a.u.)
 --------------------------------------------------------------
 
 Alpha MOs
 -- Occupied --
-19.3412 -19.3399 -19.2867 -19.2842 -10.4393 -10.4375  -1.2010  -1.1629
 -1.1310  -1.0787  -0.8139  -0.6471  -0.6385  -0.6338  -0.5766  -0.5299
 -0.5106  -0.4987  -0.4894  -0.4139  -0.4097  -0.3710  -0.3607  -0.3581
 -- Virtual --
  0.0295   0.0586   0.0595   0.0730   0.1013   0.1096   0.1137   0.1177
  0.1426   0.1534   0.1549   0.1719   0.2131   0.2335   0.2419   0.2490
  0.2616   0.2836   0.2853   0.2975   0.3095   0.3111   0.3186   0.3346
  0.3435   0.3516   0.3542   0.3605   0.3729   0.3846   0.4071   0.4146
  0.4417   0.4564   0.5418   0.5680   0.5765   0.6306   0.6433   0.6680
  0.6876   0.7005   0.7041   0.7338   0.7793   0.8008   0.8059   0.8382
  0.8814   0.9084   0.9301   0.9654   1.0063   1.0442   1.0824   1.1086
  1.1161   1.1293   1.1584   1.1635   1.1840   1.1880   1.2160   1.2356
  1.2668   1.2764   1.2915   1.3232   1.3459   1.3555   1.3665   1.4417
  1.4644   1.5068   1.5335   1.5488   1.5960   1.6278   1.6459   1.6646
  1.6914   1.7598   1.7929   1.8103   1.8619   1.8895   1.9366   1.9588
  1.9999   2.0791   2.1449   2.1818   2.2225   2.2526   2.3630   2.3890
  2.4001   2.5106   2.5242   2.5531   2.5742   2.7148   2.7714   2.7969
  2.8231   2.8793   2.9079   3.0439   3.0849   3.1846   3.2237   3.2472
  3.2803   3.3460   3.3735   3.3948   3.4307   3.4454   3.5217   3.5297
  3.5969   3.6161   3.6488   3.6728   3.7061   3.7626   3.7788   3.8430
  3.8597   3.9179   3.9483   4.0064   4.0953   4.1300   4.1512   4.1970
  4.2524   4.2839   4.3301   4.3453   4.4517   4.5101   4.7670   5.1754
  5.1823   5.1889   5.2000   5.2090   5.2179   5.2295   5.2401   5.2725
  5.2876   5.2957   5.3027   5.3265   5.3420   5.3825   5.3972   5.4088
  5.4789   5.5249   5.5337   5.5617   5.6056   5.6405   5.6615   5.6723
  5.6911   5.7586   5.8328   6.0009   6.0378   6.0972   6.1492   6.3248
  6.4487   6.4985   6.7029   6.8694   6.9326   6.9845   7.0202   7.0566
  7.0697   7.1355   7.1670   7.2209   7.2569   7.2816   7.3257   7.3556
  7.3671   7.3954   7.4221   7.5268   7.5594   7.6207   7.7137   7.7627
  7.7958   7.8302   7.8550   7.8865  24.7560  25.1956  50.5828  50.5938
 50.7008  50.7286
 
 Beta MOs
 -- Occupied --
-19.3412 -19.3399 -19.2867 -19.2842 -10.4393 -10.4375  -1.2010  -1.1629
 -1.1310  -1.0787  -0.8139  -0.6471  -0.6385  -0.6338  -0.5766  -0.5299
 -0.5106  -0.4987  -0.4894  -0.4139  -0.4097  -0.3710  -0.3607  -0.3581
 -- Virtual --
  0.0295   0.0586   0.0595   0.0730   0.1013   0.1096   0.1137   0.1177
  0.1426   0.1534   0.1549   0.1719   0.2131   0.2335   0.2419   0.2490
  0.2616   0.2836   0.2853   0.2975   0.3095   0.3111   0.3186   0.3346
  0.3435   0.3516   0.3542   0.3605   0.3729   0.3846   0.4071   0.4146
  0.4417   0.4564   0.5418   0.5680   0.5765   0.6306   0.6433   0.6680
  0.6876   0.7005   0.7041   0.7338   0.7793   0.8008   0.8059   0.8382
  0.8814   0.9084   0.9301   0.9654   1.0063   1.0442   1.0824   1.1086
  1.1161   1.1293   1.1584   1.1635   1.1840   1.1880   1.2160   1.2356
  1.2668   1.2764   1.2915   1.3232   1.3459   1.3555   1.3665   1.4417
  1.4644   1.5068   1.5335   1.5488   1.5960   1.6278   1.6459   1.6646
  1.6914   1.7598   1.7929   1.8103   1.8619   1.8895   1.9366   1.9588
  1.9999   2.0791   2.1449   2.1818   2.2225   2.2526   2.3630   2.3890
  2.4001   2.5106   2.5242   2.5531   2.5742   2.7148   2.7714   2.7969
  2.8231   2.8793   2.9079   3.0439   3.0849   3.1846   3.2237   3.2472
  3.2803   3.3460   3.3735   3.3948   3.4307   3.4454   3.5217   3.5297
  3.5969   3.6161   3.6488   3.6728   3.7061   3.7626   3.7788   3.8430
  3.8597   3.9179   3.9483   4.0064   4.0953   4.1300   4.1512   4.1970
  4.2524   4.2839   4.3301   4.3453   4.4517   4.5101   4.7670   5.1754
  5.1823   5.1889   5.2000   5.2090   5.2179   5.2295   5.2401   5.2725
  5.2876   5.2957   5.3027   5.3265   5.3420   5.3825   5.3972   5.4088
  5.4789   5.5249   5.5337   5.5617   5.6056   5.6405   5.6615   5.6723
  5.6911   5.7586   5.8328   6.0009   6.0378   6.0972   6.1492   6.3248
  6.4487   6.4985   6.7029   6.8694   6.9326   6.9845   7.0202   7.0566
  7.0697   7.1355   7.1670   7.2209   7.2569   7.2816   7.3257   7.3556
  7.3671   7.3954   7.4221   7.5268   7.5594   7.6207   7.7137   7.7627
  7.7958   7.8302   7.8550   7.8865  24.7560  25.1956  50.5828  50.5938
 50.7008  50.7286
 --------------------------------------------------------------
 
          Ground-State Mulliken Net Atomic Charges

     Atom                 Charge (a.u.)    Spin (a.u.)
  --------------------------------------------------------
      1 O                    -0.446455       0.000000
      2 C                    -0.018808       0.000000
      3 O                    -0.462189       0.000000
      4 C                     0.382788       0.000000
      5 O                    -0.682635       0.000000
      6 O                    -0.670952       0.000000
      7 H                     0.338541       0.000000
      8 H                     0.337013       0.000000
      9 H                     0.222699       0.000000
  --------------------------------------------------------
  Sum of atomic charges =    -1.000000
  Sum of spin   charges =     0.000000

 -----------------------------------------------------------------
                    Cartesian Multipole Moments
 -----------------------------------------------------------------
    Charge (ESU x 10^10)
                -4.8032
    Dipole Moment (Debye)
         X     -12.1233      Y       2.2664      Z       2.6665
       Tot      12.6183
    Quadrupole Moments (Debye-Ang)
        XX     -47.4026     XY       1.7347     YY     -47.5847
        XZ      -6.0876     YZ      -4.6018     ZZ     -38.0220
    Octopole Moments (Debye-Ang^2)
       XXX    -100.2528    XXY      12.8296    XYY     -30.8692
       YYY      42.3649    XXZ      -4.8458    XYZ      -6.4964
       YYZ      -0.9941    XZZ     -19.2802    YZZ       8.9051
       ZZZ     -16.6143
    Hexadecapole Moments (Debye-Ang^3)
      XXXX    -431.5256   XXXY      25.8200   XXYY    -110.0828
      XYYY      22.7071   YYYY    -257.2047   XXXZ     -36.7888
      XXYZ     -18.1662   XYYZ      -7.1376   YYYZ     -21.2227
      XXZZ     -87.4262   XYZZ       3.2095   YYZZ     -55.8900
      XZZZ     -20.7097   YZZZ     -18.7308   ZZZZ     -84.1112
 -----------------------------------------------------------------
 Calculating analytic gradient of the SCF energy
 Gradient of CDS energy
            1           2           3           4           5           6
    1   0.0002673  -0.0016392   0.0011751   0.0030141  -0.0013249  -0.0007596
    2  -0.0009972  -0.0010233   0.0019648  -0.0001120  -0.0015902   0.0016123
    3   0.0003594  -0.0010832   0.0008091  -0.0003473  -0.0008863   0.0010612
            7           8           9
    1  -0.0002857  -0.0003924  -0.0000547
    2   0.0004487  -0.0003551   0.0000520
    3  -0.0000043  -0.0000087   0.0001003
 Gradient of SCF Energy
            1           2           3           4           5           6
    1  -0.0011023  -0.0020642  -0.0039945   0.0317236  -0.0180827  -0.0152222
    2   0.0123530   0.0002913  -0.0107572  -0.0079495  -0.0149445   0.0227657
    3  -0.0084692   0.0500444  -0.0094263  -0.0075968  -0.0121578   0.0128515
            7           8           9
    1   0.0039299   0.0065085  -0.0016960
    2  -0.0077314   0.0064800  -0.0005075
    3   0.0009999   0.0019015  -0.0281473
 Max gradient component =       5.004E-02
 RMS gradient           =       1.570E-02
 Computing fast CPCM-SWIG gradient
 Updating gradient with PCM contributions...
 -- total gradient after adding PCM contribution --
---------------------------------------------------
  Atom         X              Y              Z     
---------------------------------------------------
   1      -0.000028      -0.000019      -0.000015
   2       0.000000       0.000005      -0.000006
   3       0.000025      -0.000002       0.000016
   4       0.000009       0.000034       0.000075
   5      -0.000019      -0.000023      -0.000032
   6      -0.000001      -0.000027      -0.000021
   7       0.000018       0.000012      -0.000006
   8      -0.000001       0.000019      -0.000004
   9      -0.000004      -0.000001      -0.000006
---------------------------------------------------
 Number of fixed atoms: 0
 Gradient time:  CPU 59.30 s  wall 10.10 s
 ######################################################
 ######################################################
 # Starting finite difference calculation for IDERIV  #
 Finite diff step size:  1.88973e-03 a.u.
 ----------------------------------------------------------------
             Standard Nuclear Orientation (Angstroms)
    I     Atom           X                Y                Z
 ----------------------------------------------------------------
    1      O      -0.7690752962     1.0095248173    -0.0901959350
    2      C      -0.3608196099    -0.2115914739     0.4922317158
    3      O      -1.0496930004    -1.3042071768    -0.0673185286
    4      C       1.1546408297    -0.3521732406     0.2396058149
    5      O       1.8571576590     0.5647537115     0.7328913092
    6      O       1.5662840877    -1.3426908188    -0.4048193267
    7      H      -1.6025330528     1.2738191661     0.3164522571
    8      H      -1.9354580049    -1.3186989432     0.3121775248
    9      H      -0.5354792121    -0.1788818416     1.5697029686
 ----------------------------------------------------------------
 Nuclear Repulsion Energy =         239.47300523 hartrees
 There are       24 alpha and       24 beta electrons
 Discretize the solute cavity surface with Lebedev spheres
	Using 110 Lebedev grid points for each H atom
	Using 194 Lebedev grid points for other atoms
	Atomic van der Waals radii will be scaled by 1.20
 Remove points where switching function is < 1.0e-08
 Keep 826 surface tesserae and discard 668 interior tesserae
 Molecular Surface Area = 99.737 Angst**2

                       Distance Matrix (Angstroms)
             O (  1)   C (  2)   O (  3)   C (  4)   O (  5)   O (  6)
   C (  2)  1.413159
   O (  3)  2.330799  1.407641
   C (  4)  2.379848  1.542791  2.420673
   O (  5)  2.787901  2.362213  3.547271  1.256032
   O (  6)  3.329536  2.407865  2.637939  1.251343  2.239941
   H (  7)  0.964296  1.944015  2.664420  3.201838  3.556073  4.172261
   H (  8)  2.634953  1.933285  0.963746  3.238541  4.255388  3.574473
   H (  9)  2.054785  1.092026  2.051978  2.157706  2.641583  3.109759
             H (  7)   H (  8)
   H (  8)  2.613811
   H (  9)  2.195355  2.200112
 
 Requested basis set is 6-311++G(2df,2p)
 There are 66 shells and 234 basis functions
 A cutoff of  1.0D-12 yielded   2098 shell pairs
 There are     26685 function pairs (     33993 Cartesian)
 Smallest overlap matrix eigenvalue = 9.47E-05
 Guess MOs from SCF MO coefficient file

 -----------------------------------------------------------------------
  General SCF calculation program by
  Eric Jon Sundstrom, Paul Horn, Yuezhi Mao, Dmitri Zuev, Alec White,
  David Stuck, Shaama M.S., Shane Yost, Joonho Lee, David Small,
  Daniel Levine, Susi Lehtola, Hugh Burton, Evgeny Epifanovsky,
  Bang C. Huynh
 -----------------------------------------------------------------------
 Exchange:     0.1500 Hartree-Fock + 1.0000 wB97M-V + LR-HF
 Correlation:  1.0000 wB97M-V
 Using SG-2 standard quadrature grid
 Nonlocal Correlation:  VV10 with C = 0.0100 and b = 6.00 and scale = 1.00000
 Grid used for NLC:  SG-1 standard quadrature
 
 Citation of the SMD model:
 Marenich, A.V.; Cramer, C.J.; Truhlar, D.G.
 J. Phys. Chem. B 2009, 113, 6378-6396.
 iSolventCode=           1
 Solvent: water                                                           
 
 vradii
            1           2           3           4           5           6
    1   1.5200000   1.8500000   1.5200000   1.8500000   1.5200000   1.5200000
            7           8           9
    1   1.2000000   1.2000000   1.2000000
 -------------------------------------------------------
 OpenMP BLAS3 based DFT computing Module                
 Release: version 1.0, May 2013, Q-Chem Inc. Pittsburgh 
 -------------------------------------------------------
 A unrestricted SCF calculation will be
 performed using Roothaan-Hall, DIIS, GDM
 SCF converges when RMS gradient is below 1.0e-07
 ---------------------------------------
  Cycle       Energy         DIIS error
 ---------------------------------------
    1    -378.9661556181      5.90e-04  Roothaan Step
 ---------------------------------------
  Cycle       Energy         DIIS error
 ---------------------------------------
    1    -379.1084321606      6.63e-04  
    2    -379.1230895155      5.06e-04  Done DIIS. Switching to GDM
 ---------------------------------------
  Cycle       Energy        RMS Gradient
 ---------------------------------------
    1    -379.1230895155      1.23e-02   Normal BFGS step
    2    -379.1236589059      1.54e-02   Normal BFGS step
    3    -379.1278720737      1.62e-03   Normal BFGS step
    4    -379.1279192013      1.02e-03   Normal BFGS step
    5    -379.1279383239      3.64e-04   Normal BFGS step
    6    -379.1279389600      2.85e-04   Normal BFGS step
    7    -379.1279399211      2.37e-05   Normal BFGS step
    8    -379.1279399291      1.85e-05   Normal BFGS step
    9    -379.1279399417      3.56e-06   Normal BFGS step
   10    -379.1279399421      1.69e-06   Normal BFGS step
   11    -379.1279399421      5.23e-07   Normal BFGS step
   12    -379.1279399421      1.46e-07   Normal BFGS step
   13    -379.1279399421      7.57e-08  Convergence criterion met
 ---------------------------------------
 SCF time:   CPU 393.99s  wall 64.00s 
<S^2> =          0.000000000
(3)  G-ENP(liq) elect-nuc-pol free energy of system     -379.127939942 a.u.
(4)  G-CDS(liq) cavity-dispersion-solvent structure 
     free energy                                                4.1892 kcal/mol
(6)  G-S(liq) free energy of system                     -379.121264046 a.u.
 SCF   energy in the final basis set =     -379.1212640458
 Total energy in the final basis set =     -379.1212640458
 
 --------------------------------------------------------------
 
                    Orbital Energies (a.u.)
 --------------------------------------------------------------
 
 Alpha MOs
 -- Occupied --
-19.3412 -19.3399 -19.2867 -19.2841 -10.4393 -10.4375  -1.2010  -1.1628
 -1.1309  -1.0787  -0.8139  -0.6471  -0.6385  -0.6337  -0.5766  -0.5299
 -0.5106  -0.4987  -0.4894  -0.4139  -0.4098  -0.3710  -0.3607  -0.3581
 -- Virtual --
  0.0295   0.0586   0.0595   0.0730   0.1013   0.1096   0.1137   0.1177
  0.1426   0.1534   0.1549   0.1719   0.2131   0.2335   0.2418   0.2490
  0.2616   0.2836   0.2853   0.2975   0.3095   0.3111   0.3185   0.3346
  0.3436   0.3516   0.3542   0.3605   0.3729   0.3846   0.4071   0.4146
  0.4418   0.4564   0.5418   0.5679   0.5764   0.6304   0.6433   0.6679
  0.6875   0.7005   0.7041   0.7339   0.7793   0.8009   0.8059   0.8382
  0.8814   0.9083   0.9301   0.9654   1.0064   1.0442   1.0823   1.1087
  1.1162   1.1293   1.1584   1.1635   1.1840   1.1880   1.2161   1.2356
  1.2669   1.2764   1.2915   1.3232   1.3459   1.3555   1.3665   1.4418
  1.4646   1.5069   1.5332   1.5488   1.5959   1.6278   1.6460   1.6646
  1.6914   1.7597   1.7929   1.8103   1.8618   1.8894   1.9365   1.9588
  2.0000   2.0791   2.1450   2.1818   2.2226   2.2527   2.3631   2.3893
  2.4003   2.5107   2.5242   2.5531   2.5742   2.7144   2.7714   2.7970
  2.8230   2.8793   2.9079   3.0439   3.0849   3.1846   3.2238   3.2472
  3.2803   3.3461   3.3735   3.3948   3.4308   3.4455   3.5218   3.5297
  3.5969   3.6162   3.6487   3.6727   3.7062   3.7626   3.7788   3.8432
  3.8595   3.9180   3.9483   4.0064   4.0953   4.1297   4.1511   4.1969
  4.2520   4.2836   4.3297   4.3447   4.4516   4.5101   4.7670   5.1754
  5.1823   5.1889   5.2000   5.2090   5.2180   5.2295   5.2401   5.2725
  5.2876   5.2958   5.3028   5.3265   5.3421   5.3825   5.3971   5.4088
  5.4788   5.5249   5.5336   5.5617   5.6052   5.6405   5.6605   5.6722
  5.6910   5.7585   5.8325   6.0005   6.0375   6.0978   6.1494   6.3249
  6.4488   6.4988   6.7033   6.8695   6.9326   6.9845   7.0203   7.0566
  7.0696   7.1355   7.1670   7.2208   7.2569   7.2793   7.3243   7.3556
  7.3672   7.3953   7.4220   7.5269   7.5594   7.6205   7.7137   7.7626
  7.7959   7.8302   7.8550   7.8867  24.7565  25.1957  50.5825  50.5937
 50.7008  50.7287
 
 Beta MOs
 -- Occupied --
-19.3412 -19.3399 -19.2867 -19.2841 -10.4393 -10.4375  -1.2010  -1.1628
 -1.1309  -1.0787  -0.8139  -0.6471  -0.6385  -0.6337  -0.5766  -0.5299
 -0.5106  -0.4987  -0.4894  -0.4139  -0.4098  -0.3710  -0.3607  -0.3581
 -- Virtual --
  0.0295   0.0586   0.0595   0.0730   0.1013   0.1096   0.1137   0.1177
  0.1426   0.1534   0.1549   0.1719   0.2131   0.2335   0.2418   0.2490
  0.2616   0.2836   0.2853   0.2975   0.3095   0.3111   0.3185   0.3346
  0.3436   0.3516   0.3542   0.3605   0.3729   0.3846   0.4071   0.4146
  0.4418   0.4564   0.5418   0.5679   0.5764   0.6304   0.6433   0.6679
  0.6875   0.7005   0.7041   0.7339   0.7793   0.8009   0.8059   0.8382
  0.8814   0.9083   0.9301   0.9654   1.0064   1.0442   1.0823   1.1087
  1.1162   1.1293   1.1584   1.1635   1.1840   1.1880   1.2161   1.2356
  1.2669   1.2764   1.2915   1.3232   1.3459   1.3555   1.3665   1.4418
  1.4646   1.5069   1.5332   1.5488   1.5959   1.6278   1.6460   1.6646
  1.6914   1.7597   1.7929   1.8103   1.8618   1.8894   1.9365   1.9588
  2.0000   2.0791   2.1450   2.1818   2.2226   2.2527   2.3631   2.3893
  2.4003   2.5107   2.5242   2.5531   2.5742   2.7144   2.7714   2.7970
  2.8230   2.8793   2.9079   3.0439   3.0849   3.1846   3.2238   3.2472
  3.2803   3.3461   3.3735   3.3948   3.4308   3.4455   3.5218   3.5297
  3.5969   3.6162   3.6487   3.6727   3.7062   3.7626   3.7788   3.8432
  3.8595   3.9180   3.9483   4.0064   4.0953   4.1297   4.1511   4.1969
  4.2520   4.2836   4.3297   4.3447   4.4516   4.5101   4.7670   5.1754
  5.1823   5.1889   5.2000   5.2090   5.2180   5.2295   5.2401   5.2725
  5.2876   5.2958   5.3028   5.3265   5.3421   5.3825   5.3971   5.4088
  5.4788   5.5249   5.5336   5.5617   5.6052   5.6405   5.6605   5.6722
  5.6910   5.7585   5.8325   6.0005   6.0375   6.0978   6.1494   6.3249
  6.4488   6.4988   6.7033   6.8695   6.9326   6.9845   7.0203   7.0566
  7.0696   7.1355   7.1670   7.2208   7.2569   7.2793   7.3243   7.3556
  7.3672   7.3953   7.4220   7.5269   7.5594   7.6205   7.7137   7.7626
  7.7959   7.8302   7.8550   7.8867  24.7565  25.1957  50.5825  50.5937
 50.7008  50.7287
 --------------------------------------------------------------
 
          Ground-State Mulliken Net Atomic Charges

     Atom                 Charge (a.u.)    Spin (a.u.)
  --------------------------------------------------------
      1 O                    -0.446423       0.000000
      2 C                    -0.018792       0.000000
      3 O                    -0.462247       0.000000
      4 C                     0.382761       0.000000
      5 O                    -0.682707       0.000000
      6 O                    -0.670992       0.000000
      7 H                     0.338749       0.000000
      8 H                     0.337005       0.000000
      9 H                     0.222646       0.000000
  --------------------------------------------------------
  Sum of atomic charges =    -1.000000
  Sum of spin   charges =     0.000000

 -----------------------------------------------------------------
                    Cartesian Multipole Moments
 -----------------------------------------------------------------
    Charge (ESU x 10^10)
                -4.8032
    Dipole Moment (Debye)
         X     -12.1270      Y       2.2678      Z       2.6656
       Tot      12.6219
    Quadrupole Moments (Debye-Ang)
        XX     -47.4012     XY       1.7318     YY     -47.5850
        XZ      -6.0867     YZ      -4.6024     ZZ     -38.0238
    Octopole Moments (Debye-Ang^2)
       XXX    -100.2782    XXY      12.8342    XYY     -30.8787
       YYY      42.3668    XXZ      -4.8473    XYZ      -6.4961
       YYZ      -0.9951    XZZ     -19.2863    YZZ       8.9056
       ZZZ     -16.6164
    Hexadecapole Moments (Debye-Ang^3)
      XXXX    -431.4915   XXXY      25.8014   XXYY    -110.0773
      XYYY      22.6906   YYYY    -257.2083   XXXZ     -36.7844
      XXYZ     -18.1689   XYYZ      -7.1355   YYYZ     -21.2261
      XXZZ     -87.4211   XYZZ       3.2040   YYZZ     -55.8919
      XZZZ     -20.7060   YZZZ     -18.7318   ZZZZ     -84.1172
 -----------------------------------------------------------------
 Calculating analytic gradient of the SCF energy
 Gradient of CDS energy
            1           2           3           4           5           6
    1   0.0002843  -0.0016564   0.0011753   0.0030139  -0.0013248  -0.0007596
    2  -0.0010500  -0.0009703   0.0019649  -0.0001123  -0.0015900   0.0016123
    3   0.0003848  -0.0011087   0.0008092  -0.0003474  -0.0008863   0.0010612
            7           8           9
    1  -0.0002855  -0.0003924  -0.0000547
    2   0.0004485  -0.0003551   0.0000520
    3  -0.0000045  -0.0000087   0.0001003
 Gradient of SCF Energy
            1           2           3           4           5           6
    1  -0.0002234  -0.0022601  -0.0039677   0.0317400  -0.0180890  -0.0152289
    2   0.0119801   0.0004379  -0.0107725  -0.0079122  -0.0149458   0.0227660
    3  -0.0087632   0.0499793  -0.0094174  -0.0076398  -0.0121530   0.0128645
            7           8           9
    1   0.0032104   0.0065064  -0.0016878
    2  -0.0075330   0.0064839  -0.0005045
    3   0.0013803   0.0019026  -0.0281534
 Max gradient component =       4.998E-02
 RMS gradient           =       1.568E-02
 Computing fast CPCM-SWIG gradient
 Updating gradient with PCM contributions...
 -- total gradient after adding PCM contribution --
---------------------------------------------------
  Atom         X              Y              Z     
---------------------------------------------------
   1       0.000907      -0.000398      -0.000326
   2      -0.000217       0.000152      -0.000078
   3       0.000051      -0.000027       0.000030
   4       0.000002       0.000098       0.000029
   5      -0.000031      -0.000023      -0.000028
   6      -0.000017      -0.000021      -0.000007
   7      -0.000703       0.000194       0.000391
   8       0.000001       0.000021      -0.000003
   9       0.000007       0.000005      -0.000008
---------------------------------------------------
 Number of fixed atoms: 0
 Gradient time:  CPU 60.35 s  wall 10.45 s
 ----------------------------------------------------------------
             Standard Nuclear Orientation (Angstroms)
    I     Atom           X                Y                Z
 ----------------------------------------------------------------
    1      O      -0.7710752962     1.0095248173    -0.0901959350
    2      C      -0.3608196099    -0.2115914739     0.4922317158
    3      O      -1.0496930004    -1.3042071768    -0.0673185286
    4      C       1.1546408297    -0.3521732406     0.2396058149
    5      O       1.8571576590     0.5647537115     0.7328913092
    6      O       1.5662840877    -1.3426908188    -0.4048193267
    7      H      -1.6025330528     1.2738191661     0.3164522571
    8      H      -1.9354580049    -1.3186989432     0.3121775248
    9      H      -0.5354792121    -0.1788818416     1.5697029686
 ----------------------------------------------------------------
 Nuclear Repulsion Energy =         239.45559530 hartrees
 There are       24 alpha and       24 beta electrons
 Discretize the solute cavity surface with Lebedev spheres
	Using 110 Lebedev grid points for each H atom
	Using 194 Lebedev grid points for other atoms
	Atomic van der Waals radii will be scaled by 1.20
 Remove points where switching function is < 1.0e-08
 Keep 826 surface tesserae and discard 668 interior tesserae
 Molecular Surface Area = 99.735 Angst**2

                       Distance Matrix (Angstroms)
             O (  1)   C (  2)   O (  3)   C (  4)   O (  5)   O (  6)
   C (  2)  1.413739
   O (  3)  2.330559  1.407641
   C (  4)  2.381465  1.542791  2.420673
   O (  5)  2.789785  2.362213  3.547271  1.256032
   O (  6)  3.330939  2.407865  2.637939  1.251343  2.239941
   H (  7)  0.962568  1.944015  2.664420  3.201838  3.556073  4.172261
   H (  8)  2.634069  1.933285  0.963746  3.238541  4.255388  3.574473
   H (  9)  2.055013  1.092026  2.051978  2.157706  2.641583  3.109759
             H (  7)   H (  8)
   H (  8)  2.613811
   H (  9)  2.195355  2.200112
 
 Requested basis set is 6-311++G(2df,2p)
 There are 66 shells and 234 basis functions
 A cutoff of  1.0D-12 yielded   2098 shell pairs
 There are     26685 function pairs (     33993 Cartesian)
 Smallest overlap matrix eigenvalue = 9.47E-05
 Guess MOs from SCF MO coefficient file

 -----------------------------------------------------------------------
  General SCF calculation program by
  Eric Jon Sundstrom, Paul Horn, Yuezhi Mao, Dmitri Zuev, Alec White,
  David Stuck, Shaama M.S., Shane Yost, Joonho Lee, David Small,
  Daniel Levine, Susi Lehtola, Hugh Burton, Evgeny Epifanovsky,
  Bang C. Huynh
 -----------------------------------------------------------------------
 Exchange:     0.1500 Hartree-Fock + 1.0000 wB97M-V + LR-HF
 Correlation:  1.0000 wB97M-V
 Using SG-2 standard quadrature grid
 Nonlocal Correlation:  VV10 with C = 0.0100 and b = 6.00 and scale = 1.00000
 Grid used for NLC:  SG-1 standard quadrature
 
 Citation of the SMD model:
 Marenich, A.V.; Cramer, C.J.; Truhlar, D.G.
 J. Phys. Chem. B 2009, 113, 6378-6396.
 iSolventCode=           1
 Solvent: water                                                           
 
 vradii
            1           2           3           4           5           6
    1   1.5200000   1.8500000   1.5200000   1.8500000   1.5200000   1.5200000
            7           8           9
    1   1.2000000   1.2000000   1.2000000
 -------------------------------------------------------
 OpenMP BLAS3 based DFT computing Module                
 Release: version 1.0, May 2013, Q-Chem Inc. Pittsburgh 
 -------------------------------------------------------
 A unrestricted SCF calculation will be
 performed using Roothaan-Hall, DIIS, GDM
 SCF converges when RMS gradient is below 1.0e-07
 ---------------------------------------
  Cycle       Energy         DIIS error
 ---------------------------------------
    1    -378.9662202126      5.90e-04  Roothaan Step
 ---------------------------------------
  Cycle       Energy         DIIS error
 ---------------------------------------
    1    -379.1084594575      6.62e-04  
    2    -379.1231151235      5.04e-04  Done DIIS. Switching to GDM
 ---------------------------------------
  Cycle       Energy        RMS Gradient
 ---------------------------------------
    1    -379.1231151235      1.23e-02   Normal BFGS step
    2    -379.1236861900      1.55e-02   Normal BFGS step
    3    -379.1278709738      1.63e-03   Normal BFGS step
    4    -379.1279180702      1.02e-03   Normal BFGS step
    5    -379.1279372032      3.66e-04   Normal BFGS step
    6    -379.1279378382      2.87e-04   Normal BFGS step
    7    -379.1279388024      2.36e-05   Normal BFGS step
    8    -379.1279388104      1.84e-05   Normal BFGS step
    9    -379.1279388230      3.54e-06   Normal BFGS step
   10    -379.1279388233      1.77e-06   Normal BFGS step
   11    -379.1279388234      5.45e-07   Normal BFGS step
   12    -379.1279388234      1.50e-07   Normal BFGS step
   13    -379.1279388233      7.69e-08  Convergence criterion met
 ---------------------------------------
 SCF time:   CPU 396.74s  wall 64.00s 
<S^2> =         -0.000000000
(3)  G-ENP(liq) elect-nuc-pol free energy of system     -379.127938823 a.u.
(4)  G-CDS(liq) cavity-dispersion-solvent structure 
     free energy                                                4.1886 kcal/mol
(6)  G-S(liq) free energy of system                     -379.121263938 a.u.
 SCF   energy in the final basis set =     -379.1212639376
 Total energy in the final basis set =     -379.1212639376
 
 --------------------------------------------------------------
 
                    Orbital Energies (a.u.)
 --------------------------------------------------------------
 
 Alpha MOs
 -- Occupied --
-19.3411 -19.3399 -19.2867 -19.2842 -10.4393 -10.4375  -1.2010  -1.1629
 -1.1310  -1.0787  -0.8140  -0.6471  -0.6386  -0.6338  -0.5766  -0.5299
 -0.5107  -0.4987  -0.4894  -0.4139  -0.4097  -0.3710  -0.3607  -0.3582
 -- Virtual --
  0.0295   0.0586   0.0595   0.0730   0.1013   0.1096   0.1137   0.1177
  0.1426   0.1534   0.1549   0.1719   0.2131   0.2335   0.2419   0.2491
  0.2616   0.2836   0.2853   0.2975   0.3095   0.3111   0.3186   0.3346
  0.3435   0.3516   0.3542   0.3605   0.3730   0.3846   0.4070   0.4146
  0.4417   0.4564   0.5418   0.5681   0.5765   0.6307   0.6432   0.6681
  0.6876   0.7005   0.7041   0.7338   0.7794   0.8008   0.8059   0.8382
  0.8815   0.9085   0.9301   0.9654   1.0062   1.0442   1.0824   1.1086
  1.1160   1.1293   1.1583   1.1635   1.1839   1.1881   1.2160   1.2357
  1.2668   1.2763   1.2915   1.3232   1.3459   1.3556   1.3665   1.4416
  1.4643   1.5068   1.5338   1.5489   1.5960   1.6278   1.6459   1.6645
  1.6915   1.7598   1.7929   1.8103   1.8620   1.8895   1.9368   1.9588
  1.9999   2.0792   2.1448   2.1817   2.2224   2.2525   2.3629   2.3887
  2.3999   2.5106   2.5242   2.5531   2.5742   2.7151   2.7713   2.7969
  2.8232   2.8792   2.9079   3.0440   3.0849   3.1846   3.2237   3.2472
  3.2803   3.3460   3.3736   3.3947   3.4305   3.4453   3.5217   3.5298
  3.5968   3.6161   3.6489   3.6728   3.7060   3.7627   3.7788   3.8429
  3.8598   3.9178   3.9483   4.0064   4.0953   4.1303   4.1512   4.1971
  4.2528   4.2842   4.3305   4.3460   4.4518   4.5101   4.7669   5.1754
  5.1823   5.1889   5.2000   5.2090   5.2179   5.2295   5.2401   5.2726
  5.2875   5.2957   5.3027   5.3265   5.3419   5.3825   5.3973   5.4087
  5.4789   5.5248   5.5337   5.5617   5.6059   5.6404   5.6624   5.6725
  5.6911   5.7587   5.8331   6.0013   6.0380   6.0966   6.1490   6.3247
  6.4486   6.4982   6.7025   6.8694   6.9326   6.9845   7.0202   7.0567
  7.0697   7.1356   7.1670   7.2209   7.2569   7.2837   7.3273   7.3556
  7.3669   7.3956   7.4222   7.5268   7.5594   7.6210   7.7138   7.7627
  7.7956   7.8303   7.8550   7.8864  24.7555  25.1956  50.5831  50.5940
 50.7008  50.7286
 
 Beta MOs
 -- Occupied --
-19.3411 -19.3399 -19.2867 -19.2842 -10.4393 -10.4375  -1.2010  -1.1629
 -1.1310  -1.0787  -0.8140  -0.6471  -0.6386  -0.6338  -0.5766  -0.5299
 -0.5107  -0.4987  -0.4894  -0.4139  -0.4097  -0.3710  -0.3607  -0.3582
 -- Virtual --
  0.0295   0.0586   0.0595   0.0730   0.1013   0.1096   0.1137   0.1177
  0.1426   0.1534   0.1549   0.1719   0.2131   0.2335   0.2419   0.2491
  0.2616   0.2836   0.2853   0.2975   0.3095   0.3111   0.3186   0.3346
  0.3435   0.3516   0.3542   0.3605   0.3730   0.3846   0.4070   0.4146
  0.4417   0.4564   0.5418   0.5681   0.5765   0.6307   0.6432   0.6681
  0.6876   0.7005   0.7041   0.7338   0.7794   0.8008   0.8059   0.8382
  0.8815   0.9085   0.9301   0.9654   1.0062   1.0442   1.0824   1.1086
  1.1160   1.1293   1.1583   1.1635   1.1839   1.1881   1.2160   1.2357
  1.2668   1.2763   1.2915   1.3232   1.3459   1.3556   1.3665   1.4416
  1.4643   1.5068   1.5338   1.5489   1.5960   1.6278   1.6459   1.6645
  1.6915   1.7598   1.7929   1.8103   1.8620   1.8895   1.9368   1.9588
  1.9999   2.0792   2.1448   2.1817   2.2224   2.2525   2.3629   2.3887
  2.3999   2.5106   2.5242   2.5531   2.5742   2.7151   2.7713   2.7969
  2.8232   2.8792   2.9079   3.0440   3.0849   3.1846   3.2237   3.2472
  3.2803   3.3460   3.3736   3.3947   3.4305   3.4453   3.5217   3.5298
  3.5968   3.6161   3.6489   3.6728   3.7060   3.7627   3.7788   3.8429
  3.8598   3.9178   3.9483   4.0064   4.0953   4.1303   4.1512   4.1971
  4.2528   4.2842   4.3305   4.3460   4.4518   4.5101   4.7669   5.1754
  5.1823   5.1889   5.2000   5.2090   5.2179   5.2295   5.2401   5.2726
  5.2875   5.2957   5.3027   5.3265   5.3419   5.3825   5.3973   5.4087
  5.4789   5.5248   5.5337   5.5617   5.6059   5.6404   5.6624   5.6725
  5.6911   5.7587   5.8331   6.0013   6.0380   6.0966   6.1490   6.3247
  6.4486   6.4982   6.7025   6.8694   6.9326   6.9845   7.0202   7.0567
  7.0697   7.1356   7.1670   7.2209   7.2569   7.2837   7.3273   7.3556
  7.3669   7.3956   7.4222   7.5268   7.5594   7.6210   7.7138   7.7627
  7.7956   7.8303   7.8550   7.8864  24.7555  25.1956  50.5831  50.5940
 50.7008  50.7286
 --------------------------------------------------------------
 
          Ground-State Mulliken Net Atomic Charges

     Atom                 Charge (a.u.)    Spin (a.u.)
  --------------------------------------------------------
      1 O                    -0.446488       0.000000
      2 C                    -0.018823       0.000000
      3 O                    -0.462132       0.000000
      4 C                     0.382815       0.000000
      5 O                    -0.682564       0.000000
      6 O                    -0.670912       0.000000
      7 H                     0.338332       0.000000
      8 H                     0.337020       0.000000
      9 H                     0.222752       0.000000
  --------------------------------------------------------
  Sum of atomic charges =    -1.000000
  Sum of spin   charges =     0.000000

 -----------------------------------------------------------------
                    Cartesian Multipole Moments
 -----------------------------------------------------------------
    Charge (ESU x 10^10)
                -4.8032
    Dipole Moment (Debye)
         X     -12.1197      Y       2.2649      Z       2.6673
       Tot      12.6147
    Quadrupole Moments (Debye-Ang)
        XX     -47.4039     XY       1.7375     YY     -47.5844
        XZ      -6.0886     YZ      -4.6011     ZZ     -38.0203
    Octopole Moments (Debye-Ang^2)
       XXX    -100.2274    XXY      12.8250    XYY     -30.8597
       YYY      42.3630    XXZ      -4.8442    XYZ      -6.4968
       YYZ      -0.9932    XZZ     -19.2740    YZZ       8.9047
       ZZZ     -16.6123
    Hexadecapole Moments (Debye-Ang^3)
      XXXX    -431.5597   XXXY      25.8386   XXYY    -110.0883
      XYYY      22.7237   YYYY    -257.2011   XXXZ     -36.7932
      XXYZ     -18.1635   XYYZ      -7.1398   YYYZ     -21.2193
      XXZZ     -87.4313   XYZZ       3.2149   YYZZ     -55.8882
      XZZZ     -20.7134   YZZZ     -18.7299   ZZZZ     -84.1052
 -----------------------------------------------------------------
 Calculating analytic gradient of the SCF energy
 Gradient of CDS energy
            1           2           3           4           5           6
    1   0.0002508  -0.0016224   0.0011749   0.0030143  -0.0013249  -0.0007596
    2  -0.0009456  -0.0010751   0.0019648  -0.0001118  -0.0015904   0.0016123
    3   0.0003345  -0.0010584   0.0008090  -0.0003473  -0.0008864   0.0010612
            7           8           9
    1  -0.0002859  -0.0003924  -0.0000547
    2   0.0004489  -0.0003551   0.0000520
    3  -0.0000042  -0.0000087   0.0001003
 Gradient of SCF Energy
            1           2           3           4           5           6
    1  -0.0019846  -0.0018687  -0.0040214   0.0317071  -0.0180764  -0.0152154
    2   0.0127262   0.0001463  -0.0107420  -0.0079867  -0.0149431   0.0227653
    3  -0.0081718   0.0501088  -0.0094351  -0.0075538  -0.0121626   0.0128386
            7           8           9
    1   0.0046531   0.0065106  -0.0017043
    2  -0.0079316   0.0064761  -0.0005105
    3   0.0006167   0.0019004  -0.0281413
 Max gradient component =       5.011E-02
 RMS gradient           =       1.572E-02
 Computing fast CPCM-SWIG gradient
 Updating gradient with PCM contributions...
 -- total gradient after adding PCM contribution --
---------------------------------------------------
  Atom         X              Y              Z     
---------------------------------------------------
   1      -0.000966       0.000360       0.000299
   2       0.000216      -0.000139       0.000066
   3      -0.000001       0.000023       0.000001
   4       0.000016      -0.000030       0.000120
   5      -0.000006      -0.000023      -0.000036
   6       0.000015      -0.000033      -0.000036
   7       0.000744      -0.000171      -0.000406
   8      -0.000003       0.000017      -0.000004
   9      -0.000016      -0.000006      -0.000004
---------------------------------------------------
 Number of fixed atoms: 0
 Gradient time:  CPU 60.62 s  wall 10.66 s
 ----------------------------------------------------------------
             Standard Nuclear Orientation (Angstroms)
    I     Atom           X                Y                Z
 ----------------------------------------------------------------
    1      O      -0.7700752962     1.0105248173    -0.0901959350
    2      C      -0.3608196099    -0.2115914739     0.4922317158
    3      O      -1.0496930004    -1.3042071768    -0.0673185286
    4      C       1.1546408297    -0.3521732406     0.2396058149
    5      O       1.8571576590     0.5647537115     0.7328913092
    6      O       1.5662840877    -1.3426908188    -0.4048193267
    7      H      -1.6025330528     1.2738191661     0.3164522571
    8      H      -1.9354580049    -1.3186989432     0.3121775248
    9      H      -0.5354792121    -0.1788818416     1.5697029686
 ----------------------------------------------------------------
 Nuclear Repulsion Energy =         239.44184995 hartrees
 There are       24 alpha and       24 beta electrons
 Discretize the solute cavity surface with Lebedev spheres
	Using 110 Lebedev grid points for each H atom
	Using 194 Lebedev grid points for other atoms
	Atomic van der Waals radii will be scaled by 1.20
 Remove points where switching function is < 1.0e-08
 Keep 826 surface tesserae and discard 668 interior tesserae
 Molecular Surface Area = 99.741 Angst**2

                       Distance Matrix (Angstroms)
             O (  1)   C (  2)   O (  3)   C (  4)   O (  5)   O (  6)
   C (  2)  1.414313
   O (  3)  2.331672  1.407641
   C (  4)  2.381228  1.542791  2.420673
   O (  5)  2.789003  2.362213  3.547271  1.256032
   O (  6)  3.330944  2.407865  2.637939  1.251343  2.239941
   H (  7)  0.963158  1.944015  2.664420  3.201838  3.556073  4.172261
   H (  8)  2.635395  1.933285  0.963746  3.238541  4.255388  3.574473
   H (  9)  2.055478  1.092026  2.051978  2.157706  2.641583  3.109759
             H (  7)   H (  8)
   H (  8)  2.613811
   H (  9)  2.195355  2.200112
 
 Requested basis set is 6-311++G(2df,2p)
 There are 66 shells and 234 basis functions
 A cutoff of  1.0D-12 yielded   2098 shell pairs
 There are     26685 function pairs (     33993 Cartesian)
 Smallest overlap matrix eigenvalue = 9.47E-05
 Guess MOs from SCF MO coefficient file

 -----------------------------------------------------------------------
  General SCF calculation program by
  Eric Jon Sundstrom, Paul Horn, Yuezhi Mao, Dmitri Zuev, Alec White,
  David Stuck, Shaama M.S., Shane Yost, Joonho Lee, David Small,
  Daniel Levine, Susi Lehtola, Hugh Burton, Evgeny Epifanovsky,
  Bang C. Huynh
 -----------------------------------------------------------------------
 Exchange:     0.1500 Hartree-Fock + 1.0000 wB97M-V + LR-HF
 Correlation:  1.0000 wB97M-V
 Using SG-2 standard quadrature grid
 Nonlocal Correlation:  VV10 with C = 0.0100 and b = 6.00 and scale = 1.00000
 Grid used for NLC:  SG-1 standard quadrature
 
 Citation of the SMD model:
 Marenich, A.V.; Cramer, C.J.; Truhlar, D.G.
 J. Phys. Chem. B 2009, 113, 6378-6396.
 iSolventCode=           1
 Solvent: water                                                           
 
 vradii
            1           2           3           4           5           6
    1   1.5200000   1.8500000   1.5200000   1.8500000   1.5200000   1.5200000
            7           8           9
    1   1.2000000   1.2000000   1.2000000
 -------------------------------------------------------
 OpenMP BLAS3 based DFT computing Module                
 Release: version 1.0, May 2013, Q-Chem Inc. Pittsburgh 
 -------------------------------------------------------
 A unrestricted SCF calculation will be
 performed using Roothaan-Hall, DIIS, GDM
 SCF converges when RMS gradient is below 1.0e-07
 ---------------------------------------
  Cycle       Energy         DIIS error
 ---------------------------------------
    1    -378.9661921896      5.90e-04  Roothaan Step
 ---------------------------------------
  Cycle       Energy         DIIS error
 ---------------------------------------
    1    -379.1084489765      6.62e-04  
    2    -379.1230971311      5.05e-04  Done DIIS. Switching to GDM
 ---------------------------------------
  Cycle       Energy        RMS Gradient
 ---------------------------------------
    1    -379.1230971311      1.22e-02   Normal BFGS step
    2    -379.1236650430      1.55e-02   Normal BFGS step
    3    -379.1278700911      1.63e-03   Normal BFGS step
    4    -379.1279171689      1.03e-03   Normal BFGS step
    5    -379.1279362476      3.65e-04   Normal BFGS step
    6    -379.1279368799      2.86e-04   Normal BFGS step
    7    -379.1279378406      2.37e-05   Normal BFGS step
    8    -379.1279378486      1.84e-05   Normal BFGS step
    9    -379.1279378611      3.55e-06   Normal BFGS step
   10    -379.1279378614      1.71e-06   Normal BFGS step
   11    -379.1279378615      5.30e-07   Normal BFGS step
   12    -379.1279378615      1.47e-07   Normal BFGS step
   13    -379.1279378615      7.64e-08  Convergence criterion met
 ---------------------------------------
 SCF time:   CPU 398.95s  wall 66.00s 
<S^2> =         -0.000000000
(3)  G-ENP(liq) elect-nuc-pol free energy of system     -379.127937861 a.u.
(4)  G-CDS(liq) cavity-dispersion-solvent structure 
     free energy                                                4.1878 kcal/mol
(6)  G-S(liq) free energy of system                     -379.121264227 a.u.
 SCF   energy in the final basis set =     -379.1212642272
 Total energy in the final basis set =     -379.1212642272
 
 --------------------------------------------------------------
 
                    Orbital Energies (a.u.)
 --------------------------------------------------------------
 
 Alpha MOs
 -- Occupied --
-19.3412 -19.3400 -19.2867 -19.2842 -10.4393 -10.4376  -1.2009  -1.1629
 -1.1310  -1.0787  -0.8140  -0.6470  -0.6385  -0.6337  -0.5766  -0.5299
 -0.5106  -0.4988  -0.4894  -0.4139  -0.4098  -0.3710  -0.3607  -0.3582
 -- Virtual --
  0.0295   0.0586   0.0595   0.0730   0.1013   0.1096   0.1137   0.1177
  0.1426   0.1534   0.1549   0.1719   0.2131   0.2334   0.2419   0.2490
  0.2616   0.2836   0.2853   0.2975   0.3095   0.3111   0.3185   0.3345
  0.3435   0.3516   0.3542   0.3604   0.3728   0.3846   0.4070   0.4144
  0.4417   0.4563   0.5417   0.5681   0.5765   0.6306   0.6433   0.6680
  0.6875   0.7005   0.7041   0.7338   0.7793   0.8008   0.8058   0.8382
  0.8814   0.9084   0.9302   0.9654   1.0062   1.0442   1.0824   1.1086
  1.1161   1.1293   1.1583   1.1635   1.1839   1.1881   1.2160   1.2356
  1.2668   1.2764   1.2915   1.3232   1.3459   1.3555   1.3665   1.4417
  1.4644   1.5069   1.5335   1.5489   1.5960   1.6278   1.6459   1.6646
  1.6914   1.7594   1.7927   1.8103   1.8619   1.8894   1.9365   1.9587
  1.9999   2.0790   2.1449   2.1814   2.2225   2.2522   2.3628   2.3887
  2.4001   2.5103   2.5241   2.5530   2.5742   2.7146   2.7713   2.7969
  2.8230   2.8793   2.9079   3.0437   3.0848   3.1845   3.2237   3.2471
  3.2801   3.3456   3.3733   3.3948   3.4305   3.4453   3.5218   3.5297
  3.5969   3.6161   3.6489   3.6728   3.7061   3.7627   3.7786   3.8427
  3.8595   3.9176   3.9482   4.0063   4.0952   4.1301   4.1511   4.1970
  4.2524   4.2839   4.3302   4.3453   4.4515   4.5100   4.7669   5.1754
  5.1823   5.1889   5.2000   5.2090   5.2178   5.2295   5.2401   5.2726
  5.2875   5.2957   5.3026   5.3264   5.3418   5.3825   5.3973   5.4087
  5.4788   5.5246   5.5336   5.5617   5.6055   5.6403   5.6614   5.6722
  5.6911   5.7586   5.8320   6.0000   6.0372   6.0966   6.1490   6.3246
  6.4486   6.4975   6.7015   6.8694   6.9326   6.9844   7.0202   7.0566
  7.0696   7.1354   7.1669   7.2206   7.2569   7.2822   7.3260   7.3556
  7.3670   7.3953   7.4220   7.5266   7.5590   7.6205   7.7132   7.7626
  7.7956   7.8302   7.8549   7.8864  24.7546  25.1956  50.5826  50.5938
 50.7008  50.7286
 
 Beta MOs
 -- Occupied --
-19.3412 -19.3400 -19.2867 -19.2842 -10.4393 -10.4376  -1.2009  -1.1629
 -1.1310  -1.0787  -0.8140  -0.6470  -0.6385  -0.6337  -0.5766  -0.5299
 -0.5106  -0.4988  -0.4894  -0.4139  -0.4098  -0.3710  -0.3607  -0.3582
 -- Virtual --
  0.0295   0.0586   0.0595   0.0730   0.1013   0.1096   0.1137   0.1177
  0.1426   0.1534   0.1549   0.1719   0.2131   0.2334   0.2419   0.2490
  0.2616   0.2836   0.2853   0.2975   0.3095   0.3111   0.3185   0.3345
  0.3435   0.3516   0.3542   0.3604   0.3728   0.3846   0.4070   0.4144
  0.4417   0.4563   0.5417   0.5681   0.5765   0.6306   0.6433   0.6680
  0.6875   0.7005   0.7041   0.7338   0.7793   0.8008   0.8058   0.8382
  0.8814   0.9084   0.9302   0.9654   1.0062   1.0442   1.0824   1.1086
  1.1161   1.1293   1.1583   1.1635   1.1839   1.1881   1.2160   1.2356
  1.2668   1.2764   1.2915   1.3232   1.3459   1.3555   1.3665   1.4417
  1.4644   1.5069   1.5335   1.5489   1.5960   1.6278   1.6459   1.6646
  1.6914   1.7594   1.7927   1.8103   1.8619   1.8894   1.9365   1.9587
  1.9999   2.0790   2.1449   2.1814   2.2225   2.2522   2.3628   2.3887
  2.4001   2.5103   2.5241   2.5530   2.5742   2.7146   2.7713   2.7969
  2.8230   2.8793   2.9079   3.0437   3.0848   3.1845   3.2237   3.2471
  3.2801   3.3456   3.3733   3.3948   3.4305   3.4453   3.5218   3.5297
  3.5969   3.6161   3.6489   3.6728   3.7061   3.7627   3.7786   3.8427
  3.8595   3.9176   3.9482   4.0063   4.0952   4.1301   4.1511   4.1970
  4.2524   4.2839   4.3302   4.3453   4.4515   4.5100   4.7669   5.1754
  5.1823   5.1889   5.2000   5.2090   5.2178   5.2295   5.2401   5.2726
  5.2875   5.2957   5.3026   5.3264   5.3418   5.3825   5.3973   5.4087
  5.4788   5.5246   5.5336   5.5617   5.6055   5.6403   5.6614   5.6722
  5.6911   5.7586   5.8320   6.0000   6.0372   6.0966   6.1490   6.3246
  6.4486   6.4975   6.7015   6.8694   6.9326   6.9844   7.0202   7.0566
  7.0696   7.1354   7.1669   7.2206   7.2569   7.2822   7.3260   7.3556
  7.3670   7.3953   7.4220   7.5266   7.5590   7.6205   7.7132   7.7626
  7.7956   7.8302   7.8549   7.8864  24.7546  25.1956  50.5826  50.5938
 50.7008  50.7286
 --------------------------------------------------------------
 
          Ground-State Mulliken Net Atomic Charges

     Atom                 Charge (a.u.)    Spin (a.u.)
  --------------------------------------------------------
      1 O                    -0.446678       0.000000
      2 C                    -0.018889       0.000000
      3 O                    -0.461940       0.000000
      4 C                     0.382809       0.000000
      5 O                    -0.682591       0.000000
      6 O                    -0.670940       0.000000
      7 H                     0.338396       0.000000
      8 H                     0.337046       0.000000
      9 H                     0.222787       0.000000
  --------------------------------------------------------
  Sum of atomic charges =    -1.000000
  Sum of spin   charges =     0.000000

 -----------------------------------------------------------------
                    Cartesian Multipole Moments
 -----------------------------------------------------------------
    Charge (ESU x 10^10)
                -4.8032
    Dipole Moment (Debye)
         X     -12.1226      Y       2.2599      Z       2.6669
       Tot      12.6166
    Quadrupole Moments (Debye-Ang)
        XX     -47.4016     XY       1.7406     YY     -47.5893
        XZ      -6.0878     YZ      -4.6023     ZZ     -38.0210
    Octopole Moments (Debye-Ang^2)
       XXX    -100.2501    XXY      12.8151    XYY     -30.8648
       YYY      42.3231    XXZ      -4.8456    XYZ      -6.4959
       YYZ      -0.9940    XZZ     -19.2797    YZZ       8.8957
       ZZZ     -16.6111
    Hexadecapole Moments (Debye-Ang^3)
      XXXX    -431.5136   XXXY      25.8449   XXYY    -110.0942
      XYYY      22.7406   YYYY    -257.2808   XXXZ     -36.7899
      XXYZ     -18.1650   XYYZ      -7.1386   YYYZ     -21.2223
      XXZZ     -87.4245   XYZZ       3.2170   YYZZ     -55.9018
      XZZZ     -20.7114   YZZZ     -18.7300   ZZZZ     -84.1032
 -----------------------------------------------------------------
 Calculating analytic gradient of the SCF energy
 Gradient of CDS energy
            1           2           3           4           5           6
    1   0.0002174  -0.0015889   0.0011752   0.0030141  -0.0013249  -0.0007596
    2  -0.0008475  -0.0011734   0.0019649  -0.0001121  -0.0015901   0.0016123
    3   0.0002880  -0.0010120   0.0008092  -0.0003474  -0.0008863   0.0010612
            7           8           9
    1  -0.0002860  -0.0003924  -0.0000547
    2   0.0004488  -0.0003551   0.0000522
    3  -0.0000043  -0.0000087   0.0001004
 Gradient of SCF Energy
            1           2           3           4           5           6
    1  -0.0014713  -0.0019443  -0.0040011   0.0317222  -0.0180833  -0.0152137
    2   0.0130025  -0.0001216  -0.0108556  -0.0079728  -0.0149327   0.0227683
    3  -0.0085884   0.0502357  -0.0094225  -0.0075871  -0.0121599   0.0128459
            7           8           9
    1   0.0041770   0.0065038  -0.0016893
    2  -0.0078242   0.0064739  -0.0005378
    3   0.0008946   0.0019047  -0.0281230
 Max gradient component =       5.024E-02
 RMS gradient           =       1.575E-02
 Computing fast CPCM-SWIG gradient
 Updating gradient with PCM contributions...
 -- total gradient after adding PCM contribution --
---------------------------------------------------
  Atom         X              Y              Z     
---------------------------------------------------
   1      -0.000404       0.000704      -0.000176
   2       0.000110      -0.000406       0.000219
   3       0.000008      -0.000145       0.000021
   4       0.000014       0.000003       0.000090
   5      -0.000016      -0.000016      -0.000034
   6       0.000011      -0.000030      -0.000028
   7       0.000264      -0.000101      -0.000103
   8       0.000003       0.000021      -0.000005
   9       0.000009      -0.000029       0.000016
---------------------------------------------------
 Number of fixed atoms: 0
 Gradient time:  CPU 60.73 s  wall 10.71 s
 ----------------------------------------------------------------
             Standard Nuclear Orientation (Angstroms)
    I     Atom           X                Y                Z
 ----------------------------------------------------------------
    1      O      -0.7700752962     1.0085248173    -0.0901959350
    2      C      -0.3608196099    -0.2115914739     0.4922317158
    3      O      -1.0496930004    -1.3042071768    -0.0673185286
    4      C       1.1546408297    -0.3521732406     0.2396058149
    5      O       1.8571576590     0.5647537115     0.7328913092
    6      O       1.5662840877    -1.3426908188    -0.4048193267
    7      H      -1.6025330528     1.2738191661     0.3164522571
    8      H      -1.9354580049    -1.3186989432     0.3121775248
    9      H      -0.5354792121    -0.1788818416     1.5697029686
 ----------------------------------------------------------------
 Nuclear Repulsion Energy =         239.48676173 hartrees
 There are       24 alpha and       24 beta electrons
 Discretize the solute cavity surface with Lebedev spheres
	Using 110 Lebedev grid points for each H atom
	Using 194 Lebedev grid points for other atoms
	Atomic van der Waals radii will be scaled by 1.20
 Remove points where switching function is < 1.0e-08
 Keep 826 surface tesserae and discard 668 interior tesserae
 Molecular Surface Area = 99.730 Angst**2

                       Distance Matrix (Angstroms)
             O (  1)   C (  2)   O (  3)   C (  4)   O (  5)   O (  6)
   C (  2)  1.412585
   O (  3)  2.329686  1.407641
   C (  4)  2.380084  1.542791  2.420673
   O (  5)  2.788684  2.362213  3.547271  1.256032
   O (  6)  3.329531  2.407865  2.637939  1.251343  2.239941
   H (  7)  0.963706  1.944015  2.664420  3.201838  3.556073  4.172261
   H (  8)  2.633627  1.933285  0.963746  3.238541  4.255388  3.574473
   H (  9)  2.054321  1.092026  2.051978  2.157706  2.641583  3.109759
             H (  7)   H (  8)
   H (  8)  2.613811
   H (  9)  2.195355  2.200112
 
 Requested basis set is 6-311++G(2df,2p)
 There are 66 shells and 234 basis functions
 A cutoff of  1.0D-12 yielded   2098 shell pairs
 There are     26685 function pairs (     33993 Cartesian)
 Smallest overlap matrix eigenvalue = 9.47E-05
 Guess MOs from SCF MO coefficient file

 -----------------------------------------------------------------------
  General SCF calculation program by
  Eric Jon Sundstrom, Paul Horn, Yuezhi Mao, Dmitri Zuev, Alec White,
  David Stuck, Shaama M.S., Shane Yost, Joonho Lee, David Small,
  Daniel Levine, Susi Lehtola, Hugh Burton, Evgeny Epifanovsky,
  Bang C. Huynh
 -----------------------------------------------------------------------
 Exchange:     0.1500 Hartree-Fock + 1.0000 wB97M-V + LR-HF
 Correlation:  1.0000 wB97M-V
 Using SG-2 standard quadrature grid
 Nonlocal Correlation:  VV10 with C = 0.0100 and b = 6.00 and scale = 1.00000
 Grid used for NLC:  SG-1 standard quadrature
 
 Citation of the SMD model:
 Marenich, A.V.; Cramer, C.J.; Truhlar, D.G.
 J. Phys. Chem. B 2009, 113, 6378-6396.
 iSolventCode=           1
 Solvent: water                                                           
 
 vradii
            1           2           3           4           5           6
    1   1.5200000   1.8500000   1.5200000   1.8500000   1.5200000   1.5200000
            7           8           9
    1   1.2000000   1.2000000   1.2000000
 -------------------------------------------------------
 OpenMP BLAS3 based DFT computing Module                
 Release: version 1.0, May 2013, Q-Chem Inc. Pittsburgh 
 -------------------------------------------------------
 A unrestricted SCF calculation will be
 performed using Roothaan-Hall, DIIS, GDM
 SCF converges when RMS gradient is below 1.0e-07
 ---------------------------------------
  Cycle       Energy         DIIS error
 ---------------------------------------
    1    -378.9661851086      5.90e-04  Roothaan Step
 ---------------------------------------
  Cycle       Energy         DIIS error
 ---------------------------------------
    1    -379.1084476014      6.62e-04  
    2    -379.1230977355      5.06e-04  Done DIIS. Switching to GDM
 ---------------------------------------
  Cycle       Energy        RMS Gradient
 ---------------------------------------
    1    -379.1230977355      1.23e-02   Normal BFGS step
    2    -379.1236668597      1.54e-02   Normal BFGS step
    3    -379.1278737157      1.62e-03   Normal BFGS step
    4    -379.1279208075      1.02e-03   Normal BFGS step
    5    -379.1279399361      3.64e-04   Normal BFGS step
    6    -379.1279405754      2.85e-04   Normal BFGS step
    7    -379.1279415363      2.37e-05   Normal BFGS step
    8    -379.1279415443      1.85e-05   Normal BFGS step
    9    -379.1279415569      3.56e-06   Normal BFGS step
   10    -379.1279415573      1.70e-06   Normal BFGS step
   11    -379.1279415573      5.26e-07   Normal BFGS step
   12    -379.1279415573      1.47e-07   Normal BFGS step
   13    -379.1279415573      7.58e-08  Convergence criterion met
 ---------------------------------------
 SCF time:   CPU 402.00s  wall 67.00s 
<S^2> =         -0.000000000
(3)  G-ENP(liq) elect-nuc-pol free energy of system     -379.127941557 a.u.
(4)  G-CDS(liq) cavity-dispersion-solvent structure 
     free energy                                                4.1901 kcal/mol
(6)  G-S(liq) free energy of system                     -379.121264146 a.u.
 SCF   energy in the final basis set =     -379.1212641465
 Total energy in the final basis set =     -379.1212641465
 
 --------------------------------------------------------------
 
                    Orbital Energies (a.u.)
 --------------------------------------------------------------
 
 Alpha MOs
 -- Occupied --
-19.3412 -19.3399 -19.2867 -19.2841 -10.4393 -10.4374  -1.2011  -1.1629
 -1.1310  -1.0787  -0.8139  -0.6471  -0.6386  -0.6338  -0.5767  -0.5299
 -0.5106  -0.4987  -0.4894  -0.4139  -0.4097  -0.3710  -0.3607  -0.3581
 -- Virtual --
  0.0295   0.0586   0.0595   0.0730   0.1013   0.1096   0.1137   0.1177
  0.1426   0.1534   0.1549   0.1718   0.2131   0.2336   0.2418   0.2490
  0.2616   0.2836   0.2853   0.2975   0.3095   0.3111   0.3186   0.3346
  0.3436   0.3516   0.3543   0.3605   0.3731   0.3847   0.4071   0.4148
  0.4418   0.4564   0.5419   0.5679   0.5765   0.6305   0.6433   0.6680
  0.6876   0.7005   0.7042   0.7339   0.7793   0.8009   0.8060   0.8382
  0.8814   0.9085   0.9301   0.9655   1.0064   1.0442   1.0823   1.1087
  1.1162   1.1293   1.1584   1.1635   1.1840   1.1880   1.2161   1.2357
  1.2668   1.2764   1.2915   1.3232   1.3459   1.3556   1.3665   1.4417
  1.4645   1.5068   1.5335   1.5488   1.5959   1.6278   1.6460   1.6646
  1.6914   1.7602   1.7931   1.8103   1.8619   1.8896   1.9367   1.9589
  2.0000   2.0793   2.1450   2.1821   2.2225   2.2529   2.3632   2.3892
  2.4001   2.5110   2.5243   2.5532   2.5742   2.7149   2.7714   2.7970
  2.8232   2.8793   2.9079   3.0442   3.0850   3.1847   3.2238   3.2473
  3.2805   3.3465   3.3737   3.3948   3.4308   3.4455   3.5217   3.5298
  3.5969   3.6162   3.6487   3.6728   3.7062   3.7626   3.7790   3.8434
  3.8599   3.9181   3.9484   4.0065   4.0953   4.1299   4.1513   4.1970
  4.2525   4.2839   4.3301   4.3453   4.4519   4.5101   4.7670   5.1754
  5.1823   5.1889   5.2000   5.2091   5.2180   5.2295   5.2401   5.2725
  5.2876   5.2958   5.3029   5.3265   5.3421   5.3825   5.3972   5.4088
  5.4790   5.5251   5.5337   5.5617   5.6056   5.6406   5.6615   5.6724
  5.6910   5.7586   5.8336   6.0018   6.0383   6.0979   6.1495   6.3250
  6.4489   6.4995   6.7044   6.8694   6.9326   6.9845   7.0203   7.0567
  7.0697   7.1357   7.1671   7.2212   7.2569   7.2809   7.3254   7.3556
  7.3671   7.3955   7.4222   7.5271   7.5598   7.6210   7.7143   7.7627
  7.7959   7.8303   7.8550   7.8867  24.7575  25.1957  50.5830  50.5939
 50.7008  50.7287
 
 Beta MOs
 -- Occupied --
-19.3412 -19.3399 -19.2867 -19.2841 -10.4393 -10.4374  -1.2011  -1.1629
 -1.1310  -1.0787  -0.8139  -0.6471  -0.6386  -0.6338  -0.5767  -0.5299
 -0.5106  -0.4987  -0.4894  -0.4139  -0.4097  -0.3710  -0.3607  -0.3581
 -- Virtual --
  0.0295   0.0586   0.0595   0.0730   0.1013   0.1096   0.1137   0.1177
  0.1426   0.1534   0.1549   0.1718   0.2131   0.2336   0.2418   0.2490
  0.2616   0.2836   0.2853   0.2975   0.3095   0.3111   0.3186   0.3346
  0.3436   0.3516   0.3543   0.3605   0.3731   0.3847   0.4071   0.4148
  0.4418   0.4564   0.5419   0.5679   0.5765   0.6305   0.6433   0.6680
  0.6876   0.7005   0.7042   0.7339   0.7793   0.8009   0.8060   0.8382
  0.8814   0.9085   0.9301   0.9655   1.0064   1.0442   1.0823   1.1087
  1.1162   1.1293   1.1584   1.1635   1.1840   1.1880   1.2161   1.2357
  1.2668   1.2764   1.2915   1.3232   1.3459   1.3556   1.3665   1.4417
  1.4645   1.5068   1.5335   1.5488   1.5959   1.6278   1.6460   1.6646
  1.6914   1.7602   1.7931   1.8103   1.8619   1.8896   1.9367   1.9589
  2.0000   2.0793   2.1450   2.1821   2.2225   2.2529   2.3632   2.3892
  2.4001   2.5110   2.5243   2.5532   2.5742   2.7149   2.7714   2.7970
  2.8232   2.8793   2.9079   3.0442   3.0850   3.1847   3.2238   3.2473
  3.2805   3.3465   3.3737   3.3948   3.4308   3.4455   3.5217   3.5298
  3.5969   3.6162   3.6487   3.6728   3.7062   3.7626   3.7790   3.8434
  3.8599   3.9181   3.9484   4.0065   4.0953   4.1299   4.1513   4.1970
  4.2525   4.2839   4.3301   4.3453   4.4519   4.5101   4.7670   5.1754
  5.1823   5.1889   5.2000   5.2091   5.2180   5.2295   5.2401   5.2725
  5.2876   5.2958   5.3029   5.3265   5.3421   5.3825   5.3972   5.4088
  5.4790   5.5251   5.5337   5.5617   5.6056   5.6406   5.6615   5.6724
  5.6910   5.7586   5.8336   6.0018   6.0383   6.0979   6.1495   6.3250
  6.4489   6.4995   6.7044   6.8694   6.9326   6.9845   7.0203   7.0567
  7.0697   7.1357   7.1671   7.2212   7.2569   7.2809   7.3254   7.3556
  7.3671   7.3955   7.4222   7.5271   7.5598   7.6210   7.7143   7.7627
  7.7959   7.8303   7.8550   7.8867  24.7575  25.1957  50.5830  50.5939
 50.7008  50.7287
 --------------------------------------------------------------
 
          Ground-State Mulliken Net Atomic Charges

     Atom                 Charge (a.u.)    Spin (a.u.)
  --------------------------------------------------------
      1 O                    -0.446233       0.000000
      2 C                    -0.018728       0.000000
      3 O                    -0.462438       0.000000
      4 C                     0.382767       0.000000
      5 O                    -0.682680       0.000000
      6 O                    -0.670964       0.000000
      7 H                     0.338686       0.000000
      8 H                     0.336979       0.000000
      9 H                     0.222610       0.000000
  --------------------------------------------------------
  Sum of atomic charges =    -1.000000
  Sum of spin   charges =     0.000000

 -----------------------------------------------------------------
                    Cartesian Multipole Moments
 -----------------------------------------------------------------
    Charge (ESU x 10^10)
                -4.8032
    Dipole Moment (Debye)
         X     -12.1241      Y       2.2728      Z       2.6661
       Tot      12.6201
    Quadrupole Moments (Debye-Ang)
        XX     -47.4035     XY       1.7287     YY     -47.5800
        XZ      -6.0874     YZ      -4.6013     ZZ     -38.0231
    Octopole Moments (Debye-Ang^2)
       XXX    -100.2555    XXY      12.8442    XYY     -30.8736
       YYY      42.4067    XXZ      -4.8459    XYZ      -6.4969
       YYZ      -0.9943    XZZ     -19.2806    YZZ       8.9145
       ZZZ     -16.6176
    Hexadecapole Moments (Debye-Ang^3)
      XXXX    -431.5376   XXXY      25.7951   XXYY    -110.0714
      XYYY      22.6736   YYYY    -257.1287   XXXZ     -36.7877
      XXYZ     -18.1673   XYYZ      -7.1367   YYYZ     -21.2232
      XXZZ     -87.4278   XYZZ       3.2020   YYZZ     -55.8783
      XZZZ     -20.7080   YZZZ     -18.7317   ZZZZ     -84.1193
 -----------------------------------------------------------------
 Calculating analytic gradient of the SCF energy
 Gradient of CDS energy
            1           2           3           4           5           6
    1   0.0003215  -0.0016937   0.0011750   0.0030142  -0.0013249  -0.0007596
    2  -0.0011591  -0.0008609   0.0019647  -0.0001119  -0.0015904   0.0016123
    3   0.0004367  -0.0011605   0.0008089  -0.0003473  -0.0008863   0.0010612
            7           8           9
    1  -0.0002854  -0.0003924  -0.0000547
    2   0.0004486  -0.0003551   0.0000518
    3  -0.0000044  -0.0000087   0.0001003
 Gradient of SCF Energy
            1           2           3           4           5           6
    1  -0.0007282  -0.0021891  -0.0039879   0.0317250  -0.0180821  -0.0152306
    2   0.0116885   0.0007186  -0.0106585  -0.0079262  -0.0149563   0.0227630
    3  -0.0083430   0.0498459  -0.0094300  -0.0076063  -0.0121557   0.0128572
            7           8           9
    1   0.0036826   0.0065132  -0.0017028
    2  -0.0076382   0.0064862  -0.0004772
    3   0.0011054   0.0018983  -0.0281718
 Max gradient component =       4.985E-02
 RMS gradient           =       1.565E-02
 Computing fast CPCM-SWIG gradient
 Updating gradient with PCM contributions...
 -- total gradient after adding PCM contribution --
---------------------------------------------------
  Atom         X              Y              Z     
---------------------------------------------------
   1       0.000353      -0.000756       0.000152
   2      -0.000115       0.000431      -0.000238
   3       0.000042       0.000142       0.000010
   4       0.000005       0.000066       0.000059
   5      -0.000022      -0.000030      -0.000031
   6      -0.000013      -0.000024      -0.000015
   7      -0.000227       0.000126       0.000092
   8      -0.000005       0.000017      -0.000002
   9      -0.000018       0.000028      -0.000027
---------------------------------------------------
 Number of fixed atoms: 0
 Gradient time:  CPU 61.70 s  wall 10.33 s
 ----------------------------------------------------------------
             Standard Nuclear Orientation (Angstroms)
    I     Atom           X                Y                Z
 ----------------------------------------------------------------
    1      O      -0.7700752962     1.0095248173    -0.0891959350
    2      C      -0.3608196099    -0.2115914739     0.4922317158
    3      O      -1.0496930004    -1.3042071768    -0.0673185286
    4      C       1.1546408297    -0.3521732406     0.2396058149
    5      O       1.8571576590     0.5647537115     0.7328913092
    6      O       1.5662840877    -1.3426908188    -0.4048193267
    7      H      -1.6025330528     1.2738191661     0.3164522571
    8      H      -1.9354580049    -1.3186989432     0.3121775248
    9      H      -0.5354792121    -0.1788818416     1.5697029686
 ----------------------------------------------------------------
 Nuclear Repulsion Energy =         239.47403916 hartrees
 There are       24 alpha and       24 beta electrons
 Discretize the solute cavity surface with Lebedev spheres
	Using 110 Lebedev grid points for each H atom
	Using 194 Lebedev grid points for other atoms
	Atomic van der Waals radii will be scaled by 1.20
 Remove points where switching function is < 1.0e-08
 Keep 826 surface tesserae and discard 668 interior tesserae
 Molecular Surface Area = 99.730 Angst**2

                       Distance Matrix (Angstroms)
[...]
     3   -5.697132039241978e-05   1.290600059447727e-03   9.187253552244765e-04
     4    9.405880360533436e-02  -1.522583814653782e-01  -1.755706199222651e-01
     5   -1.785247615867208e-02  -7.329291007847807e-02  -1.737305377309659e-02
     6   -8.835834461686731e-02   2.465213644767091e-01   1.832209699466455e-01
     7    2.437040851306798e-04  -8.423395165251673e-04   1.371574745898378e-03
     8   -3.593130357893645e-04   5.638958592791498e-04   4.682420575733856e-04
     9   -3.293302270504497e-04   7.211288588596491e-04  -1.745813701244668e-04


     7 Order 1, Length 27
    Atom      X          Y          Z
     1   -3.828400653272436e-01   1.299903075434788e-01   1.822710518879406e-01
     2   -1.079776578442761e-02   3.295402400447101e-03   5.718102367369263e-03
     3    3.263544083232463e-04  -2.043409866036417e-03  -3.369653302752501e-04
     4   -2.754505727721930e-04   1.936801405518683e-03  -1.846151175725863e-03
     5    4.148102726314585e-04   2.704038509294905e-04   3.046552459269625e-04
     6   -2.901131013984796e-05   2.568892726304729e-05   2.437040851306798e-04
     7    3.919963038575666e-01  -1.310571927369004e-01  -1.871696215640344e-01
     8   -1.007866833060055e-05   2.374560823959673e-04   2.926270725871774e-04
     9    1.214918413130890e-03  -2.655450042274293e-03   5.225936546661454e-04

Order 1, Length 27
    Atom      X          Y          Z
     1    9.656377034564723e-02  -5.991255267482778e-02  -2.711094638402224e-02
     2    3.731568448076539e-02  -1.782483164320190e-02  -1.325834768180587e-02
     3   -7.083293897663576e-04   1.017029525659207e-03   4.307804956080718e-04
     4   -1.222801332881984e-03  -3.622493674852925e-03   3.039466786097616e-03
     5    1.022750260586315e-04   1.120996640000016e-03  -4.586736386638261e-04
     6    8.175493408141968e-04   1.387876919617670e-05  -8.423395165251673e-04
     7   -1.310571927369004e-01   7.866605032646616e-02   3.828032380918613e-02
     8   -4.684930089290993e-04  -8.096625946505754e-04   2.736975503134945e-05
     9   -1.342429694974490e-03   1.351606075909322e-03  -1.076347239296005e-04

Order 1, Length 27
    Atom      X          Y          Z
     1    2.108894855639037e-01  -5.150776506195530e-02  -1.181359978209382e-01
     2   -2.164500191343308e-02   8.862775448156855e-03   4.652879850836336e-03
     3    5.299303438952073e-04   5.439418421164708e-04  -2.388158423826702e-05
     4    1.179896873802664e-03   4.234258536372802e-03  -1.349587032302747e-03
     5   -7.242646224485861e-04  -5.097712899989509e-04   7.576518108430900e-05
     6   -2.088789536810873e-03   8.195180586174273e-04   1.371574745898378e-03
     7   -1.871696215640344e-01   3.828032380918613e-02   1.121148860022171e-01
     8    2.383310655092653e-04  -1.499853632981765e-04   1.614145820888846e-04
     9   -1.209951973366768e-03  -5.733093749288652e-04   1.132968635909016e-03


     8 Order 1, Length 27
    Atom      X          Y          Z
     1    1.047593146657214e-03   2.154397093846246e-03  -6.330610249661950e-04
     2   -2.168312299657933e-02  -1.807929047779931e-03   9.188738273051425e-03
     3   -4.305318669680400e-01  -2.308935033886551e-02   1.727606039496783e-01
     4    2.562496719459067e-04  -1.380819240891976e-03  -1.465903080348647e-03
     5   -9.811047275684291e-04  -7.520537433899084e-04  -6.815787261962392e-05
     6    3.455999836648912e-04  -6.323154974262220e-04  -3.593130357893645e-04
     7   -1.007866833060055e-05  -4.684930089290993e-04   2.383310655092653e-04
     8    4.493349357238636e-01   2.372137214265015e-02  -1.800640375419790e-01
     9    2.221789114103972e-03   2.255183378859492e-03   4.027946110692078e-04

Order 1, Length 27
    Atom      X          Y          Z
     1    9.158245273867391e-04   1.094441512689509e-03  -3.035963503803336e-04
     2   -3.817412367837422e-02  -7.246544167281849e-03   1.156126785449163e-02
     3    1.180987412973968e-02  -2.595460383223264e-02  -2.444123773010179e-02
     4    7.166246395201969e-04  -3.146595650689839e-03  -3.237258180776450e-03
     5   -1.747452599107742e-03  -2.421124302459254e-04   5.465060983418387e-05
     6    1.554957264752098e-03   9.374108852229889e-04   5.638958592791498e-04
     7    2.374560823959673e-04  -8.096625946505754e-04  -1.499853632981765e-04
     8    2.372137214265015e-02   3.518329694199689e-02   1.608511121008144e-02
     9    9.654582338392919e-04   1.843924810888382e-04  -1.328425076350893e-04

Order 1, Length 27
    Atom      X          Y          Z
     1    2.281162606938823e-04  -8.836300542615361e-04   7.544173518620132e-06
     2   -2.201125220726200e-02  -1.949776125594515e-03   5.458462745978434e-03
     3    2.039771914175797e-01  -9.942477761550274e-03  -1.033365055133455e-01
     4    7.338659772437522e-04  -4.476737982318290e-03  -7.380257934340012e-04
     5   -2.585113871332504e-03  -4.729013111865076e-04  -2.342681118131018e-04
     6    1.741162489563130e-04   7.629623585287940e-04   4.682420575733856e-04
     7    2.926270725871774e-04   2.736975503134945e-05   1.614145820888846e-04
     8   -1.800640375419790e-01   1.608511121008144e-02   9.729796265775248e-02
     9   -7.454930535370245e-04   8.500972067043201e-04   9.151956381143112e-04


     9 Order 1, Length 27
    Atom      X          Y          Z
     1    5.991828146118693e-03   7.230520480526667e-03  -1.474948432696045e-02
     2   -6.952170065574578e-02   1.349666801738267e-03   6.058919522856850e-02
     3    1.385797793808636e-03  -1.216116499032503e-02  -2.361900138535157e-02
     4    1.825360350985985e-03  -1.391270452573241e-03   2.896517752001643e-02
     5   -1.168323302802198e-03   4.962907335646989e-04  -2.966898236464298e-03
     6   -6.429072541638839e-03   4.621563040055212e-03  -3.293302270504497e-04
     7    1.214918413130890e-03  -1.342429694974490e-03  -1.209951973366768e-03
     8    2.221789114103972e-03   9.654582338392919e-04  -7.454930535370245e-04
     9    6.447944986215379e-02   2.313751232527735e-04  -4.593418614132287e-02

Order 1, Length 27
    Atom      X          Y          Z
     1    2.769080458232535e-03  -1.525234927749277e-02   4.001923583828949e-02
     2    4.994801169297991e-03  -4.205726435756506e-02  -1.109942979993669e-02
     3   -7.484885647598208e-03  -1.246144203298169e-02  -3.510761543176785e-02
     4   -7.956266598768769e-04   2.264593051197428e-03  -4.548834291767845e-03
     5    3.982705321677523e-05   2.654500228974223e-04   1.092853221456865e-03
     6    6.456802123334722e-04  -4.090154476060006e-04   7.211288588596491e-04
     7   -2.655450042274293e-03   1.351606075909322e-03  -5.733093749288652e-04
     8    2.255183378859492e-03   1.843924810888382e-04   8.500972067043201e-04
     9    2.313751232527735e-04   6.611403898639970e-02   8.645872242654045e-03

Order 1, Length 27
    Atom      X          Y          Z
     1   -1.069905945037348e-03   1.141474282441548e-02  -1.511089013531596e-02
     2    4.810398098930901e-02  -7.590691087286945e-03  -2.958503107644301e-01
     3   -3.619102464161757e-03  -1.071896688419073e-02  -1.314538440829688e-02
     4    2.551711064076789e-04  -1.890260793291709e-03  -4.565665486958375e-03
     5   -2.050125472612212e-04   3.076033402696292e-04   1.421185711690419e-03
     6    1.543652288731668e-03   7.216997657046625e-05  -1.745813701244668e-04
     7    5.225936546661454e-04  -1.076347239296005e-04   1.132968635909016e-03
     8    4.027946110692078e-04  -1.328425076350893e-04   9.151956381143112e-04
     9   -4.593418614132287e-02   8.645872242654045e-03   3.253775046588092e-01




 # Finishing finite difference calculation for IDERIV #
 ######################################################
 ######################################################
 Requested basis set is 6-311++G(2df,2p)
 There are 66 shells and 234 basis functions
 **********************************************************************
 **                                                                  **
 **                       VIBRATIONAL ANALYSIS                       **
 **                       --------------------                       **
 **                                                                  **
 **        VIBRATIONAL FREQUENCIES (CM**-1) AND NORMAL MODES         **
 **     FORCE CONSTANTS (mDYN/ANGSTROM) AND REDUCED MASSES (AMU)     **
 **                  INFRARED INTENSITIES (KM/MOL)                   **
 **                                                                  **
 **********************************************************************
 

 Mode:                 1                      2                      3
 Frequency:        27.62                 248.96                 285.58
 Force Cnst:      0.0044                 0.0461                 0.1083
 Red. Mass:       9.6807                 1.2626                 2.2538
 IR Active:          YES                    YES                    YES
 IR Intens:        3.111                141.046                101.099
 Raman Active:       YES                    YES                    YES
               X      Y      Z        X      Y      Z        X      Y      Z
 O          0.029 -0.083 -0.341   -0.096 -0.014 -0.033   -0.099  0.010  0.016
 C          0.001  0.073  0.016    0.001  0.028 -0.015    0.001  0.054  0.036
 O         -0.004 -0.075  0.313    0.058 -0.024  0.015    0.154 -0.014 -0.019
 C         -0.006  0.023  0.024    0.006  0.002 -0.005   -0.001  0.038  0.034
 O          0.041 -0.187  0.352    0.024 -0.020  0.010    0.134 -0.043 -0.009
 O         -0.066  0.242 -0.350   -0.007 -0.014  0.011   -0.153 -0.011  0.017
 H          0.060  0.084 -0.386    0.364  0.422  0.618   -0.480 -0.431 -0.470
 H          0.005  0.020  0.338   -0.136  0.301 -0.418   -0.047  0.207 -0.476
 H         -0.007  0.381  0.002    0.021  0.070 -0.015   -0.059  0.035  0.031
 TransDip   0.009  0.056 -0.000    0.102  0.360  0.068   -0.162 -0.021 -0.277

 Mode:                 4                      5                      6
 Frequency:       302.08                 354.63                 472.22
 Force Cnst:      0.0916                 0.2536                 1.3711
 Red. Mass:       1.7029                 3.4219                10.4362
 IR Active:          YES                    YES                    YES
 IR Intens:       99.862                 40.316                 25.036
 Raman Active:       YES                    YES                    YES
               X      Y      Z        X      Y      Z        X      Y      Z
 O         -0.138  0.040 -0.018   -0.187  0.008  0.023   -0.040 -0.327 -0.104
 C         -0.003  0.057 -0.068    0.042  0.031 -0.086   -0.084 -0.174  0.153
 O          0.034  0.023 -0.043   -0.163  0.080  0.071   -0.343  0.099 -0.182
 C          0.018  0.025 -0.026    0.094 -0.020 -0.099    0.120  0.105  0.245
 O          0.084 -0.058  0.038    0.040 -0.061  0.053    0.430  0.088 -0.081
 O         -0.015 -0.035  0.042    0.237 -0.043  0.015   -0.054  0.195  0.042
 H         -0.010  0.077  0.217   -0.426 -0.427 -0.176    0.235  0.100  0.172
 H          0.349 -0.580  0.659   -0.266  0.531 -0.146   -0.214  0.058  0.120
 H          0.035  0.023 -0.063    0.243  0.030 -0.048   -0.338 -0.216  0.111
 TransDip   0.122 -0.137  0.262   -0.065  0.044 -0.187    0.010 -0.005  0.160

 Mode:                 7                      8                      9
 Frequency:       599.28                 630.29                 815.50
 Force Cnst:      1.7745                 1.2322                 3.8430
 Red. Mass:       8.3862                 5.2645                 9.8079
 IR Active:          YES                    YES                    YES
 IR Intens:       72.886                 62.928                 68.261
 Raman Active:       YES                    YES                    YES
               X      Y      Z        X      Y      Z        X      Y      Z
 O         -0.100 -0.296 -0.098   -0.072  0.072 -0.044   -0.105  0.208 -0.018
 C          0.263  0.034  0.218   -0.227  0.095  0.239    0.051  0.004 -0.149
 O          0.135  0.419 -0.082    0.091  0.077 -0.013   -0.066 -0.113  0.004
 C          0.042 -0.123  0.036   -0.074 -0.202  0.172    0.364 -0.312  0.437
 O         -0.230  0.064  0.034   -0.005 -0.130 -0.166   -0.015  0.302  0.034
 O         -0.076 -0.116 -0.086    0.250  0.056 -0.072   -0.094 -0.168 -0.242
 H          0.031 -0.300  0.163   -0.090  0.256 -0.197   -0.136 -0.178  0.180
 H          0.289  0.167  0.251    0.033 -0.394 -0.175   -0.019  0.077  0.127
 H          0.347  0.070  0.232   -0.532  0.223  0.181   -0.347  0.138 -0.223
 TransDip   0.207 -0.056  0.169   -0.214 -0.045  0.129    0.222 -0.112  0.091

 Mode:                10                     11                     12
 Frequency:       907.63                1200.03                1206.72
 Force Cnst:      2.2043                 1.4669                 0.9411
 Red. Mass:       4.5416                 1.7289                 1.0970
 IR Active:          YES                    YES                    YES
 IR Intens:       13.808                 69.851                115.096
 Raman Active:       YES                    YES                    YES
               X      Y      Z        X      Y      Z        X      Y      Z
 O         -0.001  0.012  0.006   -0.046  0.105 -0.068   -0.037  0.021 -0.001
 C          0.187 -0.021 -0.221    0.101 -0.061  0.117    0.013 -0.043  0.030
 O          0.020  0.008  0.016   -0.050 -0.048 -0.038    0.028 -0.023 -0.021
 C         -0.188 -0.107  0.250    0.015 -0.024  0.022    0.004  0.008  0.001
 O         -0.033 -0.138 -0.143   -0.013 -0.017 -0.013   -0.008 -0.010 -0.004
 O         -0.008  0.217  0.072   -0.018  0.038  0.022    0.004 -0.005 -0.002
 H          0.005 -0.460  0.329   -0.052  0.226 -0.147   -0.048  0.467 -0.319
 H          0.132  0.427  0.301   -0.116 -0.291 -0.199    0.186  0.577  0.390
 H          0.238 -0.002 -0.214    0.806 -0.155  0.239   -0.131 -0.365  0.016
 TransDip  -0.016 -0.060  0.101    0.155 -0.209  0.063    0.107  0.313  0.093

 Mode:                13                     14                     15
 Frequency:      1234.82                1286.02                1379.03
 Force Cnst:      1.7668                 4.6720                 3.4694
 Red. Mass:       1.9667                 4.7947                 3.0964
 IR Active:          YES                    YES                    YES
 IR Intens:      192.787                537.873                200.527
 Raman Active:       YES                    YES                    YES
               X      Y      Z        X      Y      Z        X      Y      Z
 O          0.006 -0.121  0.089    0.020 -0.107  0.070   -0.030 -0.023  0.039
 C         -0.086  0.097 -0.157    0.127  0.398  0.122    0.107 -0.016 -0.046
 O          0.019  0.042  0.035   -0.107 -0.230 -0.165   -0.023  0.037  0.048
 C         -0.016 -0.049  0.071    0.037  0.004  0.003    0.285  0.011 -0.034
 O          0.019  0.031  0.000   -0.049 -0.040 -0.020   -0.120 -0.129 -0.065
 O          0.001 -0.003 -0.020    0.005  0.008  0.003   -0.072  0.120  0.082
 H         -0.023  0.569 -0.443    0.003  0.064 -0.092   -0.035  0.376 -0.254
 H         -0.049 -0.204 -0.148    0.053  0.296  0.277   -0.137 -0.394 -0.265
 H          0.566 -0.119 -0.037    0.053  0.710  0.102   -0.595 -0.016 -0.172
 TransDip  -0.235  0.248 -0.284    0.250  0.686  0.134    0.434  0.035 -0.126

 Mode:                16                     17                     18
 Frequency:      1404.92                1517.04                1567.81
 Force Cnst:      1.5058                 3.6261                17.3723
 Red. Mass:       1.2949                 2.6742                11.9955
 IR Active:          YES                    YES                    YES
 IR Intens:       58.025                 54.587               1374.743
 Raman Active:       YES                    YES                    YES
               X      Y      Z        X      Y      Z        X      Y      Z
 O         -0.015  0.007  0.035   -0.044  0.001  0.026    0.004  0.002 -0.001
 C         -0.018 -0.148 -0.013    0.269 -0.015 -0.007    0.018 -0.057 -0.035
 O          0.017  0.015 -0.022   -0.047  0.002  0.021   -0.016  0.007  0.007
 C          0.003 -0.002 -0.010   -0.224 -0.001  0.009    0.038  0.720  0.436
 O          0.005  0.003  0.003    0.065  0.063  0.034   -0.145 -0.216 -0.117
 O         -0.006  0.007  0.007    0.042 -0.059 -0.039    0.105 -0.287 -0.185
 H         -0.037  0.206 -0.152   -0.053  0.399 -0.270    0.009  0.003  0.003
 H          0.061  0.127  0.095   -0.146 -0.383 -0.255   -0.057 -0.126 -0.091
 H          0.118  0.930 -0.025   -0.595  0.062 -0.176    0.210  0.069  0.004
 TransDip  -0.048 -0.232 -0.059   -0.233 -0.014 -0.041    0.100  1.006  0.623

 Mode:                19                     20                     21
 Frequency:      3070.14                3825.04                3827.46
 Force Cnst:      6.0291                 9.1956                 9.2088
 Red. Mass:       1.0856                 1.0667                 1.0669
 IR Active:          YES                    YES                    YES
 IR Intens:       54.460                123.056                127.586
 Raman Active:       YES                    YES                    YES
               X      Y      Z        X      Y      Z        X      Y      Z
 O         -0.001  0.000  0.000   -0.001  0.001  0.000   -0.054  0.019  0.026
 C          0.016 -0.003 -0.082   -0.001  0.000  0.001   -0.001 -0.000  0.001
 O         -0.001 -0.000  0.000   -0.058 -0.003  0.024    0.001 -0.000 -0.000
 C         -0.001 -0.001 -0.000    0.000  0.000 -0.000   -0.000 -0.000 -0.000
 O          0.000  0.000  0.000    0.000 -0.000  0.000    0.000  0.000  0.000
 O          0.000  0.000 -0.000    0.000 -0.000 -0.000    0.000 -0.000 -0.000
 H          0.006  0.004 -0.002    0.012 -0.005 -0.005    0.860 -0.283 -0.419
 H          0.004 -0.006 -0.003    0.919  0.028 -0.389   -0.013  0.001  0.006
 H         -0.173  0.033  0.981    0.004  0.003 -0.003    0.003 -0.004 -0.003
 TransDip  -0.046 -0.005 -0.232    0.330  0.085 -0.102    0.294 -0.176 -0.115

 STANDARD THERMODYNAMIC QUANTITIES AT   298.15 K  AND     1.00 ATM

   This Molecule has  0 Imaginary Frequencies
   Zero point vibrational energy:       37.402 kcal/mol

   Atom    1 Element O  Has Mass   15.99491
   Atom    2 Element C  Has Mass   12.00000
   Atom    3 Element O  Has Mass   15.99491
   Atom    4 Element C  Has Mass   12.00000
   Atom    5 Element O  Has Mass   15.99491
   Atom    6 Element O  Has Mass   15.99491
   Atom    7 Element H  Has Mass    1.00783
   Atom    8 Element H  Has Mass    1.00783
   Atom    9 Element H  Has Mass    1.00783
   Molecular Mass:    91.003130 amu
   Principal axes and moments of inertia in amu*Bohr^2:
                             1           2           3
    Eigenvalues --      326.70491   523.63373   772.55138
          X               0.99750     0.00682    -0.07036
          Y              -0.02383     0.96953    -0.24380
          Z               0.06656     0.24487     0.96727
   Rotational Symmetry Number is   1
   The Molecule is an Asymmetric Top
   Translational Enthalpy:        0.889 kcal/mol
   Rotational Enthalpy:           0.889 kcal/mol
   Vibrational Enthalpy:         39.499 kcal/mol
   gas constant (RT):             0.592 kcal/mol
   Translational Entropy:        39.437  cal/mol.K
   Rotational Entropy:           26.383  cal/mol.K
   Vibrational Entropy:          13.899  cal/mol.K

   Total Enthalpy:               41.869 kcal/mol
   Total Entropy:                79.718  cal/mol.K
 Total job time:  3247.71s(wall), 23222.72s(cpu) 
 Mon Jul 17 17:50:08 2023

        *************************************************************
        *                                                           *
        *  Thank you very much for using Q-Chem.  Have a nice day.  *
        *                                                           *
        *************************************************************


