
Running Job 1 of 1 Q_in.in
qchem Q_in.in_16053.0 /scratch/ari.fischer/qChem1591972.hpc-mn1/qchem16053/ 0
/usr/local/qchem-5.4.1/exe/qcprog.exe_s Q_in.in_16053.0 /scratch/ari.fischer/qChem1591972.hpc-mn1/qchem16053/
                  Welcome to Q-Chem
     A Quantum Leap Into The Future Of Chemistry


 Q-Chem 5.4, Q-Chem, Inc., Pleasanton, CA (2021)

 License issued to: Nanyang Technological University (site)

 E. Epifanovsky,  A. T. B. Gilbert,  Xintian Feng,  Joonho Lee,  Yuezhi Mao,  
 N. Mardirossian,  P. Pokhilko,  A. White,  M. Wormit,  M. P. Coons,  
 A. L. Dempwolff,  Zhengting Gan,  D. Hait,  P. R. Horn,  L. D. Jacobson,  
 I. Kaliman,  J. Kussmann,  A. W. Lange,  Ka Un Lao,  D. S. Levine,  Jie Liu,  
 S. C. McKenzie,  A. F. Morrison,  K. Nanda,  F. Plasser,  D. R. Rehn,  
 M. L. Vidal,  Zhi-Qiang You,  Ying Zhu,  B. Alam,  B. Albrecht,  
 A. Aldossary,  E. Alguire,  J. H. Andersen,  D. Barton,  K. Begam,  A. Behn,  
 Y. A. Bernard,  E. J. Berquist,  H. Burton,  A. Carreras,  K. Carter-Fenk,  
 R. Chakraborty,  A. D. Chien,  K. D. Closser,  V. Cofer-Shabica,  
 S. Dasgupta,  Jia Deng,  M. de Wergifosse,  M. Diedenhofen,  Hainam Do,  
 S. Ehlert,  Po-Tung Fang,  S. Fatehi,  Qingguo Feng,  T. Friedhoff,  
 J. Gayvert,  Qinghui Ge,  G. Gidofalvi,  M. Goldey,  J. Gomes,  
 C. Gonzalez-Espinoza,  S. Gulania,  A. Gunina,  M. W. D. Hanson-Heine,  
 P. H. P. Harbach,  A. W. Hauser,  M. F. Herbst,  M. Hernandez Vera,  
 M. Hodecker,  Z. C. Holden,  S. Houck,  Xunkun Huang,  Kerwin Hui,  
 B. C. Huynh,  M. Ivanov,  Hyunjun Ji,  Hanjie Jiang,  B. Kaduk,  S. Kaehler,  
 K. Khistyaev,  Jaehoon Kim,  P. Klunzinger,  Z. Koczor-Benda,  
 Joong Hoon Koh,  D. Kosenkov,  L. Koulias,  T. Kowalczyk,  C. M. Krauter,  
 K. Kue,  A. Kunitsa,  T. Kus,  A. Landau,  K. V. Lawler,  D. Lefrancois,  
 S. Lehtola,  Rain Li,  Yi-Pei Li,  Jiashu Liang,  M. Liebenthal,  
 Hung-Hsuan Lin,  You-Sheng Lin,  Fenglai Liu,  Kuan-Yu Liu,  
 M. Loipersberger,  A. Luenser,  A. Manjanath,  P. Manohar,  E. Mansoor,  
 S. F. Manzer,  Shan-Ping Mao,  A. V. Marenich,  T. Markovich,  S. Mason,  
 S. A. Maurer,  P. F. McLaughlin,  M. F. S. J. Menger,  J.-M. Mewes,  
 S. A. Mewes,  P. Morgante,  J. W. Mullinax,  K. J. Oosterbaan,  G. Paran,  
 Alexander C. Paul,  Suranjan K. Paul,  F. Pavosevic,  Zheng Pei,  S. Prager,  
 E. I. Proynov,  E. Ramos,  B. Rana,  A. E. Rask,  A. Rettig,  R. M. Richard,  
 F. Rob,  E. Rossomme,  T. Scheele,  M. Scheurer,  M. Schneider,  
 N. Sergueev,  S. M. Sharada,  W. Skomorowski,  D. W. Small,  C. J. Stein,  
 Yu-Chuan Su,  E. J. Sundstrom,  Zhen Tao,  J. Thirman,  T. Tsuchimochi,  
 N. M. Tubman,  S. P. Veccham,  O. Vydrov,  J. Wenzel,  J. Witte,  A. Yamada,  
 Kun Yao,  S. Yeganeh,  S. R. Yost,  A. Zech,  Igor Ying Zhang,  Xing Zhang,  
 Yu Zhang,  D. Zuev,  A. Aspuru-Guzik,  A. T. Bell,  N. A. Besley,  
 K. B. Bravaya,  B. R. Brooks,  D. Casanova,  Jeng-Da Chai,  S. Coriani,  
 C. J. Cramer,  A. E. DePrince, III,  R. A. DiStasio Jr.,  A. Dreuw,  
 B. D. Dunietz,  T. R. Furlani,  W. A. Goddard III,  S. Grimme,  
 S. Hammes-Schiffer,  T. Head-Gordon,  W. J. Hehre,  Chao-Ping Hsu,  
 T.-C. Jagau,  Yousung Jung,  A. Klamt,  Jing Kong,  D. S. Lambrecht,  
 WanZhen Liang,  N. J. Mayhall,  C. W. McCurdy,  J. B. Neaton,  
 C. Ochsenfeld,  J. A. Parkhill,  R. Peverati,  V. A. Rassolov,  Yihan Shao,  
 L. V. Slipchenko,  T. Stauch,  R. P. Steele,  J. E. Subotnik,  
 A. J. W. Thom,  A. Tkatchenko,  D. G. Truhlar,  T. Van Voorhis,  
 T. A. Wesolowski,  K. B. Whaley,  H. L. Woodcock III,  P. M. Zimmerman,  
 S. Faraji,  P. M. W. Gill,  M. Head-Gordon,  J. M. Herbert,  A. I. Krylov

 Additional authors for Version 5.4.1: 
 S. Kotaru,  Shaozhi Li,  Xiangyuan Li,  F. Matz,  A. Molle,  Haisheng Ren,  
 Yingli Su,  Hung-Yi Tsai,  C. Utku,  Fang Wang

 Contributors to earlier versions of Q-Chem not listed above: 
 R. D. Adamson,  B. Austin,  R. Baer,  J. Baker,  G. J. O. Beran,  
 K. Brandhorst,  S. T. Brown,  E. F. C. Byrd,  A. K. Chakraborty,  
 G. K. L. Chan,  Chun-Min Chang,  Yunqing Chen,  C.-L. Cheng,  
 Siu Hung Chien,  D. M. Chipman,  D. L. Crittenden,  H. Dachsel,  
 R. J. Doerksen,  A. D. Dutoi,  R. G. Edgar,  J. Fosso-Tande,  
 L. Fusti-Molnar,  D. Ghosh,  A. Ghysels,  A. Golubeva-Zadorozhnaya,  
 J. Gonthier,  M. S. Gordon,  S. R. Gwaltney,  G. Hawkins,  J. E. Herr,  
 A. Heyden,  S. Hirata,  E. G. Hohenstein,  G. Kedziora,  F. J. Keil,  
 C. Kelley,  Jihan Kim,  R. A. King,  R. Z. Khaliullin,  P. P. Korambath,  
 W. Kurlancheek,  A. Laurent,  A. M. Lee,  M. S. Lee,  S. V. Levchenko,  
 Ching Yeh Lin,  D. Liotard,  E. Livshits,  R. C. Lochan,  I. Lotan,  
 L. A. Martinez-Martinez,  P. E. Maslen,  N. Nair,  D. P. O'Neill,  
 D. Neuhauser,  E. Neuscamman,  C. M. Oana,  R. Olivares-Amaya,  R. Olson,  
 T. M. Perrine,  B. Peters,  P. A. Pieniazek,  A. Prociuk,  Y. M. Rhee,  
 J. Ritchie,  M. A. Rohrdanz,  E. Rosta,  N. J. Russ,  H. F. Schaefer III,  
 M. W. Schmidt,  N. E. Schultz,  S. Sharma,  N. Shenvi,  C. D. Sherrill,  
 A. C. Simmonett,  A. Sodt,  T. Stein,  D. Stuck,  K. S. Thanthiriwatte,  
 V. Vanovschi,  L. Vogt,  Tao Wang,  A. Warshel,  M. A. Watson,  
 C. F. Williams,  Q. Wu,  X. Xu,  Jun Yang,  W. Zhang,  Yan Zhao

 Please cite Q-Chem as follows:
 Y. Shao et al., Mol. Phys. 113, 184-215 (2015)
 DOI: 10.1080/00268976.2014.952696

 Q-Chem 5.4.1 for Intel X86 EM64T Linux

 Parts of Q-Chem use Armadillo 9.800.1 (Horizon Scraper).
 http://arma.sourceforge.net/

 Q-Chem begins on Tue Jun 20 05:41:34 2023  

 Host: 
0

     Scratch files written to /scratch/ari.fischer/qChem1591972.hpc-mn1/qchem16053//
 Aug1521 |scratch|qcdevops|jenkins|workspace|build_RNUM 8249   
 Processing $rem in /usr/local/qchem-5.4.1/config/preferences:
 Processing $rem in /home/ari.fischer/.qchemrc:
 Symmetry turned off for PCM/SM12/SMD calculation


!!********************************************.
!!******************Warning*******************.
!!Desired Analytical derivatives not available.
!!Finite difference job might take a long time.
!!********************************************.
!!********************************************.


 2-order derivative to be evaluated numerically with 1-order analytical derivatives

 Checking the input file for inconsistencies... 	...done.

--------------------------------------------------------------
User input:
--------------------------------------------------------------
$molecule
-1 2
C         0.2893629763    0.0315406487    0.5566337965
O         0.6541680611   -1.1565349345    0.4174602413
C        -1.2484564108    0.2451230646    0.4406601187
O        -1.9097781564   -0.9131982675    0.1604466214
O        -1.5417753257    1.2702625386   -0.4185445904
O         0.9759381516    1.0444137214    0.7745928551
O        -1.7384232270    0.7473130169    1.7662032033
O        -1.5108119417   -0.1144755690    2.7119986494
H        -1.2217318192   -1.6053856353    0.1817768981
H        -2.4856635083    1.2394733162   -0.6302879932
$end

$rem
BASIS = 6-311++G(2df,2p)
GUI = 2
JOB_TYPE = Frequency
METHOD = wB97M-V
SOLVENT_METHOD = SMD
SCF_ALGORITHM = DIIS_GDM
MAX_SCF_CYCLES = 400
SCF_CONVERGENCE = 7
THRESH = 12
UNRESTRICTED = 1
SYMMETRY_IGNORE = 1
$end
--------------------------------------------------------------
 ----------------------------------------------------------------
             Standard Nuclear Orientation (Angstroms)
    I     Atom           X                Y                Z
 ----------------------------------------------------------------
    1      C       0.2893629763     0.0315406487     0.5566337965
    2      O       0.6541680611    -1.1565349345     0.4174602413
    3      C      -1.2484564108     0.2451230646     0.4406601187
    4      O      -1.9097781564    -0.9131982675     0.1604466214
    5      O      -1.5417753257     1.2702625386    -0.4185445904
    6      O       0.9759381516     1.0444137214     0.7745928551
    7      O      -1.7384232270     0.7473130169     1.7662032033
    8      O      -1.5108119417    -0.1144755690     2.7119986494
    9      H      -1.2217318192    -1.6053856353     0.1817768981
   10      H      -2.4856635083     1.2394733162    -0.6302879932
 ----------------------------------------------------------------
 Nuclear Repulsion Energy =         403.67858861 hartrees
 There are       32 alpha and       31 beta electrons
 Requested basis set is 6-311++G(2df,2p)
 There are 76 shells and 292 basis functions

 Total QAlloc Memory Limit 288000 MB
 Mega-Array Size       188 MB
 MEM_STATIC part       192 MB
 
 Citation of the SMD model:
 Marenich, A.V.; Cramer, C.J.; Truhlar, D.G.
 J. Phys. Chem. B 2009, 113, 6378-6396.
 iSolventCode=           1
 Solvent: water                                                           
 
 vradii
            1           2           3           4           5           6
    1   1.8500000   1.5200000   1.8500000   1.5200000   1.5200000   1.5200000
            7           8           9          10
    1   1.5200000   1.5200000   1.2000000   1.2000000
 Changing PCM_VDW_RADII to SMD_RADIUS
 Discretize the solute cavity surface with Lebedev spheres
	Using 110 Lebedev grid points for each H atom
	Using 194 Lebedev grid points for other atoms
	Atomic van der Waals radii will be scaled by 1.20
 Remove points where switching function is < 1.0e-08
 Keep 960 surface tesserae and discard 812 interior tesserae
 Molecular Surface Area = 114.611 Angst**2

                       Distance Matrix (Angstroms)
             C (  1)   O (  2)   C (  3)   O (  4)   O (  5)   O (  6)
   O (  2)  1.250590
   C (  3)  1.556906  2.363295
   O (  4)  2.426050  2.588260  1.362929
   O (  5)  2.416293  3.377931  1.369372  2.288702
   O (  6)  1.242901  2.252833  2.387113  3.540731  2.795258
   O (  7)  2.467246  3.341891  1.499776  2.316272  2.255054  2.905050
   O (  8)  2.812036  3.322338  2.314545  2.703248  3.423267  3.358644
   H (  9)  2.259082  1.943197  1.868721  0.976210  2.955024  3.493225
   H ( 10)  3.250947  4.086218  1.914770  2.364508  0.967837  3.740912
             O (  7)   O (  8)   H (  9)
   O (  8)  1.299621
   H (  9)  2.883152  2.951000
   H ( 10)  2.558077  3.735558  3.217172
 
 A cutoff of  1.0D-12 yielded   2718 shell pairs
 There are     40916 function pairs (     52874 Cartesian)
 Smallest overlap matrix eigenvalue = 5.50E-05
 Guess from superposition of atomic densities
 Warning:  Energy on first SCF cycle will be non-variational
 SAD guess density has 62.000000 electrons

 -----------------------------------------------------------------------
  General SCF calculation program by
  Eric Jon Sundstrom, Paul Horn, Yuezhi Mao, Dmitri Zuev, Alec White,
  David Stuck, Shaama M.S., Shane Yost, Joonho Lee, David Small,
  Daniel Levine, Susi Lehtola, Hugh Burton, Evgeny Epifanovsky,
  Bang C. Huynh
 -----------------------------------------------------------------------
 Exchange:     0.1500 Hartree-Fock + 1.0000 wB97M-V + LR-HF
 Correlation:  1.0000 wB97M-V
 Using SG-2 standard quadrature grid
 Nonlocal Correlation:  VV10 with C = 0.0100 and b = 6.00 and scale = 1.00000
 Grid used for NLC:  SG-1 standard quadrature
 using 8 threads for integral computing
 -------------------------------------------------------
 OpenMP Integral computing Module                
 Release: version 1.0, May 2013, Q-Chem Inc. Pittsburgh 
 -------------------------------------------------------
 
 Citation of the SMD model:
 Marenich, A.V.; Cramer, C.J.; Truhlar, D.G.
 J. Phys. Chem. B 2009, 113, 6378-6396.
 iSolventCode=           1
 Solvent: water                                                           
 
 vradii
            1           2           3           4           5           6
    1   1.8500000   1.5200000   1.8500000   1.5200000   1.5200000   1.5200000
            7           8           9          10
    1   1.5200000   1.5200000   1.2000000   1.2000000
 -------------------------------------------------------
 OpenMP BLAS3 based DFT computing Module                
 Release: version 1.0, May 2013, Q-Chem Inc. Pittsburgh 
 -------------------------------------------------------
 A unrestricted SCF calculation will be
 performed using DIIS, GDM
 SCF converges when RMS gradient is below 1.0e-07
 ---------------------------------------
  Cycle       Energy         DIIS error
 ---------------------------------------
    1    -529.9604783028      1.47e-02  
    2    -528.6162068974      2.84e-03  Done DIIS. Switching to GDM
 ---------------------------------------
  Cycle       Energy        RMS Gradient
 ---------------------------------------
    1    -528.6162068974      1.53e-01   Descent step
    2    -528.8389684189      3.83e-02   Normal BFGS step
    3    -528.8767878888      2.51e-02   Normal BFGS step
    4    -528.8781034164      1.57e-02   Normal BFGS step
    5    -528.8804840887      6.91e-03   Normal BFGS step
    6    -528.8806812254      4.45e-03   Normal BFGS step
    7    -528.8807900735      1.98e-03   Normal BFGS step
    8    -528.8808129712      2.11e-03   Normal BFGS step
    9    -528.8808213634      1.58e-03   Normal BFGS step
   10    -528.8808272986      7.30e-04   Normal BFGS step
   11    -528.8808313087      7.74e-04   Normal BFGS step
   12    -528.8808339608      6.14e-04   Normal BFGS step
   13    -528.8808351919      2.58e-04   Normal BFGS step
   14    -528.8808354261      3.51e-05   Normal BFGS step
   15    -528.8808354531      2.45e-05   Normal BFGS step
   16    -528.8808354616      9.19e-06   Normal BFGS step
   17    -528.8808354623      2.97e-06   Normal BFGS step
   18    -528.8808354626      1.19e-06   Normal BFGS step
   19    -528.8808354626      5.10e-07   Normal BFGS step
   20    -528.8808354626      1.64e-07   Normal BFGS step
   21    -528.8808354626      6.42e-08  Convergence criterion met
 ---------------------------------------
 SCF time:   CPU 821.26s  wall 104.00s 
<S^2> =          0.753931254
(3)  G-ENP(liq) elect-nuc-pol free energy of system     -528.880835463 a.u.
(4)  G-CDS(liq) cavity-dispersion-solvent structure 
     free energy                                                3.9645 kcal/mol
(6)  G-S(liq) free energy of system                     -528.874517577 a.u.
 SCF   energy in the final basis set =     -528.8745175770
 Total energy in the final basis set =     -528.8745175770
 
 --------------------------------------------------------------
 
                    Orbital Energies (a.u.)
 --------------------------------------------------------------
 
 Alpha MOs
 -- Occupied --
-19.4584 -19.4185 -19.3664 -19.3603 -19.3043 -19.2994 -10.5122 -10.4575
 -1.3492  -1.2379  -1.1837  -1.1659  -1.0995  -0.9945  -0.8109  -0.7187
 -0.6767  -0.6671  -0.6134  -0.6087  -0.5894  -0.5477  -0.5292  -0.5268
 -0.5110  -0.4777  -0.4365  -0.4159  -0.4011  -0.3854  -0.3760  -0.3676
 -- Virtual --
  0.0384   0.0553   0.0725   0.0822   0.0951   0.1033   0.1084   0.1142
  0.1291   0.1396   0.1664   0.1955   0.2023   0.2217   0.2319   0.2438
  0.2482   0.2531   0.2591   0.2749   0.2866   0.2930   0.3057   0.3180
  0.3276   0.3354   0.3365   0.3425   0.3479   0.3489   0.3580   0.3622
  0.3692   0.3789   0.3822   0.3946   0.4077   0.4264   0.4360   0.4515
  0.4743   0.5012   0.5494   0.5877   0.6147   0.6550   0.6765   0.6816
  0.6951   0.7195   0.7676   0.7861   0.8133   0.8362   0.8658   0.8772
  0.8872   0.9489   1.0141   1.0194   1.0422   1.0813   1.0996   1.1035
  1.1154   1.1286   1.1383   1.1407   1.1497   1.1615   1.1660   1.1896
  1.2068   1.2273   1.2477   1.2564   1.2670   1.2816   1.2910   1.3205
  1.3462   1.3853   1.4253   1.4579   1.4844   1.5267   1.5351   1.5560
  1.5688   1.6045   1.6173   1.6387   1.6610   1.6753   1.6969   1.7400
  1.7627   1.8094   1.8458   1.8506   1.8886   1.9019   1.9581   1.9915
  2.0013   2.0671   2.1175   2.1382   2.2081   2.2354   2.2530   2.2722
  2.3131   2.3648   2.4169   2.4740   2.4795   2.4973   2.5266   2.5573
  2.5868   2.6649   2.7757   2.7841   2.8745   2.8892   2.9146   2.9697
  3.0209   3.1247   3.2105   3.2340   3.2849   3.3345   3.3685   3.3965
  3.4288   3.4627   3.4797   3.5621   3.6025   3.6230   3.6464   3.6658
  3.6936   3.7464   3.7759   3.7964   3.8088   3.8500   3.8649   3.9151
  4.0007   4.0539   4.0938   4.1805   4.2260   4.2677   4.2865   4.3224
  4.3390   4.5793   4.7104   4.7409   4.8166   4.8508   4.9683   5.0626
  5.0777   5.0811   5.1380   5.1558   5.1653   5.1771   5.1810   5.1895
  5.1994   5.2186   5.2261   5.2382   5.2528   5.2785   5.2806   5.2995
  5.3091   5.3302   5.3363   5.3682   5.3913   5.4162   5.4267   5.4393
  5.5144   5.5410   5.5689   5.5717   5.5961   5.6118   5.6501   5.6881
  5.7079   5.7263   5.7751   5.8303   5.8394   5.9380   6.0805   6.1409
  6.2063   6.2590   6.3703   6.4873   6.5110   6.5918   6.6074   6.8163
  6.8530   6.8902   6.9135   6.9233   6.9623   7.0083   7.0316   7.0567
  7.0765   7.0828   7.1197   7.1461   7.1609   7.2072   7.2617   7.3023
  7.3095   7.3354   7.3686   7.4139   7.4157   7.4407   7.4821   7.5296
  7.5481   7.6684   7.6741   7.7214   7.7814   7.7956   7.8109   7.8545
  7.8707   7.9239   8.0478   8.1334  24.8281  25.2128  50.4189  50.5198
 50.6082  50.6376  50.7099  50.7447
 
 Beta MOs
 -- Occupied --
-19.4482 -19.3996 -19.3665 -19.3602 -19.3042 -19.2994 -10.5126 -10.4573
 -1.3250  -1.2344  -1.1836  -1.1658  -1.0993  -0.9596  -0.8045  -0.7127
 -0.6732  -0.6568  -0.6044  -0.5797  -0.5527  -0.5432  -0.5269  -0.5199
 -0.5057  -0.4716  -0.4335  -0.3960  -0.3853  -0.3759  -0.3660
 -- Virtual --
 -0.0310   0.0386   0.0554   0.0729   0.0828   0.0960   0.1035   0.1085
  0.1152   0.1305   0.1410   0.1674   0.1985   0.2043   0.2238   0.2344
  0.2465   0.2497   0.2570   0.2609   0.2845   0.2888   0.2935   0.3071
  0.3197   0.3283   0.3361   0.3372   0.3436   0.3491   0.3514   0.3585
  0.3628   0.3703   0.3796   0.3833   0.3954   0.4099   0.4285   0.4368
  0.4522   0.4739   0.5025   0.5497   0.5880   0.6150   0.6554   0.6764
  0.6823   0.6967   0.7203   0.7699   0.7863   0.8138   0.8372   0.8664
  0.8775   0.8872   0.9498   1.0174   1.0212   1.0433   1.0895   1.1034
  1.1074   1.1171   1.1333   1.1401   1.1455   1.1614   1.1678   1.1726
  1.1925   1.2111   1.2353   1.2514   1.2586   1.2714   1.2871   1.2983
  1.3251   1.3481   1.3865   1.4264   1.4645   1.4943   1.5336   1.5364
  1.5614   1.5771   1.6148   1.6273   1.6422   1.6683   1.6875   1.7102
  1.7422   1.7702   1.8110   1.8521   1.8574   1.8942   1.9034   1.9605
  1.9938   2.0035   2.0742   2.1243   2.1424   2.2135   2.2398   2.2610
  2.2784   2.3196   2.3718   2.4191   2.4775   2.4812   2.4982   2.5281
  2.5614   2.5875   2.6719   2.7771   2.7850   2.8766   2.8900   2.9154
  2.9712   3.0216   3.1252   3.2109   3.2343   3.2855   3.3352   3.3688
  3.3965   3.4296   3.4628   3.4805   3.5625   3.6029   3.6232   3.6466
  3.6665   3.6941   3.7478   3.7765   3.7963   3.8095   3.8502   3.8652
  3.9151   4.0009   4.0542   4.0944   4.1807   4.2262   4.2686   4.2877
  4.3233   4.3393   4.6145   4.7276   4.7452   4.8382   4.8637   4.9850
  5.1223   5.1294   5.1413   5.1553   5.1658   5.1762   5.1854   5.1892
  5.1987   5.2036   5.2222   5.2457   5.2579   5.2742   5.2814   5.2916
  5.3074   5.3136   5.3388   5.3466   5.3750   5.3979   5.4178   5.4359
  5.4478   5.5221   5.5455   5.5704   5.5727   5.6004   5.6122   5.6563
  5.6982   5.7185   5.7294   5.7815   5.8367   5.8423   5.9409   6.0824
  6.1436   6.2130   6.2598   6.3712   6.5123   6.5338   6.6008   6.6160
  6.8495   6.8898   6.9231   6.9413   6.9645   7.0053   7.0119   7.0345
  7.0735   7.0848   7.0882   7.1275   7.1643   7.1743   7.2353   7.2653
  7.3046   7.3203   7.3373   7.3773   7.4244   7.4315   7.4558   7.4976
  7.5400   7.5519   7.6724   7.6773   7.7238   7.7823   7.7971   7.8137
  7.8575   7.8752   7.9255   8.0590   8.1526  24.8279  25.2129  50.4314
 50.5286  50.6083  50.6382  50.7100  50.7451
 --------------------------------------------------------------
 
          Ground-State Mulliken Net Atomic Charges

     Atom                 Charge (a.u.)    Spin (a.u.)
  --------------------------------------------------------
      1 C                     0.500011       0.015678
      2 O                    -0.603109       0.003011
      3 C                     0.136896      -0.008390
      4 O                    -0.417641      -0.000008
      5 O                    -0.407552       0.000252
      6 O                    -0.631051      -0.001123
      7 O                    -0.006797       0.313147
      8 O                    -0.239202       0.677708
      9 H                     0.329315       0.000460
     10 H                     0.339130      -0.000735
  --------------------------------------------------------
  Sum of atomic charges =    -1.000000
  Sum of spin   charges =     1.000000

 -----------------------------------------------------------------
                    Cartesian Multipole Moments
 -----------------------------------------------------------------
    Charge (ESU x 10^10)
                -4.8032
    Dipole Moment (Debye)
         X      -3.5986      Y      -0.9911      Z      -5.7995
       Tot       6.8969
    Quadrupole Moments (Debye-Ang)
        XX     -51.6150     XY      -3.0440     YY     -54.5445
        XZ       3.9513     YZ      -1.8824     ZZ     -57.8617
    Octopole Moments (Debye-Ang^2)
       XXX      88.2417    XXY       5.6506    XYY      25.5028
       YYY     -27.8092    XXZ     -54.9432    XYZ       1.9193
       YYZ     -42.2909    XZZ      47.5424    YZZ      -7.8086
       ZZZ    -136.5568
    Hexadecapole Moments (Debye-Ang^3)
      XXXX    -526.0796   XXXY     -23.0489   XXYY    -135.2461
      XYYY      30.8177   YYYY    -260.4776   XXXZ     127.8145
      XXYZ     -16.7729   XYYZ      33.9084   YYYZ     -15.3069
      XXZZ    -192.6947   XYZZ       6.4578   YYZZ    -122.9245
      XZZZ     144.2910   YZZZ     -15.4300   ZZZZ    -529.1094
 -----------------------------------------------------------------
 Calculating analytic gradient of the SCF energy
 Gradient of CDS energy
            1           2           3           4           5           6
    1   0.0027101  -0.0005577  -0.0036803   0.0022381   0.0010674  -0.0011867
    2  -0.0003119   0.0017967  -0.0003837   0.0041943  -0.0036940  -0.0014765
    3   0.0000697   0.0002538  -0.0042983   0.0011583   0.0033243  -0.0003101
            7           8           9          10
    1   0.0000362  -0.0001812  -0.0001097  -0.0003362
    2  -0.0000726   0.0000778  -0.0003421   0.0002120
    3   0.0000731   0.0000587  -0.0000823  -0.0002472
 Gradient of SCF Energy
            1           2           3           4           5           6
    1   0.0351236  -0.0061555  -0.0060960   0.0103650  -0.0017437  -0.0240045
    2  -0.0021970   0.0216246  -0.0101915  -0.0167778   0.0019582  -0.0206970
    3  -0.0000159   0.0025758   0.0028701  -0.0003565   0.0010108  -0.0062976
            7           8           9          10
    1  -0.0001930   0.0007175  -0.0184694   0.0104561
    2   0.0038820   0.0011823   0.0224094  -0.0011933
    3   0.0032036  -0.0074995  -0.0015904   0.0060997
 Max gradient component =       3.512E-02
 RMS gradient           =       1.214E-02
 Computing fast CPCM-SWIG gradient
 Updating gradient with PCM contributions...
 -- total gradient after adding PCM contribution --
---------------------------------------------------
  Atom         X              Y              Z     
---------------------------------------------------
   1       0.000029       0.000070      -0.000110
   2       0.000040       0.000023       0.000058
   3       0.000029       0.000033       0.000219
   4       0.000023       0.000021       0.000064
   5      -0.000090      -0.000070      -0.000062
   6      -0.000009      -0.000108       0.000026
   7      -0.000025      -0.000081      -0.000076
   8      -0.000011       0.000027      -0.000098
   9      -0.000026       0.000018      -0.000049
  10       0.000041       0.000066       0.000027
---------------------------------------------------
 Number of fixed atoms: 0
 Gradient time:  CPU 109.64 s  wall 16.39 s
 ######################################################
 ######################################################
 # Starting finite difference calculation for IDERIV  #
 Finite diff step size:  1.88973e-03 a.u.
 ----------------------------------------------------------------
             Standard Nuclear Orientation (Angstroms)
    I     Atom           X                Y                Z
 ----------------------------------------------------------------
    1      C       0.2903629763     0.0315406487     0.5566337965
    2      O       0.6541680611    -1.1565349345     0.4174602413
    3      C      -1.2484564108     0.2451230646     0.4406601187
    4      O      -1.9097781564    -0.9131982675     0.1604466214
    5      O      -1.5417753257     1.2702625386    -0.4185445904
    6      O       0.9759381516     1.0444137214     0.7745928551
    7      O      -1.7384232270     0.7473130169     1.7662032033
    8      O      -1.5108119417    -0.1144755690     2.7119986494
    9      H      -1.2217318192    -1.6053856353     0.1817768981
   10      H      -2.4856635083     1.2394733162    -0.6302879932
 ----------------------------------------------------------------
 Nuclear Repulsion Energy =         403.67128133 hartrees
 There are       32 alpha and       31 beta electrons
 Discretize the solute cavity surface with Lebedev spheres
	Using 110 Lebedev grid points for each H atom
	Using 194 Lebedev grid points for other atoms
	Atomic van der Waals radii will be scaled by 1.20
 Remove points where switching function is < 1.0e-08
 Keep 960 surface tesserae and discard 812 interior tesserae
 Molecular Surface Area = 114.615 Angst**2

                       Distance Matrix (Angstroms)
             C (  1)   O (  2)   C (  3)   O (  4)   O (  5)   O (  6)
   O (  2)  1.250299
   C (  3)  1.557894  2.363295
   O (  4)  2.426956  2.588260  1.362929
   O (  5)  2.417051  3.377931  1.369372  2.288702
   O (  6)  1.242349  2.252833  2.387113  3.540731  2.795258
   O (  7)  2.468068  3.341891  1.499776  2.316272  2.255054  2.905050
   O (  8)  2.812677  3.322338  2.314545  2.703248  3.423267  3.358644
   H (  9)  2.259751  1.943197  1.868721  0.976210  2.955024  3.493225
   H ( 10)  3.251801  4.086218  1.914770  2.364508  0.967837  3.740912
             O (  7)   O (  8)   H (  9)
   O (  8)  1.299621
   H (  9)  2.883152  2.951000
   H ( 10)  2.558077  3.735558  3.217172
 
 Requested basis set is 6-311++G(2df,2p)
 There are 76 shells and 292 basis functions
 A cutoff of  1.0D-12 yielded   2718 shell pairs
 There are     40916 function pairs (     52874 Cartesian)
 Smallest overlap matrix eigenvalue = 5.52E-05
 Guess MOs from SCF MO coefficient file

 -----------------------------------------------------------------------
  General SCF calculation program by
  Eric Jon Sundstrom, Paul Horn, Yuezhi Mao, Dmitri Zuev, Alec White,
  David Stuck, Shaama M.S., Shane Yost, Joonho Lee, David Small,
  Daniel Levine, Susi Lehtola, Hugh Burton, Evgeny Epifanovsky,
  Bang C. Huynh
 -----------------------------------------------------------------------
 Exchange:     0.1500 Hartree-Fock + 1.0000 wB97M-V + LR-HF
 Correlation:  1.0000 wB97M-V
 Using SG-2 standard quadrature grid
 Nonlocal Correlation:  VV10 with C = 0.0100 and b = 6.00 and scale = 1.00000
 Grid used for NLC:  SG-1 standard quadrature
 
 Citation of the SMD model:
 Marenich, A.V.; Cramer, C.J.; Truhlar, D.G.
 J. Phys. Chem. B 2009, 113, 6378-6396.
 iSolventCode=           1
 Solvent: water                                                           
 
 vradii
            1           2           3           4           5           6
    1   1.8500000   1.5200000   1.8500000   1.5200000   1.5200000   1.5200000
            7           8           9          10
    1   1.5200000   1.5200000   1.2000000   1.2000000
 -------------------------------------------------------
 OpenMP BLAS3 based DFT computing Module                
 Release: version 1.0, May 2013, Q-Chem Inc. Pittsburgh 
 -------------------------------------------------------
 A unrestricted SCF calculation will be
 performed using Roothaan-Hall, DIIS, GDM
 SCF converges when RMS gradient is below 1.0e-07
 ---------------------------------------
  Cycle       Energy         DIIS error
 ---------------------------------------
    1    -528.7611524595      3.06e-04  Roothaan Step
 ---------------------------------------
  Cycle       Energy         DIIS error
 ---------------------------------------
    1    -528.8730524231      3.39e-04  
    2    -528.8783787334      2.91e-04  Done DIIS. Switching to GDM
 ---------------------------------------
  Cycle       Energy        RMS Gradient
 ---------------------------------------
    1    -528.8783787334      8.55e-03   Normal BFGS step
    2    -528.8779244803      1.30e-02  Line search: overstep
    3    -528.8806351152      2.47e-03   Normal BFGS step
    4    -528.8808051670      8.27e-04   Normal BFGS step
    5    -528.8808284621      8.36e-04   Normal BFGS step
    6    -528.8808383063      1.71e-04   Normal BFGS step
    7    -528.8808392751      1.08e-04   Normal BFGS step
    8    -528.8808394487      7.52e-05   Normal BFGS step
    9    -528.8808394693      4.93e-05   Normal BFGS step
   10    -528.8808394853      1.48e-05   Normal BFGS step
   11    -528.8808394869      8.04e-06   Normal BFGS step
   12    -528.8808394876      6.05e-06   Normal BFGS step
   13    -528.8808394878      4.62e-06   Normal BFGS step
   14    -528.8808394879      2.94e-06   Normal BFGS step
   15    -528.8808394879      2.96e-06   Normal BFGS step
   16    -528.8808394880      2.43e-06   Normal BFGS step
   17    -528.8808394880      1.06e-06   Normal BFGS step
   18    -528.8808394880      4.12e-07   Normal BFGS step
   19    -528.8808394880      1.00e-07  Convergence criterion met
 ---------------------------------------
 SCF time:   CPU 782.26s  wall 99.00s 
<S^2> =          0.753931525
(3)  G-ENP(liq) elect-nuc-pol free energy of system     -528.880839488 a.u.
(4)  G-CDS(liq) cavity-dispersion-solvent structure 
     free energy                                                3.9677 kcal/mol
(6)  G-S(liq) free energy of system                     -528.874516490 a.u.
 SCF   energy in the final basis set =     -528.8745164900
 Total energy in the final basis set =     -528.8745164900
 
 --------------------------------------------------------------
 
                    Orbital Energies (a.u.)
 --------------------------------------------------------------
 
 Alpha MOs
 -- Occupied --
-19.4584 -19.4184 -19.3664 -19.3603 -19.3043 -19.2994 -10.5121 -10.4574
 -1.3492  -1.2379  -1.1839  -1.1659  -1.0998  -0.9945  -0.8107  -0.7186
 -0.6766  -0.6671  -0.6133  -0.6087  -0.5893  -0.5478  -0.5292  -0.5269
 -0.5110  -0.4776  -0.4365  -0.4159  -0.4010  -0.3855  -0.3761  -0.3674
 -- Virtual --
  0.0384   0.0553   0.0725   0.0822   0.0953   0.1033   0.1084   0.1143
  0.1291   0.1396   0.1664   0.1955   0.2024   0.2217   0.2319   0.2438
  0.2482   0.2532   0.2591   0.2749   0.2866   0.2930   0.3057   0.3180
  0.3276   0.3354   0.3365   0.3425   0.3480   0.3489   0.3580   0.3622
  0.3692   0.3788   0.3821   0.3946   0.4077   0.4264   0.4359   0.4514
  0.4743   0.5012   0.5495   0.5876   0.6148   0.6552   0.6766   0.6817
  0.6951   0.7195   0.7677   0.7862   0.8134   0.8362   0.8658   0.8771
  0.8872   0.9490   1.0141   1.0194   1.0422   1.0813   1.0996   1.1034
  1.1153   1.1286   1.1383   1.1407   1.1496   1.1614   1.1660   1.1896
  1.2069   1.2273   1.2477   1.2564   1.2670   1.2815   1.2910   1.3205
  1.3463   1.3854   1.4251   1.4579   1.4844   1.5267   1.5352   1.5559
  1.5688   1.6044   1.6173   1.6386   1.6611   1.6752   1.6969   1.7400
  1.7629   1.8093   1.8458   1.8506   1.8886   1.9021   1.9582   1.9915
  2.0014   2.0672   2.1176   2.1383   2.2081   2.2353   2.2531   2.2723
  2.3130   2.3648   2.4170   2.4740   2.4795   2.4973   2.5266   2.5572
  2.5872   2.6650   2.7756   2.7842   2.8746   2.8891   2.9148   2.9697
  3.0205   3.1245   3.2103   3.2338   3.2846   3.3346   3.3687   3.3969
  3.4286   3.4628   3.4796   3.5621   3.6026   3.6231   3.6471   3.6656
  3.6936   3.7464   3.7757   3.7963   3.8087   3.8498   3.8647   3.9150
  4.0004   4.0531   4.0931   4.1803   4.2263   4.2680   4.2865   4.3223
  4.3390   4.5793   4.7103   4.7402   4.8166   4.8508   4.9683   5.0627
  5.0777   5.0812   5.1380   5.1559   5.1653   5.1771   5.1810   5.1895
  5.1994   5.2186   5.2261   5.2382   5.2528   5.2785   5.2807   5.2995
  5.3091   5.3302   5.3363   5.3683   5.3917   5.4163   5.4270   5.4396
  5.5144   5.5410   5.5688   5.5718   5.5964   5.6120   5.6502   5.6881
  5.7080   5.7263   5.7753   5.8302   5.8393   5.9383   6.0810   6.1413
  6.2060   6.2596   6.3710   6.4873   6.5133   6.5919   6.6074   6.8164
  6.8531   6.8902   6.9146   6.9233   6.9628   7.0082   7.0316   7.0567
  7.0765   7.0830   7.1197   7.1461   7.1611   7.2072   7.2617   7.3024
  7.3096   7.3352   7.3687   7.4140   7.4157   7.4409   7.4830   7.5298
  7.5482   7.6687   7.6756   7.7213   7.7816   7.7954   7.8108   7.8548
  7.8709   7.9237   8.0478   8.1334  24.8277  25.2136  50.4189  50.5199
 50.6082  50.6377  50.7103  50.7454
 
 Beta MOs
 -- Occupied --
-19.4481 -19.3996 -19.3665 -19.3601 -19.3042 -19.2994 -10.5125 -10.4573
 -1.3249  -1.2344  -1.1837  -1.1657  -1.0996  -0.9596  -0.8043  -0.7126
 -0.6731  -0.6568  -0.6044  -0.5797  -0.5528  -0.5433  -0.5269  -0.5200
 -0.5057  -0.4715  -0.4335  -0.3960  -0.3854  -0.3760  -0.3659
 -- Virtual --
 -0.0310   0.0386   0.0554   0.0729   0.0828   0.0962   0.1035   0.1085
  0.1153   0.1305   0.1410   0.1674   0.1985   0.2043   0.2238   0.2344
  0.2465   0.2497   0.2570   0.2609   0.2845   0.2888   0.2935   0.3071
  0.3196   0.3283   0.3361   0.3372   0.3436   0.3491   0.3514   0.3585
  0.3628   0.3703   0.3795   0.3832   0.3954   0.4099   0.4285   0.4368
  0.4522   0.4740   0.5025   0.5497   0.5880   0.6150   0.6556   0.6765
  0.6824   0.6967   0.7203   0.7700   0.7864   0.8138   0.8373   0.8664
  0.8775   0.8873   0.9498   1.0174   1.0212   1.0433   1.0895   1.1033
  1.1074   1.1169   1.1332   1.1401   1.1455   1.1614   1.1678   1.1726
  1.1925   1.2112   1.2353   1.2514   1.2586   1.2714   1.2871   1.2983
  1.3251   1.3482   1.3866   1.4262   1.4645   1.4943   1.5336   1.5365
  1.5613   1.5771   1.6147   1.6273   1.6421   1.6684   1.6875   1.7103
  1.7422   1.7704   1.8108   1.8522   1.8574   1.8942   1.9035   1.9606
  1.9939   2.0036   2.0742   2.1244   2.1424   2.2135   2.2398   2.2610
  2.2784   2.3196   2.3718   2.4192   2.4775   2.4812   2.4982   2.5280
  2.5613   2.5878   2.6720   2.7771   2.7851   2.8767   2.8899   2.9155
  2.9711   3.0212   3.1249   3.2107   3.2342   3.2852   3.3352   3.3689
  3.3969   3.4294   3.4629   3.4804   3.5625   3.6029   3.6233   3.6473
  3.6662   3.6941   3.7478   3.7763   3.7961   3.8094   3.8500   3.8651
  3.9151   4.0006   4.0534   4.0936   4.1805   4.2265   4.2689   4.2877
  4.3232   4.3393   4.6145   4.7274   4.7446   4.8382   4.8637   4.9850
  5.1223   5.1294   5.1413   5.1553   5.1657   5.1762   5.1854   5.1892
  5.1987   5.2037   5.2222   5.2458   5.2579   5.2743   5.2815   5.2917
  5.3074   5.3136   5.3388   5.3467   5.3752   5.3984   5.4178   5.4361
  5.4481   5.5221   5.5455   5.5703   5.5728   5.6007   5.6124   5.6563
  5.6983   5.7186   5.7295   5.7817   5.8367   5.8422   5.9413   6.0829
  6.1441   6.2127   6.2604   6.3720   6.5146   6.5338   6.6009   6.6161
  6.8495   6.8907   6.9230   6.9421   6.9645   7.0054   7.0119   7.0345
  7.0735   7.0849   7.0883   7.1276   7.1644   7.1744   7.2353   7.2653
  7.3047   7.3203   7.3371   7.3775   7.4244   7.4317   7.4560   7.4984
  7.5400   7.5520   7.6733   7.6782   7.7237   7.7825   7.7969   7.8137
  7.8578   7.8753   7.9253   8.0591   8.1525  24.8275  25.2137  50.4315
 50.5286  50.6083  50.6383  50.7104  50.7457
 --------------------------------------------------------------
 
          Ground-State Mulliken Net Atomic Charges

     Atom                 Charge (a.u.)    Spin (a.u.)
  --------------------------------------------------------
      1 C                     0.499873       0.015719
      2 O                    -0.602956       0.003026
      3 C                     0.136662      -0.008422
      4 O                    -0.417729      -0.000011
      5 O                    -0.407652       0.000255
      6 O                    -0.630514      -0.001118
      7 O                    -0.006736       0.313213
      8 O                    -0.239392       0.677614
      9 H                     0.329346       0.000460
     10 H                     0.339098      -0.000736
  --------------------------------------------------------
  Sum of atomic charges =    -1.000000
  Sum of spin   charges =     1.000000

 -----------------------------------------------------------------
                    Cartesian Multipole Moments
 -----------------------------------------------------------------
    Charge (ESU x 10^10)
                -4.8032
    Dipole Moment (Debye)
         X      -3.5905      Y      -0.9898      Z      -5.7997
       Tot       6.8926
    Quadrupole Moments (Debye-Ang)
        XX     -51.6186     XY      -3.0407     YY     -54.5429
        XZ       3.9570     YZ      -1.8804     ZZ     -57.8655
    Octopole Moments (Debye-Ang^2)
       XXX      88.2528    XXY       5.6513    XYY      25.5059
       YYY     -27.8044    XXZ     -54.9461    XYZ       1.9198
       YYZ     -42.2883    XZZ      47.5543    YZZ      -7.8066
       ZZZ    -136.5696
    Hexadecapole Moments (Debye-Ang^3)
      XXXX    -526.1435   XXXY     -23.0398   XXYY    -135.2646
      XYYY      30.8314   YYYY    -260.4613   XXXZ     127.8227
      XXYZ     -16.7705   XYYZ      33.9090   YYYZ     -15.2987
      XXZZ    -192.7176   XYZZ       6.4623   YYZZ    -122.9244
      XZZZ     144.3199   YZZZ     -15.4248   ZZZZ    -529.1627
 -----------------------------------------------------------------
 Calculating analytic gradient of the SCF energy
 Gradient of CDS energy
            1           2           3           4           5           6
    1   0.0027007  -0.0005544  -0.0036813   0.0022380   0.0010672  -0.0011791
    2  -0.0003151   0.0017913  -0.0003836   0.0041942  -0.0036941  -0.0014679
    3   0.0000686   0.0002532  -0.0042986   0.0011583   0.0033244  -0.0003082
            7           8           9          10
    1   0.0000361  -0.0001812  -0.0001098  -0.0003362
    2  -0.0000727   0.0000778  -0.0003420   0.0002120
    3   0.0000731   0.0000587  -0.0000822  -0.0002473
 Gradient of SCF Energy
            1           2           3           4           5           6
    1   0.0360188  -0.0063538  -0.0063707   0.0103582  -0.0017472  -0.0244084
    2  -0.0020498   0.0218902  -0.0101690  -0.0167946   0.0019688  -0.0211171
    3   0.0000648   0.0026036   0.0028436  -0.0003548   0.0010038  -0.0063930
            7           8           9          10
    1  -0.0002128   0.0007239  -0.0184771   0.0104690
    2   0.0038877   0.0011817   0.0224024  -0.0012003
    3   0.0032243  -0.0075016  -0.0015941   0.0061034
 Max gradient component =       3.602E-02
 RMS gradient           =       1.230E-02
 Computing fast CPCM-SWIG gradient
 Updating gradient with PCM contributions...
 -- total gradient after adding PCM contribution --
---------------------------------------------------
  Atom         X              Y              Z     
---------------------------------------------------
   1       0.001121       0.000184      -0.000038
   2      -0.000249       0.000310       0.000087
   3      -0.000278       0.000054       0.000197
   4       0.000007       0.000023       0.000062
   5      -0.000075      -0.000072      -0.000058
   6      -0.000494      -0.000514      -0.000065
   7      -0.000031      -0.000078      -0.000063
   8      -0.000013       0.000027      -0.000100
   9      -0.000029       0.000006      -0.000050
  10       0.000041       0.000059       0.000029
---------------------------------------------------
 Number of fixed atoms: 0
 Gradient time:  CPU 109.26 s  wall 16.13 s
 ----------------------------------------------------------------
             Standard Nuclear Orientation (Angstroms)
    I     Atom           X                Y                Z
 ----------------------------------------------------------------
    1      C       0.2883629763     0.0315406487     0.5566337965
    2      O       0.6541680611    -1.1565349345     0.4174602413
    3      C      -1.2484564108     0.2451230646     0.4406601187
    4      O      -1.9097781564    -0.9131982675     0.1604466214
    5      O      -1.5417753257     1.2702625386    -0.4185445904
    6      O       0.9759381516     1.0444137214     0.7745928551
    7      O      -1.7384232270     0.7473130169     1.7662032033
    8      O      -1.5108119417    -0.1144755690     2.7119986494
    9      H      -1.2217318192    -1.6053856353     0.1817768981
   10      H      -2.4856635083     1.2394733162    -0.6302879932
 ----------------------------------------------------------------
 Nuclear Repulsion Energy =         403.68590093 hartrees
 There are       32 alpha and       31 beta electrons
 Discretize the solute cavity surface with Lebedev spheres
	Using 110 Lebedev grid points for each H atom
	Using 194 Lebedev grid points for other atoms
	Atomic van der Waals radii will be scaled by 1.20
 Remove points where switching function is < 1.0e-08
 Keep 960 surface tesserae and discard 812 interior tesserae
 Molecular Surface Area = 114.606 Angst**2

                       Distance Matrix (Angstroms)
             C (  1)   O (  2)   C (  3)   O (  4)   O (  5)   O (  6)
   O (  2)  1.250882
   C (  3)  1.555918  2.363295
   O (  4)  2.425143  2.588260  1.362929
   O (  5)  2.415535  3.377931  1.369372  2.288702
   O (  6)  1.243454  2.252833  2.387113  3.540731  2.795258
   O (  7)  2.466425  3.341891  1.499776  2.316272  2.255054  2.905050
   O (  8)  2.811396  3.322338  2.314545  2.703248  3.423267  3.358644
   H (  9)  2.258414  1.943197  1.868721  0.976210  2.955024  3.493225
   H ( 10)  3.250093  4.086218  1.914770  2.364508  0.967837  3.740912
             O (  7)   O (  8)   H (  9)
   O (  8)  1.299621
   H (  9)  2.883152  2.951000
   H ( 10)  2.558077  3.735558  3.217172
 
 Requested basis set is 6-311++G(2df,2p)
 There are 76 shells and 292 basis functions
 A cutoff of  1.0D-12 yielded   2718 shell pairs
 There are     40916 function pairs (     52874 Cartesian)
 Smallest overlap matrix eigenvalue = 5.49E-05
 Guess MOs from SCF MO coefficient file

 -----------------------------------------------------------------------
  General SCF calculation program by
  Eric Jon Sundstrom, Paul Horn, Yuezhi Mao, Dmitri Zuev, Alec White,
  David Stuck, Shaama M.S., Shane Yost, Joonho Lee, David Small,
  Daniel Levine, Susi Lehtola, Hugh Burton, Evgeny Epifanovsky,
  Bang C. Huynh
 -----------------------------------------------------------------------
 Exchange:     0.1500 Hartree-Fock + 1.0000 wB97M-V + LR-HF
 Correlation:  1.0000 wB97M-V
 Using SG-2 standard quadrature grid
 Nonlocal Correlation:  VV10 with C = 0.0100 and b = 6.00 and scale = 1.00000
 Grid used for NLC:  SG-1 standard quadrature
 
 Citation of the SMD model:
 Marenich, A.V.; Cramer, C.J.; Truhlar, D.G.
 J. Phys. Chem. B 2009, 113, 6378-6396.
 iSolventCode=           1
 Solvent: water                                                           
 
 vradii
            1           2           3           4           5           6
    1   1.8500000   1.5200000   1.8500000   1.5200000   1.5200000   1.5200000
            7           8           9          10
    1   1.5200000   1.5200000   1.2000000   1.2000000
 -------------------------------------------------------
 OpenMP BLAS3 based DFT computing Module                
 Release: version 1.0, May 2013, Q-Chem Inc. Pittsburgh 
 -------------------------------------------------------
 A unrestricted SCF calculation will be
 performed using Roothaan-Hall, DIIS, GDM
 SCF converges when RMS gradient is below 1.0e-07
 ---------------------------------------
  Cycle       Energy         DIIS error
 ---------------------------------------
    1    -528.7611177965      3.05e-04  Roothaan Step
 ---------------------------------------
  Cycle       Energy         DIIS error
 ---------------------------------------
    1    -528.8729818300      3.40e-04  
    2    -528.8783067870      2.95e-04  Done DIIS. Switching to GDM
 ---------------------------------------
  Cycle       Energy        RMS Gradient
 ---------------------------------------
    1    -528.8783067870      8.64e-03   Normal BFGS step
    2    -528.8778216787      1.36e-02  Line search: overstep
    3    -528.8806234264      2.51e-03   Normal BFGS step
    4    -528.8807946098      8.42e-04   Normal BFGS step
    5    -528.8808181999      8.34e-04   Normal BFGS step
    6    -528.8808281653      1.73e-04   Normal BFGS step
    7    -528.8808291401      1.06e-04   Normal BFGS step
    8    -528.8808293138      7.68e-05   Normal BFGS step
    9    -528.8808293339      4.83e-05   Normal BFGS step
   10    -528.8808293495      1.36e-05   Normal BFGS step
   11    -528.8808293509      7.61e-06   Normal BFGS step
   12    -528.8808293515      3.94e-06   Normal BFGS step
   13    -528.8808293517      2.46e-06   Normal BFGS step
   14    -528.8808293517      1.27e-06   Normal BFGS step
   15    -528.8808293517      4.61e-07   Normal BFGS step
   16    -528.8808293517      4.30e-07   Normal BFGS step
   17    -528.8808293517      3.65e-07   Normal BFGS step
   18    -528.8808293517      2.83e-07   Normal BFGS step
   19    -528.8808293517      1.56e-07   Normal BFGS step
   20    -528.8808293517      5.68e-08  Convergence criterion met
 ---------------------------------------
 SCF time:   CPU 804.26s  wall 102.00s 
<S^2> =          0.753930988
(3)  G-ENP(liq) elect-nuc-pol free energy of system     -528.880829352 a.u.
(4)  G-CDS(liq) cavity-dispersion-solvent structure 
     free energy                                                3.9613 kcal/mol
(6)  G-S(liq) free energy of system                     -528.874516596 a.u.
 SCF   energy in the final basis set =     -528.8745165964
 Total energy in the final basis set =     -528.8745165964
 
 --------------------------------------------------------------
 
                    Orbital Energies (a.u.)
 --------------------------------------------------------------
 
 Alpha MOs
 -- Occupied --
-19.4585 -19.4185 -19.3665 -19.3603 -19.3043 -19.2994 -10.5124 -10.4575
 -1.3493  -1.2380  -1.1836  -1.1659  -1.0993  -0.9946  -0.8111  -0.7188
 -0.6767  -0.6672  -0.6134  -0.6087  -0.5894  -0.5477  -0.5292  -0.5267
 -0.5109  -0.4777  -0.4365  -0.4160  -0.4011  -0.3854  -0.3759  -0.3677
 -- Virtual --
  0.0384   0.0553   0.0725   0.0822   0.0950   0.1033   0.1084   0.1142
  0.1291   0.1396   0.1664   0.1955   0.2023   0.2217   0.2319   0.2438
  0.2482   0.2531   0.2591   0.2749   0.2866   0.2930   0.3057   0.3180
  0.3276   0.3355   0.3365   0.3425   0.3479   0.3489   0.3579   0.3622
  0.3692   0.3790   0.3823   0.3946   0.4077   0.4264   0.4361   0.4515
  0.4743   0.5012   0.5494   0.5877   0.6147   0.6548   0.6765   0.6816
  0.6951   0.7194   0.7675   0.7860   0.8132   0.8361   0.8658   0.8772
  0.8871   0.9489   1.0140   1.0194   1.0422   1.0812   1.0997   1.1036
  1.1155   1.1287   1.1384   1.1407   1.1497   1.1615   1.1660   1.1896
  1.2068   1.2273   1.2478   1.2564   1.2670   1.2817   1.2910   1.3205
  1.3462   1.3852   1.4255   1.4579   1.4844   1.5267   1.5351   1.5561
  1.5689   1.6046   1.6174   1.6388   1.6609   1.6753   1.6968   1.7400
  1.7626   1.8095   1.8457   1.8506   1.8886   1.9017   1.9580   1.9915
  2.0013   2.0671   2.1174   2.1382   2.2082   2.2355   2.2529   2.2722
  2.3131   2.3648   2.4168   2.4740   2.4794   2.4974   2.5266   2.5573
  2.5865   2.6648   2.7757   2.7840   2.8744   2.8893   2.9145   2.9698
  3.0213   3.1250   3.2106   3.2341   3.2852   3.3345   3.3684   3.3961
  3.4290   3.4626   3.4799   3.5620   3.6025   3.6228   3.6457   3.6661
  3.6937   3.7464   3.7761   3.7966   3.8089   3.8502   3.8650   3.9151
  4.0011   4.0547   4.0946   4.1806   4.2257   4.2675   4.2866   4.3225
  4.3390   4.5793   4.7104   4.7416   4.8167   4.8508   4.9683   5.0626
  5.0777   5.0811   5.1380   5.1558   5.1654   5.1771   5.1811   5.1895
  5.1994   5.2186   5.2261   5.2381   5.2528   5.2784   5.2806   5.2995
  5.3091   5.3301   5.3363   5.3681   5.3908   5.4162   5.4264   5.4390
  5.5144   5.5410   5.5689   5.5717   5.5957   5.6116   5.6500   5.6880
  5.7079   5.7262   5.7748   5.8303   5.8395   5.9377   6.0800   6.1404
  6.2065   6.2584   6.3696   6.4872   6.5087   6.5917   6.6074   6.8161
  6.8529   6.8902   6.9124   6.9234   6.9618   7.0083   7.0315   7.0567
  7.0765   7.0827   7.1196   7.1461   7.1608   7.2072   7.2617   7.3023
  7.3095   7.3356   7.3684   7.4138   7.4156   7.4405   7.4811   7.5295
  7.5480   7.6678   7.6729   7.7215   7.7812   7.7959   7.8109   7.8543
  7.8705   7.9240   8.0478   8.1335  24.8285  25.2120  50.4188  50.5198
 50.6082  50.6376  50.7095  50.7441
 
 Beta MOs
 -- Occupied --
-19.4482 -19.3996 -19.3666 -19.3602 -19.3042 -19.2994 -10.5127 -10.4574
 -1.3250  -1.2345  -1.1834  -1.1658  -1.0991  -0.9597  -0.8048  -0.7128
 -0.6733  -0.6569  -0.6044  -0.5798  -0.5527  -0.5431  -0.5270  -0.5198
 -0.5056  -0.4716  -0.4336  -0.3961  -0.3853  -0.3758  -0.3662
 -- Virtual --
 -0.0310   0.0386   0.0554   0.0729   0.0828   0.0959   0.1035   0.1085
  0.1151   0.1305   0.1409   0.1674   0.1985   0.2043   0.2237   0.2344
  0.2465   0.2497   0.2570   0.2609   0.2844   0.2888   0.2935   0.3071
  0.3197   0.3283   0.3361   0.3372   0.3436   0.3491   0.3514   0.3585
  0.3628   0.3703   0.3797   0.3834   0.3954   0.4099   0.4285   0.4369
  0.4522   0.4739   0.5025   0.5496   0.5880   0.6149   0.6552   0.6763
  0.6823   0.6967   0.7202   0.7698   0.7862   0.8137   0.8372   0.8664
  0.8775   0.8872   0.9498   1.0173   1.0211   1.0433   1.0894   1.1034
  1.1075   1.1172   1.1333   1.1402   1.1454   1.1614   1.1678   1.1726
  1.1925   1.2111   1.2353   1.2515   1.2586   1.2714   1.2872   1.2983
  1.3251   1.3481   1.3864   1.4266   1.4644   1.4943   1.5335   1.5364
  1.5616   1.5771   1.6149   1.6274   1.6423   1.6682   1.6875   1.7102
  1.7422   1.7701   1.8111   1.8521   1.8574   1.8941   1.9032   1.9604
  1.9938   2.0035   2.0742   2.1242   2.1424   2.2135   2.2399   2.2609
  2.2783   2.3196   2.3719   2.4190   2.4775   2.4812   2.4982   2.5281
  2.5614   2.5871   2.6718   2.7771   2.7849   2.8765   2.8900   2.9153
  2.9712   3.0220   3.1254   3.2111   3.2345   3.2858   3.3351   3.3687
  3.3961   3.4298   3.4627   3.4806   3.5624   3.6028   3.6231   3.6459
  3.6668   3.6942   3.7479   3.7767   3.7964   3.8095   3.8504   3.8654
  3.9151   4.0013   4.0550   4.0951   4.1808   4.2259   4.2684   4.2878
  4.3234   4.3393   4.6145   4.7278   4.7457   4.8382   4.8637   4.9850
  5.1223   5.1294   5.1413   5.1553   5.1658   5.1762   5.1854   5.1891
  5.1987   5.2036   5.2222   5.2457   5.2579   5.2742   5.2814   5.2916
  5.3074   5.3135   5.3388   5.3465   5.3749   5.3973   5.4177   5.4357
  5.4475   5.5221   5.5455   5.5704   5.5727   5.6000   5.6120   5.6562
  5.6981   5.7185   5.7294   5.7813   5.8367   5.8424   5.9406   6.0819
  6.1432   6.2133   6.2593   6.3705   6.5101   6.5337   6.6008   6.6160
  6.8494   6.8889   6.9231   6.9406   6.9645   7.0052   7.0119   7.0344
  7.0735   7.0848   7.0881   7.1274   7.1642   7.1743   7.2353   7.2653
  7.3046   7.3203   7.3375   7.3771   7.4244   7.4312   7.4555   7.4968
  7.5399   7.5518   7.6712   7.6767   7.7239   7.7821   7.7974   7.8137
  7.8572   7.8750   7.9256   8.0590   8.1526  24.8283  25.2121  50.4314
 50.5285  50.6083  50.6382  50.7096  50.7444
 --------------------------------------------------------------
 
          Ground-State Mulliken Net Atomic Charges

     Atom                 Charge (a.u.)    Spin (a.u.)
  --------------------------------------------------------
      1 C                     0.500149       0.015637
      2 O                    -0.603260       0.002997
      3 C                     0.137127      -0.008357
      4 O                    -0.417554      -0.000006
      5 O                    -0.407452       0.000250
      6 O                    -0.631586      -0.001129
      7 O                    -0.006857       0.313082
      8 O                    -0.239013       0.677802
      9 H                     0.329284       0.000460
     10 H                     0.339162      -0.000735
  --------------------------------------------------------
  Sum of atomic charges =    -1.000000
  Sum of spin   charges =     1.000000

 -----------------------------------------------------------------
                    Cartesian Multipole Moments
 -----------------------------------------------------------------
    Charge (ESU x 10^10)
                -4.8032
    Dipole Moment (Debye)
         X      -3.6067      Y      -0.9925      Z      -5.7993
       Tot       6.9011
    Quadrupole Moments (Debye-Ang)
        XX     -51.6114     XY      -3.0473     YY     -54.5462
        XZ       3.9455     YZ      -1.8844     ZZ     -57.8580
    Octopole Moments (Debye-Ang^2)
       XXX      88.2306    XXY       5.6499    XYY      25.4998
       YYY     -27.8140    XXZ     -54.9404    XYZ       1.9187
       YYZ     -42.2935    XZZ      47.5307    YZZ      -7.8107
       ZZZ    -136.5441
    Hexadecapole Moments (Debye-Ang^3)
      XXXX    -526.0158   XXXY     -23.0580   XXYY    -135.2276
      XYYY      30.8039   YYYY    -260.4939   XXXZ     127.8063
      XXYZ     -16.7754   XYYZ      33.9077   YYYZ     -15.3151
      XXZZ    -192.6718   XYZZ       6.4533   YYZZ    -122.9247
      XZZZ     144.2621   YZZZ     -15.4352   ZZZZ    -529.0562
 -----------------------------------------------------------------
 Calculating analytic gradient of the SCF energy
 Gradient of CDS energy
            1           2           3           4           5           6
    1   0.0027195  -0.0005609  -0.0036793   0.0022381   0.0010676  -0.0011943
    2  -0.0003087   0.0018022  -0.0003838   0.0041943  -0.0036940  -0.0014851
    3   0.0000708   0.0002544  -0.0042981   0.0011582   0.0033243  -0.0003120
            7           8           9          10
    1   0.0000363  -0.0001811  -0.0001096  -0.0003362
    2  -0.0000725   0.0000778  -0.0003422   0.0002120
    3   0.0000731   0.0000587  -0.0000823  -0.0002472
 Gradient of SCF Energy
            1           2           3           4           5           6
    1   0.0342256  -0.0059565  -0.0058194   0.0103718  -0.0017402  -0.0236008
    2  -0.0023421   0.0213588  -0.0102141  -0.0167609   0.0019475  -0.0202786
    3  -0.0000965   0.0025480   0.0028966  -0.0003581   0.0010179  -0.0062026
            7           8           9          10
    1  -0.0001731   0.0007111  -0.0184618   0.0104432
    2   0.0038763   0.0011829   0.0224165  -0.0011863
    3   0.0031828  -0.0074974  -0.0015867   0.0060959
 Max gradient component =       3.423E-02
 RMS gradient           =       1.197E-02
 Computing fast CPCM-SWIG gradient
 Updating gradient with PCM contributions...
 -- total gradient after adding PCM contribution --
---------------------------------------------------
  Atom         X              Y              Z     
---------------------------------------------------
   1      -0.001067      -0.000041      -0.000181
   2       0.000330      -0.000263       0.000029
   3       0.000337       0.000012       0.000242
   4       0.000040       0.000020       0.000065
   5      -0.000105      -0.000068      -0.000066
   6       0.000475       0.000296       0.000118
   7      -0.000018      -0.000084      -0.000090
   8      -0.000010       0.000026      -0.000095
   9      -0.000024       0.000031      -0.000047
  10       0.000041       0.000072       0.000025
---------------------------------------------------
 Number of fixed atoms: 0
 Gradient time:  CPU 109.68 s  wall 16.30 s
 ----------------------------------------------------------------
             Standard Nuclear Orientation (Angstroms)
    I     Atom           X                Y                Z
 ----------------------------------------------------------------
    1      C       0.2893629763     0.0325406487     0.5566337965
    2      O       0.6541680611    -1.1565349345     0.4174602413
    3      C      -1.2484564108     0.2451230646     0.4406601187
    4      O      -1.9097781564    -0.9131982675     0.1604466214
    5      O      -1.5417753257     1.2702625386    -0.4185445904
    6      O       0.9759381516     1.0444137214     0.7745928551
    7      O      -1.7384232270     0.7473130169     1.7662032033
    8      O      -1.5108119417    -0.1144755690     2.7119986494
    9      H      -1.2217318192    -1.6053856353     0.1817768981
   10      H      -2.4856635083     1.2394733162    -0.6302879932
 ----------------------------------------------------------------
 Nuclear Repulsion Energy =         403.67890488 hartrees
 There are       32 alpha and       31 beta electrons
 Discretize the solute cavity surface with Lebedev spheres
	Using 110 Lebedev grid points for each H atom
	Using 194 Lebedev grid points for other atoms
	Atomic van der Waals radii will be scaled by 1.20
 Remove points where switching function is < 1.0e-08
 Keep 960 surface tesserae and discard 812 interior tesserae
 Molecular Surface Area = 114.610 Angst**2

                       Distance Matrix (Angstroms)
             C (  1)   O (  2)   C (  3)   O (  4)   O (  5)   O (  6)
   O (  2)  1.251540
   C (  3)  1.556769  2.363295
   O (  4)  2.426439  2.588260  1.362929
   O (  5)  2.415781  3.377931  1.369372  2.288702
   O (  6)  1.242086  2.252833  2.387113  3.540731  2.795258
   O (  7)  2.466957  3.341891  1.499776  2.316272  2.255054  2.905050
   O (  8)  2.812088  3.322338  2.314545  2.703248  3.423267  3.358644
   H (  9)  2.259807  1.943197  1.868721  0.976210  2.955024  3.493225
   H ( 10)  3.250576  4.086218  1.914770  2.364508  0.967837  3.740912
             O (  7)   O (  8)   H (  9)
   O (  8)  1.299621
   H (  9)  2.883152  2.951000
   H ( 10)  2.558077  3.735558  3.217172
 
 Requested basis set is 6-311++G(2df,2p)
 There are 76 shells and 292 basis functions
 A cutoff of  1.0D-12 yielded   2718 shell pairs
 There are     40916 function pairs (     52874 Cartesian)
 Smallest overlap matrix eigenvalue = 5.50E-05
 Guess MOs from SCF MO coefficient file

 -----------------------------------------------------------------------
  General SCF calculation program by
  Eric Jon Sundstrom, Paul Horn, Yuezhi Mao, Dmitri Zuev, Alec White,
  David Stuck, Shaama M.S., Shane Yost, Joonho Lee, David Small,
  Daniel Levine, Susi Lehtola, Hugh Burton, Evgeny Epifanovsky,
  Bang C. Huynh
 -----------------------------------------------------------------------
 Exchange:     0.1500 Hartree-Fock + 1.0000 wB97M-V + LR-HF
 Correlation:  1.0000 wB97M-V
 Using SG-2 standard quadrature grid
 Nonlocal Correlation:  VV10 with C = 0.0100 and b = 6.00 and scale = 1.00000
 Grid used for NLC:  SG-1 standard quadrature
 
 Citation of the SMD model:
 Marenich, A.V.; Cramer, C.J.; Truhlar, D.G.
 J. Phys. Chem. B 2009, 113, 6378-6396.
 iSolventCode=           1
 Solvent: water                                                           
 
 vradii
            1           2           3           4           5           6
    1   1.8500000   1.5200000   1.8500000   1.5200000   1.5200000   1.5200000
            7           8           9          10
    1   1.5200000   1.5200000   1.2000000   1.2000000
 -------------------------------------------------------
 OpenMP BLAS3 based DFT computing Module                
 Release: version 1.0, May 2013, Q-Chem Inc. Pittsburgh 
 -------------------------------------------------------
 A unrestricted SCF calculation will be
 performed using Roothaan-Hall, DIIS, GDM
 SCF converges when RMS gradient is below 1.0e-07
 ---------------------------------------
  Cycle       Energy         DIIS error
 ---------------------------------------
    1    -528.7611037795      3.06e-04  Roothaan Step
 ---------------------------------------
  Cycle       Energy         DIIS error
 ---------------------------------------
    1    -528.8730482913      3.39e-04  
    2    -528.8783846954      2.91e-04  Done DIIS. Switching to GDM
 ---------------------------------------
  Cycle       Energy        RMS Gradient
 ---------------------------------------
    1    -528.8783846954      8.54e-03   Normal BFGS step
    2    -528.8779455045      1.33e-02  Line search: overstep
    3    -528.8806294881      2.51e-03   Normal BFGS step
    4    -528.8807991901      8.14e-04   Normal BFGS step
    5    -528.8808221932      8.58e-04   Normal BFGS step
    6    -528.8808320105      1.72e-04   Normal BFGS step
    7    -528.8808329851      1.07e-04   Normal BFGS step
    8    -528.8808331596      7.52e-05   Normal BFGS step
    9    -528.8808331797      4.94e-05   Normal BFGS step
   10    -528.8808331955      1.49e-05   Normal BFGS step
   11    -528.8808331972      8.10e-06   Normal BFGS step
   12    -528.8808331980      6.74e-06   Normal BFGS step
   13    -528.8808331982      5.20e-06   Normal BFGS step
   14    -528.8808331983      3.28e-06   Normal BFGS step
   15    -528.8808331983      3.47e-06   Normal BFGS step
   16    -528.8808331984      2.69e-06   Normal BFGS step
   17    -528.8808331984      1.09e-06   Normal BFGS step
   18    -528.8808331984      4.23e-07   Normal BFGS step
   19    -528.8808331984      9.86e-08  Convergence criterion met
 ---------------------------------------
 SCF time:   CPU 781.00s  wall 98.00s 
<S^2> =          0.753931270
(3)  G-ENP(liq) elect-nuc-pol free energy of system     -528.880833198 a.u.
(4)  G-CDS(liq) cavity-dispersion-solvent structure 
     free energy                                                3.9641 kcal/mol
(6)  G-S(liq) free energy of system                     -528.874515931 a.u.
 SCF   energy in the final basis set =     -528.8745159313
 Total energy in the final basis set =     -528.8745159313
 
 --------------------------------------------------------------
 
                    Orbital Energies (a.u.)
 --------------------------------------------------------------
 
 Alpha MOs
 -- Occupied --
-19.4584 -19.4185 -19.3664 -19.3603 -19.3041 -19.2995 -10.5123 -10.4575
 -1.3492  -1.2379  -1.1837  -1.1659  -1.0995  -0.9945  -0.8109  -0.7187
 -0.6767  -0.6671  -0.6134  -0.6087  -0.5894  -0.5477  -0.5292  -0.5268
 -0.5110  -0.4777  -0.4365  -0.4159  -0.4011  -0.3854  -0.3760  -0.3676
 -- Virtual --
  0.0384   0.0553   0.0725   0.0822   0.0951   0.1033   0.1084   0.1142
  0.1291   0.1396   0.1664   0.1955   0.2023   0.2217   0.2319   0.2438
  0.2482   0.2531   0.2591   0.2749   0.2866   0.2930   0.3057   0.3180
  0.3276   0.3354   0.3365   0.3425   0.3479   0.3489   0.3580   0.3622
  0.3692   0.3789   0.3822   0.3946   0.4077   0.4264   0.4360   0.4514
  0.4743   0.5012   0.5495   0.5877   0.6147   0.6550   0.6765   0.6816
  0.6951   0.7195   0.7675   0.7860   0.8134   0.8362   0.8659   0.8772
  0.8872   0.9490   1.0141   1.0194   1.0423   1.0812   1.0996   1.1034
  1.1155   1.1287   1.1383   1.1408   1.1498   1.1615   1.1660   1.1896
  1.2068   1.2273   1.2478   1.2564   1.2671   1.2815   1.2910   1.3205
  1.3461   1.3853   1.4254   1.4579   1.4844   1.5267   1.5352   1.5560
  1.5688   1.6045   1.6173   1.6386   1.6609   1.6753   1.6969   1.7401
  1.7627   1.8095   1.8458   1.8505   1.8887   1.9019   1.9582   1.9915
  2.0013   2.0672   2.1174   2.1382   2.2081   2.2354   2.2531   2.2722
  2.3131   2.3648   2.4170   2.4741   2.4793   2.4973   2.5265   2.5576
  2.5867   2.6650   2.7756   2.7838   2.8745   2.8893   2.9147   2.9697
  3.0209   3.1251   3.2104   3.2336   3.2848   3.3347   3.3685   3.3968
  3.4288   3.4624   3.4799   3.5621   3.6025   3.6227   3.6465   3.6659
  3.6936   3.7464   3.7759   3.7963   3.8090   3.8500   3.8649   3.9150
  4.0001   4.0544   4.0945   4.1805   4.2255   4.2678   4.2867   4.3225
  4.3391   4.5794   4.7104   4.7410   4.8166   4.8508   4.9683   5.0626
  5.0777   5.0811   5.1381   5.1558   5.1653   5.1770   5.1811   5.1895
  5.1994   5.2186   5.2261   5.2382   5.2528   5.2784   5.2806   5.2995
  5.3092   5.3302   5.3363   5.3682   5.3912   5.4162   5.4266   5.4394
  5.5143   5.5411   5.5689   5.5717   5.5957   5.6119   5.6501   5.6881
  5.7080   5.7263   5.7749   5.8304   5.8394   5.9379   6.0803   6.1408
  6.2062   6.2582   6.3714   6.4873   6.5103   6.5919   6.6073   6.8162
  6.8531   6.8902   6.9133   6.9233   6.9621   7.0083   7.0315   7.0567
  7.0765   7.0830   7.1198   7.1461   7.1609   7.2072   7.2617   7.3023
  7.3095   7.3354   7.3686   7.4138   7.4157   7.4407   7.4821   7.5296
  7.5481   7.6682   7.6737   7.7214   7.7814   7.7957   7.8110   7.8546
  7.8706   7.9240   8.0478   8.1334  24.8282  25.2126  50.4189  50.5198
 50.6082  50.6375  50.7097  50.7449
 
 Beta MOs
 -- Occupied --
-19.4482 -19.3996 -19.3665 -19.3602 -19.3040 -19.2996 -10.5126 -10.4573
 -1.3250  -1.2344  -1.1835  -1.1658  -1.0993  -0.9596  -0.8046  -0.7127
 -0.6732  -0.6568  -0.6044  -0.5797  -0.5527  -0.5432  -0.5270  -0.5199
 -0.5057  -0.4716  -0.4335  -0.3960  -0.3853  -0.3759  -0.3661
 -- Virtual --
 -0.0310   0.0386   0.0554   0.0729   0.0828   0.0960   0.1035   0.1085
  0.1152   0.1305   0.1409   0.1674   0.1985   0.2043   0.2238   0.2344
  0.2465   0.2497   0.2570   0.2609   0.2845   0.2888   0.2935   0.3071
  0.3197   0.3283   0.3361   0.3372   0.3436   0.3491   0.3514   0.3585
  0.3628   0.3703   0.3796   0.3833   0.3954   0.4099   0.4285   0.4368
  0.4522   0.4739   0.5025   0.5498   0.5880   0.6149   0.6554   0.6764
  0.6823   0.6967   0.7203   0.7698   0.7862   0.8139   0.8372   0.8664
  0.8775   0.8873   0.9499   1.0174   1.0212   1.0434   1.0894   1.1033
  1.1074   1.1172   1.1334   1.1401   1.1455   1.1614   1.1679   1.1726
  1.1924   1.2111   1.2352   1.2514   1.2586   1.2714   1.2871   1.2983
  1.3251   1.3481   1.3865   1.4265   1.4645   1.4943   1.5336   1.5365
  1.5615   1.5770   1.6148   1.6273   1.6422   1.6683   1.6875   1.7102
  1.7422   1.7702   1.8110   1.8521   1.8574   1.8942   1.9034   1.9606
  1.9938   2.0035   2.0743   2.1242   2.1423   2.2134   2.2398   2.2610
  2.2784   2.3196   2.3719   2.4191   2.4776   2.4810   2.4981   2.5279
  2.5616   2.5874   2.6719   2.7770   2.7847   2.8766   2.8901   2.9154
  2.9712   3.0216   3.1255   3.2108   3.2339   3.2854   3.3353   3.3688
  3.3968   3.4295   3.4625   3.4806   3.5625   3.6028   3.6229   3.6468
  3.6665   3.6941   3.7478   3.7766   3.7961   3.8096   3.8503   3.8653
  3.9151   4.0003   4.0547   4.0950   4.1807   4.2256   4.2687   4.2879
  4.3234   4.3394   4.6145   4.7277   4.7452   4.8382   4.8637   4.9850
  5.1223   5.1294   5.1413   5.1553   5.1658   5.1762   5.1854   5.1892
  5.1988   5.2037   5.2222   5.2457   5.2579   5.2742   5.2814   5.2916
  5.3074   5.3136   5.3388   5.3466   5.3750   5.3978   5.4178   5.4358
  5.4479   5.5219   5.5456   5.5704   5.5727   5.6000   5.6123   5.6563
  5.6983   5.7186   5.7294   5.7813   5.8367   5.8424   5.9408   6.0822
  6.1436   6.2130   6.2590   6.3723   6.5117   6.5338   6.6009   6.6160
  6.8494   6.8898   6.9231   6.9410   6.9645   7.0053   7.0119   7.0344
  7.0735   7.0849   7.0883   7.1277   7.1642   7.1743   7.2352   7.2653
  7.3046   7.3203   7.3373   7.3774   7.4244   7.4313   7.4557   7.4976
  7.5399   7.5519   7.6720   7.6771   7.7239   7.7823   7.7971   7.8138
  7.8576   7.8751   7.9255   8.0590   8.1525  24.8279  25.2127  50.4314
 50.5286  50.6083  50.6381  50.7098  50.7453
 --------------------------------------------------------------
 
          Ground-State Mulliken Net Atomic Charges

     Atom                 Charge (a.u.)    Spin (a.u.)
  --------------------------------------------------------
      1 C                     0.500052       0.015672
      2 O                    -0.604373       0.003010
      3 C                     0.136892      -0.008382
      4 O                    -0.417661      -0.000013
      5 O                    -0.407511       0.000254
      6 O                    -0.629924      -0.001125
      7 O                    -0.006727       0.313142
      8 O                    -0.239229       0.677718
      9 H                     0.329347       0.000460
     10 H                     0.339134      -0.000735
  --------------------------------------------------------
  Sum of atomic charges =    -1.000000
  Sum of spin   charges =     1.000000

 -----------------------------------------------------------------
                    Cartesian Multipole Moments
 -----------------------------------------------------------------
    Charge (ESU x 10^10)
                -4.8032
    Dipole Moment (Debye)
         X      -3.5973      Y      -0.9761      Z      -5.7973
       Tot       6.8922
    Quadrupole Moments (Debye-Ang)
        XX     -51.6115     XY      -3.0311     YY     -54.5462
        XZ       3.9539     YZ      -1.8735     ZZ     -57.8593
    Octopole Moments (Debye-Ang^2)
       XXX      88.2486    XXY       5.6636    XYY      25.5032
       YYY     -27.7844    XXZ     -54.9375    XYZ       1.9262
       YYZ     -42.2893    XZZ      47.5464    YZZ      -7.7953
       ZZZ    -136.5481
    Hexadecapole Moments (Debye-Ang^3)
      XXXX    -526.0555   XXXY     -23.0136   XXYY    -135.2440
      XYYY      30.8452   YYYY    -260.4898   XXXZ     127.8235
      XXYZ     -16.7640   XYYZ      33.9108   YYYZ     -15.2917
      XXZZ    -192.6855   XYZZ       6.4715   YYZZ    -122.9245
      XZZZ     144.3001   YZZZ     -15.4129   ZZZZ    -529.0919
 -----------------------------------------------------------------
 Calculating analytic gradient of the SCF energy
 Gradient of CDS energy
            1           2           3           4           5           6
    1   0.0027069  -0.0005632  -0.0036802   0.0022381   0.0010671  -0.0011781
    2  -0.0003426   0.0018147  -0.0003840   0.0041943  -0.0036940  -0.0014629
    3   0.0000652   0.0002559  -0.0042982   0.0011583   0.0033242  -0.0003075
            7           8           9          10
    1   0.0000361  -0.0001811  -0.0001094  -0.0003362
    2  -0.0000727   0.0000776  -0.0003423   0.0002120
    3   0.0000731   0.0000587  -0.0000823  -0.0002472
 Gradient of SCF Energy
            1           2           3           4           5           6
    1   0.0352742  -0.0059154  -0.0060584   0.0103515  -0.0017204  -0.0244036
    2  -0.0006280   0.0208175  -0.0102636  -0.0168137   0.0019488  -0.0213610
    3   0.0001872   0.0024987   0.0028896  -0.0003650   0.0010151  -0.0064273
            7           8           9          10
    1  -0.0001894   0.0007250  -0.0185201   0.0104567
    2   0.0038847   0.0011762   0.0224316  -0.0011925
    3   0.0031966  -0.0075040  -0.0015932   0.0061021
 Max gradient component =       3.527E-02
 RMS gradient           =       1.217E-02
 Computing fast CPCM-SWIG gradient
 Updating gradient with PCM contributions...
 -- total gradient after adding PCM contribution --
---------------------------------------------------
  Atom         X              Y              Z     
---------------------------------------------------
   1       0.000144       0.001671       0.000071
   2       0.000256      -0.000763      -0.000017
   3       0.000054      -0.000083       0.000234
   4      -0.000020      -0.000007       0.000054
   5      -0.000046      -0.000083      -0.000049
   6      -0.000350      -0.000750      -0.000081
   7      -0.000009      -0.000086      -0.000088
   8      -0.000010       0.000028      -0.000100
   9      -0.000060       0.000011      -0.000054
  10       0.000041       0.000061       0.000030
---------------------------------------------------
 Number of fixed atoms: 0
 Gradient time:  CPU 110.89 s  wall 16.42 s
 ----------------------------------------------------------------
             Standard Nuclear Orientation (Angstroms)
    I     Atom           X                Y                Z
 ----------------------------------------------------------------
    1      C       0.2893629763     0.0305406487     0.5566337965
    2      O       0.6541680611    -1.1565349345     0.4174602413
    3      C      -1.2484564108     0.2451230646     0.4406601187
    4      O      -1.9097781564    -0.9131982675     0.1604466214
    5      O      -1.5417753257     1.2702625386    -0.4185445904
    6      O       0.9759381516     1.0444137214     0.7745928551
    7      O      -1.7384232270     0.7473130169     1.7662032033
    8      O      -1.5108119417    -0.1144755690     2.7119986494
    9      H      -1.2217318192    -1.6053856353     0.1817768981
   10      H      -2.4856635083     1.2394733162    -0.6302879932
 ----------------------------------------------------------------
 Nuclear Repulsion Energy =         403.67829924 hartrees
 There are       32 alpha and       31 beta electrons
 Discretize the solute cavity surface with Lebedev spheres
	Using 110 Lebedev grid points for each H atom
	Using 194 Lebedev grid points for other atoms
	Atomic van der Waals radii will be scaled by 1.20
 Remove points where switching function is < 1.0e-08
 Keep 960 surface tesserae and discard 812 interior tesserae
 Molecular Surface Area = 114.611 Angst**2

                       Distance Matrix (Angstroms)
             C (  1)   O (  2)   C (  3)   O (  4)   O (  5)   O (  6)
   O (  2)  1.249640
   C (  3)  1.557043  2.363295
   O (  4)  2.425661  2.588260  1.362929
   O (  5)  2.416806  3.377931  1.369372  2.288702
   O (  6)  1.243716  2.252833  2.387113  3.540731  2.795258
   O (  7)  2.467537  3.341891  1.499776  2.316272  2.255054  2.905050
   O (  8)  2.811985  3.322338  2.314545  2.703248  3.423267  3.358644
   H (  9)  2.258358  1.943197  1.868721  0.976210  2.955024  3.493225
   H ( 10)  3.251319  4.086218  1.914770  2.364508  0.967837  3.740912
             O (  7)   O (  8)   H (  9)
   O (  8)  1.299621
   H (  9)  2.883152  2.951000
   H ( 10)  2.558077  3.735558  3.217172
 
 Requested basis set is 6-311++G(2df,2p)
 There are 76 shells and 292 basis functions
 A cutoff of  1.0D-12 yielded   2718 shell pairs
 There are     40916 function pairs (     52874 Cartesian)
 Smallest overlap matrix eigenvalue = 5.51E-05
 Guess MOs from SCF MO coefficient file

 -----------------------------------------------------------------------
  General SCF calculation program by
  Eric Jon Sundstrom, Paul Horn, Yuezhi Mao, Dmitri Zuev, Alec White,
  David Stuck, Shaama M.S., Shane Yost, Joonho Lee, David Small,
  Daniel Levine, Susi Lehtola, Hugh Burton, Evgeny Epifanovsky,
  Bang C. Huynh
 -----------------------------------------------------------------------
 Exchange:     0.1500 Hartree-Fock + 1.0000 wB97M-V + LR-HF
 Correlation:  1.0000 wB97M-V
 Using SG-2 standard quadrature grid
 Nonlocal Correlation:  VV10 with C = 0.0100 and b = 6.00 and scale = 1.00000
 Grid used for NLC:  SG-1 standard quadrature
 
 Citation of the SMD model:
 Marenich, A.V.; Cramer, C.J.; Truhlar, D.G.
 J. Phys. Chem. B 2009, 113, 6378-6396.
 iSolventCode=           1
 Solvent: water                                                           
 
 vradii
            1           2           3           4           5           6
    1   1.8500000   1.5200000   1.8500000   1.5200000   1.5200000   1.5200000
            7           8           9          10
    1   1.5200000   1.5200000   1.2000000   1.2000000
 -------------------------------------------------------
 OpenMP BLAS3 based DFT computing Module                
 Release: version 1.0, May 2013, Q-Chem Inc. Pittsburgh 
 -------------------------------------------------------
 A unrestricted SCF calculation will be
 performed using Roothaan-Hall, DIIS, GDM
 SCF converges when RMS gradient is below 1.0e-07
 ---------------------------------------
  Cycle       Energy         DIIS error
 ---------------------------------------
    1    -528.7611248950      3.06e-04  Roothaan Step
 ---------------------------------------
  Cycle       Energy         DIIS error
 ---------------------------------------
    1    -528.8730014598      3.40e-04  
    2    -528.8783177018      2.95e-04  Done DIIS. Switching to GDM
 ---------------------------------------
  Cycle       Energy        RMS Gradient
 ---------------------------------------
    1    -528.8783177018      8.60e-03   Normal BFGS step
    2    -528.8778195037      1.32e-02  Line search: overstep
    3    -528.8806279869      2.47e-03   Normal BFGS step
    4    -528.8807995388      8.53e-04   Normal BFGS step
    5    -528.8808234777      8.26e-04   Normal BFGS step
    6    -528.8808334629      1.72e-04   Normal BFGS step
    7    -528.8808344288      1.10e-04   Normal BFGS step
    8    -528.8808346022      7.68e-05   Normal BFGS step
    9    -528.8808346235      4.92e-05   Normal BFGS step
   10    -528.8808346394      1.44e-05   Normal BFGS step
   11    -528.8808346409      7.87e-06   Normal BFGS step
   12    -528.8808346416      3.06e-06   Normal BFGS step
   13    -528.8808346417      2.12e-06   Normal BFGS step
   14    -528.8808346417      1.10e-06   Normal BFGS step
   15    -528.8808346417      4.64e-07   Normal BFGS step
   16    -528.8808346417      3.73e-07   Normal BFGS step
   17    -528.8808346417      2.81e-07   Normal BFGS step
   18    -528.8808346417      1.73e-07   Normal BFGS step
   19    -528.8808346417      8.79e-08  Convergence criterion met
 ---------------------------------------
 SCF time:   CPU 775.54s  wall 98.00s 
<S^2> =          0.753931239
(3)  G-ENP(liq) elect-nuc-pol free energy of system     -528.880834642 a.u.
(4)  G-CDS(liq) cavity-dispersion-solvent structure 
     free energy                                                3.9649 kcal/mol
(6)  G-S(liq) free energy of system                     -528.874516196 a.u.
 SCF   energy in the final basis set =     -528.8745161957
 Total energy in the final basis set =     -528.8745161957
 
 --------------------------------------------------------------
 
                    Orbital Energies (a.u.)
 --------------------------------------------------------------
 
 Alpha MOs
 -- Occupied --
-19.4584 -19.4185 -19.3664 -19.3603 -19.3045 -19.2992 -10.5122 -10.4575
 -1.3492  -1.2380  -1.1838  -1.1659  -1.0996  -0.9945  -0.8108  -0.7187
 -0.6767  -0.6672  -0.6134  -0.6087  -0.5894  -0.5478  -0.5292  -0.5269
 -0.5109  -0.4776  -0.4365  -0.4160  -0.4011  -0.3854  -0.3760  -0.3675
 -- Virtual --
  0.0384   0.0553   0.0725   0.0822   0.0952   0.1033   0.1084   0.1142
  0.1291   0.1396   0.1664   0.1955   0.2023   0.2217   0.2319   0.2438
  0.2482   0.2531   0.2591   0.2749   0.2866   0.2930   0.3057   0.3180
  0.3276   0.3354   0.3365   0.3425   0.3479   0.3488   0.3580   0.3622
  0.3692   0.3789   0.3822   0.3946   0.4077   0.4264   0.4360   0.4515
  0.4743   0.5012   0.5493   0.5877   0.6148   0.6550   0.6766   0.6817
  0.6951   0.7195   0.7676   0.7861   0.8132   0.8362   0.8657   0.8772
  0.8872   0.9489   1.0140   1.0194   1.0422   1.0813   1.0997   1.1035
  1.1153   1.1286   1.1384   1.1407   1.1496   1.1615   1.1660   1.1897
  1.2069   1.2273   1.2477   1.2565   1.2670   1.2816   1.2910   1.3204
  1.3463   1.3853   1.4252   1.4579   1.4844   1.5267   1.5350   1.5560
  1.5689   1.6045   1.6174   1.6387   1.6611   1.6752   1.6969   1.7400
  1.7628   1.8094   1.8457   1.8506   1.8885   1.9018   1.9580   1.9915
  2.0013   2.0671   2.1175   2.1383   2.2082   2.2355   2.2529   2.2723
  2.3130   2.3647   2.4169   2.4738   2.4797   2.4974   2.5267   2.5570
  2.5870   2.6649   2.7757   2.7844   2.8744   2.8891   2.9146   2.9698
  3.0208   3.1244   3.2105   3.2344   3.2850   3.3344   3.3686   3.3962
  3.4289   3.4630   3.4796   3.5620   3.6026   3.6232   3.6462   3.6658
  3.6936   3.7464   3.7758   3.7965   3.8086   3.8499   3.8648   3.9151
  4.0014   4.0534   4.0932   4.1804   4.2266   4.2677   4.2864   4.3223
[...]
     6   -4.731728830890670e-05   4.465726817676199e-04   1.131111377227276e-04
     7   -3.839180253588831e-02   1.829008660183180e-01  -2.622838837859917e-01
     8    4.599019511025788e-02  -2.213523482525380e-01   3.140446374245907e-01
     9   -5.075053134129580e-04   8.724481308137928e-05   6.793125174340881e-04
    10    1.492812942207308e-03  -5.050327068393280e-06   1.122435222922791e-04


     9 Order 1, Length 30
    Atom      X          Y          Z
     1   -1.321376317931108e-03  -1.804281266226092e-02  -2.657555178190616e-03
     2    7.940220764314193e-03   1.059555532357782e-02   2.414177238384052e-03
     3    2.067310497355817e-02  -6.442610972700746e-03   2.895170927484223e-03
     4   -2.504449181118291e-01   2.223748477380529e-01  -1.281259484740145e-02
     5   -2.461903256836673e-03  -8.693090739615338e-03   1.953534741755006e-03
     6    9.121690736716898e-04   6.256073313673277e-03   9.205069493240226e-04
     7   -7.324350991332793e-04  -2.688202603856550e-03  -2.742644918737344e-03
     8   -5.275836320781859e-04  -1.866146877935657e-04  -5.075053134129580e-04
     9    2.269172843026676e-01  -2.039443203530683e-01   1.094398839913724e-02
    10   -9.546462179546814e-04   7.715185400809809e-04  -4.071383213608619e-04

Order 1, Length 30
    Atom      X          Y          Z
     1   -6.484621096193359e-03  -3.890302382429589e-03  -8.480748632511626e-04
     2    4.042780489747697e-03  -1.755432107926789e-03   6.893044665711531e-04
     3    2.116106605847394e-02  -4.900605636972707e-02  -2.929312435511628e-03
     4    1.845869531948973e-01  -2.371190543569472e-01  -1.944109824516686e-03
     5   -1.984232592396750e-03  -2.154013878176519e-03  -7.463522605565527e-04
     6    3.806984295538987e-03   1.754701009395653e-03   4.703784157305186e-04
     7   -7.046696210343749e-04  -5.219811709794350e-04   7.967271174155618e-04
     8   -1.369569331583171e-04   4.948341272869065e-04   8.724481308137928e-05
     9   -2.039443203530683e-01   2.923004850903788e-01   4.442579667259403e-03
    10   -3.419870705064182e-04  -1.032256072939710e-04  -1.873953022735691e-05

Order 1, Length 30
    Atom      X          Y          Z
     1   -9.088273842586410e-04  -2.647958031428738e-03  -8.705652967483308e-04
     2    1.768507546472850e-03   1.571272624734239e-03  -3.582090413341860e-03
     3    5.548287195087595e-03  -8.096202902311066e-03   2.242673233751906e-03
     4   -1.786271476059690e-02   4.770328052194343e-03  -6.231496012419999e-03
     5    4.600502834267574e-04   5.232261262446634e-03  -7.139582971397887e-04
     6    3.623477948274181e-04   6.637831464501194e-04   9.513755118410363e-04
     7   -1.698929923185898e-04  -5.788281351230483e-03  -5.080334537903155e-03
     8   -3.906264436085321e-04   4.132924125054405e-04   6.793125174340881e-04
     9    1.094398839913724e-02   4.442579667259403e-03   1.254054130739382e-02
    10    2.493261700659786e-04  -5.610232142020684e-04   6.430193083495196e-05


    10 Order 1, Length 30
    Atom      X          Y          Z
     1    1.046775286765652e-04   9.417990182341405e-05  -6.183342739419099e-04
     2    7.025765453900552e-04   2.411891250341227e-05  -8.988422585817316e-05
     3   -1.004751965638360e-02   5.142559052853997e-03  -6.191954568328281e-03
     4    1.528245775979159e-03  -3.802866639018342e-03   1.661858370409155e-03
     5   -4.769147224685999e-01  -1.185745820304998e-02  -1.106833374972214e-01
     6    6.665379059638339e-04   3.104518946743851e-04   2.034576102750209e-04
     7    3.396864374018211e-04  -1.354584235781043e-03   1.421472857746315e-03
     8   -2.308900745585181e-04  -1.596005291604936e-04   1.492812942207308e-03
     9   -9.546462179546814e-04  -3.419870705064182e-04   2.493261700659786e-04
    10    4.848061436657589e-01   1.194460696459934e-02   1.125549066986345e-01

Order 1, Length 30
    Atom      X          Y          Z
     1   -3.434098353171797e-03  -2.822307739936755e-03   4.311232943881938e-03
     2    1.556723049688444e-03  -1.115551361444335e-03  -9.364899249516931e-04
     3    4.160947895034240e-02  -8.272882531636862e-03   1.593673749846884e-02
     4   -1.132883561353454e-03   4.636371918560362e-03  -1.308983392035804e-03
     5   -5.102520380230822e-02  -2.904223327834509e-02   6.541564324895614e-03
     6    4.835793481230194e-04   1.139034351492931e-03  -7.389554775479337e-04
     7   -7.799875839570703e-04   6.411799781208191e-04  -3.955221104902186e-04
     8    5.946503515564304e-06  -1.250648163763520e-04  -5.050327068393280e-06
     9    7.715185400809809e-04  -1.032256072939710e-04  -5.610232142020684e-04
    10    1.194460696459934e-02   3.506442422809130e-02  -2.284283041968450e-02

Order 1, Length 30
    Atom      X          Y          Z
     1    1.004899495992042e-03   1.669195498948317e-03   3.947551029054920e-04
     2   -4.593664179202107e-04   5.177309410352478e-04  -1.800968703634150e-04
     3   -3.219026089305459e-02   4.087527476641628e-03  -1.457621662004350e-02
     4    1.752402312222876e-03  -1.259015268261286e-03   4.709817226284739e-04
     5   -8.184261296935190e-02   1.705323812688837e-02  -3.787309706799397e-02
     6    3.384727791804056e-04  -1.174174200960589e-05   1.667335932470367e-04
     7   -1.459067616873395e-03   7.325449571581604e-04   1.360992776900335e-03
     8    7.081316632915897e-04   7.196591823788019e-05   1.122435222922791e-04
     9   -4.071383213608619e-04  -1.873953022735691e-05   6.430193083495196e-05
    10    1.125549066986345e-01  -2.284283041968450e-02   5.005890606693426e-02




 # Finishing finite difference calculation for IDERIV #
 ######################################################
 ######################################################
 Requested basis set is 6-311++G(2df,2p)
 There are 76 shells and 292 basis functions
 **********************************************************************
 **                                                                  **
 **                       VIBRATIONAL ANALYSIS                       **
 **                       --------------------                       **
 **                                                                  **
 **        VIBRATIONAL FREQUENCIES (CM**-1) AND NORMAL MODES         **
 **     FORCE CONSTANTS (mDYN/ANGSTROM) AND REDUCED MASSES (AMU)     **
 **                  INFRARED INTENSITIES (KM/MOL)                   **
 **                                                                  **
 **********************************************************************
 

 Mode:                 1                      2                      3
 Frequency:        48.56                  95.53                 215.75
 Force Cnst:      0.0181                 0.0800                 0.3000
 Red. Mass:      13.0367                14.8796                10.9395
 IR Active:          YES                    YES                    YES
 IR Intens:        2.876                  3.747                  6.773
 Raman Active:       YES                    YES                    YES
               X      Y      Z        X      Y      Z        X      Y      Z
 C         -0.046 -0.044  0.055   -0.103 -0.014  0.116   -0.058  0.026  0.012
 O          0.016  0.036 -0.459   -0.144 -0.065  0.453    0.004  0.036  0.161
 C         -0.044 -0.046  0.002   -0.080  0.027 -0.098   -0.014  0.035 -0.127
 O         -0.034 -0.072  0.051   -0.056  0.061 -0.337   -0.198  0.084  0.143
 O          0.013 -0.112 -0.114   -0.018  0.131  0.018   -0.108 -0.083 -0.216
 O         -0.106 -0.110  0.551   -0.086  0.005 -0.027   -0.168  0.057  0.259
 O         -0.134  0.032 -0.095   -0.209 -0.195 -0.060    0.440  0.149  0.014
 O          0.306  0.309  0.055    0.655  0.049 -0.040    0.114 -0.275 -0.290
 H          0.032 -0.017 -0.210   -0.098  0.026 -0.113   -0.373 -0.066  0.365
 H          0.060 -0.236 -0.300    0.031  0.059 -0.190   -0.124 -0.144 -0.138
 TransDip   0.007 -0.017 -0.051   -0.015  0.004 -0.060   -0.045 -0.031 -0.063

 Mode:                 4                      5                      6
 Frequency:       265.89                 276.49                 317.08
 Force Cnst:      0.2044                 0.0545                 0.5665
 Red. Mass:       4.9078                 1.2089                 9.5628
 IR Active:          YES                    YES                    YES
 IR Intens:       22.661                174.841                 53.694
 Raman Active:       YES                    YES                    YES
               X      Y      Z        X      Y      Z        X      Y      Z
 C         -0.025 -0.059 -0.005    0.002 -0.001 -0.018   -0.034  0.110  0.079
 O          0.189  0.020 -0.026   -0.011 -0.011  0.018   -0.192  0.077 -0.057
 C         -0.000 -0.095  0.029   -0.005 -0.005 -0.032   -0.043  0.118  0.144
 O         -0.221  0.020 -0.008    0.045 -0.045 -0.008    0.028 -0.008  0.377
 O          0.294 -0.032  0.013   -0.048  0.005 -0.003    0.249 -0.052 -0.160
 O         -0.232  0.105 -0.076    0.006 -0.019  0.039    0.137  0.027 -0.073
 O         -0.003 -0.045 -0.003    0.020  0.008 -0.040   -0.311 -0.043 -0.021
 O          0.007  0.021  0.057    0.001  0.031 -0.019    0.124 -0.213 -0.257
 H         -0.426 -0.157 -0.015    0.085 -0.007  0.039    0.209  0.152  0.151
 H          0.188  0.583  0.394   -0.240  0.588  0.758    0.148  0.510  0.207
 TransDip  -0.106  0.013  0.109   -0.035  0.286  0.311    0.013  0.179  0.152

 Mode:                 7                      8                      9
 Frequency:       393.82                 444.55                 507.09
 Force Cnst:      0.6231                 0.8417                 0.1946
 Red. Mass:       6.8189                 7.2291                 1.2847
 IR Active:          YES                    YES                    YES
 IR Intens:       35.410                 22.472                105.979
 Raman Active:       YES                    YES                    YES
               X      Y      Z        X      Y      Z        X      Y      Z
 C          0.192 -0.016  0.013   -0.005 -0.138 -0.006   -0.011 -0.035  0.004
 O          0.298  0.027  0.031    0.160 -0.108  0.035    0.021 -0.025 -0.035
 C         -0.003  0.018  0.002   -0.005 -0.010  0.051    0.006  0.011  0.007
 O         -0.278  0.132  0.034    0.046 -0.086  0.220    0.063  0.009 -0.033
 O         -0.202 -0.034  0.005   -0.055  0.240  0.285    0.001  0.017  0.041
 O          0.281 -0.061  0.027   -0.165 -0.044 -0.025   -0.047 -0.013 -0.010
 O         -0.190 -0.050 -0.067   -0.015  0.061 -0.224   -0.039  0.041  0.013
 O          0.005  0.003 -0.071    0.014  0.054 -0.271    0.010 -0.003 -0.044
 H         -0.625 -0.162  0.238    0.277  0.107 -0.617   -0.104 -0.122  0.976
 H         -0.253 -0.106  0.232    0.083 -0.203 -0.250    0.020 -0.025 -0.034
 TransDip  -0.160 -0.075  0.071    0.068 -0.041 -0.130   -0.073 -0.045  0.318

 Mode:                10                     11                     12
 Frequency:       561.58                 586.02                 660.20
 Force Cnst:      1.4643                 1.3640                 1.8648
 Red. Mass:       7.8804                 6.7412                 7.2615
 IR Active:          YES                    YES                    YES
 IR Intens:       19.956                 91.540                 75.113
 Raman Active:       YES                    YES                    YES
               X      Y      Z        X      Y      Z        X      Y      Z
 C         -0.002  0.185  0.047   -0.032 -0.054  0.280    0.130 -0.038 -0.018
 O         -0.241  0.162 -0.015    0.018  0.000 -0.068   -0.166 -0.145 -0.029
 C         -0.005 -0.178  0.058   -0.038 -0.001  0.315    0.316  0.043  0.073
 O         -0.172 -0.189 -0.064    0.032  0.074 -0.227    0.078  0.328  0.083
 O          0.087 -0.055  0.281   -0.027 -0.264  0.084   -0.057 -0.135  0.027
 O          0.195  0.105  0.032   -0.009  0.008 -0.092   -0.143  0.155  0.018
 O          0.167 -0.083 -0.250    0.005  0.243  0.053    0.004 -0.215 -0.198
 O         -0.021  0.085 -0.088    0.037 -0.012 -0.189   -0.026  0.037  0.027
 H         -0.345 -0.331  0.483    0.057  0.094 -0.559   -0.253  0.031  0.011
 H          0.178 -0.146 -0.086   -0.107 -0.206  0.436   -0.149 -0.482  0.479
 TransDip  -0.041 -0.106  0.087   -0.030  0.008  0.305    0.202 -0.135  0.134

 Mode:                13                     14                     15
 Frequency:       785.41                 821.98                 912.70
 Force Cnst:      4.0318                 5.0939                 4.2853
 Red. Mass:      11.0933                12.7961                 8.7313
 IR Active:          YES                    YES                    YES
 IR Intens:      192.035                 56.033                237.294
 Raman Active:       YES                    YES                    YES
               X      Y      Z        X      Y      Z        X      Y      Z
 C         -0.257 -0.062  0.449    0.382 -0.124  0.528    0.209  0.016 -0.347
 O          0.125  0.154 -0.070   -0.116 -0.300 -0.169    0.012 -0.190  0.055
 C         -0.146  0.121  0.241    0.022 -0.048 -0.132   -0.256  0.174  0.526
 O          0.051  0.071  0.026   -0.119 -0.227 -0.007   -0.053 -0.097 -0.106
 O         -0.070  0.158 -0.218   -0.093  0.252 -0.158   -0.001  0.035 -0.120
 O          0.002 -0.182 -0.132    0.025  0.375 -0.056    0.001  0.131  0.100
 O          0.228 -0.281 -0.272    0.004  0.050  0.073    0.057 -0.036 -0.098
 O         -0.037  0.018  0.132    0.004 -0.024  0.025   -0.003 -0.014  0.036
 H          0.117  0.142  0.392   -0.034 -0.151  0.038    0.308  0.247  0.239
 H         -0.099  0.144 -0.106   -0.107  0.201 -0.116    0.036  0.213 -0.286
 TransDip  -0.138  0.018  0.421    0.229 -0.052  0.048    0.115  0.176  0.447

 Mode:                16                     17                     18
 Frequency:      1067.85                1169.65                1281.62
 Force Cnst:      2.0638                 2.8338                14.9280
 Red. Mass:       3.0718                 3.5157                15.4252
 IR Active:          YES                    YES                    YES
 IR Intens:      236.476                605.963                 24.554
 Raman Active:       YES                    YES                    YES
               X      Y      Z        X      Y      Z        X      Y      Z
 C         -0.032 -0.001 -0.049   -0.001  0.002  0.039    0.002 -0.002 -0.006
 O         -0.029  0.078  0.019    0.024 -0.011 -0.008    0.001 -0.000  0.001
 C          0.248  0.017  0.154    0.084  0.363 -0.115    0.028  0.059  0.079
 O         -0.039 -0.138 -0.033   -0.134 -0.127 -0.028   -0.011 -0.028 -0.013
 O          0.001  0.146 -0.108    0.040 -0.092  0.073   -0.010  0.010 -0.056
 O         -0.036 -0.066 -0.004   -0.029 -0.024 -0.013   -0.006 -0.006 -0.001
 O         -0.037  0.046  0.027    0.007 -0.028 -0.016    0.123 -0.474  0.509
 O          0.007 -0.017 -0.000   -0.006 -0.002  0.022   -0.118  0.449 -0.486
 H         -0.349 -0.402 -0.097    0.559  0.514  0.191   -0.023 -0.033 -0.007
 H         -0.114 -0.579  0.444    0.002 -0.342  0.248    0.002  0.137 -0.121
 TransDip   0.099 -0.272  0.399    0.303  0.727 -0.024   -0.027  0.146 -0.057

 Mode:                19                     20                     21
 Frequency:      1298.98                1371.72                1488.92
 Force Cnst:      1.4696                 4.0198                 3.9863
 Red. Mass:       1.4782                 3.6260                 3.0520
 IR Active:          YES                    YES                    YES
 IR Intens:      115.622                420.903                172.695
 Raman Active:       YES                    YES                    YES
               X      Y      Z        X      Y      Z        X      Y      Z
 C          0.020 -0.024  0.010    0.296 -0.050  0.017   -0.209  0.119 -0.001
 O         -0.013  0.020  0.000   -0.077  0.192  0.022    0.055 -0.115 -0.012
 C          0.075  0.145  0.013    0.093 -0.124  0.045    0.256 -0.111  0.073
 O          0.033 -0.042 -0.001   -0.068  0.020 -0.015   -0.081 -0.003 -0.020
 O         -0.045 -0.057  0.031   -0.045 -0.000 -0.010   -0.067 -0.001 -0.013
 O         -0.022 -0.019 -0.007   -0.124 -0.148 -0.033    0.048  0.040  0.010
 O         -0.001  0.004 -0.013   -0.012  0.014  0.003   -0.021  0.020  0.001
 O          0.000 -0.008  0.012    0.002 -0.004 -0.005    0.003 -0.007 -0.004
 H         -0.432 -0.428 -0.169    0.508  0.524  0.175    0.426  0.424  0.139
 H          0.062  0.586 -0.465    0.021  0.380 -0.294    0.023  0.535 -0.399
 TransDip  -0.111  0.251 -0.208    0.656  0.011  0.026    0.052  0.395  0.136

 Mode:                22                     23                     24
 Frequency:      1636.06                3597.63                3774.17
 Force Cnst:     16.0067                 8.1166                 8.9433
 Red. Mass:      10.1497                 1.0644                 1.0656
 IR Active:          YES                    YES                    YES
 IR Intens:     1185.845                370.848                179.070
 Raman Active:       YES                    YES                    YES
               X      Y      Z        X      Y      Z        X      Y      Z
 C          0.202  0.728  0.125   -0.001  0.002  0.000   -0.000 -0.000  0.000
 O          0.057 -0.236 -0.029   -0.000 -0.001 -0.000    0.000 -0.000 -0.000
 C         -0.075  0.000 -0.017    0.000 -0.005 -0.001   -0.001  0.000 -0.001
 O          0.018 -0.001  0.005    0.042 -0.045  0.001    0.001 -0.001  0.000
 O          0.023  0.001  0.004    0.001  0.001 -0.000   -0.060 -0.001 -0.015
 O         -0.185 -0.278 -0.059    0.000 -0.000 -0.000    0.000  0.000  0.000
 O          0.011 -0.005 -0.004    0.000  0.000  0.001   -0.000 -0.000  0.000
 O         -0.000  0.002 -0.000    0.000  0.000  0.000   -0.000 -0.000  0.000
 H         -0.309 -0.314 -0.091   -0.654  0.754 -0.010   -0.008  0.007  0.000
 H          0.001 -0.140  0.103   -0.011 -0.002 -0.002    0.971  0.018  0.232
 TransDip   0.181  1.076  0.160   -0.498  0.364  0.009    0.383 -0.070  0.180

 STANDARD THERMODYNAMIC QUANTITIES AT   298.15 K  AND     1.00 ATM

   This Molecule has  0 Imaginary Frequencies
   Zero point vibrational energy:       33.708 kcal/mol

   Atom    1 Element C  Has Mass   12.00000
   Atom    2 Element O  Has Mass   15.99491
   Atom    3 Element C  Has Mass   12.00000
   Atom    4 Element O  Has Mass   15.99491
   Atom    5 Element O  Has Mass   15.99491
   Atom    6 Element O  Has Mass   15.99491
   Atom    7 Element O  Has Mass   15.99491
   Atom    8 Element O  Has Mass   15.99491
   Atom    9 Element H  Has Mass    1.00783
   Atom   10 Element H  Has Mass    1.00783
   Molecular Mass:   121.985120 amu
   Principal axes and moments of inertia in amu*Bohr^2:
                             1           2           3
    Eigenvalues --      688.76951   890.33889   956.48594
          X               0.93741     0.29103     0.19122
          Y              -0.09751    -0.30778     0.94645
          Z              -0.33430     0.90585     0.26014
   Rotational Symmetry Number is   1
   The Molecule is an Asymmetric Top
   Translational Enthalpy:        0.889 kcal/mol
   Rotational Enthalpy:           0.889 kcal/mol
   Vibrational Enthalpy:         36.851 kcal/mol
   gas constant (RT):             0.592 kcal/mol
   Translational Entropy:        40.310  cal/mol.K
   Rotational Entropy:           27.863  cal/mol.K
   Vibrational Entropy:          19.463  cal/mol.K

   Total Enthalpy:               39.220 kcal/mol
   Total Entropy:                87.637  cal/mol.K
 Total job time:  6916.85s(wall), 53656.21s(cpu) 
 Tue Jun 20 07:36:51 2023

        *************************************************************
        *                                                           *
        *  Thank you very much for using Q-Chem.  Have a nice day.  *
        *                                                           *
        *************************************************************


