
Running Job 1 of 1 Q_in.in
qchem Q_in.in_61786.0 /scratch/ari.fischer/qChem1913934.hpc-mn1/qchem61786/ 0
/usr/local/qchem-5.4.1/exe/qcprog.exe_s Q_in.in_61786.0 /scratch/ari.fischer/qChem1913934.hpc-mn1/qchem61786/
                  Welcome to Q-Chem
     A Quantum Leap Into The Future Of Chemistry


 Q-Chem 5.4, Q-Chem, Inc., Pleasanton, CA (2021)

 License issued to: Nanyang Technological University (site)

 E. Epifanovsky,  A. T. B. Gilbert,  Xintian Feng,  Joonho Lee,  Yuezhi Mao,  
 N. Mardirossian,  P. Pokhilko,  A. White,  M. Wormit,  M. P. Coons,  
 A. L. Dempwolff,  Zhengting Gan,  D. Hait,  P. R. Horn,  L. D. Jacobson,  
 I. Kaliman,  J. Kussmann,  A. W. Lange,  Ka Un Lao,  D. S. Levine,  Jie Liu,  
 S. C. McKenzie,  A. F. Morrison,  K. Nanda,  F. Plasser,  D. R. Rehn,  
 M. L. Vidal,  Zhi-Qiang You,  Ying Zhu,  B. Alam,  B. Albrecht,  
 A. Aldossary,  E. Alguire,  J. H. Andersen,  D. Barton,  K. Begam,  A. Behn,  
 Y. A. Bernard,  E. J. Berquist,  H. Burton,  A. Carreras,  K. Carter-Fenk,  
 R. Chakraborty,  A. D. Chien,  K. D. Closser,  V. Cofer-Shabica,  
 S. Dasgupta,  Jia Deng,  M. de Wergifosse,  M. Diedenhofen,  Hainam Do,  
 S. Ehlert,  Po-Tung Fang,  S. Fatehi,  Qingguo Feng,  T. Friedhoff,  
 J. Gayvert,  Qinghui Ge,  G. Gidofalvi,  M. Goldey,  J. Gomes,  
 C. Gonzalez-Espinoza,  S. Gulania,  A. Gunina,  M. W. D. Hanson-Heine,  
 P. H. P. Harbach,  A. W. Hauser,  M. F. Herbst,  M. Hernandez Vera,  
 M. Hodecker,  Z. C. Holden,  S. Houck,  Xunkun Huang,  Kerwin Hui,  
 B. C. Huynh,  M. Ivanov,  Hyunjun Ji,  Hanjie Jiang,  B. Kaduk,  S. Kaehler,  
 K. Khistyaev,  Jaehoon Kim,  P. Klunzinger,  Z. Koczor-Benda,  
 Joong Hoon Koh,  D. Kosenkov,  L. Koulias,  T. Kowalczyk,  C. M. Krauter,  
 K. Kue,  A. Kunitsa,  T. Kus,  A. Landau,  K. V. Lawler,  D. Lefrancois,  
 S. Lehtola,  Rain Li,  Yi-Pei Li,  Jiashu Liang,  M. Liebenthal,  
 Hung-Hsuan Lin,  You-Sheng Lin,  Fenglai Liu,  Kuan-Yu Liu,  
 M. Loipersberger,  A. Luenser,  A. Manjanath,  P. Manohar,  E. Mansoor,  
 S. F. Manzer,  Shan-Ping Mao,  A. V. Marenich,  T. Markovich,  S. Mason,  
 S. A. Maurer,  P. F. McLaughlin,  M. F. S. J. Menger,  J.-M. Mewes,  
 S. A. Mewes,  P. Morgante,  J. W. Mullinax,  K. J. Oosterbaan,  G. Paran,  
 Alexander C. Paul,  Suranjan K. Paul,  F. Pavosevic,  Zheng Pei,  S. Prager,  
 E. I. Proynov,  E. Ramos,  B. Rana,  A. E. Rask,  A. Rettig,  R. M. Richard,  
 F. Rob,  E. Rossomme,  T. Scheele,  M. Scheurer,  M. Schneider,  
 N. Sergueev,  S. M. Sharada,  W. Skomorowski,  D. W. Small,  C. J. Stein,  
 Yu-Chuan Su,  E. J. Sundstrom,  Zhen Tao,  J. Thirman,  T. Tsuchimochi,  
 N. M. Tubman,  S. P. Veccham,  O. Vydrov,  J. Wenzel,  J. Witte,  A. Yamada,  
 Kun Yao,  S. Yeganeh,  S. R. Yost,  A. Zech,  Igor Ying Zhang,  Xing Zhang,  
 Yu Zhang,  D. Zuev,  A. Aspuru-Guzik,  A. T. Bell,  N. A. Besley,  
 K. B. Bravaya,  B. R. Brooks,  D. Casanova,  Jeng-Da Chai,  S. Coriani,  
 C. J. Cramer,  A. E. DePrince, III,  R. A. DiStasio Jr.,  A. Dreuw,  
 B. D. Dunietz,  T. R. Furlani,  W. A. Goddard III,  S. Grimme,  
 S. Hammes-Schiffer,  T. Head-Gordon,  W. J. Hehre,  Chao-Ping Hsu,  
 T.-C. Jagau,  Yousung Jung,  A. Klamt,  Jing Kong,  D. S. Lambrecht,  
 WanZhen Liang,  N. J. Mayhall,  C. W. McCurdy,  J. B. Neaton,  
 C. Ochsenfeld,  J. A. Parkhill,  R. Peverati,  V. A. Rassolov,  Yihan Shao,  
 L. V. Slipchenko,  T. Stauch,  R. P. Steele,  J. E. Subotnik,  
 A. J. W. Thom,  A. Tkatchenko,  D. G. Truhlar,  T. Van Voorhis,  
 T. A. Wesolowski,  K. B. Whaley,  H. L. Woodcock III,  P. M. Zimmerman,  
 S. Faraji,  P. M. W. Gill,  M. Head-Gordon,  J. M. Herbert,  A. I. Krylov

 Additional authors for Version 5.4.1: 
 S. Kotaru,  Shaozhi Li,  Xiangyuan Li,  F. Matz,  A. Molle,  Haisheng Ren,  
 Yingli Su,  Hung-Yi Tsai,  C. Utku,  Fang Wang

 Contributors to earlier versions of Q-Chem not listed above: 
 R. D. Adamson,  B. Austin,  R. Baer,  J. Baker,  G. J. O. Beran,  
 K. Brandhorst,  S. T. Brown,  E. F. C. Byrd,  A. K. Chakraborty,  
 G. K. L. Chan,  Chun-Min Chang,  Yunqing Chen,  C.-L. Cheng,  
 Siu Hung Chien,  D. M. Chipman,  D. L. Crittenden,  H. Dachsel,  
 R. J. Doerksen,  A. D. Dutoi,  R. G. Edgar,  J. Fosso-Tande,  
 L. Fusti-Molnar,  D. Ghosh,  A. Ghysels,  A. Golubeva-Zadorozhnaya,  
 J. Gonthier,  M. S. Gordon,  S. R. Gwaltney,  G. Hawkins,  J. E. Herr,  
 A. Heyden,  S. Hirata,  E. G. Hohenstein,  G. Kedziora,  F. J. Keil,  
 C. Kelley,  Jihan Kim,  R. A. King,  R. Z. Khaliullin,  P. P. Korambath,  
 W. Kurlancheek,  A. Laurent,  A. M. Lee,  M. S. Lee,  S. V. Levchenko,  
 Ching Yeh Lin,  D. Liotard,  E. Livshits,  R. C. Lochan,  I. Lotan,  
 L. A. Martinez-Martinez,  P. E. Maslen,  N. Nair,  D. P. O'Neill,  
 D. Neuhauser,  E. Neuscamman,  C. M. Oana,  R. Olivares-Amaya,  R. Olson,  
 T. M. Perrine,  B. Peters,  P. A. Pieniazek,  A. Prociuk,  Y. M. Rhee,  
 J. Ritchie,  M. A. Rohrdanz,  E. Rosta,  N. J. Russ,  H. F. Schaefer III,  
 M. W. Schmidt,  N. E. Schultz,  S. Sharma,  N. Shenvi,  C. D. Sherrill,  
 A. C. Simmonett,  A. Sodt,  T. Stein,  D. Stuck,  K. S. Thanthiriwatte,  
 V. Vanovschi,  L. Vogt,  Tao Wang,  A. Warshel,  M. A. Watson,  
 C. F. Williams,  Q. Wu,  X. Xu,  Jun Yang,  W. Zhang,  Yan Zhao

 Please cite Q-Chem as follows:
 Y. Shao et al., Mol. Phys. 113, 184-215 (2015)
 DOI: 10.1080/00268976.2014.952696

 Q-Chem 5.4.1 for Intel X86 EM64T Linux

 Parts of Q-Chem use Armadillo 9.800.1 (Horizon Scraper).
 http://arma.sourceforge.net/

 Q-Chem begins on Mon Feb  5 17:26:07 2024  

 Host: 
0

     Scratch files written to /scratch/ari.fischer/qChem1913934.hpc-mn1/qchem61786//
 Aug1521 |scratch|qcdevops|jenkins|workspace|build_RNUM 8249   
 Processing $rem in /usr/local/qchem-5.4.1/config/preferences:
 Processing $rem in /home/ari.fischer/.qchemrc:
 Symmetry turned off for PCM/SM12/SMD calculation

 Checking the input file for inconsistencies... 	...done.

--------------------------------------------------------------
User input:
--------------------------------------------------------------
$molecule
0 2
O        -0.7265937369    0.9841477964    0.4577690803
C        -0.2402478792   -0.2480819922    0.2787714565
O        -1.0332743381   -1.2873550349    0.0253175921
C         1.1606206866   -0.4586142849    0.3412688524
O         1.9284314593    0.6167230263    0.6653942023
O         1.7012960441   -1.5446342061    0.1197841305
H        -1.6551020347    0.9778739983    0.7336224659
H        -1.9370777822   -1.0038659970   -0.1746886398
H         1.3743443810    1.3906540943    0.8401361600
$end

$rem
BASIS = 6-311++G**
JOB_TYPE = SP
METHOD = wB97M-V
SCF_ALGORITHM = DIIS_GDM
MAX_SCF_CYCLES = 400
SCF_CONVERGENCE = 7
THRESH = 12
Solvent_method = SMD
$end
--------------------------------------------------------------
 ----------------------------------------------------------------
             Standard Nuclear Orientation (Angstroms)
    I     Atom           X                Y                Z
 ----------------------------------------------------------------
    1      O      -0.7265937369     0.9841477964     0.4577690803
    2      C      -0.2402478792    -0.2480819922     0.2787714565
    3      O      -1.0332743381    -1.2873550349     0.0253175921
    4      C       1.1606206866    -0.4586142849     0.3412688524
    5      O       1.9284314593     0.6167230263     0.6653942023
    6      O       1.7012960441    -1.5446342061     0.1197841305
    7      H      -1.6551020347     0.9778739983     0.7336224659
    8      H      -1.9370777822    -1.0038659970    -0.1746886398
    9      H       1.3743443810     1.3906540943     0.8401361600
 ----------------------------------------------------------------
 Nuclear Repulsion Energy =         241.63915279 hartrees
 There are       24 alpha and       23 beta electrons
 Requested basis set is 6-311++G(d,p)
 There are 51 shells and 153 basis functions

 Total QAlloc Memory Limit 288000 MB
 Mega-Array Size       188 MB
 MEM_STATIC part       192 MB
 
 Citation of the SMD model:
 Marenich, A.V.; Cramer, C.J.; Truhlar, D.G.
 J. Phys. Chem. B 2009, 113, 6378-6396.
 iSolventCode=           1
 Solvent: water                                                           
 
 vradii
            1           2           3           4           5           6
    1   1.5200000   1.8500000   1.5200000   1.8500000   1.5200000   1.5200000
            7           8           9
    1   1.2000000   1.2000000   1.2000000
 Changing PCM_VDW_RADII to SMD_RADIUS
 Discretize the solute cavity surface with Lebedev spheres
	Using 110 Lebedev grid points for each H atom
	Using 194 Lebedev grid points for other atoms
	Atomic van der Waals radii will be scaled by 1.20
 Remove points where switching function is < 1.0e-08
 Keep 817 surface tesserae and discard 677 interior tesserae
 Molecular Surface Area = 98.014 Angst**2

                       Distance Matrix (Angstroms)
             O (  1)   C (  2)   O (  3)   C (  4)   O (  5)   O (  6)
   C (  2)  1.336773
   O (  3)  2.332551  1.331622
   C (  4)  2.378385  1.417978  2.366392
   O (  5)  2.688358  2.366545  3.578675  1.360493
   O (  6)  3.521877  2.340068  2.748271  1.233217  2.240702
   H (  7)  0.968639  1.926569  2.453493  3.185237  3.602332  4.243260
   H (  8)  2.411944  1.912085  0.968106  3.187357  4.274834  3.690110
   H (  9)  2.173797  2.368015  3.692193  1.927262  0.967738  3.040020
             H (  7)   H (  8)
   H (  8)  2.198143
   H (  9)  3.059294  4.210595
 
 A cutoff of  1.0D-12 yielded   1257 shell pairs
 There are     11536 function pairs (     12463 Cartesian)
 Smallest overlap matrix eigenvalue = 4.82E-05

 Scale SEOQF with 1.000000e-01/1.000000e-01/1.000000e-01

 Standard Electronic Orientation quadrupole field applied
 Nucleus-field energy     =     0.0000000056 hartrees
 Guess from superposition of atomic densities
 Warning:  Energy on first SCF cycle will be non-variational
 SAD guess density has 47.000000 electrons

 -----------------------------------------------------------------------
  General SCF calculation program by
  Eric Jon Sundstrom, Paul Horn, Yuezhi Mao, Dmitri Zuev, Alec White,
  David Stuck, Shaama M.S., Shane Yost, Joonho Lee, David Small,
  Daniel Levine, Susi Lehtola, Hugh Burton, Evgeny Epifanovsky,
  Bang C. Huynh
 -----------------------------------------------------------------------
 Exchange:     0.1500 Hartree-Fock + 1.0000 wB97M-V + LR-HF
 Correlation:  1.0000 wB97M-V
 Using SG-2 standard quadrature grid
 Nonlocal Correlation:  VV10 with C = 0.0100 and b = 6.00 and scale = 1.00000
 Grid used for NLC:  SG-1 standard quadrature
 
 Citation of the SMD model:
 Marenich, A.V.; Cramer, C.J.; Truhlar, D.G.
 J. Phys. Chem. B 2009, 113, 6378-6396.
 iSolventCode=           1
 Solvent: water                                                           
 
 vradii
            1           2           3           4           5           6
    1   1.5200000   1.8500000   1.5200000   1.8500000   1.5200000   1.5200000
            7           8           9
    1   1.2000000   1.2000000   1.2000000
 using 4 threads for integral computing
 -------------------------------------------------------
 OpenMP Integral computing Module                
 Release: version 1.0, May 2013, Q-Chem Inc. Pittsburgh 
 -------------------------------------------------------
 -------------------------------------------------------
 OpenMP BLAS3 based DFT computing Module                
 Release: version 1.0, May 2013, Q-Chem Inc. Pittsburgh 
 -------------------------------------------------------
 A unrestricted SCF calculation will be
 performed using DIIS, GDM
 SCF converges when RMS gradient is below 1.0e-07
 ---------------------------------------
  Cycle       Energy         DIIS error
 ---------------------------------------
    1    -380.1647306051      2.66e-02  
    2    -378.7528747804      4.25e-03  Done DIIS. Switching to GDM
 ---------------------------------------
  Cycle       Energy        RMS Gradient
 ---------------------------------------
    1    -378.7528747804      1.36e-01   Descent step
    2    -378.9045833715      2.79e-02   Normal BFGS step
    3    -378.9185589329      1.55e-02   Normal BFGS step
    4    -378.9195536101      1.34e-02   Normal BFGS step
    5    -378.9203074930      4.25e-03   Normal BFGS step
    6    -378.9203610132      2.35e-03   Normal BFGS step
    7    -378.9203804126      6.57e-04   Normal BFGS step
    8    -378.9203827348      2.21e-04   Normal BFGS step
    9    -378.9203833041      9.98e-05   Normal BFGS step
   10    -378.9203833446      5.77e-05   Normal BFGS step
   11    -378.9203833576      2.20e-05   Normal BFGS step
   12    -378.9203833590      1.34e-05   Normal BFGS step
   13    -378.9203833595      4.14e-06   Normal BFGS step
   14    -378.9203833595      2.15e-06   Normal BFGS step
   15    -378.9203833596      4.28e-07   Normal BFGS step
   16    -378.9203833596      1.73e-07   Normal BFGS step
   17    -378.9203833596      3.97e-08  Convergence criterion met
 ---------------------------------------
 SCF time:   CPU 130.36s  wall 33.00s 
<S^2> =          0.753830706
(3)  G-ENP(liq) elect-nuc-pol free energy of system     -378.920383360 a.u.
(4)  G-CDS(liq) cavity-dispersion-solvent structure 
     free energy                                                5.2038 kcal/mol
(6)  G-S(liq) free energy of system                     -378.912090647 a.u.
 SCF   energy in the final basis set =     -378.9120906467
 Total energy in the final basis set =     -378.9120906467
 
 --------------------------------------------------------------
 
                    Orbital Energies (a.u.)
 --------------------------------------------------------------
 
 Alpha MOs
 -- Occupied --
-19.3991 -19.3977 -19.3763 -19.3235 -10.4896 -10.4827  -1.2743  -1.2287
 -1.1993  -1.1491  -0.8799  -0.7377  -0.7275  -0.6870  -0.6152  -0.5936
 -0.5710  -0.5437  -0.5219  -0.4971  -0.4885  -0.4426  -0.4089  -0.2792
 -- Virtual --
  0.0251   0.0468   0.0592   0.0832   0.0897   0.1032   0.1134   0.1152
  0.1405   0.1474   0.1516   0.1605   0.2092   0.2165   0.2220   0.2460
  0.2659   0.2682   0.2856   0.2987   0.3034   0.3063   0.3172   0.3248
  0.3310   0.3372   0.3404   0.3559   0.3637   0.3894   0.4043   0.4244
  0.4380   0.4415   0.5274   0.5870   0.6165   0.6262   0.6283   0.6716
  0.6934   0.7025   0.7937   0.8222   0.9064   0.9209   0.9734   1.0546
  1.0676   1.1197   1.1388   1.1669   1.1845   1.1930   1.2150   1.2209
  1.2326   1.2497   1.2707   1.2821   1.3007   1.4243   1.4851   1.5199
  1.5266   1.5419   1.6028   1.6233   1.6650   1.7251   1.7462   1.7909
  1.8216   1.8602   1.8931   1.9457   2.0430   2.0947   2.1425   2.1955
  2.2438   2.3833   2.6046   2.6134   2.6316   2.7031   2.7885   2.9787
  2.9863   3.0656   3.0906   3.1075   3.1551   3.1653   3.1989   3.2101
  3.2410   3.2869   3.3273   3.4508   3.4755   3.5355   3.6040   3.6582
  3.7277   3.9236   3.9770   3.9891   4.0853   4.2121   4.2701   5.0602
  5.0990   5.1231   5.1883   5.2718   5.3723   5.4884   5.5643   5.6720
  5.9221   5.9510   6.0177  24.0192  24.2579  50.3787  50.4456  50.4733
 50.5969
 
 Beta MOs
 -- Occupied --
-19.3961 -19.3944 -19.3752 -19.3184 -10.4816 -10.4811  -1.2661  -1.2243
 -1.1921  -1.1419  -0.8616  -0.7331  -0.7212  -0.6805  -0.5913  -0.5853
 -0.5641  -0.5270  -0.5165  -0.4918  -0.4630  -0.4190  -0.4018
 -- Virtual --
 -0.0032   0.0250   0.0469   0.0591   0.0832   0.0898   0.1032   0.1132
  0.1158   0.1473   0.1515   0.1610   0.1863   0.2114   0.2182   0.2247
  0.2474   0.2663   0.2686   0.2867   0.2998   0.3044   0.3078   0.3247
  0.3280   0.3331   0.3389   0.3441   0.3580   0.3662   0.3923   0.4055
  0.4306   0.4401   0.4484   0.5321   0.5899   0.6204   0.6293   0.6342
  0.6803   0.7018   0.7121   0.8004   0.8256   0.9101   0.9284   0.9809
  1.0587   1.0770   1.1288   1.1514   1.1693   1.1876   1.1948   1.2206
  1.2316   1.2408   1.2510   1.2734   1.2960   1.3054   1.4317   1.4890
  1.5224   1.5312   1.5464   1.6070   1.6383   1.6757   1.7351   1.7541
  1.7964   1.8300   1.8741   1.9007   1.9524   2.0529   2.1031   2.1546
  2.2012   2.2508   2.3900   2.6080   2.6350   2.6427   2.7059   2.8130
  2.9946   3.0032   3.0743   3.0994   3.1161   3.1605   3.1707   3.2093
  3.2191   3.2495   3.3060   3.3372   3.4647   3.4848   3.5424   3.6095
  3.6630   3.7357   3.9289   3.9819   3.9941   4.0904   4.2172   4.2842
  5.0751   5.1114   5.1396   5.2114   5.2778   5.3767   5.4921   5.5688
  5.6754   5.9306   5.9569   6.0218  24.0234  24.2615  50.3811  50.4474
 50.4762  50.6001
 --------------------------------------------------------------
 
          Ground-State Mulliken Net Atomic Charges

     Atom                 Charge (a.u.)    Spin (a.u.)
  --------------------------------------------------------
      1 O                    -0.267518       0.077992
      2 C                     0.149637       0.512425
      3 O                    -0.243322       0.089371
      4 C                     0.085373       0.104076
      5 O                    -0.287443       0.032057
      6 O                    -0.487414       0.182941
      7 H                     0.374934       0.003106
      8 H                     0.364090      -0.000617
      9 H                     0.311663      -0.001351
  --------------------------------------------------------
  Sum of atomic charges =     0.000000
  Sum of spin   charges =     1.000000

 -----------------------------------------------------------------
                    Cartesian Multipole Moments
 -----------------------------------------------------------------
    Charge (ESU x 10^10)
                 0.0000
    Dipole Moment (Debye)
         X      -9.4650      Y       5.4005      Z       0.9846
       Tot      10.9417
    Quadrupole Moments (Debye-Ang)
        XX     -35.2963     XY       6.8618     YY     -41.5480
        XZ      -2.1861     YZ       2.3916     ZZ     -33.2952
    Octopole Moments (Debye-Ang^2)
       XXX    -102.5016    XXY      22.0812    XYY     -26.1472
       YYY      54.3052    XXZ     -12.3206    XYZ      -1.3688
       YYZ      -8.4127    XZZ     -17.8670    YZZ      12.6055
       ZZZ     -32.0531
    Hexadecapole Moments (Debye-Ang^3)
      XXXX    -401.0590   XXXY      43.5991   XXYY    -113.7515
      XYYY      46.7496   YYYY    -263.5392   XXXZ     -41.7351
      XXYZ       4.8088   XYYZ      -6.7043   YYYZ      -2.1192
      XXZZ     -74.2353   XYZZ       6.7630   YYZZ     -48.6612
      XZZZ     -27.5814   YZZZ      -8.8192   ZZZZ     -63.3609
 -----------------------------------------------------------------
 Total job time:  33.94s(wall), 132.04s(cpu) 
 Mon Feb  5 17:26:41 2024

        *************************************************************
        *                                                           *
        *  Thank you very much for using Q-Chem.  Have a nice day.  *
        *                                                           *
        *************************************************************


