
Running Job 1 of 1 Q_in.in
qchem Q_in.in_41785.0 /scratch/ari.fischer/qChem1854173.hpc-mn1/qchem41785/ 0
/usr/local/qchem-5.4.1/exe/qcprog.exe_s Q_in.in_41785.0 /scratch/ari.fischer/qChem1854173.hpc-mn1/qchem41785/
                  Welcome to Q-Chem
     A Quantum Leap Into The Future Of Chemistry


 Q-Chem 5.4, Q-Chem, Inc., Pleasanton, CA (2021)

 License issued to: Nanyang Technological University (site)

 E. Epifanovsky,  A. T. B. Gilbert,  Xintian Feng,  Joonho Lee,  Yuezhi Mao,  
 N. Mardirossian,  P. Pokhilko,  A. White,  M. Wormit,  M. P. Coons,  
 A. L. Dempwolff,  Zhengting Gan,  D. Hait,  P. R. Horn,  L. D. Jacobson,  
 I. Kaliman,  J. Kussmann,  A. W. Lange,  Ka Un Lao,  D. S. Levine,  Jie Liu,  
 S. C. McKenzie,  A. F. Morrison,  K. Nanda,  F. Plasser,  D. R. Rehn,  
 M. L. Vidal,  Zhi-Qiang You,  Ying Zhu,  B. Alam,  B. Albrecht,  
 A. Aldossary,  E. Alguire,  J. H. Andersen,  D. Barton,  K. Begam,  A. Behn,  
 Y. A. Bernard,  E. J. Berquist,  H. Burton,  A. Carreras,  K. Carter-Fenk,  
 R. Chakraborty,  A. D. Chien,  K. D. Closser,  V. Cofer-Shabica,  
 S. Dasgupta,  Jia Deng,  M. de Wergifosse,  M. Diedenhofen,  Hainam Do,  
 S. Ehlert,  Po-Tung Fang,  S. Fatehi,  Qingguo Feng,  T. Friedhoff,  
 J. Gayvert,  Qinghui Ge,  G. Gidofalvi,  M. Goldey,  J. Gomes,  
 C. Gonzalez-Espinoza,  S. Gulania,  A. Gunina,  M. W. D. Hanson-Heine,  
 P. H. P. Harbach,  A. W. Hauser,  M. F. Herbst,  M. Hernandez Vera,  
 M. Hodecker,  Z. C. Holden,  S. Houck,  Xunkun Huang,  Kerwin Hui,  
 B. C. Huynh,  M. Ivanov,  Hyunjun Ji,  Hanjie Jiang,  B. Kaduk,  S. Kaehler,  
 K. Khistyaev,  Jaehoon Kim,  P. Klunzinger,  Z. Koczor-Benda,  
 Joong Hoon Koh,  D. Kosenkov,  L. Koulias,  T. Kowalczyk,  C. M. Krauter,  
 K. Kue,  A. Kunitsa,  T. Kus,  A. Landau,  K. V. Lawler,  D. Lefrancois,  
 S. Lehtola,  Rain Li,  Yi-Pei Li,  Jiashu Liang,  M. Liebenthal,  
 Hung-Hsuan Lin,  You-Sheng Lin,  Fenglai Liu,  Kuan-Yu Liu,  
 M. Loipersberger,  A. Luenser,  A. Manjanath,  P. Manohar,  E. Mansoor,  
 S. F. Manzer,  Shan-Ping Mao,  A. V. Marenich,  T. Markovich,  S. Mason,  
 S. A. Maurer,  P. F. McLaughlin,  M. F. S. J. Menger,  J.-M. Mewes,  
 S. A. Mewes,  P. Morgante,  J. W. Mullinax,  K. J. Oosterbaan,  G. Paran,  
 Alexander C. Paul,  Suranjan K. Paul,  F. Pavosevic,  Zheng Pei,  S. Prager,  
 E. I. Proynov,  E. Ramos,  B. Rana,  A. E. Rask,  A. Rettig,  R. M. Richard,  
 F. Rob,  E. Rossomme,  T. Scheele,  M. Scheurer,  M. Schneider,  
 N. Sergueev,  S. M. Sharada,  W. Skomorowski,  D. W. Small,  C. J. Stein,  
 Yu-Chuan Su,  E. J. Sundstrom,  Zhen Tao,  J. Thirman,  T. Tsuchimochi,  
 N. M. Tubman,  S. P. Veccham,  O. Vydrov,  J. Wenzel,  J. Witte,  A. Yamada,  
 Kun Yao,  S. Yeganeh,  S. R. Yost,  A. Zech,  Igor Ying Zhang,  Xing Zhang,  
 Yu Zhang,  D. Zuev,  A. Aspuru-Guzik,  A. T. Bell,  N. A. Besley,  
 K. B. Bravaya,  B. R. Brooks,  D. Casanova,  Jeng-Da Chai,  S. Coriani,  
 C. J. Cramer,  A. E. DePrince, III,  R. A. DiStasio Jr.,  A. Dreuw,  
 B. D. Dunietz,  T. R. Furlani,  W. A. Goddard III,  S. Grimme,  
 S. Hammes-Schiffer,  T. Head-Gordon,  W. J. Hehre,  Chao-Ping Hsu,  
 T.-C. Jagau,  Yousung Jung,  A. Klamt,  Jing Kong,  D. S. Lambrecht,  
 WanZhen Liang,  N. J. Mayhall,  C. W. McCurdy,  J. B. Neaton,  
 C. Ochsenfeld,  J. A. Parkhill,  R. Peverati,  V. A. Rassolov,  Yihan Shao,  
 L. V. Slipchenko,  T. Stauch,  R. P. Steele,  J. E. Subotnik,  
 A. J. W. Thom,  A. Tkatchenko,  D. G. Truhlar,  T. Van Voorhis,  
 T. A. Wesolowski,  K. B. Whaley,  H. L. Woodcock III,  P. M. Zimmerman,  
 S. Faraji,  P. M. W. Gill,  M. Head-Gordon,  J. M. Herbert,  A. I. Krylov

 Additional authors for Version 5.4.1: 
 S. Kotaru,  Shaozhi Li,  Xiangyuan Li,  F. Matz,  A. Molle,  Haisheng Ren,  
 Yingli Su,  Hung-Yi Tsai,  C. Utku,  Fang Wang

 Contributors to earlier versions of Q-Chem not listed above: 
 R. D. Adamson,  B. Austin,  R. Baer,  J. Baker,  G. J. O. Beran,  
 K. Brandhorst,  S. T. Brown,  E. F. C. Byrd,  A. K. Chakraborty,  
 G. K. L. Chan,  Chun-Min Chang,  Yunqing Chen,  C.-L. Cheng,  
 Siu Hung Chien,  D. M. Chipman,  D. L. Crittenden,  H. Dachsel,  
 R. J. Doerksen,  A. D. Dutoi,  R. G. Edgar,  J. Fosso-Tande,  
 L. Fusti-Molnar,  D. Ghosh,  A. Ghysels,  A. Golubeva-Zadorozhnaya,  
 J. Gonthier,  M. S. Gordon,  S. R. Gwaltney,  G. Hawkins,  J. E. Herr,  
 A. Heyden,  S. Hirata,  E. G. Hohenstein,  G. Kedziora,  F. J. Keil,  
 C. Kelley,  Jihan Kim,  R. A. King,  R. Z. Khaliullin,  P. P. Korambath,  
 W. Kurlancheek,  A. Laurent,  A. M. Lee,  M. S. Lee,  S. V. Levchenko,  
 Ching Yeh Lin,  D. Liotard,  E. Livshits,  R. C. Lochan,  I. Lotan,  
 L. A. Martinez-Martinez,  P. E. Maslen,  N. Nair,  D. P. O'Neill,  
 D. Neuhauser,  E. Neuscamman,  C. M. Oana,  R. Olivares-Amaya,  R. Olson,  
 T. M. Perrine,  B. Peters,  P. A. Pieniazek,  A. Prociuk,  Y. M. Rhee,  
 J. Ritchie,  M. A. Rohrdanz,  E. Rosta,  N. J. Russ,  H. F. Schaefer III,  
 M. W. Schmidt,  N. E. Schultz,  S. Sharma,  N. Shenvi,  C. D. Sherrill,  
 A. C. Simmonett,  A. Sodt,  T. Stein,  D. Stuck,  K. S. Thanthiriwatte,  
 V. Vanovschi,  L. Vogt,  Tao Wang,  A. Warshel,  M. A. Watson,  
 C. F. Williams,  Q. Wu,  X. Xu,  Jun Yang,  W. Zhang,  Yan Zhao

 Please cite Q-Chem as follows:
 Y. Shao et al., Mol. Phys. 113, 184-215 (2015)
 DOI: 10.1080/00268976.2014.952696

 Q-Chem 5.4.1 for Intel X86 EM64T Linux

 Parts of Q-Chem use Armadillo 9.800.1 (Horizon Scraper).
 http://arma.sourceforge.net/

 Q-Chem begins on Thu Dec  7 16:02:06 2023  

 Host: 
0

     Scratch files written to /scratch/ari.fischer/qChem1854173.hpc-mn1/qchem41785//
 Aug1521 |scratch|qcdevops|jenkins|workspace|build_RNUM 8249   
 Processing $rem in /usr/local/qchem-5.4.1/config/preferences:
 Processing $rem in /home/ari.fischer/.qchemrc:
 Symmetry turned off for PCM/SM12/SMD calculation

 Checking the input file for inconsistencies... 	...done.

--------------------------------------------------------------
User input:
--------------------------------------------------------------
$molecule
-1 2
O        -0.5898693698    1.4364167686   -0.2011324283
C        -0.0505459724    0.4558973035    0.6364534286
O        -0.9992020981   -0.4709441896    1.0550590018
C         1.1382211719   -0.2198854210   -0.0797845773
O         2.1150602176    0.5155082449   -0.3422678855
O         1.0091565412   -1.4439638257   -0.3063138284
H        -1.2923185257    1.8935755434    0.2782478755
H        -0.6832252495   -1.3229325128    0.7021992984
H         0.3900654810    0.9778650496    1.5657085859
O         1.5169367837    1.7843143470    2.2297602170
H         2.0821964203    1.6320557921    1.4474164122
$end

$rem
BASIS = def2-TZVP
JOB_TYPE = SP
METHOD = wB97M-V
SCF_ALGORITHM = DIIS_GDM
MAX_SCF_CYCLES = 400
SCF_CONVERGENCE = 7
THRESH = 12
Solvent_method = SMD
$end
--------------------------------------------------------------
 ----------------------------------------------------------------
             Standard Nuclear Orientation (Angstroms)
    I     Atom           X                Y                Z
 ----------------------------------------------------------------
    1      O      -0.5898693698     1.4364167686    -0.2011324283
    2      C      -0.0505459724     0.4558973035     0.6364534286
    3      O      -0.9992020981    -0.4709441896     1.0550590018
    4      C       1.1382211719    -0.2198854210    -0.0797845773
    5      O       2.1150602176     0.5155082449    -0.3422678855
    6      O       1.0091565412    -1.4439638257    -0.3063138284
    7      H      -1.2923185257     1.8935755434     0.2782478755
    8      H      -0.6832252495    -1.3229325128     0.7021992984
    9      H       0.3900654810     0.9778650496     1.5657085859
   10      O       1.5169367837     1.7843143470     2.2297602170
   11      H       2.0821964203     1.6320557921     1.4474164122
 ----------------------------------------------------------------
 Nuclear Repulsion Energy =         316.74259526 hartrees
 There are       29 alpha and       28 beta electrons
 Requested basis set is def2-TZVP
 There are 93 shells and 241 basis functions

 Total QAlloc Memory Limit 288000 MB
 Mega-Array Size       188 MB
 MEM_STATIC part       192 MB
 
 Citation of the SMD model:
 Marenich, A.V.; Cramer, C.J.; Truhlar, D.G.
 J. Phys. Chem. B 2009, 113, 6378-6396.
 iSolventCode=           1
 Solvent: water                                                           
 
 vradii
            1           2           3           4           5           6
    1   1.5200000   1.8500000   1.5200000   1.8500000   1.5200000   1.5200000
            7           8           9          10          11
    1   1.2000000   1.2000000   1.2000000   1.5200000   1.2000000
 Changing PCM_VDW_RADII to SMD_RADIUS
 Discretize the solute cavity surface with Lebedev spheres
	Using 110 Lebedev grid points for each H atom
	Using 194 Lebedev grid points for other atoms
	Atomic van der Waals radii will be scaled by 1.20
 Remove points where switching function is < 1.0e-08
 Keep 976 surface tesserae and discard 822 interior tesserae
 Molecular Surface Area = 115.136 Angst**2

                       Distance Matrix (Angstroms)
             O (  1)   C (  2)   O (  3)   C (  4)   O (  5)   O (  6)
   C (  2)  1.397798
   O (  3)  2.320258  1.390760
   C (  4)  2.396739  1.543647  2.432998
   O (  5)  2.860880  2.377246  3.553061  1.250566
   O (  6)  3.296140  2.370918  2.614117  1.251536  2.250299
   H (  7)  0.965523  1.933191  2.506054  3.240745  3.727511  4.096055
   H (  8)  2.904950  1.889138  0.974800  2.268453  3.507303  1.973804
   H (  9)  2.071779  1.153301  2.071201  2.168407  2.613380  3.122979
   O ( 10)  3.235569  2.600062  3.577299  3.081272  2.929667  4.136580
   H ( 11)  3.145779  2.567022  3.751209  2.579364  2.109675  3.699849
             H (  7)   H (  8)   H (  9)   O ( 10)
   H (  8)  3.301008
   H (  9)  2.307920  2.681654
   O ( 10)  3.422317  4.102333  1.536608
   H ( 11)  3.580880  4.115199  1.818039  0.977120
 
 A cutoff of  1.0D-12 yielded   4014 shell pairs
 There are     27406 function pairs (     35897 Cartesian)
 Smallest overlap matrix eigenvalue = 4.70E-04

 Scale SEOQF with 1.000000e-01/1.000000e-01/1.000000e-01

 Standard Electronic Orientation quadrupole field applied
 Nucleus-field energy     =     0.0000000021 hartrees
 Guess from superposition of atomic densities
 Warning:  Energy on first SCF cycle will be non-variational
 SAD guess density has 56.000000 electrons

 -----------------------------------------------------------------------
  General SCF calculation program by
  Eric Jon Sundstrom, Paul Horn, Yuezhi Mao, Dmitri Zuev, Alec White,
  David Stuck, Shaama M.S., Shane Yost, Joonho Lee, David Small,
  Daniel Levine, Susi Lehtola, Hugh Burton, Evgeny Epifanovsky,
  Bang C. Huynh
 -----------------------------------------------------------------------
 Exchange:     0.1500 Hartree-Fock + 1.0000 wB97M-V + LR-HF
 Correlation:  1.0000 wB97M-V
 Using SG-2 standard quadrature grid
 Nonlocal Correlation:  VV10 with C = 0.0100 and b = 6.00 and scale = 1.00000
 Grid used for NLC:  SG-1 standard quadrature
 
 Citation of the SMD model:
 Marenich, A.V.; Cramer, C.J.; Truhlar, D.G.
 J. Phys. Chem. B 2009, 113, 6378-6396.
 iSolventCode=           1
 Solvent: water                                                           
 
 vradii
            1           2           3           4           5           6
    1   1.5200000   1.8500000   1.5200000   1.8500000   1.5200000   1.5200000
            7           8           9          10          11
    1   1.2000000   1.2000000   1.2000000   1.5200000   1.2000000
 using 4 threads for integral computing
 -------------------------------------------------------
 OpenMP Integral computing Module                
 Release: version 1.0, May 2013, Q-Chem Inc. Pittsburgh 
 -------------------------------------------------------
 -------------------------------------------------------
 OpenMP BLAS3 based DFT computing Module                
 Release: version 1.0, May 2013, Q-Chem Inc. Pittsburgh 
 -------------------------------------------------------
 A unrestricted SCF calculation will be
 performed using DIIS, GDM
 SCF converges when RMS gradient is below 1.0e-07
 ---------------------------------------
  Cycle       Energy         DIIS error
 ---------------------------------------
    1    -455.6249567371      1.69e-02  
    2    -454.5869204346      3.59e-03  Done DIIS. Switching to GDM
 ---------------------------------------
  Cycle       Energy        RMS Gradient
 ---------------------------------------
    1    -454.5869204346      2.86e-01   Descent step
    2    -454.8376932211      6.11e-02   Normal BFGS step
    3    -454.8853505148      6.89e-02   Normal BFGS step
    4    -454.8907849000      1.96e-02   Normal BFGS step
    5    -454.8950089150      1.79e-02   Normal BFGS step
    6    -454.8965322850      1.08e-02   Normal BFGS step
    7    -454.8969675071      5.05e-03   Normal BFGS step
    8    -454.8970610518      1.81e-03   Normal BFGS step
    9    -454.8970777884      6.55e-04   Normal BFGS step
   10    -454.8970834864      3.81e-04   Normal BFGS step
   11    -454.8970844672      2.14e-04   Normal BFGS step
   12    -454.8970848363      1.06e-04   Normal BFGS step
   13    -454.8970849292      9.55e-05   Normal BFGS step
   14    -454.8970849599      8.33e-05   Normal BFGS step
   15    -454.8970849787      6.39e-05   Normal BFGS step
   16    -454.8970849896      3.60e-05   Normal BFGS step
   17    -454.8970850001      3.09e-05   Normal BFGS step
   18    -454.8970850057      1.39e-05   Normal BFGS step
   19    -454.8970850069      5.11e-06   Normal BFGS step
   20    -454.8970850072      2.15e-06   Normal BFGS step
   21    -454.8970850072      6.58e-07   Normal BFGS step
   22    -454.8970850072      2.18e-07   Normal BFGS step
   23    -454.8970850072      5.81e-08  Convergence criterion met
 ---------------------------------------
 SCF time:   CPU 703.39s  wall 197.00s 
<S^2> =          0.756552102
(3)  G-ENP(liq) elect-nuc-pol free energy of system     -454.897085007 a.u.
(4)  G-CDS(liq) cavity-dispersion-solvent structure 
     free energy                                                4.1292 kcal/mol
(6)  G-S(liq) free energy of system                     -454.890504652 a.u.
 SCF   energy in the final basis set =     -454.8905046515
 Total energy in the final basis set =     -454.8905046515
 
 --------------------------------------------------------------
 
                    Orbital Energies (a.u.)
 --------------------------------------------------------------
 
 Alpha MOs
 -- Occupied --
-19.3610 -19.3487 -19.3424 -19.2945 -19.2904 -10.4519 -10.4464  -1.2132
 -1.1698  -1.1409  -1.1141  -1.0878  -0.8147  -0.6878  -0.6476  -0.6194
 -0.5910  -0.5656  -0.5374  -0.5214  -0.5164  -0.4947  -0.4848  -0.4386
 -0.4185  -0.3913  -0.3784  -0.3680  -0.3535
 -- Virtual --
  0.1009   0.1396   0.1559   0.1644   0.2115   0.2257   0.2854   0.2956
  0.3141   0.3213   0.3303   0.3410   0.3668   0.4020   0.4126   0.4328
  0.4429   0.4590   0.4693   0.4910   0.5041   0.5201   0.5466   0.5636
  0.5857   0.5893   0.6188   0.6224   0.6392   0.6483   0.6606   0.6832
  0.7175   0.7275   0.7436   0.7620   0.8014   0.8420   0.8453   0.8828
  0.9135   0.9610   0.9784   0.9968   1.0130   1.0687   1.0885   1.1344
  1.1684   1.2070   1.2925   1.3597   1.3953   1.4020   1.4205   1.4706
  1.5159   1.5402   1.5581   1.5721   1.5958   1.6172   1.6339   1.6906
  1.7113   1.7305   1.7640   1.7981   1.8317   1.8626   1.9024   1.9049
  1.9340   1.9616   2.0252   2.0399   2.0829   2.1119   2.1261   2.1861
  2.1920   2.2142   2.2233   2.2447   2.2690   2.2958   2.3123   2.3248
  2.3564   2.3883   2.4070   2.4313   2.4715   2.4844   2.5526   2.5725
  2.6593   2.6822   2.6890   2.7130   2.7327   2.7766   2.8061   2.8491
  2.8913   2.9291   2.9388   2.9711   3.0064   3.0499   3.0542   3.0637
  3.1221   3.1329   3.2066   3.2202   3.2526   3.3036   3.3183   3.3387
  3.3563   3.3783   3.4317   3.4571   3.4851   3.5490   3.5693   3.6347
  3.6664   3.6940   3.7553   3.7944   3.8671   3.8993   3.9324   4.0004
  4.0852   4.1741   4.2116   4.2698   4.4035   4.5462   4.6347   4.7211
  4.9089   5.1925   5.2103   5.2279   5.2796   5.2960   5.3014   5.3072
  5.3255   5.3520   5.3559   5.3892   5.4495   5.4768   5.4859   5.5035
  5.5165   5.5761   5.6213   5.6364   5.6863   5.6988   5.8233   5.8807
  5.9189   5.9773   6.0230   6.1543   6.1828   6.2121   6.2428   6.2835
  6.3300   6.3356   6.3593   6.4398   6.4548   6.4723   6.5222   6.5340
  6.5541   6.5934   6.6153   6.6265   6.6546   6.7861   6.8139   6.8375
  6.8882   6.9056   6.9616   7.0163   7.0590   7.0802   7.0889   7.1159
  7.1916   7.2441   7.2902   7.3207   7.4288  22.9016  23.7754  43.7816
 44.1884  44.2601  44.3120  44.4827
 
 Beta MOs
 -- Occupied --
-19.3477 -19.3412 -19.3408 -19.2943 -19.2904 -10.4477 -10.4464  -1.2104
 -1.1690  -1.1382  -1.0890  -1.0612  -0.8071  -0.6813  -0.6423  -0.6066
 -0.5851  -0.5467  -0.5350  -0.5169  -0.5129  -0.4866  -0.4219  -0.4111
 -0.4073  -0.3773  -0.3693  -0.3620
 -- Virtual --
 -0.0600   0.1028   0.1418   0.1569   0.1671   0.2145   0.2310   0.2863
  0.2989   0.3165   0.3261   0.3344   0.3424   0.3702   0.4080   0.4186
  0.4367   0.4477   0.4623   0.4717   0.4989   0.5072   0.5279   0.5506
  0.5685   0.5868   0.5921   0.6223   0.6249   0.6408   0.6524   0.6637
  0.6859   0.7229   0.7336   0.7449   0.7627   0.8042   0.8438   0.8479
  0.8857   0.9185   0.9633   0.9799   0.9985   1.0144   1.0710   1.0907
  1.1367   1.1711   1.2098   1.2954   1.3649   1.3986   1.4105   1.4253
  1.4832   1.5232   1.5430   1.5656   1.5792   1.6083   1.6281   1.6365
  1.6941   1.7171   1.7348   1.7668   1.8034   1.8405   1.8657   1.9043
  1.9108   1.9362   1.9642   2.0273   2.0418   2.0838   2.1195   2.1285
  2.1899   2.1954   2.2207   2.2281   2.2473   2.2738   2.3033   2.3189
  2.3262   2.3579   2.3946   2.4102   2.4326   2.4775   2.5033   2.5530
  2.5744   2.6612   2.6940   2.7002   2.7176   2.7517   2.7847   2.8116
  2.8571   2.8955   2.9372   2.9596   2.9804   3.0119   3.0557   3.0579
  3.0657   3.1339   3.1376   3.2091   3.2331   3.2586   3.3114   3.3216
  3.3461   3.3594   3.3795   3.4347   3.4606   3.4873   3.5520   3.5744
  3.6387   3.6747   3.6986   3.7602   3.8040   3.8725   3.9126   3.9377
  4.0048   4.0888   4.1766   4.2143   4.2738   4.4046   4.5473   4.6388
  4.7269   4.9114   5.2397   5.2590   5.2798   5.2826   5.2981   5.3057
  5.3177   5.3273   5.3583   5.3822   5.4118   5.4508   5.4799   5.5035
  5.5082   5.5455   5.6000   5.6369   5.6385   5.6886   5.7012   5.8294
  5.8833   5.9226   5.9810   6.0253   6.1562   6.1954   6.2407   6.2479
  6.2859   6.3341   6.3599   6.4235   6.4639   6.4682   6.5220   6.5308
  6.5472   6.5605   6.5971   6.6229   6.6453   6.7169   6.7893   6.8234
  6.8394   6.8909   6.9074   6.9640   7.0184   7.0601   7.0836   7.1144
  7.1399   7.1934   7.2447   7.2917   7.3221   7.4298  22.9054  23.7756
 43.7987  44.1890  44.2609  44.3123  44.4834
 --------------------------------------------------------------
 
          Ground-State Mulliken Net Atomic Charges

     Atom                 Charge (a.u.)    Spin (a.u.)
  --------------------------------------------------------
      1 O                    -0.488358       0.032143
      2 C                     0.093221       0.183618
      3 O                    -0.503753       0.031916
      4 C                     0.359435       0.002942
      5 O                    -0.612187       0.002560
      6 O                    -0.594155       0.006552
      7 H                     0.383795      -0.000220
      8 H                     0.361722       0.004737
      9 H                     0.169607      -0.019270
     10 O                    -0.536306       0.767037
     11 H                     0.366977      -0.012017
  --------------------------------------------------------
  Sum of atomic charges =    -1.000000
  Sum of spin   charges =     1.000000

 -----------------------------------------------------------------
                    Cartesian Multipole Moments
 -----------------------------------------------------------------
    Charge (ESU x 10^10)
                -4.8032
    Dipole Moment (Debye)
         X      -7.4123      Y       0.4098      Z      -0.2048
       Tot       7.4264
    Quadrupole Moments (Debye-Ang)
        XX     -55.7989     XY      -2.7525     YY     -49.9230
        XZ       1.0812     YZ      -4.1207     ZZ     -53.8966
    Octopole Moments (Debye-Ang^2)
       XXX    -101.7158    XXY      -6.8875    XYY     -46.0760
       YYY     -39.2956    XXZ     -15.0393    XYZ      -9.2697
       YYZ     -22.3956    XZZ     -36.0979    YZZ     -28.2696
       ZZZ     -85.3251
    Hexadecapole Moments (Debye-Ang^3)
      XXXX    -482.2668   XXXY     -39.8172   XXYY    -125.1568
      XYYY     -43.6121   YYYY    -375.4757   XXXZ      -4.4941
      XXYZ     -22.6642   XYYZ     -22.3467   YYYZ     -98.6195
      XXZZ    -141.9443   XYZZ     -33.5191   YYZZ    -139.7312
      XZZZ     -58.3610   YZZZ    -113.1570   ZZZZ    -366.1377
 -----------------------------------------------------------------
 Total job time:  198.15s(wall), 705.21s(cpu) 
 Thu Dec  7 16:05:24 2023

        *************************************************************
        *                                                           *
        *  Thank you very much for using Q-Chem.  Have a nice day.  *
        *                                                           *
        *************************************************************


