
Running Job 1 of 1 Q_in.in
qchem Q_in.in_62013.0 /scratch/ari.fischer/qChem1913937.hpc-mn1/qchem62013/ 0
/usr/local/qchem-5.4.1/exe/qcprog.exe_s Q_in.in_62013.0 /scratch/ari.fischer/qChem1913937.hpc-mn1/qchem62013/
                  Welcome to Q-Chem
     A Quantum Leap Into The Future Of Chemistry


 Q-Chem 5.4, Q-Chem, Inc., Pleasanton, CA (2021)

 License issued to: Nanyang Technological University (site)

 E. Epifanovsky,  A. T. B. Gilbert,  Xintian Feng,  Joonho Lee,  Yuezhi Mao,  
 N. Mardirossian,  P. Pokhilko,  A. White,  M. Wormit,  M. P. Coons,  
 A. L. Dempwolff,  Zhengting Gan,  D. Hait,  P. R. Horn,  L. D. Jacobson,  
 I. Kaliman,  J. Kussmann,  A. W. Lange,  Ka Un Lao,  D. S. Levine,  Jie Liu,  
 S. C. McKenzie,  A. F. Morrison,  K. Nanda,  F. Plasser,  D. R. Rehn,  
 M. L. Vidal,  Zhi-Qiang You,  Ying Zhu,  B. Alam,  B. Albrecht,  
 A. Aldossary,  E. Alguire,  J. H. Andersen,  D. Barton,  K. Begam,  A. Behn,  
 Y. A. Bernard,  E. J. Berquist,  H. Burton,  A. Carreras,  K. Carter-Fenk,  
 R. Chakraborty,  A. D. Chien,  K. D. Closser,  V. Cofer-Shabica,  
 S. Dasgupta,  Jia Deng,  M. de Wergifosse,  M. Diedenhofen,  Hainam Do,  
 S. Ehlert,  Po-Tung Fang,  S. Fatehi,  Qingguo Feng,  T. Friedhoff,  
 J. Gayvert,  Qinghui Ge,  G. Gidofalvi,  M. Goldey,  J. Gomes,  
 C. Gonzalez-Espinoza,  S. Gulania,  A. Gunina,  M. W. D. Hanson-Heine,  
 P. H. P. Harbach,  A. W. Hauser,  M. F. Herbst,  M. Hernandez Vera,  
 M. Hodecker,  Z. C. Holden,  S. Houck,  Xunkun Huang,  Kerwin Hui,  
 B. C. Huynh,  M. Ivanov,  Hyunjun Ji,  Hanjie Jiang,  B. Kaduk,  S. Kaehler,  
 K. Khistyaev,  Jaehoon Kim,  P. Klunzinger,  Z. Koczor-Benda,  
 Joong Hoon Koh,  D. Kosenkov,  L. Koulias,  T. Kowalczyk,  C. M. Krauter,  
 K. Kue,  A. Kunitsa,  T. Kus,  A. Landau,  K. V. Lawler,  D. Lefrancois,  
 S. Lehtola,  Rain Li,  Yi-Pei Li,  Jiashu Liang,  M. Liebenthal,  
 Hung-Hsuan Lin,  You-Sheng Lin,  Fenglai Liu,  Kuan-Yu Liu,  
 M. Loipersberger,  A. Luenser,  A. Manjanath,  P. Manohar,  E. Mansoor,  
 S. F. Manzer,  Shan-Ping Mao,  A. V. Marenich,  T. Markovich,  S. Mason,  
 S. A. Maurer,  P. F. McLaughlin,  M. F. S. J. Menger,  J.-M. Mewes,  
 S. A. Mewes,  P. Morgante,  J. W. Mullinax,  K. J. Oosterbaan,  G. Paran,  
 Alexander C. Paul,  Suranjan K. Paul,  F. Pavosevic,  Zheng Pei,  S. Prager,  
 E. I. Proynov,  E. Ramos,  B. Rana,  A. E. Rask,  A. Rettig,  R. M. Richard,  
 F. Rob,  E. Rossomme,  T. Scheele,  M. Scheurer,  M. Schneider,  
 N. Sergueev,  S. M. Sharada,  W. Skomorowski,  D. W. Small,  C. J. Stein,  
 Yu-Chuan Su,  E. J. Sundstrom,  Zhen Tao,  J. Thirman,  T. Tsuchimochi,  
 N. M. Tubman,  S. P. Veccham,  O. Vydrov,  J. Wenzel,  J. Witte,  A. Yamada,  
 Kun Yao,  S. Yeganeh,  S. R. Yost,  A. Zech,  Igor Ying Zhang,  Xing Zhang,  
 Yu Zhang,  D. Zuev,  A. Aspuru-Guzik,  A. T. Bell,  N. A. Besley,  
 K. B. Bravaya,  B. R. Brooks,  D. Casanova,  Jeng-Da Chai,  S. Coriani,  
 C. J. Cramer,  A. E. DePrince, III,  R. A. DiStasio Jr.,  A. Dreuw,  
 B. D. Dunietz,  T. R. Furlani,  W. A. Goddard III,  S. Grimme,  
 S. Hammes-Schiffer,  T. Head-Gordon,  W. J. Hehre,  Chao-Ping Hsu,  
 T.-C. Jagau,  Yousung Jung,  A. Klamt,  Jing Kong,  D. S. Lambrecht,  
 WanZhen Liang,  N. J. Mayhall,  C. W. McCurdy,  J. B. Neaton,  
 C. Ochsenfeld,  J. A. Parkhill,  R. Peverati,  V. A. Rassolov,  Yihan Shao,  
 L. V. Slipchenko,  T. Stauch,  R. P. Steele,  J. E. Subotnik,  
 A. J. W. Thom,  A. Tkatchenko,  D. G. Truhlar,  T. Van Voorhis,  
 T. A. Wesolowski,  K. B. Whaley,  H. L. Woodcock III,  P. M. Zimmerman,  
 S. Faraji,  P. M. W. Gill,  M. Head-Gordon,  J. M. Herbert,  A. I. Krylov

 Additional authors for Version 5.4.1: 
 S. Kotaru,  Shaozhi Li,  Xiangyuan Li,  F. Matz,  A. Molle,  Haisheng Ren,  
 Yingli Su,  Hung-Yi Tsai,  C. Utku,  Fang Wang

 Contributors to earlier versions of Q-Chem not listed above: 
 R. D. Adamson,  B. Austin,  R. Baer,  J. Baker,  G. J. O. Beran,  
 K. Brandhorst,  S. T. Brown,  E. F. C. Byrd,  A. K. Chakraborty,  
 G. K. L. Chan,  Chun-Min Chang,  Yunqing Chen,  C.-L. Cheng,  
 Siu Hung Chien,  D. M. Chipman,  D. L. Crittenden,  H. Dachsel,  
 R. J. Doerksen,  A. D. Dutoi,  R. G. Edgar,  J. Fosso-Tande,  
 L. Fusti-Molnar,  D. Ghosh,  A. Ghysels,  A. Golubeva-Zadorozhnaya,  
 J. Gonthier,  M. S. Gordon,  S. R. Gwaltney,  G. Hawkins,  J. E. Herr,  
 A. Heyden,  S. Hirata,  E. G. Hohenstein,  G. Kedziora,  F. J. Keil,  
 C. Kelley,  Jihan Kim,  R. A. King,  R. Z. Khaliullin,  P. P. Korambath,  
 W. Kurlancheek,  A. Laurent,  A. M. Lee,  M. S. Lee,  S. V. Levchenko,  
 Ching Yeh Lin,  D. Liotard,  E. Livshits,  R. C. Lochan,  I. Lotan,  
 L. A. Martinez-Martinez,  P. E. Maslen,  N. Nair,  D. P. O'Neill,  
 D. Neuhauser,  E. Neuscamman,  C. M. Oana,  R. Olivares-Amaya,  R. Olson,  
 T. M. Perrine,  B. Peters,  P. A. Pieniazek,  A. Prociuk,  Y. M. Rhee,  
 J. Ritchie,  M. A. Rohrdanz,  E. Rosta,  N. J. Russ,  H. F. Schaefer III,  
 M. W. Schmidt,  N. E. Schultz,  S. Sharma,  N. Shenvi,  C. D. Sherrill,  
 A. C. Simmonett,  A. Sodt,  T. Stein,  D. Stuck,  K. S. Thanthiriwatte,  
 V. Vanovschi,  L. Vogt,  Tao Wang,  A. Warshel,  M. A. Watson,  
 C. F. Williams,  Q. Wu,  X. Xu,  Jun Yang,  W. Zhang,  Yan Zhao

 Please cite Q-Chem as follows:
 Y. Shao et al., Mol. Phys. 113, 184-215 (2015)
 DOI: 10.1080/00268976.2014.952696

 Q-Chem 5.4.1 for Intel X86 EM64T Linux

 Parts of Q-Chem use Armadillo 9.800.1 (Horizon Scraper).
 http://arma.sourceforge.net/

 Q-Chem begins on Mon Feb  5 17:27:46 2024  

 Host: 
0

     Scratch files written to /scratch/ari.fischer/qChem1913937.hpc-mn1/qchem62013//
 Aug1521 |scratch|qcdevops|jenkins|workspace|build_RNUM 8249   
 Processing $rem in /usr/local/qchem-5.4.1/config/preferences:
 Processing $rem in /home/ari.fischer/.qchemrc:
 Symmetry turned off for PCM/SM12/SMD calculation

 Checking the input file for inconsistencies... 	...done.

--------------------------------------------------------------
User input:
--------------------------------------------------------------
$molecule
0 2
O        -0.7265937369    0.9841477964    0.4577690803
C        -0.2402478792   -0.2480819922    0.2787714565
O        -1.0332743381   -1.2873550349    0.0253175921
C         1.1606206866   -0.4586142849    0.3412688524
O         1.9284314593    0.6167230263    0.6653942023
O         1.7012960441   -1.5446342061    0.1197841305
H        -1.6551020347    0.9778739983    0.7336224659
H        -1.9370777822   -1.0038659970   -0.1746886398
H         1.3743443810    1.3906540943    0.8401361600
$end

$rem
BASIS = def2-TZVPD
JOB_TYPE = SP
METHOD = wB97M-V
SCF_ALGORITHM = DIIS_GDM
MAX_SCF_CYCLES = 400
SCF_CONVERGENCE = 7
THRESH = 12
Solvent_method = SMD
$end
--------------------------------------------------------------
 ----------------------------------------------------------------
             Standard Nuclear Orientation (Angstroms)
    I     Atom           X                Y                Z
 ----------------------------------------------------------------
    1      O      -0.7265937369     0.9841477964     0.4577690803
    2      C      -0.2402478792    -0.2480819922     0.2787714565
    3      O      -1.0332743381    -1.2873550349     0.0253175921
    4      C       1.1606206866    -0.4586142849     0.3412688524
    5      O       1.9284314593     0.6167230263     0.6653942023
    6      O       1.7012960441    -1.5446342061     0.1197841305
    7      H      -1.6551020347     0.9778739983     0.7336224659
    8      H      -1.9370777822    -1.0038659970    -0.1746886398
    9      H       1.3743443810     1.3906540943     0.8401361600
 ----------------------------------------------------------------
 Nuclear Repulsion Energy =         241.63915279 hartrees
 There are       24 alpha and       23 beta electrons
 Requested basis set is def2-TZVPD
 There are 97 shells and 261 basis functions

 Total QAlloc Memory Limit 288000 MB
 Mega-Array Size       188 MB
 MEM_STATIC part       192 MB
 
 Citation of the SMD model:
 Marenich, A.V.; Cramer, C.J.; Truhlar, D.G.
 J. Phys. Chem. B 2009, 113, 6378-6396.
 iSolventCode=           1
 Solvent: water                                                           
 
 vradii
            1           2           3           4           5           6
    1   1.5200000   1.8500000   1.5200000   1.8500000   1.5200000   1.5200000
            7           8           9
    1   1.2000000   1.2000000   1.2000000
 Changing PCM_VDW_RADII to SMD_RADIUS
 Discretize the solute cavity surface with Lebedev spheres
	Using 110 Lebedev grid points for each H atom
	Using 194 Lebedev grid points for other atoms
	Atomic van der Waals radii will be scaled by 1.20
 Remove points where switching function is < 1.0e-08
 Keep 817 surface tesserae and discard 677 interior tesserae
 Molecular Surface Area = 98.014 Angst**2

                       Distance Matrix (Angstroms)
             O (  1)   C (  2)   O (  3)   C (  4)   O (  5)   O (  6)
   C (  2)  1.336773
   O (  3)  2.332551  1.331622
   C (  4)  2.378385  1.417978  2.366392
   O (  5)  2.688358  2.366545  3.578675  1.360493
   O (  6)  3.521877  2.340068  2.748271  1.233217  2.240702
   H (  7)  0.968639  1.926569  2.453493  3.185237  3.602332  4.243260
   H (  8)  2.411944  1.912085  0.968106  3.187357  4.274834  3.690110
   H (  9)  2.173797  2.368015  3.692193  1.927262  0.967738  3.040020
             H (  7)   H (  8)
   H (  8)  2.198143
   H (  9)  3.059294  4.210595
 
 A cutoff of  1.0D-12 yielded   4556 shell pairs
 There are     33520 function pairs (     43421 Cartesian)
 Smallest overlap matrix eigenvalue = 3.56E-06

 Scale SEOQF with 1.000000e-01/1.000000e-01/1.000000e-01

 Standard Electronic Orientation quadrupole field applied
 Nucleus-field energy     =     0.0000000056 hartrees
 Guess from superposition of atomic densities
 Warning:  Energy on first SCF cycle will be non-variational
 SAD guess density has 47.000000 electrons

 -----------------------------------------------------------------------
  General SCF calculation program by
  Eric Jon Sundstrom, Paul Horn, Yuezhi Mao, Dmitri Zuev, Alec White,
  David Stuck, Shaama M.S., Shane Yost, Joonho Lee, David Small,
  Daniel Levine, Susi Lehtola, Hugh Burton, Evgeny Epifanovsky,
  Bang C. Huynh
 -----------------------------------------------------------------------
 Exchange:     0.1500 Hartree-Fock + 1.0000 wB97M-V + LR-HF
 Correlation:  1.0000 wB97M-V
 Using SG-2 standard quadrature grid
 Nonlocal Correlation:  VV10 with C = 0.0100 and b = 6.00 and scale = 1.00000
 Grid used for NLC:  SG-1 standard quadrature
 
 Citation of the SMD model:
 Marenich, A.V.; Cramer, C.J.; Truhlar, D.G.
 J. Phys. Chem. B 2009, 113, 6378-6396.
 iSolventCode=           1
 Solvent: water                                                           
 
 vradii
            1           2           3           4           5           6
    1   1.5200000   1.8500000   1.5200000   1.8500000   1.5200000   1.5200000
            7           8           9
    1   1.2000000   1.2000000   1.2000000
 using 4 threads for integral computing
 -------------------------------------------------------
 OpenMP Integral computing Module                
 Release: version 1.0, May 2013, Q-Chem Inc. Pittsburgh 
 -------------------------------------------------------
 -------------------------------------------------------
 OpenMP BLAS3 based DFT computing Module                
 Release: version 1.0, May 2013, Q-Chem Inc. Pittsburgh 
 -------------------------------------------------------
 A unrestricted SCF calculation will be
 performed using DIIS, GDM
 SCF converges when RMS gradient is below 1.0e-07
 ---------------------------------------
  Cycle       Energy         DIIS error
 ---------------------------------------
    1    -380.1912647416      1.57e-02  
    2    -378.7942323924      2.53e-03  Done DIIS. Switching to GDM
 ---------------------------------------
  Cycle       Energy        RMS Gradient
 ---------------------------------------
    1    -378.7942323924      1.34e-01   Descent step
    2    -378.9486371814      2.67e-02   Normal BFGS step
    3    -378.9628045526      1.50e-02   Normal BFGS step
    4    -378.9638048678      1.31e-02   Normal BFGS step
    5    -378.9645530818      3.74e-03   Normal BFGS step
    6    -378.9646060520      2.19e-03   Normal BFGS step
    7    -378.9646254520      6.90e-04   Normal BFGS step
    8    -378.9646276781      2.29e-04   Normal BFGS step
    9    -378.9646283092      9.13e-05   Normal BFGS step
   10    -378.9646283497      5.81e-05   Normal BFGS step
   11    -378.9646283616      2.28e-05   Normal BFGS step
   12    -378.9646283632      1.12e-05   Normal BFGS step
   13    -378.9646283637      4.48e-06   Normal BFGS step
   14    -378.9646283637      1.10e-06   Normal BFGS step
   15    -378.9646283637      6.88e-07   Normal BFGS step
   16    -378.9646283637      1.61e-07   Normal BFGS step
   17    -378.9646283638      6.99e-08  Convergence criterion met
 ---------------------------------------
 SCF time:   CPU 584.07s  wall 147.00s 
<S^2> =          0.753936540
(3)  G-ENP(liq) elect-nuc-pol free energy of system     -378.964628364 a.u.
(4)  G-CDS(liq) cavity-dispersion-solvent structure 
     free energy                                                5.2038 kcal/mol
(6)  G-S(liq) free energy of system                     -378.956335651 a.u.
 SCF   energy in the final basis set =     -378.9563356509
 Total energy in the final basis set =     -378.9563356509
 
 --------------------------------------------------------------
 
                    Orbital Energies (a.u.)
 --------------------------------------------------------------
 
 Alpha MOs
 -- Occupied --
-19.3960 -19.3948 -19.3737 -19.3193 -10.4849 -10.4770  -1.2681  -1.2228
 -1.1938  -1.1434  -0.8749  -0.7328  -0.7226  -0.6824  -0.6128  -0.5902
 -0.5675  -0.5414  -0.5194  -0.4946  -0.4861  -0.4404  -0.4059  -0.2768
 -- Virtual --
  0.0308   0.0539   0.0616   0.0784   0.0871   0.1011   0.1058   0.1084
  0.1149   0.1378   0.1422   0.1469   0.1549   0.1597   0.1737   0.1872
  0.1991   0.2152   0.2324   0.2474   0.2611   0.2743   0.2806   0.2942
  0.3103   0.3166   0.3230   0.3287   0.3346   0.3422   0.3488   0.3577
  0.3680   0.3752   0.3798   0.3901   0.3917   0.4180   0.4228   0.4312
  0.4387   0.4421   0.4502   0.4750   0.4814   0.4908   0.5117   0.5284
  0.5396   0.5464   0.5547   0.5593   0.5910   0.5997   0.6047   0.6118
  0.6318   0.6328   0.6447   0.6496   0.6583   0.6658   0.6818   0.6922
  0.7003   0.7144   0.7244   0.7442   0.7621   0.7758   0.7995   0.8064
  0.8362   0.8452   0.8527   0.8829   0.8961   0.9129   0.9259   0.9433
  0.9706   0.9766   0.9902   1.0105   1.0281   1.0583   1.0677   1.0992
  1.1049   1.1536   1.1799   1.2065   1.2458   1.2578   1.2727   1.2997
  1.3180   1.3214   1.3241   1.4549   1.4971   1.6004   1.6372   1.6665
  1.6914   1.7123   1.7558   1.7675   1.8126   1.8159   1.8570   1.8865
  1.8986   1.9633   1.9872   2.0278   2.0369   2.0530   2.1086   2.1436
  2.1928   2.2061   2.2319   2.2645   2.2790   2.3162   2.3362   2.3527
  2.3963   2.4088   2.4255   2.4534   2.5141   2.5708   2.6160   2.6393
  2.6541   2.7158   2.8069   2.8477   2.8616   2.8717   2.9137   2.9483
  2.9676   3.0415   3.0666   3.0927   3.1142   3.1513   3.1643   3.2098
  3.2771   3.2930   3.3289   3.3529   3.3698   3.3913   3.4090   3.4279
  3.4635   3.4837   3.5123   3.5473   3.5742   3.5858   3.6302   3.6828
  3.6963   3.7883   3.9252   4.0167   4.0694   4.1316   4.1624   4.2986
  4.4261   4.5248   4.6433   4.7673   4.8527   4.9923   5.0320   5.2500
  5.2710   5.3301   5.3313   5.3789   5.4517   5.4649   5.4855   5.5077
  5.5376   5.5789   5.6583   5.6839   5.8232   5.8592   5.9219   5.9479
  5.9837   6.0459   6.0981   6.1954   6.2656   6.3487   6.4402   6.4613
  6.5501   6.5822   6.6073   6.6136   6.6367   6.6749   6.7235   6.7764
  6.8136   6.8321   6.8858   6.9712   6.9846   7.0092   7.0563   7.1418
  7.2287   7.2938   7.3125   7.3595   7.3805   7.4780   7.6451  23.4179
 23.7909  44.5094  44.6155  44.6845  44.8856
 
 Beta MOs
 -- Occupied --
-19.3930 -19.3916 -19.3725 -19.3142 -10.4766 -10.4757  -1.2601  -1.2185
 -1.1867  -1.1362  -0.8565  -0.7284  -0.7165  -0.6760  -0.5885  -0.5825
 -0.5607  -0.5247  -0.5139  -0.4893  -0.4611  -0.4169  -0.3989
 -- Virtual --
 -0.0002   0.0306   0.0538   0.0616   0.0785   0.0869   0.1010   0.1054
  0.1097   0.1150   0.1376   0.1422   0.1534   0.1598   0.1745   0.1881
  0.1924   0.1996   0.2161   0.2333   0.2504   0.2627   0.2754   0.2847
  0.2947   0.3101   0.3178   0.3250   0.3314   0.3362   0.3442   0.3515
  0.3586   0.3699   0.3775   0.3808   0.3914   0.3974   0.4203   0.4222
  0.4315   0.4407   0.4466   0.4525   0.4786   0.4824   0.4919   0.5145
  0.5292   0.5409   0.5469   0.5550   0.5607   0.5912   0.6002   0.6057
  0.6126   0.6325   0.6341   0.6466   0.6524   0.6596   0.6695   0.6842
  0.6963   0.7043   0.7163   0.7267   0.7443   0.7633   0.7781   0.8010
  0.8082   0.8385   0.8476   0.8535   0.8857   0.8972   0.9205   0.9269
  0.9483   0.9720   0.9792   0.9922   1.0142   1.0337   1.0651   1.0700
  1.1012   1.1143   1.1569   1.1810   1.2071   1.2471   1.2647   1.2771
  1.3028   1.3231   1.3278   1.3283   1.4616   1.5030   1.6033   1.6457
  1.6905   1.6989   1.7145   1.7610   1.7808   1.8227   1.8259   1.8665
  1.8898   1.9087   1.9684   1.9994   2.0351   2.0517   2.0611   2.1161
  2.1488   2.1989   2.2133   2.2375   2.2716   2.2845   2.3254   2.3418
  2.3606   2.4014   2.4145   2.4319   2.4596   2.5207   2.5733   2.6248
  2.6456   2.6590   2.7502   2.8152   2.8616   2.8698   2.8839   2.9279
  2.9605   2.9774   3.0492   3.0819   3.1061   3.1316   3.1735   3.1771
  3.2247   3.2959   3.3004   3.3456   3.3711   3.3916   3.4097   3.4295
  3.4410   3.4747   3.4927   3.5271   3.5597   3.5846   3.5927   3.6402
  3.6939   3.7138   3.8039   3.9359   4.0255   4.0810   4.1633   4.1794
  4.3135   4.4367   4.5361   4.6515   4.7791   4.8982   4.9984   5.0375
  5.2557   5.2840   5.3375   5.3438   5.3860   5.4597   5.4704   5.4909
  5.5167   5.5447   5.5857   5.6654   5.6913   5.8313   5.8686   5.9324
  5.9547   5.9930   6.0564   6.1099   6.2025   6.2788   6.3583   6.4504
  6.4716   6.5615   6.5961   6.6136   6.6250   6.6493   6.6879   6.7421
  6.7854   6.8242   6.8428   6.8947   6.9802   6.9985   7.0170   7.0633
  7.1473   7.2344   7.2966   7.3198   7.3649   7.3848   7.4818   7.6521
 23.4242  23.7953  44.5119  44.6185  44.6874  44.8885
 --------------------------------------------------------------
 
          Ground-State Mulliken Net Atomic Charges

     Atom                 Charge (a.u.)    Spin (a.u.)
  --------------------------------------------------------
      1 O                    -0.509402       0.082302
      2 C                     0.576651       0.464674
      3 O                    -0.452023       0.093900
      4 C                     0.484902       0.147768
      5 O                    -0.546639       0.031956
      6 O                    -0.760127       0.181154
      7 H                     0.404659       0.000735
      8 H                     0.409705      -0.001699
      9 H                     0.392272      -0.000790
  --------------------------------------------------------
  Sum of atomic charges =     0.000000
  Sum of spin   charges =     1.000000

 -----------------------------------------------------------------
                    Cartesian Multipole Moments
 -----------------------------------------------------------------
    Charge (ESU x 10^10)
                -0.0000
    Dipole Moment (Debye)
         X      -9.2226      Y       5.3347      Z       0.9663
       Tot      10.6981
    Quadrupole Moments (Debye-Ang)
        XX     -34.7926     XY       6.8419     YY     -40.8558
        XZ      -2.0671     YZ       2.3925     ZZ     -33.1838
    Octopole Moments (Debye-Ang^2)
       XXX    -100.0968    XXY      22.0032    XYY     -26.0028
       YYY      53.5042    XXZ     -11.9871    XYZ      -1.2742
       YYZ      -8.3299    XZZ     -17.6362    YZZ      12.5350
       ZZZ     -31.9508
    Hexadecapole Moments (Debye-Ang^3)
      XXXX    -395.8312   XXXY      43.8811   XXYY    -112.2792
      XYYY      46.1586   YYYY    -260.2063   XXXZ     -40.4727
      XXYZ       4.9566   XYYZ      -6.7018   YYYZ      -2.1186
      XXZZ     -73.6452   XYZZ       6.7655   YYZZ     -48.4184
      XZZZ     -27.3165   YZZZ      -8.9153   ZZZZ     -63.2016
 -----------------------------------------------------------------
 Total job time:  147.77s(wall), 586.31s(cpu) 
 Mon Feb  5 17:30:14 2024

        *************************************************************
        *                                                           *
        *  Thank you very much for using Q-Chem.  Have a nice day.  *
        *                                                           *
        *************************************************************


