
Running Job 1 of 1 Q_in.in
qchem Q_in.in_378985.0 /scratch/ari.fischer/qChem1711281.hpc-mn1/qchem378985/ 0
/usr/local/qchem-5.4.1/exe/qcprog.exe_s Q_in.in_378985.0 /scratch/ari.fischer/qChem1711281.hpc-mn1/qchem378985/
                  Welcome to Q-Chem
     A Quantum Leap Into The Future Of Chemistry


 Q-Chem 5.4, Q-Chem, Inc., Pleasanton, CA (2021)

 License issued to: Nanyang Technological University (site)

 E. Epifanovsky,  A. T. B. Gilbert,  Xintian Feng,  Joonho Lee,  Yuezhi Mao,  
 N. Mardirossian,  P. Pokhilko,  A. White,  M. Wormit,  M. P. Coons,  
 A. L. Dempwolff,  Zhengting Gan,  D. Hait,  P. R. Horn,  L. D. Jacobson,  
 I. Kaliman,  J. Kussmann,  A. W. Lange,  Ka Un Lao,  D. S. Levine,  Jie Liu,  
 S. C. McKenzie,  A. F. Morrison,  K. Nanda,  F. Plasser,  D. R. Rehn,  
 M. L. Vidal,  Zhi-Qiang You,  Ying Zhu,  B. Alam,  B. Albrecht,  
 A. Aldossary,  E. Alguire,  J. H. Andersen,  D. Barton,  K. Begam,  A. Behn,  
 Y. A. Bernard,  E. J. Berquist,  H. Burton,  A. Carreras,  K. Carter-Fenk,  
 R. Chakraborty,  A. D. Chien,  K. D. Closser,  V. Cofer-Shabica,  
 S. Dasgupta,  Jia Deng,  M. de Wergifosse,  M. Diedenhofen,  Hainam Do,  
 S. Ehlert,  Po-Tung Fang,  S. Fatehi,  Qingguo Feng,  T. Friedhoff,  
 J. Gayvert,  Qinghui Ge,  G. Gidofalvi,  M. Goldey,  J. Gomes,  
 C. Gonzalez-Espinoza,  S. Gulania,  A. Gunina,  M. W. D. Hanson-Heine,  
 P. H. P. Harbach,  A. W. Hauser,  M. F. Herbst,  M. Hernandez Vera,  
 M. Hodecker,  Z. C. Holden,  S. Houck,  Xunkun Huang,  Kerwin Hui,  
 B. C. Huynh,  M. Ivanov,  Hyunjun Ji,  Hanjie Jiang,  B. Kaduk,  S. Kaehler,  
 K. Khistyaev,  Jaehoon Kim,  P. Klunzinger,  Z. Koczor-Benda,  
 Joong Hoon Koh,  D. Kosenkov,  L. Koulias,  T. Kowalczyk,  C. M. Krauter,  
 K. Kue,  A. Kunitsa,  T. Kus,  A. Landau,  K. V. Lawler,  D. Lefrancois,  
 S. Lehtola,  Rain Li,  Yi-Pei Li,  Jiashu Liang,  M. Liebenthal,  
 Hung-Hsuan Lin,  You-Sheng Lin,  Fenglai Liu,  Kuan-Yu Liu,  
 M. Loipersberger,  A. Luenser,  A. Manjanath,  P. Manohar,  E. Mansoor,  
 S. F. Manzer,  Shan-Ping Mao,  A. V. Marenich,  T. Markovich,  S. Mason,  
 S. A. Maurer,  P. F. McLaughlin,  M. F. S. J. Menger,  J.-M. Mewes,  
 S. A. Mewes,  P. Morgante,  J. W. Mullinax,  K. J. Oosterbaan,  G. Paran,  
 Alexander C. Paul,  Suranjan K. Paul,  F. Pavosevic,  Zheng Pei,  S. Prager,  
 E. I. Proynov,  E. Ramos,  B. Rana,  A. E. Rask,  A. Rettig,  R. M. Richard,  
 F. Rob,  E. Rossomme,  T. Scheele,  M. Scheurer,  M. Schneider,  
 N. Sergueev,  S. M. Sharada,  W. Skomorowski,  D. W. Small,  C. J. Stein,  
 Yu-Chuan Su,  E. J. Sundstrom,  Zhen Tao,  J. Thirman,  T. Tsuchimochi,  
 N. M. Tubman,  S. P. Veccham,  O. Vydrov,  J. Wenzel,  J. Witte,  A. Yamada,  
 Kun Yao,  S. Yeganeh,  S. R. Yost,  A. Zech,  Igor Ying Zhang,  Xing Zhang,  
 Yu Zhang,  D. Zuev,  A. Aspuru-Guzik,  A. T. Bell,  N. A. Besley,  
 K. B. Bravaya,  B. R. Brooks,  D. Casanova,  Jeng-Da Chai,  S. Coriani,  
 C. J. Cramer,  A. E. DePrince, III,  R. A. DiStasio Jr.,  A. Dreuw,  
 B. D. Dunietz,  T. R. Furlani,  W. A. Goddard III,  S. Grimme,  
 S. Hammes-Schiffer,  T. Head-Gordon,  W. J. Hehre,  Chao-Ping Hsu,  
 T.-C. Jagau,  Yousung Jung,  A. Klamt,  Jing Kong,  D. S. Lambrecht,  
 WanZhen Liang,  N. J. Mayhall,  C. W. McCurdy,  J. B. Neaton,  
 C. Ochsenfeld,  J. A. Parkhill,  R. Peverati,  V. A. Rassolov,  Yihan Shao,  
 L. V. Slipchenko,  T. Stauch,  R. P. Steele,  J. E. Subotnik,  
 A. J. W. Thom,  A. Tkatchenko,  D. G. Truhlar,  T. Van Voorhis,  
 T. A. Wesolowski,  K. B. Whaley,  H. L. Woodcock III,  P. M. Zimmerman,  
 S. Faraji,  P. M. W. Gill,  M. Head-Gordon,  J. M. Herbert,  A. I. Krylov

 Additional authors for Version 5.4.1: 
 S. Kotaru,  Shaozhi Li,  Xiangyuan Li,  F. Matz,  A. Molle,  Haisheng Ren,  
 Yingli Su,  Hung-Yi Tsai,  C. Utku,  Fang Wang

 Contributors to earlier versions of Q-Chem not listed above: 
 R. D. Adamson,  B. Austin,  R. Baer,  J. Baker,  G. J. O. Beran,  
 K. Brandhorst,  S. T. Brown,  E. F. C. Byrd,  A. K. Chakraborty,  
 G. K. L. Chan,  Chun-Min Chang,  Yunqing Chen,  C.-L. Cheng,  
 Siu Hung Chien,  D. M. Chipman,  D. L. Crittenden,  H. Dachsel,  
 R. J. Doerksen,  A. D. Dutoi,  R. G. Edgar,  J. Fosso-Tande,  
 L. Fusti-Molnar,  D. Ghosh,  A. Ghysels,  A. Golubeva-Zadorozhnaya,  
 J. Gonthier,  M. S. Gordon,  S. R. Gwaltney,  G. Hawkins,  J. E. Herr,  
 A. Heyden,  S. Hirata,  E. G. Hohenstein,  G. Kedziora,  F. J. Keil,  
 C. Kelley,  Jihan Kim,  R. A. King,  R. Z. Khaliullin,  P. P. Korambath,  
 W. Kurlancheek,  A. Laurent,  A. M. Lee,  M. S. Lee,  S. V. Levchenko,  
 Ching Yeh Lin,  D. Liotard,  E. Livshits,  R. C. Lochan,  I. Lotan,  
 L. A. Martinez-Martinez,  P. E. Maslen,  N. Nair,  D. P. O'Neill,  
 D. Neuhauser,  E. Neuscamman,  C. M. Oana,  R. Olivares-Amaya,  R. Olson,  
 T. M. Perrine,  B. Peters,  P. A. Pieniazek,  A. Prociuk,  Y. M. Rhee,  
 J. Ritchie,  M. A. Rohrdanz,  E. Rosta,  N. J. Russ,  H. F. Schaefer III,  
 M. W. Schmidt,  N. E. Schultz,  S. Sharma,  N. Shenvi,  C. D. Sherrill,  
 A. C. Simmonett,  A. Sodt,  T. Stein,  D. Stuck,  K. S. Thanthiriwatte,  
 V. Vanovschi,  L. Vogt,  Tao Wang,  A. Warshel,  M. A. Watson,  
 C. F. Williams,  Q. Wu,  X. Xu,  Jun Yang,  W. Zhang,  Yan Zhao

 Please cite Q-Chem as follows:
 Y. Shao et al., Mol. Phys. 113, 184-215 (2015)
 DOI: 10.1080/00268976.2014.952696

 Q-Chem 5.4.1 for Intel X86 EM64T Linux

 Parts of Q-Chem use Armadillo 9.800.1 (Horizon Scraper).
 http://arma.sourceforge.net/

 Q-Chem begins on Fri Sep  1 07:10:04 2023  

 Host: 
0

     Scratch files written to /scratch/ari.fischer/qChem1711281.hpc-mn1/qchem378985//
 Aug1521 |scratch|qcdevops|jenkins|workspace|build_RNUM 8249   
 Processing $rem in /usr/local/qchem-5.4.1/config/preferences:
 Processing $rem in /home/ari.fischer/.qchemrc:
 Symmetry turned off for PCM/SM12/SMD calculation


!!********************************************.
!!******************Warning*******************.
!!Desired Analytical derivatives not available.
!!Finite difference job might take a long time.
!!********************************************.
!!********************************************.


 2-order derivative to be evaluated numerically with 1-order analytical derivatives

 Checking the input file for inconsistencies... 	...done.

--------------------------------------------------------------
User input:
--------------------------------------------------------------
$molecule
-1 1
C        -0.7212776201   -0.6844206214    0.3942392435
O        -0.9322206661   -1.6557444258    1.1615529529
O        -1.2841758533   -0.4595739646   -0.7055055193
H         0.0409065396    0.0501519118    0.7212864230
$end

$rem
BASIS = 6-311++G(2df,2p)
GUI = 2
JOB_TYPE = Frequency
METHOD = wB97M-V
SOLVENT_METHOD = SMD
SCF_ALGORITHM = DIIS_GDM
MAX_SCF_CYCLES = 400
SCF_CONVERGENCE = 7
THRESH = 12
$end
--------------------------------------------------------------
 ----------------------------------------------------------------
             Standard Nuclear Orientation (Angstroms)
    I     Atom           X                Y                Z
 ----------------------------------------------------------------
    1      C      -0.7212776201    -0.6844206214     0.3942392435
    2      O      -0.9322206661    -1.6557444258     1.1615529529
    3      O      -1.2841758533    -0.4595739646    -0.7055055193
    4      H       0.0409065396     0.0501519118     0.7212864230
 ----------------------------------------------------------------
 Nuclear Repulsion Energy =          62.61340526 hartrees
 There are       12 alpha and       12 beta electrons
 Requested basis set is 6-311++G(2df,2p)
 There are 30 shells and 112 basis functions

 Total QAlloc Memory Limit 288000 MB
 Mega-Array Size       188 MB
 MEM_STATIC part       192 MB
 
 Citation of the SMD model:
 Marenich, A.V.; Cramer, C.J.; Truhlar, D.G.
 J. Phys. Chem. B 2009, 113, 6378-6396.
 iSolventCode=           1
 Solvent: water                                                           
 
 vradii
            1           2           3           4
    1   1.8500000   1.5200000   1.5200000   1.2000000
 Changing PCM_VDW_RADII to SMD_RADIUS
 Discretize the solute cavity surface with Lebedev spheres
	Using 110 Lebedev grid points for each H atom
	Using 194 Lebedev grid points for other atoms
	Atomic van der Waals radii will be scaled by 1.20
 Remove points where switching function is < 1.0e-08
 Keep 446 surface tesserae and discard 246 interior tesserae
 Molecular Surface Area = 59.331 Angst**2

                       Distance Matrix (Angstroms)
             C (  1)   O (  2)   O (  3)
   O (  2)  1.255682
   O (  3)  1.255726  2.245129
   H (  4)  1.107918  2.012683  2.012809
 
 A cutoff of  1.0D-12 yielded    462 shell pairs
 There are      6520 function pairs (      8422 Cartesian)
 Smallest overlap matrix eigenvalue = 1.06E-03
 Guess from superposition of atomic densities
 Warning:  Energy on first SCF cycle will be non-variational
 SAD guess density has 23.000000 electrons

 -----------------------------------------------------------------------
  General SCF calculation program by
  Eric Jon Sundstrom, Paul Horn, Yuezhi Mao, Dmitri Zuev, Alec White,
  David Stuck, Shaama M.S., Shane Yost, Joonho Lee, David Small,
  Daniel Levine, Susi Lehtola, Hugh Burton, Evgeny Epifanovsky,
  Bang C. Huynh
 -----------------------------------------------------------------------
 Exchange:     0.1500 Hartree-Fock + 1.0000 wB97M-V + LR-HF
 Correlation:  1.0000 wB97M-V
 Using SG-2 standard quadrature grid
 Nonlocal Correlation:  VV10 with C = 0.0100 and b = 6.00 and scale = 1.00000
 Grid used for NLC:  SG-1 standard quadrature
 using 8 threads for integral computing
 -------------------------------------------------------
 OpenMP Integral computing Module                
 Release: version 1.0, May 2013, Q-Chem Inc. Pittsburgh 
 -------------------------------------------------------
 
 Citation of the SMD model:
 Marenich, A.V.; Cramer, C.J.; Truhlar, D.G.
 J. Phys. Chem. B 2009, 113, 6378-6396.
 iSolventCode=           1
 Solvent: water                                                           
 
 vradii
            1           2           3           4
    1   1.8500000   1.5200000   1.5200000   1.2000000
 -------------------------------------------------------
 OpenMP BLAS3 based DFT computing Module                
 Release: version 1.0, May 2013, Q-Chem Inc. Pittsburgh 
 -------------------------------------------------------
 A restricted SCF calculation will be
 performed using DIIS, GDM
 SCF converges when RMS gradient is below 1.0e-07
 ---------------------------------------
  Cycle       Energy         DIIS error
 ---------------------------------------
    1    -189.4166041943      4.59e-02  
    2    -189.1922806744      1.09e-02  
    3    -189.1880063601      1.22e-02  
    4    -189.3366805401      4.99e-04  Done DIIS. Switching to GDM
 ---------------------------------------
  Cycle       Energy        RMS Gradient
 ---------------------------------------
    1    -189.3366805401      4.49e-03   Normal BFGS step
    2    -189.3368963057      4.58e-03   Normal BFGS step
    3    -189.3370301146      1.02e-03   Normal BFGS step
    4    -189.3370346322      5.99e-04   Normal BFGS step
    5    -189.3370363487      8.76e-05   Normal BFGS step
    6    -189.3370363930      2.28e-05   Normal BFGS step
    7    -189.3370363970      5.05e-06   Normal BFGS step
    8    -189.3370363971      1.45e-06   Normal BFGS step
    9    -189.3370363971      1.38e-06   Normal BFGS step
   10    -189.3370363971      5.62e-08  Convergence criterion met
 ---------------------------------------
 SCF time:   CPU 50.57s  wall 6.00s 
(3)  G-ENP(liq) elect-nuc-pol free energy of system     -189.337036397 a.u.
(4)  G-CDS(liq) cavity-dispersion-solvent structure 
     free energy                                                4.1395 kcal/mol
(6)  G-S(liq) free energy of system                     -189.330439732 a.u.
 SCF   energy in the final basis set =     -189.3304397324
 Total energy in the final basis set =     -189.3304397324
 
 --------------------------------------------------------------
 
                    Orbital Energies (a.u.)
 --------------------------------------------------------------
 
 Alpha MOs
 -- Occupied --
-19.2839 -19.2838 -10.4308  -1.1622  -1.0744  -0.6673  -0.5650  -0.5291
 -0.5110  -0.3702  -0.3620  -0.3569
 -- Virtual --
  0.0450   0.0779   0.0865   0.0889   0.1361   0.1490   0.2206   0.2285
  0.2528   0.2564   0.2983   0.3121   0.3180   0.3508   0.3565   0.5025
  0.5065   0.6118   0.6200   0.6823   0.7590   0.7669   0.8128   0.9467
  1.0125   1.0758   1.0786   1.1055   1.1329   1.1504   1.1820   1.1921
  1.2114   1.4209   1.4403   1.5122   1.6380   1.6405   1.6419   1.7782
  1.7985   1.9064   2.1170   2.1342   2.2617   2.4376   2.5220   2.5261
  2.7872   2.8418   3.0035   3.1154   3.1313   3.1923   3.2626   3.3264
  3.4908   3.5026   3.5406   3.6099   3.6214   3.7657   4.0041   4.0472
  4.1702   4.4365   5.0379   5.1747   5.1811   5.1870   5.1963   5.2205
  5.2512   5.2519   5.3019   5.3657   5.4560   5.5185   5.5899   5.6483
  5.8547   6.0354   6.2471   6.4127   6.8253   6.9230   6.9419   7.0091
  7.0357   7.0761   7.3060   7.3425   7.3636   7.5047   7.6842   7.7103
  7.7887  25.1724  50.6464  50.6916
 --------------------------------------------------------------
 
          Ground-State Mulliken Net Atomic Charges

     Atom                 Charge (a.u.)
  ----------------------------------------
      1 C                     0.200906
      2 O                    -0.666186
      3 O                    -0.666586
      4 H                     0.131866
  ----------------------------------------
  Sum of atomic charges =    -1.000000

 -----------------------------------------------------------------
                    Cartesian Multipole Moments
 -----------------------------------------------------------------
    Charge (ESU x 10^10)
                -4.8032
    Dipole Moment (Debye)
         X       6.5397      Y       6.2527      Z      -0.5720
       Tot       9.0659
    Quadrupole Moments (Debye-Ang)
        XX     -27.5612     XY      -7.1076     YY     -29.6648
        XZ      -0.4250     YZ       5.7961     ZZ     -26.4270
    Octopole Moments (Debye-Ang^2)
       XXX      66.5809    XXY      26.2503    XYY      29.7164
       YYY      71.0605    XXZ      -3.7358    XYZ      -4.5508
       YYZ     -17.0127    XZZ      25.6366    YZZ      27.5833
       ZZZ     -22.0503
    Hexadecapole Moments (Debye-Ang^3)
      XXXX    -154.1616   XXXY     -62.2981   XXYY     -61.9534
      XYYY     -70.0749   YYYY    -187.0519   XXXZ       3.6688
      XXYZ      15.8363   XYYZ      12.3417   YYYZ      56.5545
      XXZZ     -47.7496   XYZZ     -26.1458   YYZZ     -58.5131
      XZZZ      11.3766   YZZZ      47.0520   ZZZZ    -113.6136
 -----------------------------------------------------------------
 Calculating analytic gradient of the SCF energy
 Gradient of CDS energy
            1           2           3           4
    1  -0.0012401   0.0003053   0.0009571  -0.0000224
    2  -0.0011956   0.0017154  -0.0004983  -0.0000216
    3  -0.0005334  -0.0014564   0.0019995  -0.0000096
 Gradient of SCF Energy
            1           2           3           4
    1   0.0108774   0.0057080   0.0134133  -0.0299987
    2   0.0103698   0.0226035  -0.0040270  -0.0289462
    3   0.0045238  -0.0166095   0.0249613  -0.0128755
 Max gradient component =       3.000E-02
 RMS gradient           =       1.777E-02
 Computing fast CPCM-SWIG gradient
 Updating gradient with PCM contributions...
 -- total gradient after adding PCM contribution --
---------------------------------------------------
  Atom         X              Y              Z     
---------------------------------------------------
   1      -0.000008      -0.000007      -0.000004
   2      -0.000017       0.000015       0.000019
   3       0.000002       0.000002      -0.000000
   4       0.000024      -0.000011      -0.000015
---------------------------------------------------
 Number of fixed atoms: 0
 Gradient time:  CPU 10.46 s  wall 1.46 s
 ######################################################
 ######################################################
 # Starting finite difference calculation for IDERIV  #
 Finite diff step size:  1.88973e-03 a.u.
 ----------------------------------------------------------------
             Standard Nuclear Orientation (Angstroms)
    I     Atom           X                Y                Z
 ----------------------------------------------------------------
    1      C      -0.7202776201    -0.6844206214     0.3942392435
    2      O      -0.9322206661    -1.6557444258     1.1615529529
    3      O      -1.2841758533    -0.4595739646    -0.7055055193
    4      H       0.0409065396     0.0501519118     0.7212864230
 ----------------------------------------------------------------
 Nuclear Repulsion Energy =          62.60524972 hartrees
 There are       12 alpha and       12 beta electrons
 Discretize the solute cavity surface with Lebedev spheres
	Using 110 Lebedev grid points for each H atom
	Using 194 Lebedev grid points for other atoms
	Atomic van der Waals radii will be scaled by 1.20
 Remove points where switching function is < 1.0e-08
 Keep 447 surface tesserae and discard 245 interior tesserae
 Molecular Surface Area = 59.333 Angst**2

                       Distance Matrix (Angstroms)
             C (  1)   O (  2)   O (  3)
   O (  2)  1.255850
   O (  3)  1.256175  2.245129
   H (  4)  1.107230  2.012683  2.012809
 
 Requested basis set is 6-311++G(2df,2p)
 There are 30 shells and 112 basis functions
 A cutoff of  1.0D-12 yielded    462 shell pairs
 There are      6520 function pairs (      8422 Cartesian)
 Smallest overlap matrix eigenvalue = 1.06E-03
 Guess MOs from SCF MO coefficient file

 -----------------------------------------------------------------------
  General SCF calculation program by
  Eric Jon Sundstrom, Paul Horn, Yuezhi Mao, Dmitri Zuev, Alec White,
  David Stuck, Shaama M.S., Shane Yost, Joonho Lee, David Small,
  Daniel Levine, Susi Lehtola, Hugh Burton, Evgeny Epifanovsky,
  Bang C. Huynh
 -----------------------------------------------------------------------
 Exchange:     0.1500 Hartree-Fock + 1.0000 wB97M-V + LR-HF
 Correlation:  1.0000 wB97M-V
 Using SG-2 standard quadrature grid
 Nonlocal Correlation:  VV10 with C = 0.0100 and b = 6.00 and scale = 1.00000
 Grid used for NLC:  SG-1 standard quadrature
 
 Citation of the SMD model:
 Marenich, A.V.; Cramer, C.J.; Truhlar, D.G.
 J. Phys. Chem. B 2009, 113, 6378-6396.
 iSolventCode=           1
 Solvent: water                                                           
 
 vradii
            1           2           3           4
    1   1.8500000   1.5200000   1.5200000   1.2000000
 -------------------------------------------------------
 OpenMP BLAS3 based DFT computing Module                
 Release: version 1.0, May 2013, Q-Chem Inc. Pittsburgh 
 -------------------------------------------------------
 A restricted SCF calculation will be
 performed using Roothaan-Hall, DIIS, GDM
 SCF converges when RMS gradient is below 1.0e-07
 ---------------------------------------
  Cycle       Energy         DIIS error
 ---------------------------------------
    1    -189.2123379210      1.15e-03  Roothaan Step
 ---------------------------------------
  Cycle       Energy         DIIS error
 ---------------------------------------
    1    -189.3314766308      1.47e-03  
    2    -189.3342385925      1.65e-03  Done DIIS. Switching to GDM
 ---------------------------------------
  Cycle       Energy        RMS Gradient
 ---------------------------------------
    1    -189.3342385925      2.06e-02   Normal BFGS step
    2    -189.3337150807      2.82e-02  Line search: overstep
    3    -189.3368942475      3.97e-03   Normal BFGS step
    4    -189.3370147751      1.84e-03   Normal BFGS step
    5    -189.3370319565      4.87e-04   Normal BFGS step
    6    -189.3370331656      1.16e-04   Normal BFGS step
    7    -189.3370332714      2.77e-05   Normal BFGS step
    8    -189.3370332736      3.25e-05   Normal BFGS step
    9    -189.3370332781      1.94e-06   Normal BFGS step
   10    -189.3370332782      4.96e-07   Normal BFGS step
   11    -189.3370332782      1.25e-07   Normal BFGS step
   12    -189.3370332782      2.41e-08  Convergence criterion met
 ---------------------------------------
 SCF time:   CPU 54.52s  wall 7.00s 
(3)  G-ENP(liq) elect-nuc-pol free energy of system     -189.337033278 a.u.
(4)  G-CDS(liq) cavity-dispersion-solvent structure 
     free energy                                                4.1380 kcal/mol
(6)  G-S(liq) free energy of system                     -189.330438962 a.u.
 SCF   energy in the final basis set =     -189.3304389621
 Total energy in the final basis set =     -189.3304389621
 
 --------------------------------------------------------------
 
                    Orbital Energies (a.u.)
 --------------------------------------------------------------
 
 Alpha MOs
 -- Occupied --
-19.2839 -19.2838 -10.4308  -1.1620  -1.0742  -0.6675  -0.5650  -0.5290
 -0.5109  -0.3701  -0.3619  -0.3570
 -- Virtual --
  0.0450   0.0779   0.0865   0.0889   0.1360   0.1490   0.2206   0.2285
  0.2528   0.2564   0.2983   0.3121   0.3180   0.3509   0.3565   0.5023
  0.5061   0.6120   0.6200   0.6823   0.7591   0.7666   0.8127   0.9464
  1.0127   1.0760   1.0785   1.1055   1.1331   1.1505   1.1818   1.1922
  1.2114   1.4208   1.4398   1.5125   1.6378   1.6406   1.6420   1.7781
  1.7989   1.9061   2.1170   2.1338   2.2615   2.4371   2.5215   2.5258
  2.7872   2.8417   3.0036   3.1153   3.1315   3.1923   3.2628   3.3264
  3.4908   3.5024   3.5403   3.6099   3.6207   3.7670   4.0038   4.0470
  4.1712   4.4369   5.0388   5.1747   5.1811   5.1869   5.1964   5.2205
  5.2511   5.2518   5.3018   5.3650   5.4563   5.5178   5.5901   5.6478
  5.8550   6.0349   6.2461   6.4107   6.8241   6.9230   6.9418   7.0090
  7.0356   7.0759   7.3051   7.3427   7.3633   7.5033   7.6842   7.7104
  7.7884  25.1719  50.6459  50.6913
 --------------------------------------------------------------
 
          Ground-State Mulliken Net Atomic Charges

     Atom                 Charge (a.u.)
  ----------------------------------------
      1 C                     0.201004
      2 O                    -0.666286
      3 O                    -0.667122
      4 H                     0.132404
  ----------------------------------------
  Sum of atomic charges =    -1.000000

 -----------------------------------------------------------------
                    Cartesian Multipole Moments
 -----------------------------------------------------------------
    Charge (ESU x 10^10)
                -4.8032
    Dipole Moment (Debye)
         X       6.5443      Y       6.2542      Z      -0.5687
       Tot       9.0701
    Quadrupole Moments (Debye-Ang)
        XX     -27.5673     XY      -7.1094     YY     -29.6653
        XZ      -0.4259     YZ       5.7965     ZZ     -26.4275
    Octopole Moments (Debye-Ang^2)
       XXX      66.5786    XXY      26.2531    XYY      29.7127
       YYY      71.0628    XXZ      -3.7336    XYZ      -4.5494
       YYZ     -17.0102    XZZ      25.6331    YZZ      27.5862
       ZZZ     -22.0424
    Hexadecapole Moments (Debye-Ang^3)
      XXXX    -154.1370   XXXY     -62.2906   XXYY     -61.9464
      XYYY     -70.0599   YYYY    -187.0510   XXXZ       3.6605
      XXYZ      15.8339   XYYZ      12.3340   YYYZ      56.5549
      XXZZ     -47.7417   XYZZ     -26.1402   YYZZ     -58.5162
      XZZZ      11.3649   YZZZ      47.0557   ZZZZ    -113.6209
 -----------------------------------------------------------------
 Calculating analytic gradient of the SCF energy
 Gradient of CDS energy
            1           2           3           4
    1  -0.0012456   0.0003066   0.0009628  -0.0000238
    2  -0.0011937   0.0017182  -0.0005016  -0.0000229
    3  -0.0005390  -0.0014601   0.0020093  -0.0000102
 Gradient of SCF Energy
            1           2           3           4
    1   0.0115104   0.0055878   0.0131389  -0.0302372
    2   0.0106941   0.0224480  -0.0039811  -0.0291610
    3   0.0048837  -0.0165146   0.0245998  -0.0129688
 Max gradient component =       3.024E-02
 RMS gradient           =       1.781E-02
 Computing fast CPCM-SWIG gradient
 Updating gradient with PCM contributions...
 -- total gradient after adding PCM contribution --
---------------------------------------------------
  Atom         X              Y              Z     
---------------------------------------------------
   1       0.000824       0.000303       0.000301
   2      -0.000217      -0.000159       0.000113
   3      -0.000336       0.000027      -0.000336
   4      -0.000271      -0.000171      -0.000078
---------------------------------------------------
 Number of fixed atoms: 0
 Gradient time:  CPU 10.21 s  wall 1.36 s
 ----------------------------------------------------------------
             Standard Nuclear Orientation (Angstroms)
    I     Atom           X                Y                Z
 ----------------------------------------------------------------
    1      C      -0.7222776201    -0.6844206214     0.3942392435
    2      O      -0.9322206661    -1.6557444258     1.1615529529
    3      O      -1.2841758533    -0.4595739646    -0.7055055193
    4      H       0.0409065396     0.0501519118     0.7212864230
 ----------------------------------------------------------------
 Nuclear Repulsion Energy =          62.62154495 hartrees
 There are       12 alpha and       12 beta electrons
 Discretize the solute cavity surface with Lebedev spheres
	Using 110 Lebedev grid points for each H atom
	Using 194 Lebedev grid points for other atoms
	Atomic van der Waals radii will be scaled by 1.20
 Remove points where switching function is < 1.0e-08
 Keep 446 surface tesserae and discard 246 interior tesserae
 Molecular Surface Area = 59.329 Angst**2

                       Distance Matrix (Angstroms)
             C (  1)   O (  2)   O (  3)
   O (  2)  1.255514
   O (  3)  1.255279  2.245129
   H (  4)  1.108606  2.012683  2.012809
 
 Requested basis set is 6-311++G(2df,2p)
 There are 30 shells and 112 basis functions
 A cutoff of  1.0D-12 yielded    462 shell pairs
 There are      6520 function pairs (      8422 Cartesian)
 Smallest overlap matrix eigenvalue = 1.06E-03
 Guess MOs from SCF MO coefficient file

 -----------------------------------------------------------------------
  General SCF calculation program by
  Eric Jon Sundstrom, Paul Horn, Yuezhi Mao, Dmitri Zuev, Alec White,
  David Stuck, Shaama M.S., Shane Yost, Joonho Lee, David Small,
  Daniel Levine, Susi Lehtola, Hugh Burton, Evgeny Epifanovsky,
  Bang C. Huynh
 -----------------------------------------------------------------------
 Exchange:     0.1500 Hartree-Fock + 1.0000 wB97M-V + LR-HF
 Correlation:  1.0000 wB97M-V
 Using SG-2 standard quadrature grid
 Nonlocal Correlation:  VV10 with C = 0.0100 and b = 6.00 and scale = 1.00000
 Grid used for NLC:  SG-1 standard quadrature
 
 Citation of the SMD model:
 Marenich, A.V.; Cramer, C.J.; Truhlar, D.G.
 J. Phys. Chem. B 2009, 113, 6378-6396.
 iSolventCode=           1
 Solvent: water                                                           
 
 vradii
            1           2           3           4
    1   1.8500000   1.5200000   1.5200000   1.2000000
 -------------------------------------------------------
 OpenMP BLAS3 based DFT computing Module                
 Release: version 1.0, May 2013, Q-Chem Inc. Pittsburgh 
 -------------------------------------------------------
 A restricted SCF calculation will be
 performed using Roothaan-Hall, DIIS, GDM
 SCF converges when RMS gradient is below 1.0e-07
 ---------------------------------------
  Cycle       Energy         DIIS error
 ---------------------------------------
    1    -189.2123448263      1.16e-03  Roothaan Step
 ---------------------------------------
  Cycle       Energy         DIIS error
 ---------------------------------------
    1    -189.3315369170      1.46e-03  
    2    -189.3342891454      1.64e-03  Done DIIS. Switching to GDM
 ---------------------------------------
  Cycle       Energy        RMS Gradient
 ---------------------------------------
    1    -189.3342891454      2.04e-02   Normal BFGS step
    2    -189.3337802064      2.79e-02  Line search: overstep
    3    -189.3369008023      3.93e-03   Normal BFGS step
    4    -189.3370196682      1.83e-03   Normal BFGS step
    5    -189.3370366199      4.84e-04   Normal BFGS step
    6    -189.3370378258      1.15e-04   Normal BFGS step
    7    -189.3370379297      2.78e-05   Normal BFGS step
    8    -189.3370379326      2.27e-05   Normal BFGS step
    9    -189.3370379346      3.29e-06   Normal BFGS step
   10    -189.3370379348      5.38e-07   Normal BFGS step
   11    -189.3370379348      1.23e-07   Normal BFGS step
   12    -189.3370379348      4.80e-08  Convergence criterion met
 ---------------------------------------
 SCF time:   CPU 54.71s  wall 7.00s 
(3)  G-ENP(liq) elect-nuc-pol free energy of system     -189.337037935 a.u.
(4)  G-CDS(liq) cavity-dispersion-solvent structure 
     free energy                                                4.1409 kcal/mol
(6)  G-S(liq) free energy of system                     -189.330438932 a.u.
 SCF   energy in the final basis set =     -189.3304389319
 Total energy in the final basis set =     -189.3304389319
 
 --------------------------------------------------------------
 
                    Orbital Energies (a.u.)
 --------------------------------------------------------------
 
 Alpha MOs
 -- Occupied --
-19.2839 -19.2838 -10.4308  -1.1623  -1.0745  -0.6671  -0.5650  -0.5292
 -0.5111  -0.3703  -0.3621  -0.3568
 -- Virtual --
  0.0450   0.0779   0.0865   0.0889   0.1363   0.1490   0.2206   0.2284
  0.2528   0.2563   0.2984   0.3121   0.3180   0.3508   0.3565   0.5026
  0.5068   0.6115   0.6200   0.6823   0.7589   0.7672   0.8128   0.9469
  1.0123   1.0756   1.0787   1.1054   1.1327   1.1504   1.1823   1.1919
  1.2114   1.4210   1.4407   1.5118   1.6383   1.6403   1.6418   1.7784
  1.7981   1.9066   2.1171   2.1347   2.2620   2.4381   2.5224   2.5264
  2.7871   2.8419   3.0035   3.1156   3.1311   3.1922   3.2624   3.3265
  3.4908   3.5028   3.5408   3.6099   3.6220   3.7644   4.0043   4.0475
  4.1692   4.4360   5.0370   5.1747   5.1810   5.1870   5.1963   5.2206
  5.2513   5.2519   5.3021   5.3664   5.4558   5.5191   5.5897   5.6487
  5.8545   6.0358   6.2480   6.4148   6.8266   6.9230   6.9419   7.0092
  7.0358   7.0763   7.3068   7.3424   7.3640   7.5060   7.6842   7.7102
  7.7890  25.1729  50.6470  50.6919
 --------------------------------------------------------------
 
          Ground-State Mulliken Net Atomic Charges

     Atom                 Charge (a.u.)
  ----------------------------------------
      1 C                     0.200806
      2 O                    -0.666085
      3 O                    -0.666048
      4 H                     0.131327
  ----------------------------------------
  Sum of atomic charges =    -1.000000

 -----------------------------------------------------------------
                    Cartesian Multipole Moments
 -----------------------------------------------------------------
    Charge (ESU x 10^10)
                -4.8032
    Dipole Moment (Debye)
         X       6.5351      Y       6.2512      Z      -0.5754
       Tot       9.0618
    Quadrupole Moments (Debye-Ang)
        XX     -27.5550     XY      -7.1058     YY     -29.6643
        XZ      -0.4240     YZ       5.7956     ZZ     -26.4264
    Octopole Moments (Debye-Ang^2)
       XXX      66.5832    XXY      26.2475    XYY      29.7201
       YYY      71.0583    XXZ      -3.7381    XYZ      -4.5522
       YYZ     -17.0153    XZZ      25.6401    YZZ      27.5804
       ZZZ     -22.0583
    Hexadecapole Moments (Debye-Ang^3)
      XXXX    -154.1861   XXXY     -62.3055   XXYY     -61.9604
      XYYY     -70.0899   YYYY    -187.0529   XXXZ       3.6770
      XXYZ      15.8387   XYYZ      12.3495   YYYZ      56.5541
      XXZZ     -47.7575   XYZZ     -26.1514   YYZZ     -58.5101
      XZZZ      11.3883   YZZZ      47.0482   ZZZZ    -113.6064
 -----------------------------------------------------------------
 Calculating analytic gradient of the SCF energy
 Gradient of CDS energy
            1           2           3           4
    1  -0.0012346   0.0003041   0.0009515  -0.0000211
    2  -0.0011975   0.0017127  -0.0004949  -0.0000203
    3  -0.0005280  -0.0014528   0.0019897  -0.0000090
 Gradient of SCF Energy
            1           2           3           4
    1   0.0102459   0.0058276   0.0136874  -0.0297610
    2   0.0100473   0.0227585  -0.0040731  -0.0287328
    3   0.0041632  -0.0167040   0.0253237  -0.0127829
 Max gradient component =       2.976E-02
 RMS gradient           =       1.773E-02
 Computing fast CPCM-SWIG gradient
 Updating gradient with PCM contributions...
 -- total gradient after adding PCM contribution --
---------------------------------------------------
  Atom         X              Y              Z     
---------------------------------------------------
   1      -0.000839      -0.000314      -0.000310
   2       0.000182       0.000189      -0.000075
   3       0.000339      -0.000023       0.000337
   4       0.000318       0.000148       0.000048
---------------------------------------------------
 Number of fixed atoms: 0
 Gradient time:  CPU 10.40 s  wall 1.37 s
 ----------------------------------------------------------------
             Standard Nuclear Orientation (Angstroms)
    I     Atom           X                Y                Z
 ----------------------------------------------------------------
    1      C      -0.7212776201    -0.6834206214     0.3942392435
    2      O      -0.9322206661    -1.6557444258     1.1615529529
    3      O      -1.2841758533    -0.4595739646    -0.7055055193
    4      H       0.0409065396     0.0501519118     0.7212864230
 ----------------------------------------------------------------
 Nuclear Repulsion Energy =          62.60554284 hartrees
 There are       12 alpha and       12 beta electrons
 Discretize the solute cavity surface with Lebedev spheres
	Using 110 Lebedev grid points for each H atom
	Using 194 Lebedev grid points for other atoms
	Atomic van der Waals radii will be scaled by 1.20
 Remove points where switching function is < 1.0e-08
 Keep 447 surface tesserae and discard 245 interior tesserae
 Molecular Surface Area = 59.333 Angst**2

                       Distance Matrix (Angstroms)
             C (  1)   O (  2)   O (  3)
   O (  2)  1.256456
   O (  3)  1.255548  2.245129
   H (  4)  1.107255  2.012683  2.012809
 
 Requested basis set is 6-311++G(2df,2p)
 There are 30 shells and 112 basis functions
 A cutoff of  1.0D-12 yielded    462 shell pairs
 There are      6520 function pairs (      8422 Cartesian)
 Smallest overlap matrix eigenvalue = 1.06E-03
 Guess MOs from SCF MO coefficient file

 -----------------------------------------------------------------------
  General SCF calculation program by
  Eric Jon Sundstrom, Paul Horn, Yuezhi Mao, Dmitri Zuev, Alec White,
  David Stuck, Shaama M.S., Shane Yost, Joonho Lee, David Small,
  Daniel Levine, Susi Lehtola, Hugh Burton, Evgeny Epifanovsky,
  Bang C. Huynh
 -----------------------------------------------------------------------
 Exchange:     0.1500 Hartree-Fock + 1.0000 wB97M-V + LR-HF
 Correlation:  1.0000 wB97M-V
 Using SG-2 standard quadrature grid
 Nonlocal Correlation:  VV10 with C = 0.0100 and b = 6.00 and scale = 1.00000
 Grid used for NLC:  SG-1 standard quadrature
 
 Citation of the SMD model:
 Marenich, A.V.; Cramer, C.J.; Truhlar, D.G.
 J. Phys. Chem. B 2009, 113, 6378-6396.
 iSolventCode=           1
 Solvent: water                                                           
 
 vradii
            1           2           3           4
    1   1.8500000   1.5200000   1.5200000   1.2000000
 -------------------------------------------------------
 OpenMP BLAS3 based DFT computing Module                
 Release: version 1.0, May 2013, Q-Chem Inc. Pittsburgh 
 -------------------------------------------------------
 A restricted SCF calculation will be
 performed using Roothaan-Hall, DIIS, GDM
 SCF converges when RMS gradient is below 1.0e-07
 ---------------------------------------
  Cycle       Energy         DIIS error
 ---------------------------------------
    1    -189.2123679497      1.15e-03  Roothaan Step
 ---------------------------------------
  Cycle       Energy         DIIS error
 ---------------------------------------
    1    -189.3314676680      1.47e-03  
    2    -189.3342303228      1.65e-03  Done DIIS. Switching to GDM
 ---------------------------------------
  Cycle       Energy        RMS Gradient
 ---------------------------------------
    1    -189.3342303228      2.06e-02   Normal BFGS step
    2    -189.3337052436      2.83e-02  Line search: overstep
    3    -189.3368936215      3.98e-03   Normal BFGS step
    4    -189.3370145465      1.84e-03   Normal BFGS step
    5    -189.3370317961      4.88e-04   Normal BFGS step
    6    -189.3370330100      1.16e-04   Normal BFGS step
    7    -189.3370331172      4.98e-05   Normal BFGS step
    8    -189.3370331213      3.99e-05   Normal BFGS step
    9    -189.3370331303      2.66e-06   Normal BFGS step
   10    -189.3370331304      6.32e-07   Normal BFGS step
   11    -189.3370331304      1.04e-07   Normal BFGS step
   12    -189.3370331304      2.31e-08  Convergence criterion met
 ---------------------------------------
 SCF time:   CPU 54.49s  wall 7.00s 
(3)  G-ENP(liq) elect-nuc-pol free energy of system     -189.337033130 a.u.
(4)  G-CDS(liq) cavity-dispersion-solvent structure 
     free energy                                                4.1380 kcal/mol
(6)  G-S(liq) free energy of system                     -189.330438739 a.u.
 SCF   energy in the final basis set =     -189.3304387395
 Total energy in the final basis set =     -189.3304387395
 
 --------------------------------------------------------------
 
                    Orbital Energies (a.u.)
 --------------------------------------------------------------
 
 Alpha MOs
 -- Occupied --
-19.2839 -19.2838 -10.4308  -1.1620  -1.0742  -0.6675  -0.5650  -0.5290
 -0.5109  -0.3701  -0.3619  -0.3570
 -- Virtual --
  0.0450   0.0779   0.0865   0.0889   0.1360   0.1490   0.2206   0.2285
  0.2528   0.2564   0.2983   0.3121   0.3180   0.3509   0.3565   0.5023
  0.5061   0.6120   0.6200   0.6823   0.7591   0.7666   0.8127   0.9464
  1.0127   1.0760   1.0785   1.1055   1.1331   1.1505   1.1818   1.1922
  1.2114   1.4208   1.4399   1.5125   1.6378   1.6406   1.6420   1.7781
  1.7988   1.9061   2.1170   2.1338   2.2615   2.4371   2.5215   2.5259
  2.7872   2.8417   3.0036   3.1153   3.1314   3.1923   3.2628   3.3264
  3.4907   3.5025   3.5403   3.6099   3.6207   3.7670   4.0038   4.0470
  4.1711   4.4369   5.0387   5.1747   5.1811   5.1869   5.1964   5.2205
  5.2511   5.2518   5.3018   5.3650   5.4563   5.5178   5.5901   5.6478
  5.8550   6.0350   6.2462   6.4108   6.8241   6.9230   6.9418   7.0090
  7.0356   7.0759   7.3052   7.3426   7.3634   7.5034   7.6842   7.7104
  7.7884  25.1719  50.6459  50.6913
 --------------------------------------------------------------
 
          Ground-State Mulliken Net Atomic Charges

     Atom                 Charge (a.u.)
  ----------------------------------------
      1 C                     0.201000
      2 O                    -0.667235
      3 O                    -0.666150
      4 H                     0.132385
  ----------------------------------------
  Sum of atomic charges =    -1.000000

 -----------------------------------------------------------------
                    Cartesian Multipole Moments
 -----------------------------------------------------------------
    Charge (ESU x 10^10)
                -4.8032
    Dipole Moment (Debye)
         X       6.5412      Y       6.2612      Z      -0.5778
       Tot       9.0732
    Quadrupole Moments (Debye-Ang)
        XX     -27.5607     XY      -7.1138     YY     -29.6796
        XZ      -0.4171     YZ       5.8072     ZZ     -26.4320
    Octopole Moments (Debye-Ang^2)
       XXX      66.5812    XXY      26.2551    XYY      29.7282
       YYY      71.0815    XXZ      -3.7492    XYZ      -4.5612
       YYZ     -17.0315    XZZ      25.6428    YZZ      27.5923
       ZZZ     -22.0753
    Hexadecapole Moments (Debye-Ang^3)
      XXXX    -154.1526   XXXY     -62.3019   XXYY     -61.9647
      XYYY     -70.0899   YYYY    -187.0914   XXXZ       3.6981
      XXYZ      15.8542   XYYZ      12.3589   YYYZ      56.5893
      XXZZ     -47.7577   XYZZ     -26.1520   YYZZ     -58.5315
      XZZZ      11.4048   YZZZ      47.0877   ZZZZ    -113.6527
 -----------------------------------------------------------------
 Calculating analytic gradient of the SCF energy
 Gradient of CDS energy
            1           2           3           4
    1  -0.0012381   0.0003074   0.0009545  -0.0000237
    2  -0.0012109   0.0017311  -0.0004973  -0.0000228
    3  -0.0005171  -0.0014689   0.0019962  -0.0000102
 Gradient of SCF Energy
            1           2           3           4
    1   0.0112013   0.0055668   0.0134453  -0.0302134
    2   0.0113052   0.0219938  -0.0041339  -0.0291652
    3   0.0041379  -0.0162168   0.0250526  -0.0129737
 Max gradient component =       3.021E-02
 RMS gradient           =       1.781E-02
 Computing fast CPCM-SWIG gradient
 Updating gradient with PCM contributions...
 -- total gradient after adding PCM contribution --
---------------------------------------------------
  Atom         X              Y              Z     
---------------------------------------------------
   1       0.000301       0.001057      -0.000279
   2      -0.000159      -0.000606       0.000350
   3      -0.000005      -0.000169       0.000032
   4      -0.000136      -0.000282      -0.000103
---------------------------------------------------
 Number of fixed atoms: 0
 Gradient time:  CPU 10.30 s  wall 1.34 s
 ----------------------------------------------------------------
             Standard Nuclear Orientation (Angstroms)
    I     Atom           X                Y                Z
 ----------------------------------------------------------------
    1      C      -0.7212776201    -0.6854206214     0.3942392435
    2      O      -0.9322206661    -1.6557444258     1.1615529529
    3      O      -1.2841758533    -0.4595739646    -0.7055055193
    4      H       0.0409065396     0.0501519118     0.7212864230
 ----------------------------------------------------------------
 Nuclear Repulsion Energy =          62.62126704 hartrees
 There are       12 alpha and       12 beta electrons
 Discretize the solute cavity surface with Lebedev spheres
	Using 110 Lebedev grid points for each H atom
	Using 194 Lebedev grid points for other atoms
	Atomic van der Waals radii will be scaled by 1.20
 Remove points where switching function is < 1.0e-08
 Keep 446 surface tesserae and discard 246 interior tesserae
 Molecular Surface Area = 59.329 Angst**2

                       Distance Matrix (Angstroms)
             C (  1)   O (  2)   O (  3)
   O (  2)  1.254909
   O (  3)  1.255906  2.245129
   H (  4)  1.108581  2.012683  2.012809
 
 Requested basis set is 6-311++G(2df,2p)
 There are 30 shells and 112 basis functions
 A cutoff of  1.0D-12 yielded    462 shell pairs
 There are      6520 function pairs (      8422 Cartesian)
 Smallest overlap matrix eigenvalue = 1.06E-03
 Guess MOs from SCF MO coefficient file

 -----------------------------------------------------------------------
  General SCF calculation program by
  Eric Jon Sundstrom, Paul Horn, Yuezhi Mao, Dmitri Zuev, Alec White,
  David Stuck, Shaama M.S., Shane Yost, Joonho Lee, David Small,
  Daniel Levine, Susi Lehtola, Hugh Burton, Evgeny Epifanovsky,
  Bang C. Huynh
 -----------------------------------------------------------------------
 Exchange:     0.1500 Hartree-Fock + 1.0000 wB97M-V + LR-HF
 Correlation:  1.0000 wB97M-V
 Using SG-2 standard quadrature grid
 Nonlocal Correlation:  VV10 with C = 0.0100 and b = 6.00 and scale = 1.00000
 Grid used for NLC:  SG-1 standard quadrature
 
 Citation of the SMD model:
 Marenich, A.V.; Cramer, C.J.; Truhlar, D.G.
 J. Phys. Chem. B 2009, 113, 6378-6396.
 iSolventCode=           1
 Solvent: water                                                           
 
 vradii
            1           2           3           4
    1   1.8500000   1.5200000   1.5200000   1.2000000
 -------------------------------------------------------
 OpenMP BLAS3 based DFT computing Module                
 Release: version 1.0, May 2013, Q-Chem Inc. Pittsburgh 
 -------------------------------------------------------
 A restricted SCF calculation will be
 performed using Roothaan-Hall, DIIS, GDM
 SCF converges when RMS gradient is below 1.0e-07
 ---------------------------------------
  Cycle       Energy         DIIS error
 ---------------------------------------
    1    -189.2123442821      1.16e-03  Roothaan Step
 ---------------------------------------
  Cycle       Energy         DIIS error
 ---------------------------------------
    1    -189.3315352927      1.46e-03  
    2    -189.3342876346      1.64e-03  Done DIIS. Switching to GDM
 ---------------------------------------
  Cycle       Energy        RMS Gradient
 ---------------------------------------
    1    -189.3342876346      2.04e-02   Normal BFGS step
    2    -189.3337781434      2.80e-02  Line search: overstep
    3    -189.3369004291      3.94e-03   Normal BFGS step
    4    -189.3370193399      1.83e-03   Normal BFGS step
    5    -189.3370362724      4.82e-04   Normal BFGS step
    6    -189.3370374806      1.12e-04   Normal BFGS step
    7    -189.3370375918      8.31e-05   Normal BFGS step
    8    -189.3370376134      3.59e-05   Normal BFGS step
    9    -189.3370376226      3.05e-06   Normal BFGS step
   10    -189.3370376227      7.57e-07   Normal BFGS step
   11    -189.3370376227      1.32e-07   Normal BFGS step
   12    -189.3370376227      3.30e-08  Convergence criterion met
 ---------------------------------------
 SCF time:   CPU 54.32s  wall 7.00s 
(3)  G-ENP(liq) elect-nuc-pol free energy of system     -189.337037623 a.u.
(4)  G-CDS(liq) cavity-dispersion-solvent structure 
     free energy                                                4.1409 kcal/mol
(6)  G-S(liq) free energy of system                     -189.330438713 a.u.
 SCF   energy in the final basis set =     -189.3304387131
 Total energy in the final basis set =     -189.3304387131
 
 --------------------------------------------------------------
 
                    Orbital Energies (a.u.)
 --------------------------------------------------------------
 
 Alpha MOs
 -- Occupied --
-19.2839 -19.2838 -10.4308  -1.1623  -1.0745  -0.6671  -0.5650  -0.5292
 -0.5111  -0.3703  -0.3621  -0.3568
 -- Virtual --
  0.0450   0.0779   0.0865   0.0889   0.1363   0.1490   0.2206   0.2284
  0.2528   0.2563   0.2984   0.3121   0.3180   0.3508   0.3565   0.5026
  0.5068   0.6115   0.6200   0.6823   0.7589   0.7671   0.8128   0.9469
  1.0123   1.0756   1.0787   1.1054   1.1327   1.1504   1.1822   1.1919
  1.2114   1.4210   1.4407   1.5119   1.6382   1.6403   1.6418   1.7784
  1.7981   1.9066   2.1171   2.1347   2.2620   2.4381   2.5224   2.5264
  2.7871   2.8419   3.0035   3.1156   3.1311   3.1922   3.2624   3.3264
  3.4909   3.5027   3.5408   3.6099   3.6220   3.7645   4.0043   4.0475
  4.1693   4.4360   5.0370   5.1747   5.1810   5.1870   5.1963   5.2206
  5.2513   5.2519   5.3020   5.3664   5.4558   5.5191   5.5897   5.6487
  5.8545   6.0358   6.2480   6.4147   6.8265   6.9230   6.9419   7.0092
  7.0358   7.0763   7.3067   7.3424   7.3639   7.5060   7.6842   7.7102
  7.7890  25.1729  50.6470  50.6919
 --------------------------------------------------------------
 
          Ground-State Mulliken Net Atomic Charges

     Atom                 Charge (a.u.)
  ----------------------------------------
      1 C                     0.200811
      2 O                    -0.665136
      3 O                    -0.667021
      4 H                     0.131345
  ----------------------------------------
  Sum of atomic charges =    -1.000000

 -----------------------------------------------------------------
                    Cartesian Multipole Moments
 -----------------------------------------------------------------
    Charge (ESU x 10^10)
                -4.8032
    Dipole Moment (Debye)
         X       6.5382      Y       6.2442      Z      -0.5663
       Tot       9.0586
    Quadrupole Moments (Debye-Ang)
        XX     -27.5617     XY      -7.1014     YY     -29.6499
        XZ      -0.4328     YZ       5.7848     ZZ     -26.4219
    Octopole Moments (Debye-Ang^2)
       XXX      66.5806    XXY      26.2455    XYY      29.7046
       YYY      71.0394    XXZ      -3.7224    XYZ      -4.5404
       YYZ     -16.9940    XZZ      25.6304    YZZ      27.5742
       ZZZ     -22.0254
    Hexadecapole Moments (Debye-Ang^3)
      XXXX    -154.1705   XXXY     -62.2943   XXYY     -61.9420
      XYYY     -70.0598   YYYY    -187.0124   XXXZ       3.6394
      XXYZ      15.8184   XYYZ      12.3246   YYYZ      56.5197
      XXZZ     -47.7415   XYZZ     -26.1395   YYZZ     -58.4948
      XZZZ      11.3484   YZZZ      47.0163   ZZZZ    -113.5745
 -----------------------------------------------------------------
 Calculating analytic gradient of the SCF energy
 Gradient of CDS energy
            1           2           3           4
    1  -0.0012420   0.0003033   0.0009598  -0.0000211
    2  -0.0011804   0.0017000  -0.0004993  -0.0000204
    3  -0.0005497  -0.0014440   0.0020028  -0.0000091
 Gradient of SCF Energy
            1           2           3           4
    1   0.0105543   0.0058500   0.0133810  -0.0297853
    2   0.0094325   0.0232157  -0.0039201  -0.0287280
    3   0.0049133  -0.0170051   0.0248694  -0.0127777
 Max gradient component =       2.979E-02
 RMS gradient           =       1.774E-02
 Computing fast CPCM-SWIG gradient
 Updating gradient with PCM contributions...
 -- total gradient after adding PCM contribution --
---------------------------------------------------
  Atom         X              Y              Z     
---------------------------------------------------
   1      -0.000316      -0.001072       0.000275
   2       0.000126       0.000639      -0.000315
   3       0.000008       0.000174      -0.000033
   4       0.000182       0.000259       0.000073
---------------------------------------------------
 Number of fixed atoms: 0
 Gradient time:  CPU 10.39 s  wall 1.38 s
 ----------------------------------------------------------------
             Standard Nuclear Orientation (Angstroms)
    I     Atom           X                Y                Z
 ----------------------------------------------------------------
    1      C      -0.7212776201    -0.6844206214     0.3952392435
    2      O      -0.9322206661    -1.6557444258     1.1615529529
    3      O      -1.2841758533    -0.4595739646    -0.7055055193
    4      H       0.0409065396     0.0501519118     0.7212864230
 ----------------------------------------------------------------
 Nuclear Repulsion Energy =          62.60991370 hartrees
 There are       12 alpha and       12 beta electrons
 Discretize the solute cavity surface with Lebedev spheres
	Using 110 Lebedev grid points for each H atom
	Using 194 Lebedev grid points for other atoms
	Atomic van der Waals radii will be scaled by 1.20
 Remove points where switching function is < 1.0e-08
 Keep 447 surface tesserae and discard 245 interior tesserae
 Molecular Surface Area = 59.332 Angst**2

                       Distance Matrix (Angstroms)
             C (  1)   O (  2)   O (  3)
   O (  2)  1.255071
   O (  3)  1.256602  2.245129
   H (  4)  1.107623  2.012683  2.012809
 
 Requested basis set is 6-311++G(2df,2p)
 There are 30 shells and 112 basis functions
 A cutoff of  1.0D-12 yielded    462 shell pairs
 There are      6520 function pairs (      8422 Cartesian)
 Smallest overlap matrix eigenvalue = 1.06E-03
 Guess MOs from SCF MO coefficient file

 -----------------------------------------------------------------------
  General SCF calculation program by
  Eric Jon Sundstrom, Paul Horn, Yuezhi Mao, Dmitri Zuev, Alec White,
  David Stuck, Shaama M.S., Shane Yost, Joonho Lee, David Small,
  Daniel Levine, Susi Lehtola, Hugh Burton, Evgeny Epifanovsky,
  Bang C. Huynh
 -----------------------------------------------------------------------
 Exchange:     0.1500 Hartree-Fock + 1.0000 wB97M-V + LR-HF
 Correlation:  1.0000 wB97M-V
 Using SG-2 standard quadrature grid
 Nonlocal Correlation:  VV10 with C = 0.0100 and b = 6.00 and scale = 1.00000
 Grid used for NLC:  SG-1 standard quadrature
 
 Citation of the SMD model:
 Marenich, A.V.; Cramer, C.J.; Truhlar, D.G.
 J. Phys. Chem. B 2009, 113, 6378-6396.
 iSolventCode=           1
 Solvent: water                                                           
 
 vradii
            1           2           3           4
    1   1.8500000   1.5200000   1.5200000   1.2000000
 -------------------------------------------------------
 OpenMP BLAS3 based DFT computing Module                
 Release: version 1.0, May 2013, Q-Chem Inc. Pittsburgh 
 -------------------------------------------------------
 A restricted SCF calculation will be
 performed using Roothaan-Hall, DIIS, GDM
 SCF converges when RMS gradient is below 1.0e-07
 ---------------------------------------
  Cycle       Energy         DIIS error
 ---------------------------------------
    1    -189.2123778643      1.15e-03  Roothaan Step
 ---------------------------------------
  Cycle       Energy         DIIS error
 ---------------------------------------
    1    -189.3314814484      1.47e-03  
    2    -189.3342415992      1.65e-03  Done DIIS. Switching to GDM
 ---------------------------------------
  Cycle       Energy        RMS Gradient
 ---------------------------------------
    1    -189.3342415992      2.06e-02   Normal BFGS step
    2    -189.3337198635      2.82e-02  Line search: overstep
    3    -189.3368951397      3.98e-03   Normal BFGS step
    4    -189.3370157168      1.84e-03   Normal BFGS step
    5    -189.3370329059      4.86e-04   Normal BFGS step
    6    -189.3370341213      1.13e-04   Normal BFGS step
    7    -189.3370342334      8.00e-05   Normal BFGS step
    8    -189.3370342528      3.59e-05   Normal BFGS step
    9    -189.3370342624      3.04e-06   Normal BFGS step
   10    -189.3370342625      7.40e-07   Normal BFGS step
   11    -189.3370342625      1.21e-07   Normal BFGS step
   12    -189.3370342625      2.99e-08  Convergence criterion met
 ---------------------------------------
 SCF time:   CPU 54.30s  wall 7.00s 
(3)  G-ENP(liq) elect-nuc-pol free energy of system     -189.337034262 a.u.
(4)  G-CDS(liq) cavity-dispersion-solvent structure 
     free energy                                                4.1388 kcal/mol
(6)  G-S(liq) free energy of system                     -189.330438634 a.u.
 SCF   energy in the final basis set =     -189.3304386341
 Total energy in the final basis set =     -189.3304386341
 
 --------------------------------------------------------------
 
                    Orbital Energies (a.u.)
 --------------------------------------------------------------
 
 Alpha MOs
 -- Occupied --
-19.2840 -19.2837 -10.4308  -1.1621  -1.0743  -0.6674  -0.5650  -0.5291
 -0.5109  -0.3702  -0.3620  -0.3570
 -- Virtual --
  0.0450   0.0779   0.0865   0.0889   0.1361   0.1490   0.2206   0.2285
  0.2528   0.2564   0.2983   0.3121   0.3180   0.3509   0.3565   0.5024
  0.5063   0.6119   0.6200   0.6823   0.7591   0.7667   0.8127   0.9466
  1.0126   1.0759   1.0785   1.1055   1.1330   1.1505   1.1819   1.1921
  1.2114   1.4209   1.4401   1.5123   1.6379   1.6405   1.6419   1.7782
  1.7986   1.9063   2.1170   2.1341   2.2616   2.4374   2.5217   2.5260
  2.7872   2.8418   3.0036   3.1154   3.1314   3.1923   3.2627   3.3264
  3.4908   3.5025   3.5404   3.6099   3.6211   3.7663   4.0039   4.0472
  4.1706   4.4367   5.0382   5.1747   5.1811   5.1870   5.1964   5.2205
  5.2512   5.2519   5.3019   5.3654   5.4561   5.5182   5.5900   5.6481
  5.8549   6.0352   6.2467   6.4119   6.8248   6.9230   6.9419   7.0091
  7.0357   7.0760   7.3056   7.3426   7.3635   7.5041   7.6842   7.7104
  7.7886  25.1722  50.6462  50.6915
 --------------------------------------------------------------
 
          Ground-State Mulliken Net Atomic Charges

     Atom                 Charge (a.u.)
  ----------------------------------------
      1 C                     0.200946
      2 O                    -0.665164
      3 O                    -0.667880
      4 H                     0.132098
  ----------------------------------------
  Sum of atomic charges =    -1.000000

 -----------------------------------------------------------------
                    Cartesian Multipole Moments
 -----------------------------------------------------------------
    Charge (ESU x 10^10)
                -4.8032
    Dipole Moment (Debye)
         X       6.5430      Y       6.2469      Z      -0.5594
       Tot       9.0636
    Quadrupole Moments (Debye-Ang)
        XX     -27.5665     XY      -7.1029     YY     -29.6521
        XZ      -0.4371     YZ       5.7832     ZZ     -26.4217
    Octopole Moments (Debye-Ang^2)
       XXX      66.5975    XXY      26.2412    XYY      29.7079
       YYY      71.0223    XXZ      -3.7186    XYZ      -4.5385
       YYZ     -16.9918    XZZ      25.6335    YZZ      27.5706
       ZZZ     -22.0330
    Hexadecapole Moments (Debye-Ang^3)
      XXXX    -154.2024   XXXY     -62.2826   XXYY     -61.9361
      XYYY     -70.0426   YYYY    -186.9460   XXXZ       3.6377
      XXYZ      15.8170   XYYZ      12.3208   YYYZ      56.5128
      XXZZ     -47.7476   XYZZ     -26.1348   YYZZ     -58.4933
      XZZZ      11.3565   YZZZ      47.0281   ZZZZ    -113.6114
 -----------------------------------------------------------------
 Calculating analytic gradient of the SCF energy
 Gradient of CDS energy
            1           2           3           4
    1  -0.0012456   0.0003024   0.0009662  -0.0000230
    2  -0.0011793   0.0017041  -0.0005026  -0.0000222
    3  -0.0005634  -0.0014465   0.0020197  -0.0000098
 Gradient of SCF Energy
            1           2           3           4
    1   0.0112365   0.0057875   0.0130677  -0.0300918
    2   0.0099817   0.0229776  -0.0039150  -0.0290444
    3   0.0056511  -0.0169752   0.0242474  -0.0129234
 Max gradient component =       3.009E-02
 RMS gradient           =       1.779E-02
 Computing fast CPCM-SWIG gradient
 Updating gradient with PCM contributions...
 -- total gradient after adding PCM contribution --
---------------------------------------------------
  Atom         X              Y              Z     
---------------------------------------------------
   1       0.000296      -0.000284       0.001166
   2       0.000042       0.000301      -0.000345
   3      -0.000298       0.000082      -0.000675
   4      -0.000040      -0.000099      -0.000146
---------------------------------------------------
 Number of fixed atoms: 0
 Gradient time:  CPU 10.64 s  wall 1.41 s
 ----------------------------------------------------------------
             Standard Nuclear Orientation (Angstroms)
    I     Atom           X                Y                Z
 ----------------------------------------------------------------
    1      C      -0.7212776201    -0.6844206214     0.3932392435
    2      O      -0.9322206661    -1.6557444258     1.1615529529
    3      O      -1.2841758533    -0.4595739646    -0.7055055193
    4      H       0.0409065396     0.0501519118     0.7212864230
 ----------------------------------------------------------------
 Nuclear Repulsion Energy =          62.61691333 hartrees
 There are       12 alpha and       12 beta electrons
 Discretize the solute cavity surface with Lebedev spheres
	Using 110 Lebedev grid points for each H atom
	Using 194 Lebedev grid points for other atoms
	Atomic van der Waals radii will be scaled by 1.20
 Remove points where switching function is < 1.0e-08
 Keep 446 surface tesserae and discard 246 interior tesserae
 Molecular Surface Area = 59.330 Angst**2

                       Distance Matrix (Angstroms)
             C (  1)   O (  2)   O (  3)
   O (  2)  1.256293
   O (  3)  1.254851  2.245129
   H (  4)  1.108213  2.012683  2.012809
 
 Requested basis set is 6-311++G(2df,2p)
 There are 30 shells and 112 basis functions
 A cutoff of  1.0D-12 yielded    462 shell pairs
 There are      6520 function pairs (      8422 Cartesian)
 Smallest overlap matrix eigenvalue = 1.06E-03
 Guess MOs from SCF MO coefficient file

 -----------------------------------------------------------------------
  General SCF calculation program by
  Eric Jon Sundstrom, Paul Horn, Yuezhi Mao, Dmitri Zuev, Alec White,
  David Stuck, Shaama M.S., Shane Yost, Joonho Lee, David Small,
  Daniel Levine, Susi Lehtola, Hugh Burton, Evgeny Epifanovsky,
  Bang C. Huynh
 -----------------------------------------------------------------------
 Exchange:     0.1500 Hartree-Fock + 1.0000 wB97M-V + LR-HF
 Correlation:  1.0000 wB97M-V
 Using SG-2 standard quadrature grid
 Nonlocal Correlation:  VV10 with C = 0.0100 and b = 6.00 and scale = 1.00000
 Grid used for NLC:  SG-1 standard quadrature
 
 Citation of the SMD model:
 Marenich, A.V.; Cramer, C.J.; Truhlar, D.G.
 J. Phys. Chem. B 2009, 113, 6378-6396.
 iSolventCode=           1
 Solvent: water                                                           
 
 vradii
            1           2           3           4
    1   1.8500000   1.5200000   1.5200000   1.2000000
 -------------------------------------------------------
 OpenMP BLAS3 based DFT computing Module                
 Release: version 1.0, May 2013, Q-Chem Inc. Pittsburgh 
 -------------------------------------------------------
 A restricted SCF calculation will be
 performed using Roothaan-Hall, DIIS, GDM
 SCF converges when RMS gradient is below 1.0e-07
 ---------------------------------------
  Cycle       Energy         DIIS error
 ---------------------------------------
    1    -189.2123489073      1.16e-03  Roothaan Step
 ---------------------------------------
  Cycle       Energy         DIIS error
 ---------------------------------------
    1    -189.3315163323      1.47e-03  
    2    -189.3342714922      1.64e-03  Done DIIS. Switching to GDM
 ---------------------------------------
  Cycle       Energy        RMS Gradient
 ---------------------------------------
    1    -189.3342714922      2.05e-02   Normal BFGS step
    2    -189.3337574513      2.80e-02  Line search: overstep
    3    -189.3368984098      3.95e-03   Normal BFGS step
    4    -189.3370178848      1.83e-03   Normal BFGS step
    5    -189.3370348800      4.82e-04   Normal BFGS step
    6    -189.3370360928      1.33e-04   Normal BFGS step
    7    -189.3370362155      1.01e-04   Normal BFGS step
    8    -189.3370362536      3.75e-05   Normal BFGS step
    9    -189.3370362618      3.23e-06   Normal BFGS step
   10    -189.3370362619      8.49e-07   Normal BFGS step
   11    -189.3370362619      1.82e-07   Normal BFGS step
   12    -189.3370362619      3.34e-08  Convergence criterion met
 ---------------------------------------
 SCF time:   CPU 54.12s  wall 7.00s 
(3)  G-ENP(liq) elect-nuc-pol free energy of system     -189.337036262 a.u.
(4)  G-CDS(liq) cavity-dispersion-solvent structure 
     free energy                                                4.1401 kcal/mol
(6)  G-S(liq) free energy of system                     -189.330438617 a.u.
 SCF   energy in the final basis set =     -189.3304386173
 Total energy in the final basis set =     -189.3304386173
 
 --------------------------------------------------------------
 
                    Orbital Energies (a.u.)
 --------------------------------------------------------------
 
 Alpha MOs
 -- Occupied --
-19.2840 -19.2837 -10.4308  -1.1622  -1.0744  -0.6672  -0.5650  -0.5291
 -0.5110  -0.3702  -0.3621  -0.3569
 -- Virtual --
  0.0450   0.0779   0.0865   0.0889   0.1362   0.1490   0.2206   0.2285
  0.2528   0.2563   0.2984   0.3121   0.3180   0.3508   0.3565   0.5025
  0.5066   0.6117   0.6200   0.6823   0.7590   0.7670   0.8128   0.9467
  1.0124   1.0757   1.0786   1.1055   1.1328   1.1504   1.1821   1.1920
  1.2114   1.4210   1.4405   1.5120   1.6381   1.6404   1.6418   1.7783
  1.7983   1.9065   2.1170   2.1344   2.2618   2.4378   2.5221   2.5263
  2.7871   2.8418   3.0035   3.1155   3.1312   3.1922   3.2625   3.3264
  3.4909   3.5026   3.5407   3.6099   3.6217   3.7652   4.0041   4.0474
  4.1698   4.4363   5.0375   5.1747   5.1811   5.1870   5.1963   5.2205
  5.2513   5.2519   5.3020   5.3660   5.4559   5.5188   5.5898   5.6485
  5.8546   6.0355   6.2475   6.4136   6.8259   6.9230   6.9419   7.0091
  7.0358   7.0762   7.3063   7.3425   7.3638   7.5052   7.6842   7.7103
  7.7889  25.1726  50.6467  50.6917
 --------------------------------------------------------------
 
          Ground-State Mulliken Net Atomic Charges

     Atom                 Charge (a.u.)
  ----------------------------------------
      1 C                     0.200865
      2 O                    -0.667208
      3 O                    -0.665291
      4 H                     0.131634
  ----------------------------------------
  Sum of atomic charges =    -1.000000

 -----------------------------------------------------------------
                    Cartesian Multipole Moments
 -----------------------------------------------------------------
    Charge (ESU x 10^10)
                -4.8032
    Dipole Moment (Debye)
         X       6.5364      Y       6.2584      Z      -0.5847
       Tot       9.0683
    Quadrupole Moments (Debye-Ang)
        XX     -27.5558     XY      -7.1123     YY     -29.6775
        XZ      -0.4128     YZ       5.8089     ZZ     -26.4322
    Octopole Moments (Debye-Ang^2)
       XXX      66.5643    XXY      26.2594    XYY      29.7248
       YYY      71.0988    XXZ      -3.7531    XYZ      -4.5630
       YYZ     -17.0337    XZZ      25.6397    YZZ      27.5959
       ZZZ     -22.0677
    Hexadecapole Moments (Debye-Ang^3)
      XXXX    -154.1208   XXXY     -62.3136   XXYY     -61.9707
      XYYY     -70.1073   YYYY    -187.1580   XXXZ       3.6998
      XXYZ      15.8556   XYYZ      12.3627   YYYZ      56.5963
      XXZZ     -47.7516   XYZZ     -26.1568   YYZZ     -58.5330
      XZZZ      11.3967   YZZZ      47.0758   ZZZZ    -113.6159
 -----------------------------------------------------------------
 Calculating analytic gradient of the SCF energy
 Gradient of CDS energy
            1           2           3           4
    1  -0.0012346   0.0003083   0.0009481  -0.0000218
    2  -0.0012119   0.0017269  -0.0004939  -0.0000210
    3  -0.0005037  -0.0014665   0.0019795  -0.0000094
 Gradient of SCF Energy
            1           2           3           4
    1   0.0105153   0.0056288   0.0137616  -0.0299057
    2   0.0107570   0.0222313  -0.0041403  -0.0288481
    3   0.0033929  -0.0162449   0.0256795  -0.0128275
 Max gradient component =       2.991E-02
 RMS gradient           =       1.776E-02
 Computing fast CPCM-SWIG gradient
 Updating gradient with PCM contributions...
 -- total gradient after adding PCM contribution --
---------------------------------------------------
  Atom         X              Y              Z     
---------------------------------------------------
   1      -0.000315       0.000270      -0.001177
   2      -0.000076      -0.000269       0.000381
   3       0.000304      -0.000078       0.000679
   4       0.000087       0.000077       0.000117
---------------------------------------------------
 Number of fixed atoms: 0
 Gradient time:  CPU 10.54 s  wall 1.37 s
 ----------------------------------------------------------------
             Standard Nuclear Orientation (Angstroms)
    I     Atom           X                Y                Z
 ----------------------------------------------------------------
    1      C      -0.7212776201    -0.6844206214     0.3942392435
    2      O      -0.9312206661    -1.6557444258     1.1615529529
    3      O      -1.2841758533    -0.4595739646    -0.7055055193
    4      H       0.0409065396     0.0501519118     0.7212864230
 ----------------------------------------------------------------
 Nuclear Repulsion Energy =          62.61555618 hartrees
 There are       12 alpha and       12 beta electrons
 Discretize the solute cavity surface with Lebedev spheres
	Using 110 Lebedev grid points for each H atom
	Using 194 Lebedev grid points for other atoms
	Atomic van der Waals radii will be scaled by 1.20
 Remove points where switching function is < 1.0e-08
 Keep 446 surface tesserae and discard 246 interior tesserae
 Molecular Surface Area = 59.330 Angst**2

                       Distance Matrix (Angstroms)
             C (  1)   O (  2)   O (  3)
   O (  2)  1.255514
   O (  3)  1.255726  2.245286
   H (  4)  1.107918  2.012200  2.012809
 
 Requested basis set is 6-311++G(2df,2p)
 There are 30 shells and 112 basis functions
 A cutoff of  1.0D-12 yielded    462 shell pairs
 There are      6520 function pairs (      8422 Cartesian)
 Smallest overlap matrix eigenvalue = 1.06E-03
 Guess MOs from SCF MO coefficient file

 -----------------------------------------------------------------------
  General SCF calculation program by
  Eric Jon Sundstrom, Paul Horn, Yuezhi Mao, Dmitri Zuev, Alec White,
  David Stuck, Shaama M.S., Shane Yost, Joonho Lee, David Small,
  Daniel Levine, Susi Lehtola, Hugh Burton, Evgeny Epifanovsky,
  Bang C. Huynh
 -----------------------------------------------------------------------
 Exchange:     0.1500 Hartree-Fock + 1.0000 wB97M-V + LR-HF
 Correlation:  1.0000 wB97M-V
 Using SG-2 standard quadrature grid
 Nonlocal Correlation:  VV10 with C = 0.0100 and b = 6.00 and scale = 1.00000
 Grid used for NLC:  SG-1 standard quadrature
 
 Citation of the SMD model:
 Marenich, A.V.; Cramer, C.J.; Truhlar, D.G.
 J. Phys. Chem. B 2009, 113, 6378-6396.
 iSolventCode=           1
 Solvent: water                                                           
 
 vradii
            1           2           3           4
    1   1.8500000   1.5200000   1.5200000   1.2000000
 -------------------------------------------------------
 OpenMP BLAS3 based DFT computing Module                
 Release: version 1.0, May 2013, Q-Chem Inc. Pittsburgh 
 -------------------------------------------------------
 A restricted SCF calculation will be
 performed using Roothaan-Hall, DIIS, GDM
 SCF converges when RMS gradient is below 1.0e-07
 ---------------------------------------
  Cycle       Energy         DIIS error
 ---------------------------------------
    1    -189.2123825845      1.15e-03  Roothaan Step
 ---------------------------------------
  Cycle       Energy         DIIS error
 ---------------------------------------
    1    -189.3315074628      1.47e-03  
    2    -189.3342631513      1.64e-03  Done DIIS. Switching to GDM
 ---------------------------------------
  Cycle       Energy        RMS Gradient
 ---------------------------------------
    1    -189.3342631513      2.05e-02   Normal BFGS step
    2    -189.3337472320      2.81e-02  Line search: overstep
    3    -189.3368985725      3.96e-03   Normal BFGS step
    4    -189.3370184490      1.84e-03   Normal BFGS step
    5    -189.3370355547      4.85e-04   Normal BFGS step
    6    -189.3370367644      1.15e-04   Normal BFGS step
    7    -189.3370368704      4.75e-05   Normal BFGS step
    8    -189.3370368739      3.96e-05   Normal BFGS step
    9    -189.3370368825      2.58e-06   Normal BFGS step
   10    -189.3370368826      6.08e-07   Normal BFGS step
   11    -189.3370368826      1.03e-07   Normal BFGS step
   12    -189.3370368826      3.10e-08  Convergence criterion met
 ---------------------------------------
 SCF time:   CPU 54.24s  wall 7.00s 
(3)  G-ENP(liq) elect-nuc-pol free energy of system     -189.337036883 a.u.
(4)  G-CDS(liq) cavity-dispersion-solvent structure 
     free energy                                                4.1398 kcal/mol
(6)  G-S(liq) free energy of system                     -189.330439643 a.u.
 SCF   energy in the final basis set =     -189.3304396425
 Total energy in the final basis set =     -189.3304396425
 
 --------------------------------------------------------------
 
                    Orbital Energies (a.u.)
 --------------------------------------------------------------
 
 Alpha MOs
 -- Occupied --
-19.2839 -19.2838 -10.4308  -1.1622  -1.0744  -0.6673  -0.5650  -0.5291
 -0.5110  -0.3702  -0.3621  -0.3569
 -- Virtual --
  0.0450   0.0779   0.0865   0.0889   0.1362   0.1490   0.2206   0.2285
  0.2528   0.2564   0.2984   0.3121   0.3180   0.3508   0.3565   0.5025
  0.5066   0.6118   0.6200   0.6823   0.7590   0.7670   0.8128   0.9467
  1.0124   1.0758   1.0787   1.1054   1.1329   1.1504   1.1822   1.1920
  1.2114   1.4210   1.4405   1.5122   1.6381   1.6404   1.6418   1.7783
  1.7982   1.9064   2.1170   2.1345   2.2620   2.4377   2.5222   2.5261
  2.7871   2.8418   3.0035   3.1155   3.1313   3.1923   3.2625   3.3264
  3.4907   3.5025   3.5407   3.6099   3.6216   3.7658   4.0041   4.0474
  4.1702   4.4366   5.0379   5.1747   5.1811   5.1870   5.1963   5.2205
  5.2513   5.2519   5.3020   5.3660   5.4560   5.5188   5.5897   5.6484
  5.8548   6.0354   6.2473   6.4136   6.8259   6.9230   6.9419   7.0091
  7.0358   7.0760   7.3063   7.3424   7.3638   7.5055   7.6841   7.7103
  7.7888  25.1727  50.6466  50.6917
 --------------------------------------------------------------
 
          Ground-State Mulliken Net Atomic Charges

     Atom                 Charge (a.u.)
  ----------------------------------------
      1 C                     0.200850
      2 O                    -0.665947
      3 O                    -0.666617
      4 H                     0.131714
  ----------------------------------------
  Sum of atomic charges =    -1.000000

 -----------------------------------------------------------------
                    Cartesian Multipole Moments
 -----------------------------------------------------------------
    Charge (ESU x 10^10)
                -4.8032
    Dipole Moment (Debye)
         X       6.5358      Y       6.2513      Z      -0.5713
       Tot       9.0621
    Quadrupole Moments (Debye-Ang)
        XX     -27.5542     XY      -7.1009     YY     -29.6633
        XZ      -0.4304     YZ       5.7938     ZZ     -26.4249
    Octopole Moments (Debye-Ang^2)
       XXX      66.5502    XXY      26.2373    XYY      29.6992
       YYY      71.0565    XXZ      -3.7260    XYZ      -4.5424
       YYZ     -17.0094    XZZ      25.6232    YZZ      27.5795
       ZZZ     -22.0455
    Hexadecapole Moments (Debye-Ang^3)
      XXXX    -154.0727   XXXY     -62.2449   XXYY     -61.9206
      XYYY     -70.0252   YYYY    -187.0446   XXXZ       3.6299
      XXYZ      15.8211   XYYZ      12.3211   YYYZ      56.5465
      XXZZ     -47.7262   XYZZ     -26.1250   YYZZ     -58.5068
      XZZZ      11.3424   YZZZ      47.0421   ZZZZ    -113.6002
 -----------------------------------------------------------------
 Calculating analytic gradient of the SCF energy
 Gradient of CDS energy
            1           2           3           4
    1  -0.0012388   0.0003036   0.0009577  -0.0000224
    2  -0.0011935   0.0017126  -0.0004974  -0.0000216
    3  -0.0005363  -0.0014533   0.0019992  -0.0000096
 Gradient of SCF Energy
            1           2           3           4
    1   0.0107620   0.0057809   0.0134564  -0.0299994
    2   0.0102220   0.0227567  -0.0040004  -0.0289783
    3   0.0045981  -0.0166812   0.0249522  -0.0128692
 Max gradient component =       3.000E-02
 RMS gradient           =       1.779E-02
 Computing fast CPCM-SWIG gradient
 Updating gradient with PCM contributions...
 -- total gradient after adding PCM contribution --
---------------------------------------------------
  Atom         X              Y              Z     
---------------------------------------------------
   1      -0.000207      -0.000149       0.000055
   2       0.000112       0.000177      -0.000033
   3       0.000061       0.000044      -0.000024
   4       0.000035      -0.000072       0.000003
---------------------------------------------------
 Number of fixed atoms: 0
 Gradient time:  CPU 10.60 s  wall 1.49 s
 ----------------------------------------------------------------
             Standard Nuclear Orientation (Angstroms)
    I     Atom           X                Y                Z
 ----------------------------------------------------------------
    1      C      -0.7212776201    -0.6844206214     0.3942392435
    2      O      -0.9332206661    -1.6557444258     1.1615529529
    3      O      -1.2841758533    -0.4595739646    -0.7055055193
    4      H       0.0409065396     0.0501519118     0.7212864230
 ----------------------------------------------------------------
 Nuclear Repulsion Energy =          62.61123968 hartrees
 There are       12 alpha and       12 beta electrons
 Discretize the solute cavity surface with Lebedev spheres
	Using 110 Lebedev grid points for each H atom
	Using 194 Lebedev grid points for other atoms
	Atomic van der Waals radii will be scaled by 1.20
 Remove points where switching function is < 1.0e-08
 Keep 446 surface tesserae and discard 246 interior tesserae
 Molecular Surface Area = 59.332 Angst**2

                       Distance Matrix (Angstroms)
             C (  1)   O (  2)   O (  3)
   O (  2)  1.255850
   O (  3)  1.255726  2.244972
   H (  4)  1.107918  2.013167  2.012809
 
 Requested basis set is 6-311++G(2df,2p)
 There are 30 shells and 112 basis functions
 A cutoff of  1.0D-12 yielded    462 shell pairs
 There are      6520 function pairs (      8422 Cartesian)
 Smallest overlap matrix eigenvalue = 1.06E-03
 Guess MOs from SCF MO coefficient file

 -----------------------------------------------------------------------
  General SCF calculation program by
  Eric Jon Sundstrom, Paul Horn, Yuezhi Mao, Dmitri Zuev, Alec White,
  David Stuck, Shaama M.S., Shane Yost, Joonho Lee, David Small,
  Daniel Levine, Susi Lehtola, Hugh Burton, Evgeny Epifanovsky,
  Bang C. Huynh
 -----------------------------------------------------------------------
 Exchange:     0.1500 Hartree-Fock + 1.0000 wB97M-V + LR-HF
 Correlation:  1.0000 wB97M-V
 Using SG-2 standard quadrature grid
 Nonlocal Correlation:  VV10 with C = 0.0100 and b = 6.00 and scale = 1.00000
 Grid used for NLC:  SG-1 standard quadrature
 
 Citation of the SMD model:
 Marenich, A.V.; Cramer, C.J.; Truhlar, D.G.
 J. Phys. Chem. B 2009, 113, 6378-6396.
 iSolventCode=           1
 Solvent: water                                                           
 
 vradii
            1           2           3           4
    1   1.8500000   1.5200000   1.5200000   1.2000000
 -------------------------------------------------------
 OpenMP BLAS3 based DFT computing Module                
 Release: version 1.0, May 2013, Q-Chem Inc. Pittsburgh 
 -------------------------------------------------------
 A restricted SCF calculation will be
 performed using Roothaan-Hall, DIIS, GDM
 SCF converges when RMS gradient is below 1.0e-07
 ---------------------------------------
  Cycle       Energy         DIIS error
 ---------------------------------------
    1    -189.2123551955      1.15e-03  Roothaan Step
 ---------------------------------------
  Cycle       Energy         DIIS error
 ---------------------------------------
[...]
 Exchange:     0.1500 Hartree-Fock + 1.0000 wB97M-V + LR-HF
 Correlation:  1.0000 wB97M-V
 Using SG-2 standard quadrature grid
 Nonlocal Correlation:  VV10 with C = 0.0100 and b = 6.00 and scale = 1.00000
 Grid used for NLC:  SG-1 standard quadrature
 
 Citation of the SMD model:
 Marenich, A.V.; Cramer, C.J.; Truhlar, D.G.
 J. Phys. Chem. B 2009, 113, 6378-6396.
 iSolventCode=           1
 Solvent: water                                                           
 
 vradii
            1           2           3           4
    1   1.8500000   1.5200000   1.5200000   1.2000000
 -------------------------------------------------------
 OpenMP BLAS3 based DFT computing Module                
 Release: version 1.0, May 2013, Q-Chem Inc. Pittsburgh 
 -------------------------------------------------------
 A restricted SCF calculation will be
 performed using Roothaan-Hall, DIIS, GDM
 SCF converges when RMS gradient is below 1.0e-07
 ---------------------------------------
  Cycle       Energy         DIIS error
 ---------------------------------------
    1    -189.2123649348      1.15e-03  Roothaan Step
 ---------------------------------------
  Cycle       Energy         DIIS error
 ---------------------------------------
    1    -189.3314982505      1.47e-03  
    2    -189.3342559005      1.65e-03  Done DIIS. Switching to GDM
 ---------------------------------------
  Cycle       Energy        RMS Gradient
 ---------------------------------------
    1    -189.3342559005      2.05e-02   Normal BFGS step
    2    -189.3337376042      2.81e-02  Line search: overstep
    3    -189.3368977434      3.96e-03   Normal BFGS step
    4    -189.3370178025      1.84e-03   Normal BFGS step
    5    -189.3370349294      4.85e-04   Normal BFGS step
    6    -189.3370361327      1.16e-04   Normal BFGS step
    7    -189.3370362383      2.77e-05   Normal BFGS step
    8    -189.3370362406      3.13e-05   Normal BFGS step
    9    -189.3370362447      2.04e-06   Normal BFGS step
   10    -189.3370362447      4.94e-07   Normal BFGS step
   11    -189.3370362447      1.28e-07   Normal BFGS step
   12    -189.3370362447      2.05e-08  Convergence criterion met
 ---------------------------------------
 SCF time:   CPU 54.57s  wall 8.00s 
(3)  G-ENP(liq) elect-nuc-pol free energy of system     -189.337036245 a.u.
(4)  G-CDS(liq) cavity-dispersion-solvent structure 
     free energy                                                4.1395 kcal/mol
(6)  G-S(liq) free energy of system                     -189.330439562 a.u.
 SCF   energy in the final basis set =     -189.3304395617
 Total energy in the final basis set =     -189.3304395617
 
 --------------------------------------------------------------
 
                    Orbital Energies (a.u.)
 --------------------------------------------------------------
 
 Alpha MOs
 -- Occupied --
-19.2839 -19.2838 -10.4307  -1.1622  -1.0744  -0.6674  -0.5650  -0.5291
 -0.5110  -0.3702  -0.3620  -0.3569
 -- Virtual --
  0.0450   0.0779   0.0865   0.0889   0.1361   0.1490   0.2206   0.2285
  0.2528   0.2564   0.2983   0.3121   0.3180   0.3509   0.3565   0.5025
  0.5065   0.6119   0.6200   0.6823   0.7590   0.7669   0.8128   0.9467
  1.0125   1.0759   1.0786   1.1055   1.1330   1.1504   1.1820   1.1920
  1.2114   1.4209   1.4403   1.5124   1.6380   1.6405   1.6419   1.7783
  1.7985   1.9063   2.1171   2.1343   2.2619   2.4375   2.5219   2.5260
  2.7871   2.8418   3.0036   3.1155   3.1314   3.1923   3.2626   3.3264
  3.4908   3.5025   3.5406   3.6099   3.6214   3.7663   4.0041   4.0474
  4.1706   4.4368   5.0383   5.1747   5.1811   5.1870   5.1963   5.2205
  5.2513   5.2519   5.3019   5.3657   5.4562   5.5186   5.5899   5.6483
  5.8551   6.0354   6.2471   6.4128   6.8255   6.9230   6.9420   7.0091
  7.0357   7.0762   7.3060   7.3425   7.3637   7.5048   7.6842   7.7103
  7.7887  25.1727  50.6464  50.6916
 --------------------------------------------------------------
 
          Ground-State Mulliken Net Atomic Charges

     Atom                 Charge (a.u.)
  ----------------------------------------
      1 C                     0.200899
      2 O                    -0.666233
      3 O                    -0.666615
      4 H                     0.131949
  ----------------------------------------
  Sum of atomic charges =    -1.000000

 -----------------------------------------------------------------
                    Cartesian Multipole Moments
 -----------------------------------------------------------------
    Charge (ESU x 10^10)
                -4.8032
    Dipole Moment (Debye)
         X       6.5403      Y       6.2530      Z      -0.5721
       Tot       9.0665
    Quadrupole Moments (Debye-Ang)
        XX     -27.5622     XY      -7.1078     YY     -29.6638
        XZ      -0.4259     YZ       5.7958     ZZ     -26.4279
    Octopole Moments (Debye-Ang^2)
       XXX      66.5846    XXY      26.2510    XYY      29.7160
       YYY      71.0585    XXZ      -3.7334    XYZ      -4.5502
       YYZ     -17.0109    XZZ      25.6371    YZZ      27.5835
       ZZZ     -22.0480
    Hexadecapole Moments (Debye-Ang^3)
      XXXX    -154.1705   XXXY     -62.3002   XXYY     -61.9531
      XYYY     -70.0726   YYYY    -187.0438   XXXZ       3.6658
      XXYZ      15.8352   XYYZ      12.3404   YYYZ      56.5528
      XXZZ     -47.7501   XYZZ     -26.1462   YYZZ     -58.5115
      XZZZ      11.3750   YZZZ      47.0520   ZZZZ    -113.6090
 -----------------------------------------------------------------
 Calculating analytic gradient of the SCF energy
 Gradient of CDS energy
            1           2           3           4
    1  -0.0012395   0.0003053   0.0009571  -0.0000230
    2  -0.0011950   0.0017154  -0.0004983  -0.0000222
    3  -0.0005332  -0.0014564   0.0019995  -0.0000098
 Gradient of SCF Energy
            1           2           3           4
    1   0.0109651   0.0056997   0.0134560  -0.0301208
    2   0.0104669   0.0225816  -0.0040080  -0.0290405
    3   0.0045892  -0.0166288   0.0249733  -0.0129337
 Max gradient component =       3.012E-02
 RMS gradient           =       1.781E-02
 Computing fast CPCM-SWIG gradient
 Updating gradient with PCM contributions...
 -- total gradient after adding PCM contribution --
---------------------------------------------------
  Atom         X              Y              Z     
---------------------------------------------------
   1       0.000055       0.000081       0.000127
   2      -0.000035      -0.000033       0.000001
   3       0.000075       0.000027       0.000037
   4      -0.000095      -0.000076      -0.000166
---------------------------------------------------
 Number of fixed atoms: 0
 Gradient time:  CPU 10.29 s  wall 1.35 s
Dipole drv :
gprntSymmMtrx error report: 
 Final Hessian.
            1           2           3           4           5           6
    1   0.4398622   0.1631891   0.1616184  -0.1054705  -0.0920694   0.0497673
    2   0.1631891   0.5634694  -0.1465294  -0.0754196  -0.3294444   0.1757844
    3   0.1616184  -0.1465294   0.6197993   0.0312258   0.1507240  -0.1921852
    4  -0.1054705  -0.0754196   0.0312258   0.0684581   0.0856457  -0.0277288
    5  -0.0920694  -0.3294444   0.1507240   0.0856457   0.3710543  -0.2592767
    6   0.0497673   0.1757844  -0.1921852  -0.0277288  -0.2592767   0.2717248
    7  -0.1785909  -0.0035133  -0.1594352   0.0312859   0.0287405  -0.0200509
    8   0.0131233  -0.0908819   0.0423566   0.0221993  -0.0124283   0.0733298
    9  -0.1779595   0.0172634  -0.3581300  -0.0127688   0.0832279  -0.0888359
   10  -0.1558010  -0.0842558  -0.0334092   0.0057268  -0.0223172  -0.0019874
   11  -0.0842428  -0.1431426  -0.0465513  -0.0324254  -0.0291819   0.0101625
   12  -0.0334262  -0.0465181  -0.0694843   0.0092718   0.0253246   0.0092963
            7           8           9          10          11          12
    1  -0.1785909   0.0131233  -0.1779595  -0.1558010  -0.0842428  -0.0334262
    2  -0.0035133  -0.0908819   0.0172634  -0.0842558  -0.1431426  -0.0465181
    3  -0.1594352   0.0423566  -0.3581300  -0.0334092  -0.0465513  -0.0694843
    4   0.0312859   0.0221993  -0.0127688   0.0057268  -0.0324254   0.0092718
    5   0.0287405  -0.0124283   0.0832279  -0.0223172  -0.0291819   0.0253246
    6  -0.0200509   0.0733298  -0.0888359  -0.0019874   0.0101625   0.0092963
    7   0.1543552  -0.0184623   0.2181012  -0.0070501  -0.0067649  -0.0386150
    8  -0.0184623   0.0905838  -0.1024646  -0.0168604   0.0127262  -0.0132219
    9   0.2181012  -0.1024646   0.4667786  -0.0273730   0.0019733  -0.0198127
   10  -0.0070501  -0.0168604  -0.0273730   0.1571242   0.1234332   0.0627695
   11  -0.0067649   0.0127262   0.0019733   0.1234332   0.1595982   0.0344153
   12  -0.0386150  -0.0132219  -0.0198127   0.0627695   0.0344153   0.0800008
 ----------------------------------------------------------------
             Standard Nuclear Orientation (Angstroms)
    I     Atom           X                Y                Z
 ----------------------------------------------------------------
    1      C      -0.7212776201    -0.6844206214     0.3942392435
    2      O      -0.9322206661    -1.6557444258     1.1615529529
    3      O      -1.2841758533    -0.4595739646    -0.7055055193
    4      H       0.0409065396     0.0501519118     0.7212864230
 ----------------------------------------------------------------
 Nuclear Repulsion Energy =          62.61340526 hartrees
 There are       12 alpha and       12 beta electrons
 old dipole drv.
            1           2           3           4           5           6
    1   0.9597442   0.3147824   0.6885718  -0.8146495  -0.0509158  -0.1162890
    2   0.3142326   1.7651794  -1.1949925  -0.2888415  -1.6605772   0.6371486
    3   0.6889572  -1.1959214   2.6427449   0.1502454   0.9980323  -1.5865835
            7           8           9          10          11          12
    1  -1.0235900  -0.0333094  -0.4515129  -0.1215070  -0.2305628  -0.1207732
    2   0.2052263  -0.9727495   0.6128959  -0.2306208  -0.1318610  -0.0550555
    3  -0.7184143   0.2529347  -2.0656682  -0.1207869  -0.0550449   0.0095065
 New transposed dipole drv.
            1           2           3
    1   0.9597442   0.3142326   0.6889572
    2   0.3147824   1.7651794  -1.1959214
    3   0.6885718  -1.1949925   2.6427449
    4  -0.8146495  -0.2888415   0.1502454
    5  -0.0509158  -1.6605772   0.9980323
    6  -0.1162890   0.6371486  -1.5865835
    7  -1.0235900   0.2052263  -0.7184143
    8  -0.0333094  -0.9727495   0.2529347
    9  -0.4515129   0.6128959  -2.0656682
   10  -0.1215070  -0.2306208  -0.1207869
   11  -0.2305628  -0.1318610  -0.0550449
   12  -0.1207732  -0.0550555   0.0095065
FINAL TENSOR RESULT:
Order 2, Length 12
    Atom      X          Y          Z
     1 Order 1, Length 12
    Atom      X          Y          Z
     1    4.398621748930107e-01   1.631891334766589e-01   1.616183797864349e-01
     2   -1.054705460164701e-01  -9.206941863907436e-02   4.976732854616082e-02
     3   -1.785909253549030e-01   1.312332702299232e-02  -1.779595034205956e-01
     4   -1.558010228415837e-01  -8.424277831420907e-02  -3.342618500762460e-02

Order 1, Length 12
    Atom      X          Y          Z
     1    1.631891334766589e-01   5.634693938880070e-01  -1.465293773237849e-01
     2   -7.541964364684872e-02  -3.294443937040437e-01   1.757843871263277e-01
     3   -3.513340255597121e-03  -9.088187819078974e-02   1.726337176108387e-02
     4   -8.425577583115515e-02  -1.431425839327458e-01  -4.651808993544916e-02

Order 1, Length 12
    Atom      X          Y          Z
     1    1.616183797864349e-01  -1.465293773237849e-01   6.197993104759522e-01
     2    3.122583579974208e-02   1.507239892838917e-01  -1.921852365641813e-01
     3   -1.594351851659263e-01   4.235655797865284e-02  -3.581299623983213e-01
     4   -3.340918843036641e-02  -4.655127817602249e-02  -6.948431187997611e-02


     2 Order 1, Length 12
    Atom      X          Y          Z
     1   -1.054705460164701e-01  -7.541964364684872e-02   3.122583579974208e-02
     2    6.845810473209980e-02   8.564566728698972e-02  -2.772882167378456e-02
     3    3.128592227198530e-02   2.219933159504413e-02  -1.276883475281770e-02
     4    5.726788347648021e-03  -3.242540959190117e-02   9.271839279073858e-03

Order 1, Length 12
    Atom      X          Y          Z
     1   -9.206941863907436e-02  -3.294443937040437e-01   1.507239892838917e-01
     2    8.564566728698972e-02   3.710542562154576e-01  -2.592766965792054e-01
     3    2.874050201161291e-02  -1.242827337137540e-02   8.322794563435490e-02
     4   -2.231723649377656e-02  -2.918185982140762e-02   2.532463052787901e-02

Order 1, Length 12
    Atom      X          Y          Z
     1    4.976732854616082e-02   1.757843871263277e-01  -1.921852365641813e-01
     2   -2.772882167378456e-02  -2.592766965792054e-01   2.717248057507302e-01
     3   -2.005091715506966e-02   7.332980544549915e-02  -8.883585335288699e-02
     4   -1.987439254818564e-03   1.016253450625244e-02   9.296338466791482e-03


     3 Order 1, Length 12
    Atom      X          Y          Z
     1   -1.785909253549030e-01  -3.513340255597121e-03  -1.594351851659263e-01
     2    3.128592227198530e-02   2.874050201161291e-02  -2.005091715506966e-02
     3    1.543551533759826e-01  -1.846228862126508e-02   2.181012012493753e-01
     4   -7.050051712146738e-03  -6.764867455379943e-03  -3.861502774127772e-02

Order 1, Length 12
    Atom      X          Y          Z
     1    1.312332702299232e-02  -9.088187819078974e-02   4.235655797865284e-02
     2    2.219933159504413e-02  -1.242827337137540e-02   7.332980544549915e-02
     3   -1.846228862126508e-02   9.058379688831832e-02  -1.024645846396205e-01
     4   -1.686038134478712e-02   1.272617932563107e-02  -1.322186955344573e-02

Order 1, Length 12
    Atom      X          Y          Z
     1   -1.779595034205956e-01   1.726337176108387e-02  -3.581299623983213e-01
     2   -1.276883475281770e-02   8.322794563435490e-02  -8.883585335288699e-02
     3    2.181012012493753e-01  -1.024645846396205e-01   4.667786120646633e-01
     4   -2.737303030275415e-02   1.973329300951968e-03  -1.981273588755414e-02


     4 Order 1, Length 12
    Atom      X          Y          Z
     1   -1.558010228415837e-01  -8.425577583115515e-02  -3.340918843036641e-02
     2    5.726788347648021e-03  -2.231723649377656e-02  -1.987439254818564e-03
     3   -7.050051712146738e-03  -1.686038134478712e-02  -2.737303030275415e-02
     4    1.571242376095196e-01   1.234331787939318e-01   6.276954822070889e-02

Order 1, Length 12
    Atom      X          Y          Z
     1   -8.424277831420907e-02  -1.431425839327458e-01  -4.655127817602249e-02
     2   -3.242540959190117e-02  -2.918185982140762e-02   1.016253450625244e-02
     3   -6.764867455379943e-03   1.272617932563107e-02   1.973329300951968e-03
     4    1.234331787939318e-01   1.595981723714650e-01   3.441534464953134e-02

Order 1, Length 12
    Atom      X          Y          Z
     1   -3.342618500762460e-02  -4.651808993544916e-02  -6.948431187997611e-02
     2    9.271839279073858e-03   2.532463052787901e-02   9.296338466791482e-03
     3   -3.861502774127772e-02  -1.322186955344573e-02  -1.981273588755414e-02
     4    6.276954822070889e-02   3.441534464953134e-02   8.000079494847147e-02




 # Finishing finite difference calculation for IDERIV #
 ######################################################
 ######################################################
 Requested basis set is 6-311++G(2df,2p)
 There are 30 shells and 112 basis functions
 **********************************************************************
 **                                                                  **
 **                       VIBRATIONAL ANALYSIS                       **
 **                       --------------------                       **
 **                                                                  **
 **        VIBRATIONAL FREQUENCIES (CM**-1) AND NORMAL MODES         **
 **     FORCE CONSTANTS (mDYN/ANGSTROM) AND REDUCED MASSES (AMU)     **
 **                  INFRARED INTENSITIES (KM/MOL)                   **
 **                                                                  **
 **********************************************************************
 

 Mode:                 1                      2                      3
 Frequency:       744.35                1082.03                1358.08
 Force Cnst:      3.7887                 1.2102                11.3350
 Red. Mass:      11.6061                 1.7544                10.4308
 IR Active:          YES                    YES                    YES
 IR Intens:       56.565                  0.309                182.404
 Raman Active:       YES                    YES                    YES
               X      Y      Z        X      Y      Z        X      Y      Z
 C         -0.347 -0.334 -0.149   -0.171  0.127  0.113   -0.407 -0.392 -0.176
 O          0.214 -0.114  0.449    0.042 -0.031 -0.028    0.107  0.349 -0.228
 O          0.067  0.384 -0.329    0.043 -0.032 -0.028    0.221 -0.033  0.370
 H         -0.324 -0.316 -0.141    0.685 -0.507 -0.456   -0.365 -0.346 -0.160
 TransDip  -0.166 -0.160 -0.071   -0.013  0.010  0.007   -0.298 -0.285 -0.130

 Mode:                 4                      5                      6
 Frequency:      1384.97                1539.23                2910.05
 Force Cnst:      1.3625                 8.0447                 5.3668
 Red. Mass:       1.2056                 5.7630                 1.0756
 IR Active:          YES                    YES                    YES
 IR Intens:      212.452               1477.860                237.534
 Raman Active:       YES                    YES                    YES
               X      Y      Z        X      Y      Z        X      Y      Z
 C          0.007 -0.027  0.042    0.088 -0.303  0.472   -0.054 -0.052 -0.023
 O          0.031  0.064 -0.025    0.019  0.148 -0.136   -0.001 -0.002  0.000
 O         -0.046 -0.010 -0.058   -0.078  0.054 -0.177   -0.002 -0.001 -0.001
 H          0.156 -0.530  0.825   -0.121  0.412 -0.642    0.686  0.661  0.295
 TransDip   0.073 -0.249  0.388    0.193 -0.656  1.024   -0.340 -0.327 -0.146

 STANDARD THERMODYNAMIC QUANTITIES AT   298.15 K  AND     1.00 ATM

   This Molecule has  0 Imaginary Frequencies
   Zero point vibrational energy:       12.893 kcal/mol

   Atom    1 Element C  Has Mass   12.00000
   Atom    2 Element O  Has Mass   15.99491
   Atom    3 Element O  Has Mass   15.99491
   Atom    4 Element H  Has Mass    1.00783
   Molecular Mass:    44.997650 amu
   Principal axes and moments of inertia in amu*Bohr^2:
                             1           2           3
    Eigenvalues --       17.96574   143.95677   161.92251
          X               0.15677     0.68770     0.70886
          Y              -0.53278     0.66323    -0.52561
          Z               0.83161     0.29527    -0.47037
   Rotational Symmetry Number is   1
   The Molecule is an Asymmetric Top
   Translational Enthalpy:        0.889 kcal/mol
   Rotational Enthalpy:           0.889 kcal/mol
   Vibrational Enthalpy:         12.983 kcal/mol
   gas constant (RT):             0.592 kcal/mol
   Translational Entropy:        37.338  cal/mol.K
   Rotational Entropy:           20.665  cal/mol.K
   Vibrational Entropy:           0.375  cal/mol.K

   Total Enthalpy:               15.353 kcal/mol
   Total Entropy:                58.378  cal/mol.K
 Total job time:  214.77s(wall), 1658.74s(cpu) 
 Fri Sep  1 07:13:39 2023

        *************************************************************
        *                                                           *
        *  Thank you very much for using Q-Chem.  Have a nice day.  *
        *                                                           *
        *************************************************************


