
Running Job 1 of 1 Q_in.in
qchem Q_in.in_256121.0 /scratch/ari.fischer/qChem1854151.hpc-mn1/qchem256121/ 0
/usr/local/qchem-5.4.1/exe/qcprog.exe_s Q_in.in_256121.0 /scratch/ari.fischer/qChem1854151.hpc-mn1/qchem256121/
                  Welcome to Q-Chem
     A Quantum Leap Into The Future Of Chemistry


 Q-Chem 5.4, Q-Chem, Inc., Pleasanton, CA (2021)

 License issued to: Nanyang Technological University (site)

 E. Epifanovsky,  A. T. B. Gilbert,  Xintian Feng,  Joonho Lee,  Yuezhi Mao,  
 N. Mardirossian,  P. Pokhilko,  A. White,  M. Wormit,  M. P. Coons,  
 A. L. Dempwolff,  Zhengting Gan,  D. Hait,  P. R. Horn,  L. D. Jacobson,  
 I. Kaliman,  J. Kussmann,  A. W. Lange,  Ka Un Lao,  D. S. Levine,  Jie Liu,  
 S. C. McKenzie,  A. F. Morrison,  K. Nanda,  F. Plasser,  D. R. Rehn,  
 M. L. Vidal,  Zhi-Qiang You,  Ying Zhu,  B. Alam,  B. Albrecht,  
 A. Aldossary,  E. Alguire,  J. H. Andersen,  D. Barton,  K. Begam,  A. Behn,  
 Y. A. Bernard,  E. J. Berquist,  H. Burton,  A. Carreras,  K. Carter-Fenk,  
 R. Chakraborty,  A. D. Chien,  K. D. Closser,  V. Cofer-Shabica,  
 S. Dasgupta,  Jia Deng,  M. de Wergifosse,  M. Diedenhofen,  Hainam Do,  
 S. Ehlert,  Po-Tung Fang,  S. Fatehi,  Qingguo Feng,  T. Friedhoff,  
 J. Gayvert,  Qinghui Ge,  G. Gidofalvi,  M. Goldey,  J. Gomes,  
 C. Gonzalez-Espinoza,  S. Gulania,  A. Gunina,  M. W. D. Hanson-Heine,  
 P. H. P. Harbach,  A. W. Hauser,  M. F. Herbst,  M. Hernandez Vera,  
 M. Hodecker,  Z. C. Holden,  S. Houck,  Xunkun Huang,  Kerwin Hui,  
 B. C. Huynh,  M. Ivanov,  Hyunjun Ji,  Hanjie Jiang,  B. Kaduk,  S. Kaehler,  
 K. Khistyaev,  Jaehoon Kim,  P. Klunzinger,  Z. Koczor-Benda,  
 Joong Hoon Koh,  D. Kosenkov,  L. Koulias,  T. Kowalczyk,  C. M. Krauter,  
 K. Kue,  A. Kunitsa,  T. Kus,  A. Landau,  K. V. Lawler,  D. Lefrancois,  
 S. Lehtola,  Rain Li,  Yi-Pei Li,  Jiashu Liang,  M. Liebenthal,  
 Hung-Hsuan Lin,  You-Sheng Lin,  Fenglai Liu,  Kuan-Yu Liu,  
 M. Loipersberger,  A. Luenser,  A. Manjanath,  P. Manohar,  E. Mansoor,  
 S. F. Manzer,  Shan-Ping Mao,  A. V. Marenich,  T. Markovich,  S. Mason,  
 S. A. Maurer,  P. F. McLaughlin,  M. F. S. J. Menger,  J.-M. Mewes,  
 S. A. Mewes,  P. Morgante,  J. W. Mullinax,  K. J. Oosterbaan,  G. Paran,  
 Alexander C. Paul,  Suranjan K. Paul,  F. Pavosevic,  Zheng Pei,  S. Prager,  
 E. I. Proynov,  E. Ramos,  B. Rana,  A. E. Rask,  A. Rettig,  R. M. Richard,  
 F. Rob,  E. Rossomme,  T. Scheele,  M. Scheurer,  M. Schneider,  
 N. Sergueev,  S. M. Sharada,  W. Skomorowski,  D. W. Small,  C. J. Stein,  
 Yu-Chuan Su,  E. J. Sundstrom,  Zhen Tao,  J. Thirman,  T. Tsuchimochi,  
 N. M. Tubman,  S. P. Veccham,  O. Vydrov,  J. Wenzel,  J. Witte,  A. Yamada,  
 Kun Yao,  S. Yeganeh,  S. R. Yost,  A. Zech,  Igor Ying Zhang,  Xing Zhang,  
 Yu Zhang,  D. Zuev,  A. Aspuru-Guzik,  A. T. Bell,  N. A. Besley,  
 K. B. Bravaya,  B. R. Brooks,  D. Casanova,  Jeng-Da Chai,  S. Coriani,  
 C. J. Cramer,  A. E. DePrince, III,  R. A. DiStasio Jr.,  A. Dreuw,  
 B. D. Dunietz,  T. R. Furlani,  W. A. Goddard III,  S. Grimme,  
 S. Hammes-Schiffer,  T. Head-Gordon,  W. J. Hehre,  Chao-Ping Hsu,  
 T.-C. Jagau,  Yousung Jung,  A. Klamt,  Jing Kong,  D. S. Lambrecht,  
 WanZhen Liang,  N. J. Mayhall,  C. W. McCurdy,  J. B. Neaton,  
 C. Ochsenfeld,  J. A. Parkhill,  R. Peverati,  V. A. Rassolov,  Yihan Shao,  
 L. V. Slipchenko,  T. Stauch,  R. P. Steele,  J. E. Subotnik,  
 A. J. W. Thom,  A. Tkatchenko,  D. G. Truhlar,  T. Van Voorhis,  
 T. A. Wesolowski,  K. B. Whaley,  H. L. Woodcock III,  P. M. Zimmerman,  
 S. Faraji,  P. M. W. Gill,  M. Head-Gordon,  J. M. Herbert,  A. I. Krylov

 Additional authors for Version 5.4.1: 
 S. Kotaru,  Shaozhi Li,  Xiangyuan Li,  F. Matz,  A. Molle,  Haisheng Ren,  
 Yingli Su,  Hung-Yi Tsai,  C. Utku,  Fang Wang

 Contributors to earlier versions of Q-Chem not listed above: 
 R. D. Adamson,  B. Austin,  R. Baer,  J. Baker,  G. J. O. Beran,  
 K. Brandhorst,  S. T. Brown,  E. F. C. Byrd,  A. K. Chakraborty,  
 G. K. L. Chan,  Chun-Min Chang,  Yunqing Chen,  C.-L. Cheng,  
 Siu Hung Chien,  D. M. Chipman,  D. L. Crittenden,  H. Dachsel,  
 R. J. Doerksen,  A. D. Dutoi,  R. G. Edgar,  J. Fosso-Tande,  
 L. Fusti-Molnar,  D. Ghosh,  A. Ghysels,  A. Golubeva-Zadorozhnaya,  
 J. Gonthier,  M. S. Gordon,  S. R. Gwaltney,  G. Hawkins,  J. E. Herr,  
 A. Heyden,  S. Hirata,  E. G. Hohenstein,  G. Kedziora,  F. J. Keil,  
 C. Kelley,  Jihan Kim,  R. A. King,  R. Z. Khaliullin,  P. P. Korambath,  
 W. Kurlancheek,  A. Laurent,  A. M. Lee,  M. S. Lee,  S. V. Levchenko,  
 Ching Yeh Lin,  D. Liotard,  E. Livshits,  R. C. Lochan,  I. Lotan,  
 L. A. Martinez-Martinez,  P. E. Maslen,  N. Nair,  D. P. O'Neill,  
 D. Neuhauser,  E. Neuscamman,  C. M. Oana,  R. Olivares-Amaya,  R. Olson,  
 T. M. Perrine,  B. Peters,  P. A. Pieniazek,  A. Prociuk,  Y. M. Rhee,  
 J. Ritchie,  M. A. Rohrdanz,  E. Rosta,  N. J. Russ,  H. F. Schaefer III,  
 M. W. Schmidt,  N. E. Schultz,  S. Sharma,  N. Shenvi,  C. D. Sherrill,  
 A. C. Simmonett,  A. Sodt,  T. Stein,  D. Stuck,  K. S. Thanthiriwatte,  
 V. Vanovschi,  L. Vogt,  Tao Wang,  A. Warshel,  M. A. Watson,  
 C. F. Williams,  Q. Wu,  X. Xu,  Jun Yang,  W. Zhang,  Yan Zhao

 Please cite Q-Chem as follows:
 Y. Shao et al., Mol. Phys. 113, 184-215 (2015)
 DOI: 10.1080/00268976.2014.952696

 Q-Chem 5.4.1 for Intel X86 EM64T Linux

 Parts of Q-Chem use Armadillo 9.800.1 (Horizon Scraper).
 http://arma.sourceforge.net/

 Q-Chem begins on Thu Dec  7 15:43:21 2023  

 Host: 
0

     Scratch files written to /scratch/ari.fischer/qChem1854151.hpc-mn1/qchem256121//
 Aug1521 |scratch|qcdevops|jenkins|workspace|build_RNUM 8249   
 Processing $rem in /usr/local/qchem-5.4.1/config/preferences:
 Processing $rem in /home/ari.fischer/.qchemrc:
 Symmetry turned off for PCM/SM12/SMD calculation

 Checking the input file for inconsistencies... 	...done.

--------------------------------------------------------------
User input:
--------------------------------------------------------------
$molecule
-1 1
O        -0.7700752962    1.0095248173   -0.0901959350
C        -0.3608196099   -0.2115914739    0.4922317158
O        -1.0496930004   -1.3042071768   -0.0673185286
C         1.1546408297   -0.3521732406    0.2396058149
O         1.8571576590    0.5647537115    0.7328913092
O         1.5662840877   -1.3426908188   -0.4048193267
H        -1.6025330528    1.2738191661    0.3164522571
H        -1.9354580049   -1.3186989432    0.3121775248
H        -0.5354792121   -0.1788818416    1.5697029686
$end

$rem
BASIS = def2-TZVPPD
JOB_TYPE = SP
METHOD = wB97M-V
SCF_ALGORITHM = DIIS_GDM
MAX_SCF_CYCLES = 400
SCF_CONVERGENCE = 7
THRESH = 12
Solvent_method = SMD
$end
--------------------------------------------------------------
 ----------------------------------------------------------------
             Standard Nuclear Orientation (Angstroms)
    I     Atom           X                Y                Z
 ----------------------------------------------------------------
    1      O      -0.7700752962     1.0095248173    -0.0901959350
    2      C      -0.3608196099    -0.2115914739     0.4922317158
    3      O      -1.0496930004    -1.3042071768    -0.0673185286
    4      C       1.1546408297    -0.3521732406     0.2396058149
    5      O       1.8571576590     0.5647537115     0.7328913092
    6      O       1.5662840877    -1.3426908188    -0.4048193267
    7      H      -1.6025330528     1.2738191661     0.3164522571
    8      H      -1.9354580049    -1.3186989432     0.3121775248
    9      H      -0.5354792121    -0.1788818416     1.5697029686
 ----------------------------------------------------------------
 Nuclear Repulsion Energy =         239.46429984 hartrees
 There are       24 alpha and       24 beta electrons
 Requested basis set is def2-TZVPPD
 There are 103 shells and 285 basis functions

 Total QAlloc Memory Limit 288000 MB
 Mega-Array Size       188 MB
 MEM_STATIC part       192 MB
 
 Citation of the SMD model:
 Marenich, A.V.; Cramer, C.J.; Truhlar, D.G.
 J. Phys. Chem. B 2009, 113, 6378-6396.
 iSolventCode=           1
 Solvent: water                                                           
 
 vradii
            1           2           3           4           5           6
    1   1.5200000   1.8500000   1.5200000   1.8500000   1.5200000   1.5200000
            7           8           9
    1   1.2000000   1.2000000   1.2000000
 Changing PCM_VDW_RADII to SMD_RADIUS
 Discretize the solute cavity surface with Lebedev spheres
	Using 110 Lebedev grid points for each H atom
	Using 194 Lebedev grid points for other atoms
	Atomic van der Waals radii will be scaled by 1.20
 Remove points where switching function is < 1.0e-08
 Keep 826 surface tesserae and discard 668 interior tesserae
 Molecular Surface Area = 99.736 Angst**2

                       Distance Matrix (Angstroms)
             O (  1)   C (  2)   O (  3)   C (  4)   O (  5)   O (  6)
   C (  2)  1.413449
   O (  3)  2.330679  1.407641
   C (  4)  2.380656  1.542791  2.420673
   O (  5)  2.788843  2.362213  3.547271  1.256032
   O (  6)  3.330237  2.407865  2.637939  1.251343  2.239941
   H (  7)  0.963431  1.944015  2.664420  3.201838  3.556073  4.172261
   H (  8)  2.634511  1.933285  0.963746  3.238541  4.255388  3.574473
   H (  9)  2.054899  1.092026  2.051978  2.157706  2.641583  3.109759
             H (  7)   H (  8)
   H (  8)  2.613811
   H (  9)  2.195355  2.200112
 
 A cutoff of  1.0D-12 yielded   5136 shell pairs
 There are     39820 function pairs (     51490 Cartesian)
 Smallest overlap matrix eigenvalue = 1.15E-05

 Scale SEOQF with 1.000000e-01/1.000000e-01/1.000000e-01

 Standard Electronic Orientation quadrupole field applied
 Nucleus-field energy     =     0.0000000047 hartrees
 Guess from superposition of atomic densities
 Warning:  Energy on first SCF cycle will be non-variational
 SAD guess density has 47.000000 electrons

 -----------------------------------------------------------------------
  General SCF calculation program by
  Eric Jon Sundstrom, Paul Horn, Yuezhi Mao, Dmitri Zuev, Alec White,
  David Stuck, Shaama M.S., Shane Yost, Joonho Lee, David Small,
  Daniel Levine, Susi Lehtola, Hugh Burton, Evgeny Epifanovsky,
  Bang C. Huynh
 -----------------------------------------------------------------------
 Exchange:     0.1500 Hartree-Fock + 1.0000 wB97M-V + LR-HF
 Correlation:  1.0000 wB97M-V
 Using SG-2 standard quadrature grid
 Nonlocal Correlation:  VV10 with C = 0.0100 and b = 6.00 and scale = 1.00000
 Grid used for NLC:  SG-1 standard quadrature
 
 Citation of the SMD model:
 Marenich, A.V.; Cramer, C.J.; Truhlar, D.G.
 J. Phys. Chem. B 2009, 113, 6378-6396.
 iSolventCode=           1
 Solvent: water                                                           
 
 vradii
            1           2           3           4           5           6
    1   1.5200000   1.8500000   1.5200000   1.8500000   1.5200000   1.5200000
            7           8           9
    1   1.2000000   1.2000000   1.2000000
 using 4 threads for integral computing
 -------------------------------------------------------
 OpenMP Integral computing Module                
 Release: version 1.0, May 2013, Q-Chem Inc. Pittsburgh 
 -------------------------------------------------------
 -------------------------------------------------------
 OpenMP BLAS3 based DFT computing Module                
 Release: version 1.0, May 2013, Q-Chem Inc. Pittsburgh 
 -------------------------------------------------------
 A restricted SCF calculation will be
 performed using DIIS, GDM
 SCF converges when RMS gradient is below 1.0e-07
 ---------------------------------------
  Cycle       Energy         DIIS error
 ---------------------------------------
    1    -379.8817555217      2.72e-02  
    2    -378.9278178574      5.42e-03  Done DIIS. Switching to GDM
 ---------------------------------------
  Cycle       Energy        RMS Gradient
 ---------------------------------------
    1    -378.9278178574      1.45e-01   Descent step
    2    -379.1421277889      1.33e-02   Normal BFGS step
    3    -379.1519946688      6.11e-03   Normal BFGS step
    4    -379.1527021858      2.58e-03   Normal BFGS step
    5    -379.1529139445      6.28e-04   Normal BFGS step
    6    -379.1529274913      2.69e-04   Normal BFGS step
    7    -379.1529306994      7.27e-05   Normal BFGS step
    8    -379.1529307836      6.84e-05   Normal BFGS step
    9    -379.1529308040      3.51e-05   Normal BFGS step
   10    -379.1529308108      2.72e-06   Normal BFGS step
   11    -379.1529308112      1.57e-06   Normal BFGS step
   12    -379.1529308112      5.72e-07   Normal BFGS step
   13    -379.1529308112      2.56e-07   Normal BFGS step
   14    -379.1529308112      7.41e-08  Convergence criterion met
 ---------------------------------------
 SCF time:   CPU 656.47s  wall 165.00s 
(3)  G-ENP(liq) elect-nuc-pol free energy of system     -379.152930811 a.u.
(4)  G-CDS(liq) cavity-dispersion-solvent structure 
     free energy                                                4.1889 kcal/mol
(6)  G-S(liq) free energy of system                     -379.146255436 a.u.
 SCF   energy in the final basis set =     -379.1462554360
 Total energy in the final basis set =     -379.1462554360
 
 --------------------------------------------------------------
 
                    Orbital Energies (a.u.)
 --------------------------------------------------------------
 
 Alpha MOs
 -- Occupied --
-19.3393 -19.3381 -19.2844 -19.2819 -10.4379 -10.4369  -1.1985  -1.1605
 -1.1285  -1.0764  -0.8120  -0.6455  -0.6367  -0.6320  -0.5749  -0.5282
 -0.5090  -0.4970  -0.4876  -0.4123  -0.4080  -0.3694  -0.3590  -0.3565
 -- Virtual --
  0.0410   0.0625   0.0663   0.0744   0.0933   0.1089   0.1106   0.1149
  0.1175   0.1265   0.1481   0.1516   0.1567   0.1633   0.1792   0.1994
  0.2103   0.2331   0.2460   0.2571   0.2611   0.2767   0.2834   0.2943
  0.3022   0.3193   0.3274   0.3355   0.3389   0.3411   0.3639   0.3728
  0.3832   0.3870   0.3918   0.4062   0.4119   0.4185   0.4275   0.4376
  0.4491   0.4617   0.4714   0.4823   0.4942   0.5040   0.5123   0.5248
  0.5361   0.5467   0.5566   0.5699   0.5810   0.5916   0.6041   0.6178
  0.6248   0.6398   0.6438   0.6468   0.6624   0.6767   0.6869   0.7040
  0.7143   0.7189   0.7333   0.7475   0.7585   0.7813   0.7877   0.8059
  0.8142   0.8255   0.8498   0.8950   0.8974   0.9253   0.9345   0.9479
  0.9599   0.9927   1.0070   1.0307   1.0424   1.0566   1.0757   1.1034
  1.1347   1.1696   1.1884   1.2037   1.2079   1.2217   1.2346   1.2401
  1.2596   1.3067   1.3178   1.3256   1.3505   1.3674   1.4039   1.4140
  1.4592   1.4730   1.4972   1.5531   1.6027   1.6529   1.7083   1.7261
  1.8331   1.8572   1.8679   1.8815   1.8914   1.9140   1.9908   2.0094
  2.0159   2.1031   2.1416   2.1633   2.1847   2.2127   2.2329   2.2589
  2.2840   2.3419   2.3752   2.4108   2.4257   2.4342   2.4554   2.4662
  2.5188   2.6081   2.6849   2.7836   2.8347   2.8756   2.9114   2.9280
  2.9558   2.9912   3.0154   3.0515   3.0678   3.1657   3.1929   3.2102
  3.2314   3.2591   3.2804   3.3007   3.3093   3.3286   3.3719   3.3903
  3.4256   3.4583   3.4959   3.5115   3.5248   3.5381   3.5739   3.6090
  3.6270   3.6342   3.6576   3.6685   3.7005   3.7041   3.7250   3.7394
  3.8291   3.8608   3.8875   3.9456   3.9931   4.0558   4.1100   4.1424
  4.1651   4.2025   4.2387   4.2514   4.2573   4.3626   4.3789   4.4161
  4.5122   4.5342   4.6517   4.7270   4.7542   4.7888   4.8474   4.8828
  4.9518   5.0491   5.0804   5.1276   5.1913   5.2822   5.3032   5.3366
  5.3447   5.3576   5.4636   5.5207   5.5790   5.6245   5.6734   5.6810
  5.7368   5.7738   5.8922   5.9276   6.0096   6.0485   6.1906   6.2321
  6.2881   6.3378   6.3589   6.5984   6.6082   6.6228   6.6623   6.6653
  6.7220   6.7276   6.7800   6.7948   6.8404   6.8550   6.8747   6.8999
  6.9456   6.9792   7.0172   7.0481   7.1808   7.1958   7.2862   7.3410
  7.3868   7.4000   7.4650   7.5369   7.5463   7.7539   7.7840  23.4409
 23.9554  44.5635  44.6374  44.7182  44.8936
 --------------------------------------------------------------
 
          Ground-State Mulliken Net Atomic Charges

     Atom                 Charge (a.u.)
  ----------------------------------------
      1 O                    -0.456514
      2 C                     0.318240
      3 O                    -0.467181
      4 C                     0.522436
      5 O                    -0.832212
      6 O                    -0.820781
      7 H                     0.186524
      8 H                     0.193863
      9 H                     0.355624
  ----------------------------------------
  Sum of atomic charges =    -1.000000

 -----------------------------------------------------------------
                    Cartesian Multipole Moments
 -----------------------------------------------------------------
    Charge (ESU x 10^10)
                -4.8032
    Dipole Moment (Debye)
         X     -12.0684      Y       2.2631      Z       2.6093
       Tot      12.5530
    Quadrupole Moments (Debye-Ang)
        XX     -47.3381     XY       1.7438     YY     -47.4074
        XZ      -6.0219     YZ      -4.5861     ZZ     -37.9881
    Octopole Moments (Debye-Ang^2)
       XXX     -99.7528    XXY      12.7977    XYY     -30.7805
       YYY      42.2382    XXZ      -4.8914    XYZ      -6.4602
       YYZ      -1.0790    XZZ     -19.2288    YZZ       8.8925
       ZZZ     -16.7531
    Hexadecapole Moments (Debye-Ang^3)
      XXXX    -431.4575   XXXY      25.8471   XXYY    -109.8369
      XYYY      22.6584   YYYY    -256.7158   XXXZ     -36.5406
      XXYZ     -18.0197   XYYZ      -7.0527   YYYZ     -21.1781
      XXZZ     -87.2988   XYZZ       3.2068   YYZZ     -55.8341
      XZZZ     -20.6068   YZZZ     -18.7756   ZZZZ     -84.4929
 -----------------------------------------------------------------
 Total job time:  166.10s(wall), 658.89s(cpu) 
 Thu Dec  7 15:46:08 2023

        *************************************************************
        *                                                           *
        *  Thank you very much for using Q-Chem.  Have a nice day.  *
        *                                                           *
        *************************************************************


