
Running Job 1 of 1 Q_in.in
qchem Q_in.in_307192.0 /scratch/ari.fischer/qChem1444727.hpc-mn1/qchem307192/ 0
/usr/local/qchem-5.4.1/exe/qcprog.exe_s Q_in.in_307192.0 /scratch/ari.fischer/qChem1444727.hpc-mn1/qchem307192/
                  Welcome to Q-Chem
     A Quantum Leap Into The Future Of Chemistry


 Q-Chem 5.4, Q-Chem, Inc., Pleasanton, CA (2021)

 License issued to: Nanyang Technological University (site)

 E. Epifanovsky,  A. T. B. Gilbert,  Xintian Feng,  Joonho Lee,  Yuezhi Mao,  
 N. Mardirossian,  P. Pokhilko,  A. White,  M. Wormit,  M. P. Coons,  
 A. L. Dempwolff,  Zhengting Gan,  D. Hait,  P. R. Horn,  L. D. Jacobson,  
 I. Kaliman,  J. Kussmann,  A. W. Lange,  Ka Un Lao,  D. S. Levine,  Jie Liu,  
 S. C. McKenzie,  A. F. Morrison,  K. Nanda,  F. Plasser,  D. R. Rehn,  
 M. L. Vidal,  Zhi-Qiang You,  Ying Zhu,  B. Alam,  B. Albrecht,  
 A. Aldossary,  E. Alguire,  J. H. Andersen,  D. Barton,  K. Begam,  A. Behn,  
 Y. A. Bernard,  E. J. Berquist,  H. Burton,  A. Carreras,  K. Carter-Fenk,  
 R. Chakraborty,  A. D. Chien,  K. D. Closser,  V. Cofer-Shabica,  
 S. Dasgupta,  Jia Deng,  M. de Wergifosse,  M. Diedenhofen,  Hainam Do,  
 S. Ehlert,  Po-Tung Fang,  S. Fatehi,  Qingguo Feng,  T. Friedhoff,  
 J. Gayvert,  Qinghui Ge,  G. Gidofalvi,  M. Goldey,  J. Gomes,  
 C. Gonzalez-Espinoza,  S. Gulania,  A. Gunina,  M. W. D. Hanson-Heine,  
 P. H. P. Harbach,  A. W. Hauser,  M. F. Herbst,  M. Hernandez Vera,  
 M. Hodecker,  Z. C. Holden,  S. Houck,  Xunkun Huang,  Kerwin Hui,  
 B. C. Huynh,  M. Ivanov,  Hyunjun Ji,  Hanjie Jiang,  B. Kaduk,  S. Kaehler,  
 K. Khistyaev,  Jaehoon Kim,  P. Klunzinger,  Z. Koczor-Benda,  
 Joong Hoon Koh,  D. Kosenkov,  L. Koulias,  T. Kowalczyk,  C. M. Krauter,  
 K. Kue,  A. Kunitsa,  T. Kus,  A. Landau,  K. V. Lawler,  D. Lefrancois,  
 S. Lehtola,  Rain Li,  Yi-Pei Li,  Jiashu Liang,  M. Liebenthal,  
 Hung-Hsuan Lin,  You-Sheng Lin,  Fenglai Liu,  Kuan-Yu Liu,  
 M. Loipersberger,  A. Luenser,  A. Manjanath,  P. Manohar,  E. Mansoor,  
 S. F. Manzer,  Shan-Ping Mao,  A. V. Marenich,  T. Markovich,  S. Mason,  
 S. A. Maurer,  P. F. McLaughlin,  M. F. S. J. Menger,  J.-M. Mewes,  
 S. A. Mewes,  P. Morgante,  J. W. Mullinax,  K. J. Oosterbaan,  G. Paran,  
 Alexander C. Paul,  Suranjan K. Paul,  F. Pavosevic,  Zheng Pei,  S. Prager,  
 E. I. Proynov,  E. Ramos,  B. Rana,  A. E. Rask,  A. Rettig,  R. M. Richard,  
 F. Rob,  E. Rossomme,  T. Scheele,  M. Scheurer,  M. Schneider,  
 N. Sergueev,  S. M. Sharada,  W. Skomorowski,  D. W. Small,  C. J. Stein,  
 Yu-Chuan Su,  E. J. Sundstrom,  Zhen Tao,  J. Thirman,  T. Tsuchimochi,  
 N. M. Tubman,  S. P. Veccham,  O. Vydrov,  J. Wenzel,  J. Witte,  A. Yamada,  
 Kun Yao,  S. Yeganeh,  S. R. Yost,  A. Zech,  Igor Ying Zhang,  Xing Zhang,  
 Yu Zhang,  D. Zuev,  A. Aspuru-Guzik,  A. T. Bell,  N. A. Besley,  
 K. B. Bravaya,  B. R. Brooks,  D. Casanova,  Jeng-Da Chai,  S. Coriani,  
 C. J. Cramer,  A. E. DePrince, III,  R. A. DiStasio Jr.,  A. Dreuw,  
 B. D. Dunietz,  T. R. Furlani,  W. A. Goddard III,  S. Grimme,  
 S. Hammes-Schiffer,  T. Head-Gordon,  W. J. Hehre,  Chao-Ping Hsu,  
 T.-C. Jagau,  Yousung Jung,  A. Klamt,  Jing Kong,  D. S. Lambrecht,  
 WanZhen Liang,  N. J. Mayhall,  C. W. McCurdy,  J. B. Neaton,  
 C. Ochsenfeld,  J. A. Parkhill,  R. Peverati,  V. A. Rassolov,  Yihan Shao,  
 L. V. Slipchenko,  T. Stauch,  R. P. Steele,  J. E. Subotnik,  
 A. J. W. Thom,  A. Tkatchenko,  D. G. Truhlar,  T. Van Voorhis,  
 T. A. Wesolowski,  K. B. Whaley,  H. L. Woodcock III,  P. M. Zimmerman,  
 S. Faraji,  P. M. W. Gill,  M. Head-Gordon,  J. M. Herbert,  A. I. Krylov

 Additional authors for Version 5.4.1: 
 S. Kotaru,  Shaozhi Li,  Xiangyuan Li,  F. Matz,  A. Molle,  Haisheng Ren,  
 Yingli Su,  Hung-Yi Tsai,  C. Utku,  Fang Wang

 Contributors to earlier versions of Q-Chem not listed above: 
 R. D. Adamson,  B. Austin,  R. Baer,  J. Baker,  G. J. O. Beran,  
 K. Brandhorst,  S. T. Brown,  E. F. C. Byrd,  A. K. Chakraborty,  
 G. K. L. Chan,  Chun-Min Chang,  Yunqing Chen,  C.-L. Cheng,  
 Siu Hung Chien,  D. M. Chipman,  D. L. Crittenden,  H. Dachsel,  
 R. J. Doerksen,  A. D. Dutoi,  R. G. Edgar,  J. Fosso-Tande,  
 L. Fusti-Molnar,  D. Ghosh,  A. Ghysels,  A. Golubeva-Zadorozhnaya,  
 J. Gonthier,  M. S. Gordon,  S. R. Gwaltney,  G. Hawkins,  J. E. Herr,  
 A. Heyden,  S. Hirata,  E. G. Hohenstein,  G. Kedziora,  F. J. Keil,  
 C. Kelley,  Jihan Kim,  R. A. King,  R. Z. Khaliullin,  P. P. Korambath,  
 W. Kurlancheek,  A. Laurent,  A. M. Lee,  M. S. Lee,  S. V. Levchenko,  
 Ching Yeh Lin,  D. Liotard,  E. Livshits,  R. C. Lochan,  I. Lotan,  
 L. A. Martinez-Martinez,  P. E. Maslen,  N. Nair,  D. P. O'Neill,  
 D. Neuhauser,  E. Neuscamman,  C. M. Oana,  R. Olivares-Amaya,  R. Olson,  
 T. M. Perrine,  B. Peters,  P. A. Pieniazek,  A. Prociuk,  Y. M. Rhee,  
 J. Ritchie,  M. A. Rohrdanz,  E. Rosta,  N. J. Russ,  H. F. Schaefer III,  
 M. W. Schmidt,  N. E. Schultz,  S. Sharma,  N. Shenvi,  C. D. Sherrill,  
 A. C. Simmonett,  A. Sodt,  T. Stein,  D. Stuck,  K. S. Thanthiriwatte,  
 V. Vanovschi,  L. Vogt,  Tao Wang,  A. Warshel,  M. A. Watson,  
 C. F. Williams,  Q. Wu,  X. Xu,  Jun Yang,  W. Zhang,  Yan Zhao

 Please cite Q-Chem as follows:
 Y. Shao et al., Mol. Phys. 113, 184-215 (2015)
 DOI: 10.1080/00268976.2014.952696

 Q-Chem 5.4.1 for Intel X86 EM64T Linux

 Parts of Q-Chem use Armadillo 9.800.1 (Horizon Scraper).
 http://arma.sourceforge.net/

 Q-Chem begins on Fri Feb  3 15:16:31 2023  

 Host: 
0

     Scratch files written to /scratch/ari.fischer/qChem1444727.hpc-mn1/qchem307192//
 Aug1521 |scratch|qcdevops|jenkins|workspace|build_RNUM 8249   
 Processing $rem in /usr/local/qchem-5.4.1/config/preferences:
 Processing $rem in /home/ari.fischer/.qchemrc:
 Symmetry turned off for PCM/SM12/SMD calculation


!!********************************************.
!!******************Warning*******************.
!!Desired Analytical derivatives not available.
!!Finite difference job might take a long time.
!!********************************************.
!!********************************************.


 2-order derivative to be evaluated numerically with 1-order analytical derivatives

 Checking the input file for inconsistencies... 	...done.

--------------------------------------------------------------
User input:
--------------------------------------------------------------
$molecule
0 3
O        -0.3317834170   -1.3242649916    1.9105303637
O        -0.8326618675   -1.0676328410    3.1234569566
H         0.6669518667   -0.4500523921    1.8349800192
H        -1.4718823074   -0.3419671601    2.9975794665
O         1.3524206528    0.3637853199    2.0761915064
O         0.9713729643    0.8327487220    3.1930183628
$end

$rem
BASIS = 6-311++G(2df,2p)
GUI = 2
JOB_TYPE = Frequency
METHOD = wB97M-V
SOLVENT_METHOD = SMD
SCF_ALGORITHM = DIIS_GDM
MAX_SCF_CYCLES = 400
SCF_CONVERGENCE = 7
THRESH = 12
UNRESTRICTED = 1
SYMMETRY_IGNORE = 1
$end
--------------------------------------------------------------
 ----------------------------------------------------------------
             Standard Nuclear Orientation (Angstroms)
    I     Atom           X                Y                Z
 ----------------------------------------------------------------
    1      O      -0.3317834170    -1.3242649916     1.9105303637
    2      O      -0.8326618675    -1.0676328410     3.1234569566
    3      H       0.6669518667    -0.4500523921     1.8349800192
    4      H      -1.4718823074    -0.3419671601     2.9975794665
    5      O       1.3524206528     0.3637853199     2.0761915064
    6      O       0.9713729643     0.8327487220     3.1930183628
 ----------------------------------------------------------------
 Nuclear Repulsion Energy =         124.22712605 hartrees
 There are       18 alpha and       16 beta electrons
 Requested basis set is 6-311++G(2df,2p)
 There are 44 shells and 156 basis functions

 Total QAlloc Memory Limit 288000 MB
 Mega-Array Size       188 MB
 MEM_STATIC part       192 MB
 
 Citation of the SMD model:
 Marenich, A.V.; Cramer, C.J.; Truhlar, D.G.
 J. Phys. Chem. B 2009, 113, 6378-6396.
 iSolventCode=           1
 Solvent: water                                                           
 
 vradii
            1           2           3           4           5           6
    1   1.5200000   1.5200000   1.2000000   1.2000000   1.5200000   1.5200000
 Changing PCM_VDW_RADII to SMD_RADIUS
 Discretize the solute cavity surface with Lebedev spheres
	Using 110 Lebedev grid points for each H atom
	Using 194 Lebedev grid points for other atoms
	Atomic van der Waals radii will be scaled by 1.20
 Remove points where switching function is < 1.0e-08
 Keep 630 surface tesserae and discard 366 interior tesserae
 Molecular Surface Area = 76.331 Angst**2

                       Distance Matrix (Angstroms)
             O (  1)   O (  2)   H (  3)   H (  4)   O (  5)
   O (  2)  1.337135
   H (  3)  1.329446  2.071333
   H (  4)  1.856451  0.975212  2.436787
   O (  5)  2.390293  2.814304  1.091046  3.053478
   O (  6)  2.827667  2.621227  1.892754  2.718023  1.269813
 
 A cutoff of  1.0D-12 yielded    950 shell pairs
 There are     12162 function pairs (     15559 Cartesian)
 Smallest overlap matrix eigenvalue = 4.03E-04
 Guess from superposition of atomic densities
 Warning:  Energy on first SCF cycle will be non-variational
 SAD guess density has 34.000000 electrons

 -----------------------------------------------------------------------
  General SCF calculation program by
  Eric Jon Sundstrom, Paul Horn, Yuezhi Mao, Dmitri Zuev, Alec White,
  David Stuck, Shaama M.S., Shane Yost, Joonho Lee, David Small,
  Daniel Levine, Susi Lehtola, Hugh Burton, Evgeny Epifanovsky,
  Bang C. Huynh
 -----------------------------------------------------------------------
 Exchange:     0.1500 Hartree-Fock + 1.0000 wB97M-V + LR-HF
 Correlation:  1.0000 wB97M-V
 Using SG-2 standard quadrature grid
 Nonlocal Correlation:  VV10 with C = 0.0100 and b = 6.00 and scale = 1.00000
 Grid used for NLC:  SG-1 standard quadrature
 using 8 threads for integral computing
 -------------------------------------------------------
 OpenMP Integral computing Module                
 Release: version 1.0, May 2013, Q-Chem Inc. Pittsburgh 
 -------------------------------------------------------
 
 Citation of the SMD model:
 Marenich, A.V.; Cramer, C.J.; Truhlar, D.G.
 J. Phys. Chem. B 2009, 113, 6378-6396.
 iSolventCode=           1
 Solvent: water                                                           
 
 vradii
            1           2           3           4           5           6
    1   1.5200000   1.5200000   1.2000000   1.2000000   1.5200000   1.5200000
 -------------------------------------------------------
 OpenMP BLAS3 based DFT computing Module                
 Release: version 1.0, May 2013, Q-Chem Inc. Pittsburgh 
 -------------------------------------------------------
 A unrestricted SCF calculation will be
 performed using DIIS, GDM
 SCF converges when RMS gradient is below 1.0e-07
 ---------------------------------------
  Cycle       Energy         DIIS error
 ---------------------------------------
    1    -302.0270887869      1.71e-02  
    2    -301.7923735131      2.40e-03  Done DIIS. Switching to GDM
 ---------------------------------------
  Cycle       Energy        RMS Gradient
 ---------------------------------------
    1    -301.7923735131      1.22e-01   Descent step
    2    -301.8349600817      4.79e-02   Normal BFGS step
    3    -301.8489942720      2.40e-02   Normal BFGS step
    4    -301.8514725396      2.93e-02   Normal BFGS step
    5    -301.8521715593      6.84e-03   Normal BFGS step
    6    -301.8527222117      5.52e-03   Normal BFGS step
    7    -301.8530547317      4.04e-03   Normal BFGS step
    8    -301.8531263719      3.34e-03   Normal BFGS step
    9    -301.8531487164      2.03e-03   Normal BFGS step
   10    -301.8531559604      6.47e-04   Normal BFGS step
   11    -301.8531578164      4.54e-04   Normal BFGS step
   12    -301.8531584286      2.65e-04   Normal BFGS step
   13    -301.8531586549      1.80e-04   Normal BFGS step
   14    -301.8531587225      1.21e-04   Normal BFGS step
   15    -301.8531587691      6.57e-05   Normal BFGS step
   16    -301.8531587895      3.30e-05   Normal BFGS step
   17    -301.8531587966      1.94e-05   Normal BFGS step
   18    -301.8531587978      7.71e-06   Normal BFGS step
   19    -301.8531587980      5.29e-06   Normal BFGS step
   20    -301.8531587981      3.42e-06   Normal BFGS step
   21    -301.8531587981      1.64e-06   Normal BFGS step
   22    -301.8531587981      4.80e-07   Normal BFGS step
   23    -301.8531587981      3.23e-07   Normal BFGS step
   24    -301.8531587981      2.82e-07   Normal BFGS step
   25    -301.8531587981      1.21e-07   Normal BFGS step
   26    -301.8531587981      3.58e-08  Convergence criterion met
 ---------------------------------------
 SCF time:   CPU 223.50s  wall 29.00s 
<S^2> =          2.011979009
(3)  G-ENP(liq) elect-nuc-pol free energy of system     -301.853158798 a.u.
(4)  G-CDS(liq) cavity-dispersion-solvent structure 
     free energy                                                0.7988 kcal/mol
(6)  G-S(liq) free energy of system                     -301.851885862 a.u.
 SCF   energy in the final basis set =     -301.8518858622
 Total energy in the final basis set =     -301.8518858622
 
 --------------------------------------------------------------
 
                    Orbital Energies (a.u.)
 --------------------------------------------------------------
 
 Alpha MOs
 -- Occupied --
-19.4695 -19.4563 -19.4440 -19.4193  -1.3750  -1.3271  -1.0228  -0.9767
 -0.7236  -0.6740  -0.6359  -0.6286  -0.5981  -0.5853  -0.4626  -0.4271
 -0.4068  -0.3827
 -- Virtual --
  0.0383   0.0537   0.1227   0.1514   0.1618   0.1872   0.2001   0.2084
  0.2199   0.2301   0.2381   0.2644   0.2740   0.2775   0.2898   0.2989
  0.3186   0.3673   0.3732   0.3825   0.4458   0.4733   0.5952   0.6416
  0.7250   0.7875   0.8342   0.8458   0.9535   0.9787   1.0145   1.0480
  1.0542   1.0657   1.1076   1.1125   1.1532   1.1575   1.1901   1.2196
  1.3605   1.3733   1.3953   1.4309   1.4461   1.5177   1.5299   1.6000
  1.6281   1.6625   1.6773   1.7462   1.7531   1.8637   2.0585   2.1072
  2.1926   2.2498   2.2724   2.2944   2.3587   2.3672   2.5168   2.5561
  2.6446   2.6920   2.7626   2.9229   3.6760   3.7626   3.8217   3.9389
  3.9691   4.1781   4.5045   4.5628   4.6513   4.6629   4.7173   4.7253
  4.7473   4.7624   4.8412   4.9016   4.9887   5.0035   5.0227   5.0680
  5.0836   5.0915   5.1161   5.1495   5.1508   5.1780   5.1993   5.2192
  5.2518   5.2898   5.3517   5.3816   5.4404   5.4611   5.6112   5.6412
  5.6714   5.7360   6.3375   6.3472   6.5583   6.5718   6.7035   6.7729
  6.8066   6.8371   6.9014   6.9121   6.9576   6.9756   7.0336   7.0570
  7.0815   7.1017   7.1393   7.3376   7.3500   7.3696   7.3785   7.4965
  7.5983   7.8186   7.9170   7.9826   8.0166   8.0878  50.3837  50.4134
 50.4228  50.4807
 
 Beta MOs
 -- Occupied --
-19.4525 -19.4470 -19.4206 -19.4064  -1.3386  -1.3048  -0.9922  -0.9256
 -0.6940  -0.6532  -0.5961  -0.5842  -0.5431  -0.5189  -0.4085  -0.3756
 -- Virtual --
 -0.0765  -0.0272   0.0399   0.0554   0.1288   0.1576   0.1665   0.1918
  0.2035   0.2146   0.2267   0.2373   0.2429   0.2704   0.2794   0.2875
  0.2943   0.3054   0.3345   0.3721   0.3774   0.3968   0.4548   0.4757
  0.5983   0.6477   0.7300   0.7941   0.8361   0.8504   0.9582   0.9902
  1.0270   1.0602   1.0791   1.0896   1.1187   1.1375   1.1682   1.1723
  1.2024   1.2372   1.3792   1.4026   1.4086   1.4524   1.4687   1.5340
  1.5476   1.6053   1.6440   1.6938   1.7058   1.7621   1.7769   1.8814
  2.0702   2.1292   2.2122   2.2656   2.2888   2.3170   2.3698   2.3843
  2.5317   2.5697   2.6578   2.7089   2.7662   2.9174   3.6806   3.7601
  3.8260   3.9452   3.9649   4.1835   4.5495   4.5920   4.6598   4.6968
  4.7289   4.7488   4.7691   4.7948   4.8604   4.9220   5.0474   5.0764
  5.0806   5.1159   5.1278   5.1565   5.1667   5.1764   5.1929   5.2097
  5.2323   5.2611   5.2862   5.3161   5.3898   5.4128   5.4677   5.5074
  5.6340   5.6794   5.6994   5.7599   6.3561   6.3703   6.5924   6.6273
  6.7908   6.8067   6.8874   6.9282   6.9603   6.9711   6.9872   7.0162
  7.0608   7.1021   7.1254   7.1558   7.1706   7.3758   7.4030   7.4176
  7.4234   7.5355   7.6145   7.8513   7.9309   7.9995   8.0435   8.1235
 50.3952  50.4276  50.4355  50.4917
 --------------------------------------------------------------
 
          Ground-State Mulliken Net Atomic Charges

     Atom                 Charge (a.u.)    Spin (a.u.)
  --------------------------------------------------------
      1 O                    -0.369306       0.431598
      2 O                    -0.078491       0.284057
      3 H                     0.415211      -0.030547
      4 H                     0.338158      -0.007013
      5 O                    -0.155541       0.523813
      6 O                    -0.150030       0.798091
  --------------------------------------------------------
  Sum of atomic charges =    -0.000000
  Sum of spin   charges =     2.000000

 -----------------------------------------------------------------
                    Cartesian Multipole Moments
 -----------------------------------------------------------------
    Charge (ESU x 10^10)
                 0.0000
    Dipole Moment (Debye)
         X      -2.3412      Y       0.6876      Z      -0.3514
       Tot       2.4653
    Quadrupole Moments (Debye-Ang)
        XX     -20.2557     XY      -2.3018     YY     -26.9584
        XZ      -7.8774     YZ       1.2728     ZZ     -25.4271
    Octopole Moments (Debye-Ang^2)
       XXX     -27.1381    XXY       4.8643    XYY      -5.5466
       YYY      26.1539    XXZ     -50.0658    XYZ      -5.8266
       YYZ     -69.1723    XZZ     -30.6602    YZZ       9.6789
       ZZZ    -189.4723
    Hexadecapole Moments (Debye-Ang^3)
      XXXX    -133.7682   XXXY     -44.6340   XXYY     -49.4275
      XYYY     -46.1263   YYYY    -152.9928   XXXZ     -65.5390
      XXYZ       8.7598   XYYZ     -12.6643   YYYZ      53.8191
      XXZZ    -158.1720   XYZZ     -31.8163   YYZZ    -214.7884
      XZZZ    -116.0491   YZZZ      51.2273   ZZZZ   -1028.7111
 -----------------------------------------------------------------
 Calculating analytic gradient of the SCF energy
 Gradient of CDS energy
            1           2           3           4           5           6
    1  -0.0001261   0.0002789   0.0001157  -0.0004567   0.0000914   0.0000968
    2  -0.0001818  -0.0000873  -0.0001313   0.0001780   0.0002295  -0.0000069
    3   0.0001509  -0.0001209  -0.0003311   0.0000925   0.0001999   0.0000087
 Gradient of SCF Energy
            1           2           3           4           5           6
    1  -0.0025047   0.0122600  -0.0031101  -0.0127512   0.0046493   0.0014567
    2  -0.0054230  -0.0145416  -0.0004487   0.0152334   0.0044991   0.0006808
    3  -0.0016938   0.0041607  -0.0020088  -0.0028815   0.0000209   0.0024025
 Max gradient component =       1.523E-02
 RMS gradient           =       7.011E-03
 Computing fast CPCM-SWIG gradient
 Updating gradient with PCM contributions...
 -- total gradient after adding PCM contribution --
---------------------------------------------------
  Atom         X              Y              Z     
---------------------------------------------------
   1      -0.000041       0.000038       0.000017
   2      -0.000062       0.000064      -0.000018
   3      -0.000051      -0.000041      -0.000005
   4       0.000052       0.000025       0.000035
   5       0.000026      -0.000027      -0.000016
   6       0.000075      -0.000060      -0.000013
---------------------------------------------------
 Number of fixed atoms: 0
 Gradient time:  CPU 19.85 s  wall 3.00 s
 ######################################################
 ######################################################
 # Starting finite difference calculation for IDERIV  #
 Finite diff step size:  1.88973e-03 a.u.
 ----------------------------------------------------------------
             Standard Nuclear Orientation (Angstroms)
    I     Atom           X                Y                Z
 ----------------------------------------------------------------
    1      O      -0.3307834170    -1.3242649916     1.9105303637
    2      O      -0.8326618675    -1.0676328410     3.1234569566
    3      H       0.6669518667    -0.4500523921     1.8349800192
    4      H      -1.4718823074    -0.3419671601     2.9975794665
    5      O       1.3524206528     0.3637853199     2.0761915064
    6      O       0.9713729643     0.8327487220     3.1930183628
 ----------------------------------------------------------------
 Nuclear Repulsion Energy =         124.22720107 hartrees
 There are       18 alpha and       16 beta electrons
 Discretize the solute cavity surface with Lebedev spheres
	Using 110 Lebedev grid points for each H atom
	Using 194 Lebedev grid points for other atoms
	Atomic van der Waals radii will be scaled by 1.20
 Remove points where switching function is < 1.0e-08
 Keep 630 surface tesserae and discard 366 interior tesserae
 Molecular Surface Area = 76.329 Angst**2

                       Distance Matrix (Angstroms)
             O (  1)   O (  2)   H (  3)   H (  4)   O (  5)
   O (  2)  1.337510
   H (  3)  1.328695  2.071333
   H (  4)  1.857065  0.975212  2.436787
   O (  5)  2.389589  2.814304  1.091046  3.053478
   O (  6)  2.827206  2.621227  1.892754  2.718023  1.269813
 
 Requested basis set is 6-311++G(2df,2p)
 There are 44 shells and 156 basis functions
 A cutoff of  1.0D-12 yielded    950 shell pairs
 There are     12162 function pairs (     15559 Cartesian)
 Smallest overlap matrix eigenvalue = 4.03E-04
 Guess MOs from SCF MO coefficient file

 -----------------------------------------------------------------------
  General SCF calculation program by
  Eric Jon Sundstrom, Paul Horn, Yuezhi Mao, Dmitri Zuev, Alec White,
  David Stuck, Shaama M.S., Shane Yost, Joonho Lee, David Small,
  Daniel Levine, Susi Lehtola, Hugh Burton, Evgeny Epifanovsky,
  Bang C. Huynh
 -----------------------------------------------------------------------
 Exchange:     0.1500 Hartree-Fock + 1.0000 wB97M-V + LR-HF
 Correlation:  1.0000 wB97M-V
 Using SG-2 standard quadrature grid
 Nonlocal Correlation:  VV10 with C = 0.0100 and b = 6.00 and scale = 1.00000
 Grid used for NLC:  SG-1 standard quadrature
 
 Citation of the SMD model:
 Marenich, A.V.; Cramer, C.J.; Truhlar, D.G.
 J. Phys. Chem. B 2009, 113, 6378-6396.
 iSolventCode=           1
 Solvent: water                                                           
 
 vradii
            1           2           3           4           5           6
    1   1.5200000   1.5200000   1.2000000   1.2000000   1.5200000   1.5200000
 -------------------------------------------------------
 OpenMP BLAS3 based DFT computing Module                
 Release: version 1.0, May 2013, Q-Chem Inc. Pittsburgh 
 -------------------------------------------------------
 A unrestricted SCF calculation will be
 performed using Roothaan-Hall, DIIS, GDM
 SCF converges when RMS gradient is below 1.0e-07
 ---------------------------------------
  Cycle       Energy         DIIS error
 ---------------------------------------
    1    -301.8345756447      3.73e-04  Roothaan Step
 ---------------------------------------
  Cycle       Energy         DIIS error
 ---------------------------------------
    1    -301.8504689570      4.00e-04  
    2    -301.8525629199      2.61e-04  Done DIIS. Switching to GDM
 ---------------------------------------
  Cycle       Energy        RMS Gradient
 ---------------------------------------
    1    -301.8525629199      1.60e-02   Normal BFGS step
    2    -301.8522922798      2.58e-02  Line search: overstep
    3    -301.8530776487      2.68e-03   Normal BFGS step
    4    -301.8531411176      1.48e-03   Normal BFGS step
    5    -301.8531533128      1.02e-03   Normal BFGS step
    6    -301.8531558038      6.78e-04   Normal BFGS step
    7    -301.8531573678      4.73e-04   Normal BFGS step
    8    -301.8531582785      1.38e-04   Normal BFGS step
    9    -301.8531584244      1.05e-04   Normal BFGS step
   10    -301.8531584916      5.69e-05   Normal BFGS step
   11    -301.8531585057      3.38e-05   Normal BFGS step
   12    -301.8531585134      2.32e-05   Normal BFGS step
   13    -301.8531585150      1.74e-05   Normal BFGS step
   14    -301.8531585157      1.20e-05   Normal BFGS step
   15    -301.8531585162      4.81e-06   Normal BFGS step
   16    -301.8531585164      2.42e-06   Normal BFGS step
   17    -301.8531585165      1.43e-06   Normal BFGS step
   18    -301.8531585165      5.45e-07   Normal BFGS step
   19    -301.8531585165      2.35e-07   Normal BFGS step
   20    -301.8531585165      1.74e-07   Normal BFGS step
   21    -301.8531585165      1.16e-07   Normal BFGS step
   22    -301.8531585165      5.87e-08  Convergence criterion met
 ---------------------------------------
 SCF time:   CPU 199.23s  wall 26.00s 
<S^2> =          2.011985894
(3)  G-ENP(liq) elect-nuc-pol free energy of system     -301.853158516 a.u.
(4)  G-CDS(liq) cavity-dispersion-solvent structure 
     free energy                                                0.7986 kcal/mol
(6)  G-S(liq) free energy of system                     -301.851885819 a.u.
 SCF   energy in the final basis set =     -301.8518858190
 Total energy in the final basis set =     -301.8518858190
 
 --------------------------------------------------------------
 
                    Orbital Energies (a.u.)
 --------------------------------------------------------------
 
 Alpha MOs
 -- Occupied --
-19.4696 -19.4562 -19.4442 -19.4192  -1.3752  -1.3268  -1.0228  -0.9768
 -0.7237  -0.6738  -0.6360  -0.6287  -0.5980  -0.5852  -0.4627  -0.4271
 -0.4069  -0.3828
 -- Virtual --
  0.0383   0.0537   0.1227   0.1514   0.1618   0.1872   0.2001   0.2084
  0.2198   0.2301   0.2381   0.2644   0.2740   0.2775   0.2898   0.2989
  0.3185   0.3673   0.3732   0.3827   0.4458   0.4733   0.5953   0.6417
  0.7251   0.7875   0.8342   0.8458   0.9535   0.9786   1.0145   1.0480
  1.0542   1.0657   1.1076   1.1125   1.1533   1.1575   1.1901   1.2196
  1.3606   1.3732   1.3954   1.4309   1.4461   1.5176   1.5300   1.5999
  1.6282   1.6625   1.6774   1.7465   1.7532   1.8638   2.0580   2.1075
  2.1925   2.2498   2.2722   2.2943   2.3586   2.3673   2.5170   2.5562
  2.6446   2.6921   2.7628   2.9228   3.6761   3.7625   3.8217   3.9384
  3.9690   4.1782   4.5044   4.5628   4.6515   4.6628   4.7166   4.7254
  4.7476   4.7623   4.8411   4.9020   4.9885   5.0034   5.0226   5.0680
  5.0835   5.0914   5.1161   5.1495   5.1507   5.1780   5.1993   5.2192
  5.2519   5.2904   5.3519   5.3818   5.4403   5.4615   5.6113   5.6412
  5.6710   5.7356   6.3365   6.3463   6.5589   6.5717   6.7034   6.7733
  6.8065   6.8372   6.9013   6.9121   6.9574   6.9755   7.0331   7.0569
  7.0814   7.1019   7.1394   7.3376   7.3501   7.3697   7.3784   7.4969
  7.5984   7.8189   7.9169   7.9822   8.0165   8.0879  50.3835  50.4133
 50.4226  50.4806
 
 Beta MOs
 -- Occupied --
-19.4526 -19.4469 -19.4208 -19.4064  -1.3386  -1.3046  -0.9923  -0.9256
 -0.6940  -0.6531  -0.5962  -0.5841  -0.5432  -0.5188  -0.4085  -0.3756
 -- Virtual --
 -0.0766  -0.0272   0.0399   0.0554   0.1287   0.1576   0.1665   0.1918
  0.2035   0.2146   0.2266   0.2373   0.2429   0.2704   0.2795   0.2875
  0.2943   0.3054   0.3344   0.3721   0.3774   0.3969   0.4547   0.4757
  0.5984   0.6478   0.7301   0.7941   0.8361   0.8504   0.9583   0.9901
  1.0270   1.0602   1.0791   1.0896   1.1187   1.1374   1.1683   1.1723
  1.2024   1.2371   1.3793   1.4026   1.4086   1.4524   1.4687   1.5339
  1.5477   1.6051   1.6441   1.6939   1.7058   1.7623   1.7772   1.8814
  2.0697   2.1295   2.2121   2.2655   2.2885   2.3169   2.3697   2.3845
  2.5319   2.5698   2.6579   2.7091   2.7663   2.9172   3.6806   3.7601
  3.8259   3.9448   3.9648   4.1835   4.5494   4.5920   4.6600   4.6967
  4.7282   4.7490   4.7694   4.7947   4.8604   4.9223   5.0472   5.0763
  5.0806   5.1159   5.1278   5.1564   5.1666   5.1765   5.1928   5.2096
  5.2322   5.2611   5.2862   5.3166   5.3900   5.4131   5.4674   5.5079
  5.6340   5.6794   5.6988   5.7596   6.3551   6.3693   6.5930   6.6272
  6.7908   6.8071   6.8874   6.9282   6.9601   6.9710   6.9870   7.0162
  7.0602   7.1020   7.1253   7.1559   7.1708   7.3757   7.4029   7.4177
  7.4234   7.5359   7.6145   7.8515   7.9308   7.9992   8.0433   8.1236
 50.3951  50.4275  50.4354  50.4916
 --------------------------------------------------------------
 
          Ground-State Mulliken Net Atomic Charges

     Atom                 Charge (a.u.)    Spin (a.u.)
  --------------------------------------------------------
      1 O                    -0.369538       0.430944
      2 O                    -0.079192       0.283485
      3 H                     0.415356      -0.030549
      4 H                     0.338172      -0.006999
      5 O                    -0.155318       0.524431
      6 O                    -0.149480       0.798688
  --------------------------------------------------------
  Sum of atomic charges =    -0.000000
  Sum of spin   charges =     2.000000

 -----------------------------------------------------------------
                    Cartesian Multipole Moments
 -----------------------------------------------------------------
    Charge (ESU x 10^10)
                -0.0000
    Dipole Moment (Debye)
         X      -2.3349      Y       0.6954      Z      -0.3512
       Tot       2.4615
    Quadrupole Moments (Debye-Ang)
        XX     -20.2513     XY      -2.3003     YY     -26.9627
        XZ      -7.8598     YZ       1.2942     ZZ     -25.4258
    Octopole Moments (Debye-Ang^2)
       XXX     -27.1337    XXY       4.8750    XYY      -5.5430
       YYY      26.1759    XXZ     -50.0566    XYZ      -5.8230
       YYZ     -69.1816    XZZ     -30.6106    YZZ       9.7443
       ZZZ    -189.4649
    Hexadecapole Moments (Debye-Ang^3)
      XXXX    -133.7268   XXXY     -44.6101   XXYY     -49.4250
      XYYY     -46.1049   YYYY    -153.0148   XXXZ     -65.5166
      XXYZ       8.7913   XYYZ     -12.6474   YYYZ      53.8788
      XXZZ    -158.1433   XYZZ     -31.7991   YYZZ    -214.8102
      XZZZ    -115.8977   YZZZ      51.4400   ZZZZ   -1028.6782
 -----------------------------------------------------------------
 Calculating analytic gradient of the SCF energy
 Gradient of CDS energy
            1           2           3           4           5           6
    1  -0.0001263   0.0002791   0.0001157  -0.0004567   0.0000914   0.0000968
    2  -0.0001819  -0.0000873  -0.0001312   0.0001779   0.0002295  -0.0000069
    3   0.0001509  -0.0001208  -0.0003311   0.0000924   0.0001999   0.0000087
 Gradient of SCF Energy
            1           2           3           4           5           6
    1  -0.0023781   0.0121199  -0.0029286  -0.0127686   0.0045566   0.0013988
    2  -0.0055067  -0.0144962  -0.0002407   0.0152475   0.0042441   0.0007520
    3  -0.0018406   0.0042621  -0.0019930  -0.0027941  -0.0001989   0.0025644
 Max gradient component =       1.525E-02
 RMS gradient           =       6.986E-03
 Computing fast CPCM-SWIG gradient
 Updating gradient with PCM contributions...
 -- total gradient after adding PCM contribution --
---------------------------------------------------
  Atom         X              Y              Z     
---------------------------------------------------
   1       0.000087      -0.000037      -0.000136
   2      -0.000196       0.000107       0.000092
   3       0.000119       0.000150       0.000012
   4       0.000026       0.000040       0.000114
   5      -0.000061      -0.000271      -0.000225
   6       0.000026       0.000011       0.000143
---------------------------------------------------
 Number of fixed atoms: 0
 Gradient time:  CPU 19.78 s  wall 2.99 s
 ----------------------------------------------------------------
             Standard Nuclear Orientation (Angstroms)
    I     Atom           X                Y                Z
 ----------------------------------------------------------------
    1      O      -0.3327834170    -1.3242649916     1.9105303637
    2      O      -0.8326618675    -1.0676328410     3.1234569566
    3      H       0.6669518667    -0.4500523921     1.8349800192
    4      H      -1.4718823074    -0.3419671601     2.9975794665
    5      O       1.3524206528     0.3637853199     2.0761915064
    6      O       0.9713729643     0.8327487220     3.1930183628
 ----------------------------------------------------------------
 Nuclear Repulsion Energy =         124.22704483 hartrees
 There are       18 alpha and       16 beta electrons
 Discretize the solute cavity surface with Lebedev spheres
	Using 110 Lebedev grid points for each H atom
	Using 194 Lebedev grid points for other atoms
	Atomic van der Waals radii will be scaled by 1.20
 Remove points where switching function is < 1.0e-08
 Keep 630 surface tesserae and discard 366 interior tesserae
 Molecular Surface Area = 76.332 Angst**2

                       Distance Matrix (Angstroms)
             O (  1)   O (  2)   H (  3)   H (  4)   O (  5)
   O (  2)  1.336761
   H (  3)  1.330198  2.071333
   H (  4)  1.855837  0.975212  2.436787
   O (  5)  2.390998  2.814304  1.091046  3.053478
   O (  6)  2.828128  2.621227  1.892754  2.718023  1.269813
 
 Requested basis set is 6-311++G(2df,2p)
 There are 44 shells and 156 basis functions
 A cutoff of  1.0D-12 yielded    950 shell pairs
 There are     12162 function pairs (     15559 Cartesian)
 Smallest overlap matrix eigenvalue = 4.02E-04
 Guess MOs from SCF MO coefficient file

 -----------------------------------------------------------------------
  General SCF calculation program by
  Eric Jon Sundstrom, Paul Horn, Yuezhi Mao, Dmitri Zuev, Alec White,
  David Stuck, Shaama M.S., Shane Yost, Joonho Lee, David Small,
  Daniel Levine, Susi Lehtola, Hugh Burton, Evgeny Epifanovsky,
  Bang C. Huynh
 -----------------------------------------------------------------------
 Exchange:     0.1500 Hartree-Fock + 1.0000 wB97M-V + LR-HF
 Correlation:  1.0000 wB97M-V
 Using SG-2 standard quadrature grid
 Nonlocal Correlation:  VV10 with C = 0.0100 and b = 6.00 and scale = 1.00000
 Grid used for NLC:  SG-1 standard quadrature
 
 Citation of the SMD model:
 Marenich, A.V.; Cramer, C.J.; Truhlar, D.G.
 J. Phys. Chem. B 2009, 113, 6378-6396.
 iSolventCode=           1
 Solvent: water                                                           
 
 vradii
            1           2           3           4           5           6
    1   1.5200000   1.5200000   1.2000000   1.2000000   1.5200000   1.5200000
 -------------------------------------------------------
 OpenMP BLAS3 based DFT computing Module                
 Release: version 1.0, May 2013, Q-Chem Inc. Pittsburgh 
 -------------------------------------------------------
 A unrestricted SCF calculation will be
 performed using Roothaan-Hall, DIIS, GDM
 SCF converges when RMS gradient is below 1.0e-07
 ---------------------------------------
  Cycle       Energy         DIIS error
 ---------------------------------------
    1    -301.8345900349      3.74e-04  Roothaan Step
 ---------------------------------------
  Cycle       Energy         DIIS error
 ---------------------------------------
    1    -301.8504660389      4.00e-04  
    2    -301.8525585374      2.61e-04  Done DIIS. Switching to GDM
 ---------------------------------------
  Cycle       Energy        RMS Gradient
 ---------------------------------------
    1    -301.8525585374      1.60e-02   Normal BFGS step
    2    -301.8522896739      2.57e-02  Line search: overstep
    3    -301.8530741427      2.64e-03   Normal BFGS step
    4    -301.8531390522      1.70e-03   Normal BFGS step
    5    -301.8531522766      1.22e-03   Normal BFGS step
    6    -301.8531553856      7.75e-04   Normal BFGS step
    7    -301.8531574902      4.89e-04   Normal BFGS step
    8    -301.8531585644      1.62e-04   Normal BFGS step
    9    -301.8531587398      1.14e-04   Normal BFGS step
   10    -301.8531588101      7.48e-05   Normal BFGS step
   11    -301.8531588268      3.47e-05   Normal BFGS step
   12    -301.8531588349      2.58e-05   Normal BFGS step
   13    -301.8531588370      1.82e-05   Normal BFGS step
   14    -301.8531588376      1.29e-05   Normal BFGS step
   15    -301.8531588383      4.53e-06   Normal BFGS step
   16    -301.8531588384      2.49e-06   Normal BFGS step
   17    -301.8531588385      1.53e-06   Normal BFGS step
   18    -301.8531588385      6.04e-07   Normal BFGS step
   19    -301.8531588385      3.07e-07   Normal BFGS step
   20    -301.8531588385      2.25e-07   Normal BFGS step
   21    -301.8531588385      1.42e-07   Normal BFGS step
   22    -301.8531588385      6.43e-08  Convergence criterion met
 ---------------------------------------
 SCF time:   CPU 197.73s  wall 25.00s 
<S^2> =          2.011972054
(3)  G-ENP(liq) elect-nuc-pol free energy of system     -301.853158839 a.u.
(4)  G-CDS(liq) cavity-dispersion-solvent structure 
     free energy                                                0.7989 kcal/mol
(6)  G-S(liq) free energy of system                     -301.851885664 a.u.
 SCF   energy in the final basis set =     -301.8518856644
 Total energy in the final basis set =     -301.8518856644
 
 --------------------------------------------------------------
 
                    Orbital Energies (a.u.)
 --------------------------------------------------------------
 
 Alpha MOs
 -- Occupied --
-19.4694 -19.4565 -19.4438 -19.4193  -1.3749  -1.3274  -1.0227  -0.9766
 -0.7236  -0.6741  -0.6358  -0.6285  -0.5983  -0.5855  -0.4625  -0.4271
 -0.4067  -0.3827
 -- Virtual --
  0.0383   0.0537   0.1228   0.1515   0.1618   0.1872   0.2001   0.2084
  0.2199   0.2301   0.2381   0.2644   0.2741   0.2775   0.2898   0.2989
  0.3187   0.3673   0.3732   0.3823   0.4459   0.4733   0.5952   0.6415
  0.7249   0.7875   0.8341   0.8458   0.9534   0.9788   1.0145   1.0480
  1.0542   1.0658   1.1076   1.1126   1.1532   1.1575   1.1901   1.2196
  1.3604   1.3734   1.3953   1.4309   1.4461   1.5177   1.5297   1.6001
  1.6280   1.6625   1.6773   1.7458   1.7529   1.8637   2.0590   2.1069
  2.1926   2.2499   2.2725   2.2946   2.3588   2.3671   2.5167   2.5560
  2.6446   2.6918   2.7625   2.9231   3.6760   3.7626   3.8218   3.9393
  3.9692   4.1780   4.5046   4.5627   4.6510   4.6630   4.7179   4.7252
  4.7470   4.7626   4.8412   4.9013   4.9888   5.0036   5.0228   5.0680
  5.0836   5.0916   5.1162   5.1495   5.1508   5.1781   5.1993   5.2193
  5.2517   5.2892   5.3515   5.3813   5.4406   5.4607   5.6112   5.6412
  5.6719   5.7364   6.3385   6.3482   6.5577   6.5719   6.7036   6.7725
  6.8067   6.8371   6.9015   6.9122   6.9577   6.9757   7.0341   7.0571
  7.0816   7.1015   7.1392   7.3376   7.3498   7.3695   7.3786   7.4961
  7.5982   7.8183   7.9171   7.9830   8.0168   8.0878  50.3838  50.4135
 50.4229  50.4808
 
 Beta MOs
 -- Occupied --
-19.4525 -19.4471 -19.4204 -19.4065  -1.3385  -1.3051  -0.9921  -0.9255
 -0.6940  -0.6533  -0.5960  -0.5844  -0.5430  -0.5190  -0.4085  -0.3756
 -- Virtual --
 -0.0764  -0.0271   0.0399   0.0554   0.1288   0.1576   0.1665   0.1918
  0.2035   0.2146   0.2267   0.2373   0.2429   0.2704   0.2794   0.2876
  0.2943   0.3053   0.3345   0.3721   0.3774   0.3966   0.4548   0.4756
  0.5983   0.6476   0.7299   0.7941   0.8360   0.8505   0.9582   0.9903
  1.0270   1.0601   1.0792   1.0896   1.1186   1.1375   1.1682   1.1723
  1.2024   1.2372   1.3791   1.4026   1.4086   1.4524   1.4687   1.5340
  1.5474   1.6054   1.6439   1.6938   1.7057   1.7619   1.7767   1.8813
  2.0707   2.1288   2.2122   2.2656   2.2890   2.3171   2.3699   2.3842
  2.5315   2.5695   2.6578   2.7088   2.7661   2.9176   3.6806   3.7602
  3.8260   3.9457   3.9650   4.1834   4.5496   4.5920   4.6595   4.6969
  4.7296   4.7487   4.7689   4.7949   4.8605   4.9217   5.0475   5.0765
  5.0807   5.1159   5.1278   5.1566   5.1668   5.1763   5.1930   5.2098
  5.2324   5.2611   5.2861   5.3155   5.3897   5.4126   5.4681   5.5069
  5.6340   5.6794   5.6999   5.7602   6.3571   6.3714   6.5918   6.6274
  6.7909   6.8062   6.8874   6.9282   6.9604   6.9712   6.9875   7.0163
  7.0614   7.1021   7.1255   7.1557   7.1704   7.3759   7.4030   7.4174
  7.4234   7.5352   7.6144   7.8510   7.9309   7.9999   8.0437   8.1235
 50.3953  50.4277  50.4357  50.4918
 --------------------------------------------------------------
 
          Ground-State Mulliken Net Atomic Charges

     Atom                 Charge (a.u.)    Spin (a.u.)
  --------------------------------------------------------
      1 O                    -0.369077       0.432250
      2 O                    -0.077791       0.284626
      3 H                     0.415066      -0.030544
      4 H                     0.338143      -0.007027
      5 O                    -0.155764       0.523197
      6 O                    -0.150577       0.797498
  --------------------------------------------------------
  Sum of atomic charges =    -0.000000
  Sum of spin   charges =     2.000000

 -----------------------------------------------------------------
                    Cartesian Multipole Moments
 -----------------------------------------------------------------
    Charge (ESU x 10^10)
                -0.0000
    Dipole Moment (Debye)
         X      -2.3475      Y       0.6798      Z      -0.3516
       Tot       2.4691
    Quadrupole Moments (Debye-Ang)
        XX     -20.2601     XY      -2.3032     YY     -26.9540
        XZ      -7.8949     YZ       1.2514     ZZ     -25.4285
    Octopole Moments (Debye-Ang^2)
       XXX     -27.1425    XXY       4.8537    XYY      -5.5501
       YYY      26.1320    XXZ     -50.0750    XYZ      -5.8302
       YYZ     -69.1630    XZZ     -30.7096    YZZ       9.6137
       ZZZ    -189.4795
    Hexadecapole Moments (Debye-Ang^3)
      XXXX    -133.8096   XXXY     -44.6579   XXYY     -49.4301
      XYYY     -46.1476   YYYY    -152.9709   XXXZ     -65.5612
      XXYZ       8.7284   XYYZ     -12.6810   YYYZ      53.7596
      XXZZ    -158.2005   XYZZ     -31.8334   YYZZ    -214.7667
      XZZZ    -116.1995   YZZZ      51.0156   ZZZZ   -1028.7435
 -----------------------------------------------------------------
 Calculating analytic gradient of the SCF energy
 Gradient of CDS energy
            1           2           3           4           5           6
    1  -0.0001259   0.0002787   0.0001157  -0.0004567   0.0000913   0.0000968
    2  -0.0001817  -0.0000873  -0.0001315   0.0001780   0.0002295  -0.0000069
    3   0.0001509  -0.0001210  -0.0003310   0.0000926   0.0001999   0.0000087
 Gradient of SCF Energy
            1           2           3           4           5           6
    1  -0.0026315   0.0124002  -0.0032910  -0.0127339   0.0047419   0.0015143
    2  -0.0053392  -0.0145873  -0.0006558   0.0152194   0.0047531   0.0006098
    3  -0.0015460   0.0040585  -0.0020245  -0.0029690   0.0002396   0.0022413
 Max gradient component =       1.522E-02
 RMS gradient           =       7.038E-03
 Computing fast CPCM-SWIG gradient
 Updating gradient with PCM contributions...
 -- total gradient after adding PCM contribution --
---------------------------------------------------
  Atom         X              Y              Z     
---------------------------------------------------
   1      -0.000168       0.000113       0.000170
   2       0.000073       0.000020      -0.000130
   3      -0.000220      -0.000231      -0.000021
   4       0.000078       0.000011      -0.000045
   5       0.000114       0.000216       0.000193
   6       0.000125      -0.000130      -0.000168
---------------------------------------------------
 Number of fixed atoms: 0
 Gradient time:  CPU 19.81 s  wall 2.99 s
 ----------------------------------------------------------------
             Standard Nuclear Orientation (Angstroms)
    I     Atom           X                Y                Z
 ----------------------------------------------------------------
    1      O      -0.3317834170    -1.3232649916     1.9105303637
    2      O      -0.8326618675    -1.0676328410     3.1234569566
    3      H       0.6669518667    -0.4500523921     1.8349800192
    4      H      -1.4718823074    -0.3419671601     2.9975794665
    5      O       1.3524206528     0.3637853199     2.0761915064
    6      O       0.9713729643     0.8327487220     3.1930183628
 ----------------------------------------------------------------
 Nuclear Repulsion Energy =         124.24039889 hartrees
 There are       18 alpha and       16 beta electrons
 Discretize the solute cavity surface with Lebedev spheres
	Using 110 Lebedev grid points for each H atom
	Using 194 Lebedev grid points for other atoms
	Atomic van der Waals radii will be scaled by 1.20
 Remove points where switching function is < 1.0e-08
 Keep 630 surface tesserae and discard 366 interior tesserae
 Molecular Surface Area = 76.323 Angst**2

                       Distance Matrix (Angstroms)
             O (  1)   O (  2)   H (  3)   H (  4)   O (  5)
   O (  2)  1.336944
   H (  3)  1.328789  2.071333
   H (  4)  1.855922  0.975212  2.436787
   O (  5)  2.389587  2.814304  1.091046  3.053478
   O (  6)  2.826904  2.621227  1.892754  2.718023  1.269813
 
 Requested basis set is 6-311++G(2df,2p)
 There are 44 shells and 156 basis functions
 A cutoff of  1.0D-12 yielded    950 shell pairs
 There are     12162 function pairs (     15559 Cartesian)
 Smallest overlap matrix eigenvalue = 4.02E-04
 Guess MOs from SCF MO coefficient file

 -----------------------------------------------------------------------
  General SCF calculation program by
  Eric Jon Sundstrom, Paul Horn, Yuezhi Mao, Dmitri Zuev, Alec White,
  David Stuck, Shaama M.S., Shane Yost, Joonho Lee, David Small,
  Daniel Levine, Susi Lehtola, Hugh Burton, Evgeny Epifanovsky,
  Bang C. Huynh
 -----------------------------------------------------------------------
 Exchange:     0.1500 Hartree-Fock + 1.0000 wB97M-V + LR-HF
 Correlation:  1.0000 wB97M-V
 Using SG-2 standard quadrature grid
 Nonlocal Correlation:  VV10 with C = 0.0100 and b = 6.00 and scale = 1.00000
 Grid used for NLC:  SG-1 standard quadrature
 
 Citation of the SMD model:
 Marenich, A.V.; Cramer, C.J.; Truhlar, D.G.
 J. Phys. Chem. B 2009, 113, 6378-6396.
 iSolventCode=           1
 Solvent: water                                                           
 
 vradii
            1           2           3           4           5           6
    1   1.5200000   1.5200000   1.2000000   1.2000000   1.5200000   1.5200000
 -------------------------------------------------------
 OpenMP BLAS3 based DFT computing Module                
 Release: version 1.0, May 2013, Q-Chem Inc. Pittsburgh 
 -------------------------------------------------------
 A unrestricted SCF calculation will be
 performed using Roothaan-Hall, DIIS, GDM
 SCF converges when RMS gradient is below 1.0e-07
 ---------------------------------------
  Cycle       Energy         DIIS error
 ---------------------------------------
    1    -301.8345679139      3.73e-04  Roothaan Step
 ---------------------------------------
  Cycle       Energy         DIIS error
 ---------------------------------------
    1    -301.8504690322      4.00e-04  
    2    -301.8525633298      2.61e-04  Done DIIS. Switching to GDM
 ---------------------------------------
  Cycle       Energy        RMS Gradient
 ---------------------------------------
    1    -301.8525633298      1.60e-02   Normal BFGS step
    2    -301.8522932317      2.58e-02  Line search: overstep
    3    -301.8530775028      2.69e-03   Normal BFGS step
    4    -301.8531409513      1.49e-03   Normal BFGS step
    5    -301.8531531064      9.84e-04   Normal BFGS step
    6    -301.8531555676      6.83e-04   Normal BFGS step
    7    -301.8531571000      4.74e-04   Normal BFGS step
    8    -301.8531579942      1.32e-04   Normal BFGS step
    9    -301.8531581380      1.02e-04   Normal BFGS step
   10    -301.8531582057      5.83e-05   Normal BFGS step
   11    -301.8531582196      3.26e-05   Normal BFGS step
   12    -301.8531582258      1.94e-05   Normal BFGS step
   13    -301.8531582274      1.71e-05   Normal BFGS step
   14    -301.8531582281      1.29e-05   Normal BFGS step
   15    -301.8531582286      5.71e-06   Normal BFGS step
   16    -301.8531582288      2.54e-06   Normal BFGS step
   17    -301.8531582288      1.42e-06   Normal BFGS step
   18    -301.8531582288      5.21e-07   Normal BFGS step
   19    -301.8531582288      2.18e-07   Normal BFGS step
   20    -301.8531582288      1.66e-07   Normal BFGS step
   21    -301.8531582288      1.14e-07   Normal BFGS step
   22    -301.8531582288      5.96e-08  Convergence criterion met
 ---------------------------------------
 SCF time:   CPU 194.91s  wall 25.00s 
<S^2> =          2.011977532
(3)  G-ENP(liq) elect-nuc-pol free energy of system     -301.853158229 a.u.
(4)  G-CDS(liq) cavity-dispersion-solvent structure 
     free energy                                                0.7986 kcal/mol
(6)  G-S(liq) free energy of system                     -301.851885636 a.u.
 SCF   energy in the final basis set =     -301.8518856361
 Total energy in the final basis set =     -301.8518856361
 
 --------------------------------------------------------------
 
                    Orbital Energies (a.u.)
 --------------------------------------------------------------
 
 Alpha MOs
 -- Occupied --
-19.4695 -19.4563 -19.4441 -19.4192  -1.3751  -1.3272  -1.0228  -0.9767
 -0.7237  -0.6740  -0.6359  -0.6287  -0.5982  -0.5854  -0.4626  -0.4271
 -0.4068  -0.3827
 -- Virtual --
  0.0383   0.0537   0.1227   0.1515   0.1618   0.1872   0.2001   0.2084
  0.2199   0.2301   0.2381   0.2644   0.2741   0.2775   0.2898   0.2989
  0.3186   0.3673   0.3732   0.3826   0.4459   0.4733   0.5953   0.6417
  0.7251   0.7875   0.8341   0.8458   0.9535   0.9787   1.0145   1.0480
  1.0542   1.0657   1.1076   1.1125   1.1533   1.1575   1.1901   1.2196
  1.3606   1.3733   1.3953   1.4310   1.4461   1.5177   1.5301   1.6001
  1.6283   1.6625   1.6774   1.7464   1.7532   1.8637   2.0587   2.1075
  2.1926   2.2498   2.2724   2.2945   2.3588   2.3674   2.5169   2.5563
  2.6445   2.6922   2.7627   2.9229   3.6760   3.7625   3.8218   3.9385
  3.9691   4.1781   4.5045   4.5628   4.6511   4.6628   4.7176   4.7253
  4.7472   4.7624   4.8411   4.9016   4.9886   5.0035   5.0227   5.0680
  5.0836   5.0915   5.1161   5.1495   5.1508   5.1781   5.1994   5.2193
  5.2521   5.2900   5.3520   5.3817   5.4410   5.4615   5.6112   5.6412
  5.6716   5.7365   6.3385   6.3476   6.5589   6.5718   6.7035   6.7733
  6.8067   6.8371   6.9014   6.9123   6.9577   6.9758   7.0340   7.0570
  7.0815   7.1020   7.1394   7.3377   7.3502   7.3697   7.3787   7.4970
  7.5982   7.8193   7.9172   7.9830   8.0166   8.0881  50.3837  50.4134
 50.4229  50.4808
 
 Beta MOs
 -- Occupied --
-19.4525 -19.4470 -19.4206 -19.4064  -1.3386  -1.3049  -0.9922  -0.9256
 -0.6940  -0.6532  -0.5961  -0.5843  -0.5431  -0.5189  -0.4085  -0.3756
 -- Virtual --
 -0.0764  -0.0272   0.0399   0.0554   0.1288   0.1576   0.1665   0.1918
  0.2035   0.2146   0.2267   0.2374   0.2429   0.2704   0.2795   0.2876
  0.2943   0.3054   0.3345   0.3721   0.3774   0.3969   0.4548   0.4756
  0.5983   0.6478   0.7301   0.7941   0.8360   0.8505   0.9582   0.9902
  1.0270   1.0601   1.0791   1.0896   1.1186   1.1375   1.1682   1.1723
  1.2024   1.2372   1.3793   1.4026   1.4085   1.4524   1.4687   1.5340
  1.5478   1.6054   1.6442   1.6939   1.7059   1.7622   1.7772   1.8814
  2.0704   2.1294   2.2121   2.2656   2.2889   2.3170   2.3699   2.3845
  2.5317   2.5699   2.6578   2.7092   2.7663   2.9174   3.6806   3.7601
  3.8260   3.9449   3.9649   4.1835   4.5495   4.5920   4.6596   4.6968
  4.7293   4.7488   4.7691   4.7948   4.8604   4.9219   5.0472   5.0764
  5.0806   5.1159   5.1278   5.1564   5.1666   5.1765   5.1929   5.2098
  5.2324   5.2612   5.2865   5.3162   5.3901   5.4130   5.4683   5.5078
  5.6340   5.6795   5.6996   5.7603   6.3565   6.3713   6.5930   6.6273
  6.7909   6.8071   6.8875   6.9282   6.9605   6.9711   6.9875   7.0163
  7.0612   7.1021   7.1254   7.1558   7.1708   7.3760   7.4030   7.4177
  7.4235   7.5361   7.6144   7.8520   7.9311   7.9999   8.0435   8.1238
 50.3953  50.4277  50.4356  50.4918
 --------------------------------------------------------------
 
          Ground-State Mulliken Net Atomic Charges

     Atom                 Charge (a.u.)    Spin (a.u.)
  --------------------------------------------------------
      1 O                    -0.369435       0.431275
      2 O                    -0.078584       0.283914
      3 H                     0.415354      -0.030507
      4 H                     0.338137      -0.007012
      5 O                    -0.155563       0.524131
      6 O                    -0.149910       0.798199
  --------------------------------------------------------
  Sum of atomic charges =     0.000000
  Sum of spin   charges =     2.000000

 -----------------------------------------------------------------
                    Cartesian Multipole Moments
 -----------------------------------------------------------------
    Charge (ESU x 10^10)
                -0.0000
    Dipole Moment (Debye)
         X      -2.3396      Y       0.6877      Z      -0.3507
       Tot       2.4637
    Quadrupole Moments (Debye-Ang)
        XX     -20.2546     XY      -2.3014     YY     -26.9555
        XZ      -7.8734     YZ       1.2729     ZZ     -25.4234
    Octopole Moments (Debye-Ang^2)
       XXX     -27.1345    XXY       4.8598    XYY      -5.5452
       YYY      26.1330    XXZ     -50.0634    XYZ      -5.8256
       YYZ     -69.1642    XZZ     -30.6492    YZZ       9.6739
       ZZZ    -189.4573
    Hexadecapole Moments (Debye-Ang^3)
      XXXX    -133.7634   XXXY     -44.6273   XXYY     -49.4113
      XYYY     -46.1203   YYYY    -152.8892   XXXZ     -65.5302
      XXYZ       8.7519   XYYZ     -12.6595   YYYZ      53.7766
      XXZZ    -158.1658   XYZZ     -31.8101   YYZZ    -214.7524
      XZZZ    -116.0168   YZZZ      51.1984   ZZZZ   -1028.6540
 -----------------------------------------------------------------
 Calculating analytic gradient of the SCF energy
 Gradient of CDS energy
            1           2           3           4           5           6
    1  -0.0001262   0.0002789   0.0001163  -0.0004567   0.0000910   0.0000967
    2  -0.0001814  -0.0000873  -0.0001318   0.0001780   0.0002295  -0.0000070
    3   0.0001510  -0.0001209  -0.0003311   0.0000926   0.0001998   0.0000087
 Gradient of SCF Energy
            1           2           3           4           5           6
    1  -0.0025854   0.0123352  -0.0030147  -0.0127299   0.0045591   0.0014358
    2  -0.0052548  -0.0146594  -0.0003857   0.0152334   0.0043673   0.0006991
    3  -0.0014703   0.0040576  -0.0020118  -0.0029643  -0.0000615   0.0024502
 Max gradient component =       1.523E-02
 RMS gradient           =       7.010E-03
 Computing fast CPCM-SWIG gradient
 Updating gradient with PCM contributions...
 -- total gradient after adding PCM contribution --
---------------------------------------------------
  Atom         X              Y              Z     
---------------------------------------------------
   1      -0.000116       0.000201       0.000235
   2       0.000018      -0.000056      -0.000121
   3       0.000034       0.000018      -0.000007
   4       0.000067       0.000031      -0.000046
   5      -0.000058      -0.000153      -0.000096
   6       0.000055      -0.000041       0.000035
---------------------------------------------------
 Number of fixed atoms: 0
 Gradient time:  CPU 19.38 s  wall 2.84 s
 ----------------------------------------------------------------
             Standard Nuclear Orientation (Angstroms)
    I     Atom           X                Y                Z
 ----------------------------------------------------------------
    1      O      -0.3317834170    -1.3252649916     1.9105303637
    2      O      -0.8326618675    -1.0676328410     3.1234569566
    3      H       0.6669518667    -0.4500523921     1.8349800192
    4      H      -1.4718823074    -0.3419671601     2.9975794665
    5      O       1.3524206528     0.3637853199     2.0761915064
    6      O       0.9713729643     0.8327487220     3.1930183628
 ----------------------------------------------------------------
 Nuclear Repulsion Energy =         124.21384339 hartrees
 There are       18 alpha and       16 beta electrons
 Discretize the solute cavity surface with Lebedev spheres
	Using 110 Lebedev grid points for each H atom
	Using 194 Lebedev grid points for other atoms
	Atomic van der Waals radii will be scaled by 1.20
 Remove points where switching function is < 1.0e-08
 Keep 630 surface tesserae and discard 366 interior tesserae
 Molecular Surface Area = 76.339 Angst**2

                       Distance Matrix (Angstroms)
             O (  1)   O (  2)   H (  3)   H (  4)   O (  5)
   O (  2)  1.337327
   H (  3)  1.330104  2.071333
   H (  4)  1.856980  0.975212  2.436787
   O (  5)  2.390999  2.814304  1.091046  3.053478
   O (  6)  2.828430  2.621227  1.892754  2.718023  1.269813
 
 Requested basis set is 6-311++G(2df,2p)
 There are 44 shells and 156 basis functions
 A cutoff of  1.0D-12 yielded    950 shell pairs
 There are     12162 function pairs (     15559 Cartesian)
 Smallest overlap matrix eigenvalue = 4.03E-04
 Guess MOs from SCF MO coefficient file

 -----------------------------------------------------------------------
  General SCF calculation program by
  Eric Jon Sundstrom, Paul Horn, Yuezhi Mao, Dmitri Zuev, Alec White,
  David Stuck, Shaama M.S., Shane Yost, Joonho Lee, David Small,
  Daniel Levine, Susi Lehtola, Hugh Burton, Evgeny Epifanovsky,
  Bang C. Huynh
 -----------------------------------------------------------------------
 Exchange:     0.1500 Hartree-Fock + 1.0000 wB97M-V + LR-HF
 Correlation:  1.0000 wB97M-V
 Using SG-2 standard quadrature grid
 Nonlocal Correlation:  VV10 with C = 0.0100 and b = 6.00 and scale = 1.00000
 Grid used for NLC:  SG-1 standard quadrature
 
 Citation of the SMD model:
 Marenich, A.V.; Cramer, C.J.; Truhlar, D.G.
 J. Phys. Chem. B 2009, 113, 6378-6396.
 iSolventCode=           1
 Solvent: water                                                           
 
 vradii
            1           2           3           4           5           6
    1   1.5200000   1.5200000   1.2000000   1.2000000   1.5200000   1.5200000
 -------------------------------------------------------
 OpenMP BLAS3 based DFT computing Module                
 Release: version 1.0, May 2013, Q-Chem Inc. Pittsburgh 
 -------------------------------------------------------
 A unrestricted SCF calculation will be
 performed using Roothaan-Hall, DIIS, GDM
 SCF converges when RMS gradient is below 1.0e-07
 ---------------------------------------
  Cycle       Energy         DIIS error
 ---------------------------------------
    1    -301.8345758411      3.73e-04  Roothaan Step
 ---------------------------------------
  Cycle       Energy         DIIS error
 ---------------------------------------
    1    -301.8504669584      4.00e-04  
    2    -301.8525598881      2.61e-04  Done DIIS. Switching to GDM
 ---------------------------------------
  Cycle       Energy        RMS Gradient
 ---------------------------------------
    1    -301.8525598881      1.60e-02   Normal BFGS step
    2    -301.8522897924      2.57e-02  Line search: overstep
    3    -301.8530762230      2.65e-03   Normal BFGS step
    4    -301.8531403696      1.59e-03   Normal BFGS step
    5    -301.8531531175      1.14e-03   Normal BFGS step
    6    -301.8531559396      7.29e-04   Normal BFGS step
    7    -301.8531577960      4.83e-04   Normal BFGS step
    8    -301.8531588030      1.50e-04   Normal BFGS step
    9    -301.8531589638      1.11e-04   Normal BFGS step
   10    -301.8531590325      6.93e-05   Normal BFGS step
   11    -301.8531590484      3.45e-05   Normal BFGS step
   12    -301.8531590564      2.54e-05   Normal BFGS step
   13    -301.8531590584      1.79e-05   Normal BFGS step
   14    -301.8531590590      1.27e-05   Normal BFGS step
   15    -301.8531590597      4.36e-06   Normal BFGS step
   16    -301.8531590598      2.48e-06   Normal BFGS step
   17    -301.8531590599      1.50e-06   Normal BFGS step
   18    -301.8531590599      5.83e-07   Normal BFGS step
   19    -301.8531590599      2.62e-07   Normal BFGS step
   20    -301.8531590599      1.93e-07   Normal BFGS step
   21    -301.8531590599      1.25e-07   Normal BFGS step
   22    -301.8531590599      6.03e-08  Convergence criterion met
 ---------------------------------------
 SCF time:   CPU 196.92s  wall 25.00s 
<S^2> =          2.011980475
(3)  G-ENP(liq) elect-nuc-pol free energy of system     -301.853159060 a.u.
(4)  G-CDS(liq) cavity-dispersion-solvent structure 
     free energy                                                0.7990 kcal/mol
(6)  G-S(liq) free energy of system                     -301.851885780 a.u.
 SCF   energy in the final basis set =     -301.8518857800
 Total energy in the final basis set =     -301.8518857800
 
 --------------------------------------------------------------
 
                    Orbital Energies (a.u.)
 --------------------------------------------------------------
 
 Alpha MOs
 -- Occupied --
-19.4695 -19.4564 -19.4440 -19.4193  -1.3750  -1.3270  -1.0227  -0.9767
 -0.7236  -0.6740  -0.6359  -0.6286  -0.5981  -0.5853  -0.4626  -0.4271
 -0.4068  -0.3828
 -- Virtual --
  0.0383   0.0537   0.1227   0.1514   0.1618   0.1872   0.2001   0.2084
  0.2198   0.2301   0.2381   0.2644   0.2740   0.2775   0.2898   0.2989
  0.3186   0.3673   0.3732   0.3824   0.4458   0.4734   0.5952   0.6415
  0.7250   0.7874   0.8342   0.8458   0.9535   0.9787   1.0145   1.0481
  1.0543   1.0658   1.1077   1.1125   1.1532   1.1575   1.1901   1.2196
  1.3604   1.3733   1.3953   1.4309   1.4461   1.5176   1.5296   1.5998
  1.6279   1.6625   1.6772   1.7459   1.7529   1.8637   2.0583   2.1069
  2.1926   2.2498   2.2723   2.2943   2.3586   2.3671   2.5168   2.5559
  2.6447   2.6918   2.7625   2.9230   3.6761   3.7626   3.8217   3.9392
  3.9691   4.1781   4.5045   4.5628   4.6515   4.6629   4.7169   4.7254
  4.7474   4.7624   4.8412   4.9017   4.9888   5.0036   5.0227   5.0680
  5.0835   5.0915   5.1162   5.1495   5.1507   5.1779   5.1992   5.2192
  5.2516   5.2896   5.3515   5.3814   5.4399   5.4606   5.6113   5.6412
  5.6713   5.7355   6.3365   6.3468   6.5577   6.5718   6.7035   6.7724
  6.8065   6.8372   6.9014   6.9120   6.9574   6.9754   7.0332   7.0570
  7.0815   7.1015   7.1392   7.3375   7.3497   7.3695   7.3784   7.4960
  7.5984   7.8179   7.9168   7.9822   8.0167   8.0876  50.3836  50.4134
 50.4227  50.4806
 
 Beta MOs
 -- Occupied --
-19.4525 -19.4470 -19.4206 -19.4065  -1.3385  -1.3047  -0.9922  -0.9256
 -0.6939  -0.6532  -0.5961  -0.5842  -0.5431  -0.5189  -0.4085  -0.3756
 -- Virtual --
 -0.0765  -0.0272   0.0399   0.0554   0.1287   0.1576   0.1665   0.1918
  0.2035   0.2146   0.2266   0.2373   0.2429   0.2704   0.2794   0.2875
  0.2943   0.3053   0.3344   0.3721   0.3774   0.3966   0.4547   0.4757
  0.5983   0.6476   0.7300   0.7941   0.8361   0.8504   0.9582   0.9902
  1.0270   1.0602   1.0792   1.0896   1.1187   1.1375   1.1682   1.1722
  1.2024   1.2372   1.3792   1.4026   1.4086   1.4523   1.4687   1.5339
  1.5473   1.6051   1.6438   1.6938   1.7056   1.7620   1.7767   1.8814
  2.0700   2.1289   2.2122   2.2656   2.2886   2.3170   2.3697   2.3841
  2.5317   2.5694   2.6579   2.7087   2.7661   2.9175   3.6806   3.7602
  3.8260   3.9456   3.9649   4.1834   4.5495   4.5920   4.6600   4.6969
  4.7285   4.7489   4.7692   4.7948   4.8604   4.9221   5.0475   5.0764
  5.0806   5.1159   5.1277   5.1566   5.1667   5.1764   5.1929   5.2096
  5.2322   5.2610   5.2859   5.3159   5.3896   5.4126   5.4672   5.5070
  5.6341   5.6794   5.6991   5.7594   6.3557   6.3694   6.5918   6.6273
  6.7908   6.8062   6.8874   6.9282   6.9601   6.9711   6.9870   7.0162
  7.0604   7.1020   7.1254   7.1557   7.1704   7.3756   7.4029   7.4174
  7.4233   7.5350   7.6146   7.8505   7.9307   7.9992   8.0435   8.1233
 50.3951  50.4276  50.4355  50.4916
 --------------------------------------------------------------
 
          Ground-State Mulliken Net Atomic Charges

     Atom                 Charge (a.u.)    Spin (a.u.)
  --------------------------------------------------------
      1 O                    -0.369177       0.431921
      2 O                    -0.078398       0.284199
      3 H                     0.415067      -0.030586
      4 H                     0.338178      -0.007014
      5 O                    -0.155520       0.523495
      6 O                    -0.150150       0.797984
  --------------------------------------------------------
  Sum of atomic charges =    -0.000000
  Sum of spin   charges =     2.000000

 -----------------------------------------------------------------
                    Cartesian Multipole Moments
 -----------------------------------------------------------------
    Charge (ESU x 10^10)
                 0.0000
    Dipole Moment (Debye)
         X      -2.3428      Y       0.6874      Z      -0.3521
       Tot       2.4669
    Quadrupole Moments (Debye-Ang)
        XX     -20.2568     XY      -2.3022     YY     -26.9613
        XZ      -7.8814     YZ       1.2726     ZZ     -25.4309
    Octopole Moments (Debye-Ang^2)
       XXX     -27.1418    XXY       4.8689    XYY      -5.5480
       YYY      26.1749    XXZ     -50.0682    XYZ      -5.8276
       YYZ     -69.1804    XZZ     -30.6713    YZZ       9.6838
       ZZZ    -189.4873
    Hexadecapole Moments (Debye-Ang^3)
      XXXX    -133.7730   XXXY     -44.6407   XXYY     -49.4437
      XYYY     -46.1322   YYYY    -153.0964   XXXZ     -65.5479
      XXYZ       8.7676   XYYZ     -12.6690   YYYZ      53.8615
      XXZZ    -158.1782   XYZZ     -31.8224   YYZZ    -214.8245
      XZZZ    -116.0814   YZZZ      51.2563   ZZZZ   -1028.7682
 -----------------------------------------------------------------
 Calculating analytic gradient of the SCF energy
 Gradient of CDS energy
            1           2           3           4           5           6
    1  -0.0001260   0.0002789   0.0001152  -0.0004567   0.0000918   0.0000968
    2  -0.0001822  -0.0000873  -0.0001309   0.0001779   0.0002294  -0.0000069
    3   0.0001508  -0.0001209  -0.0003310   0.0000925   0.0001999   0.0000087
 Gradient of SCF Energy
            1           2           3           4           5           6
    1  -0.0024237   0.0121847  -0.0032055  -0.0127725   0.0047394   0.0014777
    2  -0.0055914  -0.0144235  -0.0005118   0.0152335   0.0046307   0.0006625
    3  -0.0019173   0.0042640  -0.0020059  -0.0027987   0.0001032   0.0023547
 Max gradient component =       1.523E-02
 RMS gradient           =       7.013E-03
 Computing fast CPCM-SWIG gradient
 Updating gradient with PCM contributions...
 -- total gradient after adding PCM contribution --
---------------------------------------------------
  Atom         X              Y              Z     
---------------------------------------------------
   1       0.000034      -0.000125      -0.000201
   2      -0.000141       0.000184       0.000084
   3      -0.000136      -0.000100      -0.000002
   4       0.000037       0.000020       0.000115
   5       0.000110       0.000099       0.000065
   6       0.000096      -0.000078      -0.000061
---------------------------------------------------
 Number of fixed atoms: 0
 Gradient time:  CPU 19.83 s  wall 3.03 s
 ----------------------------------------------------------------
             Standard Nuclear Orientation (Angstroms)
    I     Atom           X                Y                Z
 ----------------------------------------------------------------
    1      O      -0.3317834170    -1.3242649916     1.9115303637
    2      O      -0.8326618675    -1.0676328410     3.1234569566
    3      H       0.6669518667    -0.4500523921     1.8349800192
    4      H      -1.4718823074    -0.3419671601     2.9975794665
    5      O       1.3524206528     0.3637853199     2.0761915064
    6      O       0.9713729643     0.8327487220     3.1930183628
 ----------------------------------------------------------------
 Nuclear Repulsion Energy =         124.24723177 hartrees
 There are       18 alpha and       16 beta electrons
 Discretize the solute cavity surface with Lebedev spheres
	Using 110 Lebedev grid points for each H atom
	Using 194 Lebedev grid points for other atoms
	Atomic van der Waals radii will be scaled by 1.20
 Remove points where switching function is < 1.0e-08
 Keep 630 surface tesserae and discard 366 interior tesserae
 Molecular Surface Area = 76.325 Angst**2

                       Distance Matrix (Angstroms)
             O (  1)   O (  2)   H (  3)   H (  4)   O (  5)
   O (  2)  1.336228
   H (  3)  1.329504  2.071333
   H (  4)  1.855866  0.975212  2.436787
   O (  5)  2.390224  2.814304  1.091046  3.053478
   O (  6)  2.827214  2.621227  1.892754  2.718023  1.269813
 
 Requested basis set is 6-311++G(2df,2p)
 There are 44 shells and 156 basis functions
 A cutoff of  1.0D-12 yielded    950 shell pairs
 There are     12162 function pairs (     15559 Cartesian)
 Smallest overlap matrix eigenvalue = 4.02E-04
 Guess MOs from SCF MO coefficient file

 -----------------------------------------------------------------------
  General SCF calculation program by
  Eric Jon Sundstrom, Paul Horn, Yuezhi Mao, Dmitri Zuev, Alec White,
  David Stuck, Shaama M.S., Shane Yost, Joonho Lee, David Small,
  Daniel Levine, Susi Lehtola, Hugh Burton, Evgeny Epifanovsky,
  Bang C. Huynh
 -----------------------------------------------------------------------
 Exchange:     0.1500 Hartree-Fock + 1.0000 wB97M-V + LR-HF
 Correlation:  1.0000 wB97M-V
 Using SG-2 standard quadrature grid
 Nonlocal Correlation:  VV10 with C = 0.0100 and b = 6.00 and scale = 1.00000
 Grid used for NLC:  SG-1 standard quadrature
 
 Citation of the SMD model:
 Marenich, A.V.; Cramer, C.J.; Truhlar, D.G.
 J. Phys. Chem. B 2009, 113, 6378-6396.
 iSolventCode=           1
 Solvent: water                                                           
 
 vradii
            1           2           3           4           5           6
    1   1.5200000   1.5200000   1.2000000   1.2000000   1.5200000   1.5200000
 -------------------------------------------------------
 OpenMP BLAS3 based DFT computing Module                
 Release: version 1.0, May 2013, Q-Chem Inc. Pittsburgh 
 -------------------------------------------------------
 A unrestricted SCF calculation will be
 performed using Roothaan-Hall, DIIS, GDM
 SCF converges when RMS gradient is below 1.0e-07
 ---------------------------------------
  Cycle       Energy         DIIS error
 ---------------------------------------
    1    -301.8345714158      3.73e-04  Roothaan Step
 ---------------------------------------
  Cycle       Energy         DIIS error
 ---------------------------------------
    1    -301.8504646299      4.00e-04  
    2    -301.8525609575      2.61e-04  Done DIIS. Switching to GDM
 ---------------------------------------
  Cycle       Energy        RMS Gradient
 ---------------------------------------
    1    -301.8525609575      1.60e-02   Normal BFGS step
    2    -301.8522923756      2.58e-02  Line search: overstep
    3    -301.8530752261      2.67e-03   Normal BFGS step
    4    -301.8531396722      1.65e-03   Normal BFGS step
    5    -301.8531524911      1.12e-03   Normal BFGS step
    6    -301.8531553575      7.55e-04   Normal BFGS step
    7    -301.8531572495      4.88e-04   Normal BFGS step
    8    -301.8531582584      1.53e-04   Normal BFGS step
    9    -301.8531584224      1.09e-04   Normal BFGS step
   10    -301.8531584943      6.32e-05   Normal BFGS step
   11    -301.8531585093      3.55e-05   Normal BFGS step
   12    -301.8531585166      2.27e-05   Normal BFGS step
   13    -301.8531585182      1.87e-05   Normal BFGS step
   14    -301.8531585191      1.28e-05   Normal BFGS step
   15    -301.8531585196      5.83e-06   Normal BFGS step
   16    -301.8531585199      2.64e-06   Normal BFGS step
   17    -301.8531585199      1.49e-06   Normal BFGS step
   18    -301.8531585199      5.35e-07   Normal BFGS step
   19    -301.8531585199      2.82e-07   Normal BFGS step
   20    -301.8531585199      2.06e-07   Normal BFGS step
   21    -301.8531585199      1.36e-07   Normal BFGS step
   22    -301.8531585199      6.30e-08  Convergence criterion met
 ---------------------------------------
 SCF time:   CPU 197.76s  wall 25.00s 
<S^2> =          2.011964567
(3)  G-ENP(liq) elect-nuc-pol free energy of system     -301.853158520 a.u.
(4)  G-CDS(liq) cavity-dispersion-solvent structure 
     free energy                                                0.7990 kcal/mol
(6)  G-S(liq) free energy of system                     -301.851885299 a.u.
 SCF   energy in the final basis set =     -301.8518852987
 Total energy in the final basis set =     -301.8518852987
 
 --------------------------------------------------------------
 
                    Orbital Energies (a.u.)
 --------------------------------------------------------------
 
 Alpha MOs
 -- Occupied --
-19.4693 -19.4565 -19.4438 -19.4193  -1.3749  -1.3277  -1.0227  -0.9766
 -0.7237  -0.6742  -0.6358  -0.6285  -0.5984  -0.5856  -0.4625  -0.4271
 -0.4067  -0.3826
 -- Virtual --
  0.0383   0.0537   0.1228   0.1516   0.1618   0.1872   0.2001   0.2085
  0.2200   0.2301   0.2381   0.2645   0.2741   0.2775   0.2898   0.2989
  0.3187   0.3673   0.3732   0.3825   0.4458   0.4733   0.5952   0.6416
  0.7250   0.7875   0.8342   0.8458   0.9535   0.9788   1.0145   1.0480
  1.0542   1.0657   1.1076   1.1125   1.1532   1.1575   1.1901   1.2196
  1.3605   1.3734   1.3953   1.4309   1.4462   1.5177   1.5298   1.6001
  1.6281   1.6626   1.6773   1.7461   1.7531   1.8636   2.0597   2.1072
  2.1927   2.2501   2.2726   2.2946   2.3588   2.3673   2.5166   2.5564
  2.6445   2.6922   2.7625   2.9230   3.6760   3.7625   3.8219   3.9389
  3.9692   4.1780   4.5047   4.5627   4.6513   4.6630   4.7188   4.7253
  4.7468   4.7627   4.8413   4.9012   4.9887   5.0036   5.0228   5.0681
  5.0836   5.0916   5.1162   5.1494   5.1508   5.1783   5.1993   5.2194
  5.2521   5.2895   5.3517   5.3814   5.4407   5.4611   5.6119   5.6414
  5.6719   5.7368   6.3407   6.3503   6.5584   6.5719   6.7037   6.7730
  6.8067   6.8373   6.9015   6.9125   6.9577   6.9759   7.0351   7.0571
  7.0817   7.1017   7.1390   7.3378   7.3499   7.3697   7.3787   7.4968
  7.5988   7.8194   7.9174   7.9836   8.0168   8.0882  50.3840  50.4136
 50.4231  50.4810
 
 Beta MOs
 -- Occupied --
-19.4524 -19.4472 -19.4204 -19.4065  -1.3385  -1.3054  -0.9921  -0.9255
 -0.6941  -0.6533  -0.5960  -0.5845  -0.5430  -0.5191  -0.4085  -0.3756
 -- Virtual --
 -0.0763  -0.0271   0.0399   0.0554   0.1289   0.1577   0.1665   0.1918
  0.2035   0.2146   0.2268   0.2374   0.2429   0.2704   0.2795   0.2877
  0.2943   0.3054   0.3346   0.3722   0.3774   0.3967   0.4547   0.4757
  0.5983   0.6477   0.7300   0.7942   0.8361   0.8504   0.9582   0.9903
  1.0270   1.0601   1.0791   1.0897   1.1186   1.1375   1.1682   1.1723
  1.2023   1.2371   1.3792   1.4026   1.4086   1.4524   1.4688   1.5339
  1.5476   1.6054   1.6440   1.6939   1.7057   1.7620   1.7771   1.8813
  2.0714   2.1292   2.2122   2.2659   2.2891   2.3171   2.3699   2.3845
  2.5315   2.5700   2.6577   2.7091   2.7661   2.9175   3.6806   3.7602
  3.8262   3.9453   3.9650   4.1834   4.5496   4.5919   4.6598   4.6969
  4.7305   4.7487   4.7687   4.7949   4.8605   4.9216   5.0474   5.0765
  5.0807   5.1160   5.1278   5.1565   5.1668   5.1763   5.1930   5.2099
  5.2324   5.2612   5.2865   5.3157   5.3898   5.4127   5.4682   5.5073
  5.6347   5.6796   5.6999   5.7605   6.3593   6.3736   6.5924   6.6274
  6.7909   6.8067   6.8874   6.9283   6.9607   6.9713   6.9877   7.0163
  7.0624   7.1022   7.1255   7.1555   7.1706   7.3759   7.4030   7.4176
  7.4235   7.5359   7.6150   7.8522   7.9312   8.0003   8.0438   8.1239
 50.3955  50.4278  50.4358  50.4920
 --------------------------------------------------------------
 
          Ground-State Mulliken Net Atomic Charges

     Atom                 Charge (a.u.)    Spin (a.u.)
  --------------------------------------------------------
      1 O                    -0.368987       0.432058
      2 O                    -0.077724       0.284754
      3 H                     0.415137      -0.030476
      4 H                     0.338165      -0.007029
      5 O                    -0.155839       0.523356
      6 O                    -0.150753       0.797337
  --------------------------------------------------------
  Sum of atomic charges =     0.000000
  Sum of spin   charges =     2.000000

 -----------------------------------------------------------------
                    Cartesian Multipole Moments
 -----------------------------------------------------------------
    Charge (ESU x 10^10)
                 0.0000
    Dipole Moment (Debye)
         X      -2.3508      Y       0.6782      Z      -0.3533
       Tot       2.4721
    Quadrupole Moments (Debye-Ang)
        XX     -20.2593     XY      -2.3017     YY     -26.9537
        XZ      -7.9017     YZ       1.2486     ZZ     -25.4366
    Octopole Moments (Debye-Ang^2)
       XXX     -27.1660    XXY       4.8491    XYY      -5.5612
       YYY      26.1256    XXZ     -50.0805    XYZ      -5.8279
       YYZ     -69.1705    XZZ     -30.7309    YZZ       9.6069
       ZZZ    -189.5276
    Hexadecapole Moments (Debye-Ang^3)
      XXXX    -133.7890   XXXY     -44.6347   XXYY     -49.4249
      XYYY     -46.1205   YYYY    -152.9638   XXXZ     -65.6035
      XXYZ       8.7261   XYYZ     -12.7030   YYYZ      53.7685
      XXZZ    -158.2212   XYZZ     -31.8247   YYZZ    -214.7977
      XZZZ    -116.2657   YZZZ      51.0163   ZZZZ   -1028.9959
 -----------------------------------------------------------------
 Calculating analytic gradient of the SCF energy
 Gradient of CDS energy
            1           2           3           4           5           6
    1  -0.0001261   0.0002790   0.0001156  -0.0004567   0.0000914   0.0000968
    2  -0.0001818  -0.0000873  -0.0001314   0.0001780   0.0002295  -0.0000069
    3   0.0001511  -0.0001209  -0.0003312   0.0000924   0.0001999   0.0000087
 Gradient of SCF Energy
            1           2           3           4           5           6
    1  -0.0026541   0.0124999  -0.0032749  -0.0127445   0.0046574   0.0015162
    2  -0.0051947  -0.0146462  -0.0006294   0.0152101   0.0046610   0.0005992
    3  -0.0011296   0.0036373  -0.0020637  -0.0029134   0.0002395   0.0022300
 Max gradient component =       1.521E-02
 RMS gradient           =       7.024E-03
 Computing fast CPCM-SWIG gradient
 Updating gradient with PCM contributions...
 -- total gradient after adding PCM contribution --
---------------------------------------------------
  Atom         X              Y              Z     
---------------------------------------------------
   1      -0.000195       0.000257       0.000580
   2       0.000166      -0.000036      -0.000547
   3      -0.000203      -0.000209      -0.000056
   4       0.000074       0.000000       0.000010
   5       0.000034       0.000128       0.000191
   6       0.000124      -0.000140      -0.000178
---------------------------------------------------
 Number of fixed atoms: 0
 Gradient time:  CPU 19.42 s  wall 2.88 s
 ----------------------------------------------------------------
[...]
   15  -0.1594447   0.0895783   0.3410393   0.1303162  -0.1206927  -0.3363515
   16  -0.0815051   0.0244925   0.1303162   0.0619757  -0.0300436  -0.1162027
   17   0.0338947  -0.0624788  -0.1206927  -0.0300436   0.1024499   0.1732207
   18   0.1424703  -0.1108213  -0.3363515  -0.1162027   0.1732207   0.3865666
 ----------------------------------------------------------------
             Standard Nuclear Orientation (Angstroms)
    I     Atom           X                Y                Z
 ----------------------------------------------------------------
    1      O      -0.3317834170    -1.3242649916     1.9105303637
    2      O      -0.8326618675    -1.0676328410     3.1234569566
    3      H       0.6669518667    -0.4500523921     1.8349800192
    4      H      -1.4718823074    -0.3419671601     2.9975794665
    5      O       1.3524206528     0.3637853199     2.0761915064
    6      O       0.9713729643     0.8327487220     3.1930183628
 ----------------------------------------------------------------
 Nuclear Repulsion Energy =         124.22712605 hartrees
 There are       18 alpha and       16 beta electrons
 old dipole drv.
            1           2           3           4           5           6
    1   1.3064851   0.3379027  -1.9948524  -0.9267985   0.8464166   1.7930192
    2   1.6234038   0.0348985  -1.9488956  -0.6629884   0.7061407   1.7155656
    3   0.0360619   0.1473822  -0.4004251   0.1809334   0.0252174  -0.0205727
            7           8           9          10          11          12
    1  -1.1918572  -1.7421437  -0.2250491   0.5856651  -0.2198430   0.0533888
    2  -1.6682890  -1.4168781  -0.2652390   0.1645993   0.2030516   0.0888154
    3  -0.2180363  -0.2765287   0.3287665  -0.0263641   0.0308464   0.3296786
           13          14          15          16          17          18
    1  -0.2834988   1.7827014   2.5553796   0.5100236  -1.0050030  -2.1818894
    2  -0.0380060   1.6351185   2.4431474   0.5813040  -1.1622960  -2.0333965
    3   0.1121678   0.1736853  -0.0684190  -0.0847580  -0.1005947  -0.1690264
 New transposed dipole drv.
            1           2           3
    1   1.3064851   1.6234038   0.0360619
    2   0.3379027   0.0348985   0.1473822
    3  -1.9948524  -1.9488956  -0.4004251
    4  -0.9267985  -0.6629884   0.1809334
    5   0.8464166   0.7061407   0.0252174
    6   1.7930192   1.7155656  -0.0205727
    7  -1.1918572  -1.6682890  -0.2180363
    8  -1.7421437  -1.4168781  -0.2765287
    9  -0.2250491  -0.2652390   0.3287665
   10   0.5856651   0.1645993  -0.0263641
   11  -0.2198430   0.2030516   0.0308464
   12   0.0533888   0.0888154   0.3296786
   13  -0.2834988  -0.0380060   0.1121678
   14   1.7827014   1.6351185   0.1736853
   15   2.5553796   2.4431474  -0.0684190
   16   0.5100236   0.5813040  -0.0847580
   17  -1.0050030  -1.1622960  -0.1005947
   18  -2.1818894  -2.0333965  -0.1690264
FINAL TENSOR RESULT:
Order 2, Length 18
    Atom      X          Y          Z
     1 Order 1, Length 18
    Atom      X          Y          Z
     1    6.747041973124476e-02  -3.976583569112171e-02  -8.102717520640355e-02
     2   -7.117646291825303e-02   2.300770340888114e-02   5.871305123337803e-02
     3    8.969629264099242e-02   1.009310979335267e-01   8.551520218121101e-03
     4   -1.372971903701750e-02   7.721935170135007e-03   4.219248689086100e-02
     5   -4.618757675179461e-02  -1.290119692759348e-01  -1.104691396849937e-01
     6   -2.607325192622205e-02   3.711671259514297e-02   8.203925475896862e-02

Order 1, Length 18
    Atom      X          Y          Z
     1   -3.976583569112171e-02   8.633166435465808e-02   1.154066021911709e-01
     2    4.206868381584832e-02  -6.363057965505176e-02  -5.429988814043391e-02
     3    4.498929058703440e-02   3.139525158732710e-02  -1.399919636886518e-03
     4    7.816631938181303e-03   2.840967115423738e-03  -4.255915537671651e-02
     5   -4.442771798275823e-02  -6.658334070275967e-02  -4.246188207558295e-02
     6   -1.068072994963103e-02   9.645856125090765e-03   2.531399004675274e-02

Order 1, Length 18
    Atom      X          Y          Z
     1   -8.102717520640355e-02   1.154066021911709e-01   2.973834957508975e-01
     2    1.199936322316815e-01  -5.254777434410880e-02  -2.789366823742060e-01
     3   -8.031714505575654e-02  -8.894574553137885e-02  -2.711300638229564e-02
     4    1.187293018528759e-02  -1.319971189728237e-02  -1.310772188254867e-02
     5    3.850484118529825e-03   8.191776584940205e-02   1.093060027405657e-01
     6    2.562753094158375e-02  -4.263053229375836e-02  -8.753199082912794e-02


     2 Order 1, Length 18
    Atom      X          Y          Z
     1   -7.117646291825303e-02   4.206868381584832e-02   1.199936322316815e-01
     2    2.973878562806521e-01  -2.601768752023399e-01  -6.997544661171279e-02
     3   -3.249148091445846e-02  -2.254098325486567e-02   1.085525427332287e-02
     4   -2.001283547059518e-01   2.306860379776547e-01  -7.210302509982316e-02
     5   -1.803064112730813e-03   2.011793982820819e-02   3.589066747365342e-02
     6    8.211252843403844e-03  -1.015473406450047e-02  -2.466075562328494e-02

Order 1, Length 18
    Atom      X          Y          Z
     1    2.300770340888114e-02  -6.363057965505176e-02  -5.254777434410880e-02
     2   -2.601768752023399e-01   3.116141585876336e-01  -4.603417495914230e-02
     3    3.213389743298826e-02   4.027006542773838e-02   1.230671268685118e-02
     4    2.215411285469282e-01  -2.665802007898206e-01   9.173856083857804e-02
     5   -3.321292255577847e-03  -3.713893418500300e-02  -4.680347401528241e-02
     6   -1.318470146274340e-02   1.546552741340548e-02   4.134025126856011e-02

Order 1, Length 18
    Atom      X          Y          Z
     1    5.871305123337803e-02  -5.429988814043391e-02  -2.789366823742060e-01
     2   -6.997544661171279e-02  -4.603417495914230e-02   3.613688957007987e-01
     3    7.997644335970319e-02   7.878315587103238e-02  -1.374969848813217e-03
     4   -4.036238929445074e-02   6.188596720929009e-02  -6.282727419918685e-02
     5   -6.124845615055422e-04  -7.298720695985748e-02  -9.462001955588582e-02
     6   -2.773961733429302e-02   3.265137251201065e-02   7.639021427684074e-02


     3 Order 1, Length 18
    Atom      X          Y          Z
     1    8.969629264099242e-02   4.498929058703440e-02  -8.031714505575654e-02
     2   -3.249148091445846e-02   3.213389743298826e-02   7.997644335970319e-02
     3   -2.685309162906520e-02  -6.647895560723130e-02  -2.380328162573046e-02
     4    3.553289786475961e-03  -7.422097151454421e-03   2.380491027498586e-03
     5   -7.303939211934256e-02   3.005823935218433e-02   1.101667706586661e-01
     6    3.913410801748539e-02  -3.328046196261564e-02  -8.840281519310239e-02

Order 1, Length 18
    Atom      X          Y          Z
     1    1.009310979335267e-01   3.139525158732710e-02  -8.894574553137885e-02
     2   -2.254098325486567e-02   4.027006542773838e-02   7.878315587103238e-02
     3   -6.647895560723130e-02  -2.567904697579753e-02   2.019763663330425e-02
     4    4.176033233854812e-03  -8.577070792962310e-03   7.011598919616339e-04
     5   -4.208303591657946e-02   2.420297969108506e-02   1.079810287464245e-01
     6    2.599654178998118e-02  -6.161126334779739e-02  -1.187178070491240e-01

Order 1, Length 18
    Atom      X          Y          Z
     1    8.551520218121101e-03  -1.399919636886518e-03  -2.711300638229564e-02
     2    1.085525427332287e-02   1.230671268685118e-02  -1.374969848813217e-03
     3   -2.380328162573046e-02   2.019763663330425e-02   8.634299536284619e-02
     4    2.230562227370503e-03  -1.008677852744220e-03  -6.787428235930230e-05
     5    1.391887351120743e-02   1.392262002662336e-02  -1.680226730203008e-02
     6   -1.175323916837417e-02  -4.401866749949682e-02  -4.098433229304276e-02


     4 Order 1, Length 18
    Atom      X          Y          Z
     1   -1.372971903701750e-02   7.816631938181303e-03   1.187293018528759e-02
     2   -2.001283547059518e-01   2.215411285469282e-01  -4.036238929445074e-02
     3    3.553289786475961e-03   4.176033233854812e-03   2.230562227370503e-03
     4    2.129155611740741e-01  -2.323273161695071e-01   2.796147467009012e-02
     5   -8.675654323085009e-04  -3.674559945594342e-03  -6.459936384797922e-03
     6   -1.743009075853171e-03   2.468062799264127e-03   4.757194044972897e-03

Order 1, Length 18
    Atom      X          Y          Z
     1    7.721935170135007e-03   2.840967115423738e-03  -1.319971189728237e-02
     2    2.306860379776547e-01  -2.665802007898206e-01   6.188596720929009e-02
     3   -7.422097151454421e-03  -8.577070792962310e-03  -1.008677852744220e-03
     4   -2.323273161695071e-01   2.677647088055274e-01  -4.974077364292542e-02
     5   -2.078391684260074e-03   8.022234765325289e-03   1.239827946822284e-02
     6    3.419680722534945e-03  -3.470731099505701e-03  -1.033504801609390e-02

Order 1, Length 18
    Atom      X          Y          Z
     1    4.219248689086100e-02  -4.255915537671651e-02  -1.310772188254867e-02
     2   -7.210302509982316e-02   9.173856083857804e-02  -6.282727419918685e-02
     3    2.380491027498586e-03   7.011598919616339e-04  -6.787428235930230e-05
     4    2.796147467009012e-02  -4.974077364292542e-02   7.666410723698977e-02
     5   -1.831583191788846e-04  -1.609299312175317e-03  -2.572539005547292e-03
     6   -2.481829886792124e-04   1.469563255080323e-03   1.911231142669568e-03


     5 Order 1, Length 18
    Atom      X          Y          Z
     1   -4.618757675179461e-02  -4.442771798275823e-02   3.850484118529825e-03
     2   -1.803064112730813e-03  -3.321292255577847e-03  -6.124845615055422e-04
     3   -7.303939211934256e-02  -4.208303591657946e-02   1.391887351120743e-02
     4   -8.675654323085009e-04  -2.078391684260074e-03  -1.831583191788846e-04
     5    2.034037109905107e-01   5.801648394137025e-02  -1.594447051050039e-01
     6   -8.150514298039074e-02   3.389467436474692e-02   1.424703074166985e-01

Order 1, Length 18
    Atom      X          Y          Z
     1   -1.290119692759348e-01  -6.658334070275967e-02   8.191776584940205e-02
     2    2.011793982820819e-02  -3.713893418500300e-02  -7.298720695985748e-02
     3    3.005823935218433e-02   2.420297969108506e-02   1.392262002662336e-02
     4   -3.674559945594342e-03   8.022234765325289e-03  -1.609299312175317e-03
     5    5.801648394137025e-02   1.339746707631719e-01   8.957830562488220e-02
     6    2.449250691827785e-02  -6.247879886870043e-02  -1.108212837617604e-01

Order 1, Length 18
    Atom      X          Y          Z
     1   -1.104691396849937e-01  -4.246188207558295e-02   1.093060027405657e-01
     2    3.589066747365342e-02  -4.680347401528241e-02  -9.462001955588582e-02
     3    1.101667706586661e-01   1.079810287464245e-01  -1.680226730203008e-02
     4   -6.459936384797922e-03   1.239827946822284e-02  -2.572539005547292e-03
     5   -1.594447051050039e-01   8.957830562488220e-02   3.410392693528964e-01
     6    1.303162421553431e-01  -1.206926593867655e-01  -3.363514530223011e-01


     6 Order 1, Length 18
    Atom      X          Y          Z
     1   -2.607325192622205e-02  -1.068072994963103e-02   2.562753094158375e-02
     2    8.211252843403844e-03  -1.318470146274340e-02  -2.773961733429302e-02
     3    3.913410801748539e-02   2.599654178998118e-02  -1.175323916837417e-02
     4   -1.743009075853171e-03   3.419680722534945e-03  -2.481829886792124e-04
     5   -8.150514298039074e-02   2.449250691827785e-02   1.303162421553431e-01
     6    6.197569677752657e-02  -3.004362477522650e-02  -1.162026740928669e-01

Order 1, Length 18
    Atom      X          Y          Z
     1    3.711671259514297e-02   9.645856125090765e-03  -4.263053229375836e-02
     2   -1.015473406450047e-02   1.546552741340548e-02   3.265137251201065e-02
     3   -3.328046196261564e-02  -6.161126334779739e-02  -4.401866749949682e-02
     4    2.468062799264127e-03  -3.470731099505701e-03   1.469563255080323e-03
     5    3.389467436474692e-02  -6.247879886870043e-02  -1.206926593867655e-01
     6   -3.004362477522650e-02   1.024499190173370e-01   1.732207097030258e-01

Order 1, Length 18
    Atom      X          Y          Z
     1    8.203925475896862e-02   2.531399004675274e-02  -8.753199082912794e-02
     2   -2.466075562328494e-02   4.134025126856011e-02   7.639021427684074e-02
     3   -8.840281519310239e-02  -1.187178070491240e-01  -4.098433229304276e-02
     4    4.757194044972897e-03  -1.033504801609390e-02   1.911231142669568e-03
     5    1.424703074166985e-01  -1.108212837617604e-01  -3.363514530223011e-01
     6   -1.162026740928669e-01   1.732207097030258e-01   3.865666022105176e-01




 # Finishing finite difference calculation for IDERIV #
 ######################################################
 ######################################################
 Requested basis set is 6-311++G(2df,2p)
 There are 44 shells and 156 basis functions
 **********************************************************************
 **                                                                  **
 **                       VIBRATIONAL ANALYSIS                       **
 **                       --------------------                       **
 **                                                                  **
 **        VIBRATIONAL FREQUENCIES (CM**-1) AND NORMAL MODES         **
 **     FORCE CONSTANTS (mDYN/ANGSTROM) AND REDUCED MASSES (AMU)     **
 **                  INFRARED INTENSITIES (KM/MOL)                   **
 **                                                                  **
 **********************************************************************
 

 Mode:                 1                      2                      3
 Frequency:     -1894.65                 124.37                 183.25
 Force Cnst:      2.6767                 0.0843                 0.1290
 Red. Mass:       1.2656                 9.2457                 6.5183
 IR Active:          YES                    YES                    YES
 IR Intens:    11529.518                 16.897                 16.637
 Raman Active:       YES                    YES                    YES
               X      Y      Z        X      Y      Z        X      Y      Z
 O         -0.063 -0.031  0.048    0.227 -0.251  0.163    0.003 -0.036 -0.022
 O          0.008 -0.020 -0.043   -0.212  0.195 -0.112    0.293  0.311  0.018
 H          0.701  0.700  0.029   -0.118  0.115 -0.066    0.140 -0.028 -0.229
 H          0.011  0.030  0.002   -0.174  0.144 -0.607    0.530  0.526  0.040
 O          0.025 -0.020 -0.057   -0.247  0.264 -0.192   -0.030 -0.012 -0.010
 O         -0.015  0.025  0.051    0.250 -0.224  0.183   -0.308 -0.295  0.026
 TransDip  -2.384 -2.457 -0.326   -0.053  0.043 -0.113    0.092  0.092  0.011

 Mode:                 4                      5                      6
 Frequency:       348.65                 386.51                 699.56
 Force Cnst:      0.0812                 1.1072                 3.6940
 Red. Mass:       1.1334                12.5786                12.8113
 IR Active:          YES                    YES                    YES
 IR Intens:      197.170                  1.322                445.150
 Raman Active:       YES                    YES                    YES
               X      Y      Z        X      Y      Z        X      Y      Z
 O          0.016 -0.012  0.002    0.253  0.400  0.250   -0.331 -0.391 -0.159
 O         -0.054 -0.061 -0.014   -0.300 -0.189  0.116   -0.112 -0.004  0.173
 H         -0.065  0.010  0.000    0.309  0.102 -0.218    0.180 -0.400 -0.099
 H          0.724  0.658  0.171   -0.176 -0.062  0.200    0.040  0.081  0.041
 O         -0.015  0.003  0.002    0.279  0.138 -0.204    0.450  0.489  0.062
 O          0.011  0.028 -0.002   -0.241 -0.351 -0.161   -0.021 -0.074 -0.073
 TransDip   0.312  0.321  0.048   -0.016 -0.031 -0.011    0.503  0.448  0.049

 Mode:                 7                      8                      9
 Frequency:       821.87                1256.80                1434.64
 Force Cnst:      0.4214                 7.9363                 5.3473
 Red. Mass:       1.0589                 8.5278                 4.4096
 IR Active:          YES                    YES                    YES
 IR Intens:      171.178                  6.953                 98.985
 Raman Active:       YES                    YES                    YES
               X      Y      Z        X      Y      Z        X      Y      Z
 O          0.009 -0.027  0.008    0.215 -0.031 -0.420    0.022  0.025 -0.022
 O         -0.001  0.003  0.007   -0.168  0.074  0.446   -0.013 -0.006  0.050
 H         -0.618  0.636 -0.457    0.489  0.411 -0.060    0.650  0.413 -0.328
 H         -0.029 -0.026 -0.015   -0.018  0.080 -0.282    0.066 -0.000 -0.260
 O          0.041 -0.016  0.021   -0.045 -0.124 -0.113   -0.161  0.066  0.295
 O         -0.008  0.002 -0.006   -0.031  0.050  0.108    0.107 -0.111 -0.286
 TransDip  -0.245  0.278 -0.196   -0.000 -0.024 -0.081    0.233  0.087 -0.199

 Mode:                10                     11                     12
 Frequency:      1447.58                1674.50                3666.99
 Force Cnst:      1.4055                 1.7771                 8.4632
 Red. Mass:       1.1384                 1.0757                 1.0682
 IR Active:          YES                    YES                    YES
 IR Intens:       81.220                134.428                277.448
 Raman Active:       YES                    YES                    YES
               X      Y      Z        X      Y      Z        X      Y      Z
 O          0.047 -0.039 -0.027    0.008 -0.005 -0.021    0.000  0.001 -0.001
 O         -0.029  0.040 -0.032    0.007  0.007  0.004    0.041 -0.047  0.010
 H          0.075  0.042 -0.024   -0.273  0.360  0.889   -0.016 -0.018 -0.005
 H         -0.265  0.027  0.955    0.003  0.009 -0.007   -0.652  0.741 -0.145
 O         -0.013 -0.000  0.017    0.006  0.012  0.008    0.000  0.001  0.002
 O          0.007 -0.005 -0.016   -0.003 -0.038 -0.047    0.000 -0.000 -0.001
 TransDip  -0.065  0.071  0.272   -0.257 -0.049  0.264   -0.531  0.050  0.006

 STANDARD THERMODYNAMIC QUANTITIES AT   298.15 K  AND     1.00 ATM

   This Molecule has  1 Imaginary Frequencies
   Zero point vibrational energy:       17.219 kcal/mol

   Atom    1 Element O  Has Mass   15.99491
   Atom    2 Element O  Has Mass   15.99491
   Atom    3 Element H  Has Mass    1.00783
   Atom    4 Element H  Has Mass    1.00783
   Atom    5 Element O  Has Mass   15.99491
   Atom    6 Element O  Has Mass   15.99491
   Molecular Mass:    65.995300 amu
   Principal axes and moments of inertia in amu*Bohr^2:
                             1           2           3
    Eigenvalues --      105.01522   367.66961   466.92764
          X               0.70824    -0.35098    -0.61254
          Y               0.70504     0.30692     0.63932
          Z               0.03639     0.88465    -0.46482
   Rotational Symmetry Number is   1
   The Molecule is an Asymmetric Top
   Translational Enthalpy:        0.889 kcal/mol
   Rotational Enthalpy:           0.889 kcal/mol
   Vibrational Enthalpy:         18.584 kcal/mol
   gas constant (RT):             0.592 kcal/mol
   Translational Entropy:        38.479  cal/mol.K
   Rotational Entropy:           24.403  cal/mol.K
   Vibrational Entropy:           8.077  cal/mol.K

   Total Enthalpy:               20.954 kcal/mol
   Total Entropy:                70.960  cal/mol.K
 Total job time:  1053.27s(wall), 8092.77s(cpu) 
 Fri Feb  3 15:34:04 2023

        *************************************************************
        *                                                           *
        *  Thank you very much for using Q-Chem.  Have a nice day.  *
        *                                                           *
        *************************************************************


