
Running Job 1 of 2 Q_in.in
qchem Q_in.in_382516.0 /scratch/ari.fischer/qChem1423099.hpc-mn1/qchem382516/ 0
/usr/local/qchem-5.4.1/exe/qcprog.exe_s Q_in.in_382516.0 /scratch/ari.fischer/qChem1423099.hpc-mn1/qchem382516/
                  Welcome to Q-Chem
     A Quantum Leap Into The Future Of Chemistry


 Q-Chem 5.4, Q-Chem, Inc., Pleasanton, CA (2021)

 License issued to: Nanyang Technological University (site)

 E. Epifanovsky,  A. T. B. Gilbert,  Xintian Feng,  Joonho Lee,  Yuezhi Mao,  
 N. Mardirossian,  P. Pokhilko,  A. White,  M. Wormit,  M. P. Coons,  
 A. L. Dempwolff,  Zhengting Gan,  D. Hait,  P. R. Horn,  L. D. Jacobson,  
 I. Kaliman,  J. Kussmann,  A. W. Lange,  Ka Un Lao,  D. S. Levine,  Jie Liu,  
 S. C. McKenzie,  A. F. Morrison,  K. Nanda,  F. Plasser,  D. R. Rehn,  
 M. L. Vidal,  Zhi-Qiang You,  Ying Zhu,  B. Alam,  B. Albrecht,  
 A. Aldossary,  E. Alguire,  J. H. Andersen,  D. Barton,  K. Begam,  A. Behn,  
 Y. A. Bernard,  E. J. Berquist,  H. Burton,  A. Carreras,  K. Carter-Fenk,  
 R. Chakraborty,  A. D. Chien,  K. D. Closser,  V. Cofer-Shabica,  
 S. Dasgupta,  Jia Deng,  M. de Wergifosse,  M. Diedenhofen,  Hainam Do,  
 S. Ehlert,  Po-Tung Fang,  S. Fatehi,  Qingguo Feng,  T. Friedhoff,  
 J. Gayvert,  Qinghui Ge,  G. Gidofalvi,  M. Goldey,  J. Gomes,  
 C. Gonzalez-Espinoza,  S. Gulania,  A. Gunina,  M. W. D. Hanson-Heine,  
 P. H. P. Harbach,  A. W. Hauser,  M. F. Herbst,  M. Hernandez Vera,  
 M. Hodecker,  Z. C. Holden,  S. Houck,  Xunkun Huang,  Kerwin Hui,  
 B. C. Huynh,  M. Ivanov,  Hyunjun Ji,  Hanjie Jiang,  B. Kaduk,  S. Kaehler,  
 K. Khistyaev,  Jaehoon Kim,  P. Klunzinger,  Z. Koczor-Benda,  
 Joong Hoon Koh,  D. Kosenkov,  L. Koulias,  T. Kowalczyk,  C. M. Krauter,  
 K. Kue,  A. Kunitsa,  T. Kus,  A. Landau,  K. V. Lawler,  D. Lefrancois,  
 S. Lehtola,  Rain Li,  Yi-Pei Li,  Jiashu Liang,  M. Liebenthal,  
 Hung-Hsuan Lin,  You-Sheng Lin,  Fenglai Liu,  Kuan-Yu Liu,  
 M. Loipersberger,  A. Luenser,  A. Manjanath,  P. Manohar,  E. Mansoor,  
 S. F. Manzer,  Shan-Ping Mao,  A. V. Marenich,  T. Markovich,  S. Mason,  
 S. A. Maurer,  P. F. McLaughlin,  M. F. S. J. Menger,  J.-M. Mewes,  
 S. A. Mewes,  P. Morgante,  J. W. Mullinax,  K. J. Oosterbaan,  G. Paran,  
 Alexander C. Paul,  Suranjan K. Paul,  F. Pavosevic,  Zheng Pei,  S. Prager,  
 E. I. Proynov,  E. Ramos,  B. Rana,  A. E. Rask,  A. Rettig,  R. M. Richard,  
 F. Rob,  E. Rossomme,  T. Scheele,  M. Scheurer,  M. Schneider,  
 N. Sergueev,  S. M. Sharada,  W. Skomorowski,  D. W. Small,  C. J. Stein,  
 Yu-Chuan Su,  E. J. Sundstrom,  Zhen Tao,  J. Thirman,  T. Tsuchimochi,  
 N. M. Tubman,  S. P. Veccham,  O. Vydrov,  J. Wenzel,  J. Witte,  A. Yamada,  
 Kun Yao,  S. Yeganeh,  S. R. Yost,  A. Zech,  Igor Ying Zhang,  Xing Zhang,  
 Yu Zhang,  D. Zuev,  A. Aspuru-Guzik,  A. T. Bell,  N. A. Besley,  
 K. B. Bravaya,  B. R. Brooks,  D. Casanova,  Jeng-Da Chai,  S. Coriani,  
 C. J. Cramer,  A. E. DePrince, III,  R. A. DiStasio Jr.,  A. Dreuw,  
 B. D. Dunietz,  T. R. Furlani,  W. A. Goddard III,  S. Grimme,  
 S. Hammes-Schiffer,  T. Head-Gordon,  W. J. Hehre,  Chao-Ping Hsu,  
 T.-C. Jagau,  Yousung Jung,  A. Klamt,  Jing Kong,  D. S. Lambrecht,  
 WanZhen Liang,  N. J. Mayhall,  C. W. McCurdy,  J. B. Neaton,  
 C. Ochsenfeld,  J. A. Parkhill,  R. Peverati,  V. A. Rassolov,  Yihan Shao,  
 L. V. Slipchenko,  T. Stauch,  R. P. Steele,  J. E. Subotnik,  
 A. J. W. Thom,  A. Tkatchenko,  D. G. Truhlar,  T. Van Voorhis,  
 T. A. Wesolowski,  K. B. Whaley,  H. L. Woodcock III,  P. M. Zimmerman,  
 S. Faraji,  P. M. W. Gill,  M. Head-Gordon,  J. M. Herbert,  A. I. Krylov

 Additional authors for Version 5.4.1: 
 S. Kotaru,  Shaozhi Li,  Xiangyuan Li,  F. Matz,  A. Molle,  Haisheng Ren,  
 Yingli Su,  Hung-Yi Tsai,  C. Utku,  Fang Wang

 Contributors to earlier versions of Q-Chem not listed above: 
 R. D. Adamson,  B. Austin,  R. Baer,  J. Baker,  G. J. O. Beran,  
 K. Brandhorst,  S. T. Brown,  E. F. C. Byrd,  A. K. Chakraborty,  
 G. K. L. Chan,  Chun-Min Chang,  Yunqing Chen,  C.-L. Cheng,  
 Siu Hung Chien,  D. M. Chipman,  D. L. Crittenden,  H. Dachsel,  
 R. J. Doerksen,  A. D. Dutoi,  R. G. Edgar,  J. Fosso-Tande,  
 L. Fusti-Molnar,  D. Ghosh,  A. Ghysels,  A. Golubeva-Zadorozhnaya,  
 J. Gonthier,  M. S. Gordon,  S. R. Gwaltney,  G. Hawkins,  J. E. Herr,  
 A. Heyden,  S. Hirata,  E. G. Hohenstein,  G. Kedziora,  F. J. Keil,  
 C. Kelley,  Jihan Kim,  R. A. King,  R. Z. Khaliullin,  P. P. Korambath,  
 W. Kurlancheek,  A. Laurent,  A. M. Lee,  M. S. Lee,  S. V. Levchenko,  
 Ching Yeh Lin,  D. Liotard,  E. Livshits,  R. C. Lochan,  I. Lotan,  
 L. A. Martinez-Martinez,  P. E. Maslen,  N. Nair,  D. P. O'Neill,  
 D. Neuhauser,  E. Neuscamman,  C. M. Oana,  R. Olivares-Amaya,  R. Olson,  
 T. M. Perrine,  B. Peters,  P. A. Pieniazek,  A. Prociuk,  Y. M. Rhee,  
 J. Ritchie,  M. A. Rohrdanz,  E. Rosta,  N. J. Russ,  H. F. Schaefer III,  
 M. W. Schmidt,  N. E. Schultz,  S. Sharma,  N. Shenvi,  C. D. Sherrill,  
 A. C. Simmonett,  A. Sodt,  T. Stein,  D. Stuck,  K. S. Thanthiriwatte,  
 V. Vanovschi,  L. Vogt,  Tao Wang,  A. Warshel,  M. A. Watson,  
 C. F. Williams,  Q. Wu,  X. Xu,  Jun Yang,  W. Zhang,  Yan Zhao

 Please cite Q-Chem as follows:
 Y. Shao et al., Mol. Phys. 113, 184-215 (2015)
 DOI: 10.1080/00268976.2014.952696

 Q-Chem 5.4.1 for Intel X86 EM64T Linux

 Parts of Q-Chem use Armadillo 9.800.1 (Horizon Scraper).
 http://arma.sourceforge.net/

 Q-Chem begins on Fri Jan 27 15:20:23 2023  

 Host: 
0

     Scratch files written to /scratch/ari.fischer/qChem1423099.hpc-mn1/qchem382516//
 Aug1521 |scratch|qcdevops|jenkins|workspace|build_RNUM 8249   
 Processing $rem in /usr/local/qchem-5.4.1/config/preferences:
 Processing $rem in /home/ari.fischer/.qchemrc:
 Now reading second FSM geometry
 Symmetry turned off for PCM/SM12/SMD calculation

 Checking the input file for inconsistencies... 	...done.

--------------------------------------------------------------
User input:
--------------------------------------------------------------
$molecule
0 3
O   -0.4101617   -1.3341321    2.2650579
O   -1.3141883   -0.5993390    2.8570517
H    0.8572054   -0.2059478    1.9271268
H   -2.0541441   -1.1995919    3.0727755
O    1.5562534    0.4990987    1.8994690
O    1.6915472    0.9010091    3.1402095
****
O	-2.0245201	-0.137658	2.1995546
O	-1.3699236	-1.0823344	3.0470271
H	-1.3478847	0.0479546	1.5334684
H	-0.9503588	-0.5133244	3.7071003
O	0.8743236	0.8756377	1.9275633
O	0.8315265	1.0829539	3.1051881
$end

$rem
BASIS = 6-311++G(2df,2p)
GUI = 2
JOB_TYPE = FSM
FSM_MODE = 2
METHOD = wB97M-v
MAX_SCF_CYCLES = 120
SOLVENT_METHOD = SMD
FSM_NGRAD = 6
FSM_NNODE = 20
UNRESTRICTED = 1
SCF_CONVERGENCE = 7
THRESH = 12
SCF_ALGORITHM = DIIS_GDM
$end

--------------------------------------------------------------
 ----------------------------------------------------------------
             Standard Nuclear Orientation (Angstroms)
    I     Atom           X                Y                Z
 ----------------------------------------------------------------
    1      O      -0.4101617000    -1.3341321000     2.2650579000
    2      O      -1.3141883000    -0.5993390000     2.8570517000
    3      H       0.8572054000    -0.2059478000     1.9271268000
    4      H      -2.0541441000    -1.1995919000     3.0727755000
    5      O       1.5562534000     0.4990987000     1.8994690000
    6      O       1.6915472000     0.9010091000     3.1402095000
 ----------------------------------------------------------------
 Nuclear Repulsion Energy =         114.98864469 hartrees
 There are       18 alpha and       16 beta electrons
 Requested basis set is 6-311++G(2df,2p)
 There are 44 shells and 156 basis functions

 Total QAlloc Memory Limit 288000 MB
 Mega-Array Size       188 MB
 MEM_STATIC part       192 MB
 beginning FSman 

*******************************************
*******************************************
******** Starting FSM Calculation *********
*******************************************
*******************************************
-FSM parameters:
 Maximum displacement of each coordinate during optimization (Angstrom)      0.05
 Maximum optimization steps for each new node                                6
 The scaling factor for optimization (hartrees/Angstrom^2)                   1.75
 The number of LST interpolations used for reparameterization                100
-Aligning product structure to maximum coincidence with the reactant structure
 Total R --> P Distance 2.373769
 New node interpolation distace (Angstroms): 0.12
-Performing force calculation on reactant structure in state:0
 ----------------------------------------------------------------
             Standard Nuclear Orientation (Angstroms)
    I     Atom           X                Y                Z
 ----------------------------------------------------------------
    1      O      -0.4101617000    -1.3341321000     2.2650579000
    2      O      -1.3141883000    -0.5993390000     2.8570517000
    3      H       0.8572054000    -0.2059478000     1.9271268000
    4      H      -2.0541441000    -1.1995919000     3.0727755000
    5      O       1.5562534000     0.4990987000     1.8994690000
    6      O       1.6915472000     0.9010091000     3.1402095000
 ----------------------------------------------------------------
 Nuclear Repulsion Energy =         114.98864469 hartrees
 There are       18 alpha and       16 beta electrons
 
 Citation of the SMD model:
 Marenich, A.V.; Cramer, C.J.; Truhlar, D.G.
 J. Phys. Chem. B 2009, 113, 6378-6396.
 iSolventCode=           1
 Solvent: water                                                           
 
 vradii
            1           2           3           4           5           6
    1   1.5200000   1.5200000   1.2000000   1.2000000   1.5200000   1.5200000
 Changing PCM_VDW_RADII to SMD_RADIUS
 Discretize the solute cavity surface with Lebedev spheres
	Using 110 Lebedev grid points for each H atom
	Using 194 Lebedev grid points for other atoms
	Atomic van der Waals radii will be scaled by 1.20
 Remove points where switching function is < 1.0e-08
 Keep 658 surface tesserae and discard 338 interior tesserae
 Molecular Surface Area = 81.962 Angst**2

                       Distance Matrix (Angstroms)
             O (  1)   O (  2)   H (  3)   H (  4)   O (  5)
   O (  2)  1.306768
   H (  3)  1.730092  2.394675
   H (  4)  1.836624  0.976921  3.282651
   O (  5)  2.713149  3.219156  0.993239  4.158986
   O (  6)  3.190443  3.371301  1.842023  4.295029  1.311211
 
 Requested basis set is 6-311++G(2df,2p)
 There are 44 shells and 156 basis functions
 A cutoff of  1.0D-12 yielded    912 shell pairs
 There are     11502 function pairs (     14608 Cartesian)
 Smallest overlap matrix eigenvalue = 5.99E-04

 Scale SEOQF with 1.000000e-01/1.000000e-01/1.000000e-01

 Standard Electronic Orientation quadrupole field applied
 Nucleus-field energy     =    -0.0000000202 hartrees
 Guess from superposition of atomic densities
 Warning:  Energy on first SCF cycle will be non-variational
 SAD guess density has 34.000000 electrons

 -----------------------------------------------------------------------
  General SCF calculation program by
  Eric Jon Sundstrom, Paul Horn, Yuezhi Mao, Dmitri Zuev, Alec White,
  David Stuck, Shaama M.S., Shane Yost, Joonho Lee, David Small,
  Daniel Levine, Susi Lehtola, Hugh Burton, Evgeny Epifanovsky,
  Bang C. Huynh
 -----------------------------------------------------------------------
 Exchange:     0.1500 Hartree-Fock + 1.0000 wB97M-V + LR-HF
 Correlation:  1.0000 wB97M-V
 Using SG-2 standard quadrature grid
 Nonlocal Correlation:  VV10 with C = 0.0100 and b = 6.00 and scale = 1.00000
 Grid used for NLC:  SG-1 standard quadrature
 
 Citation of the SMD model:
 Marenich, A.V.; Cramer, C.J.; Truhlar, D.G.
 J. Phys. Chem. B 2009, 113, 6378-6396.
 iSolventCode=           1
 Solvent: water                                                           
 
 vradii
            1           2           3           4           5           6
    1   1.5200000   1.5200000   1.2000000   1.2000000   1.5200000   1.5200000
 using 8 threads for integral computing
 -------------------------------------------------------
 OpenMP Integral computing Module                
 Release: version 1.0, May 2013, Q-Chem Inc. Pittsburgh 
 -------------------------------------------------------
 -------------------------------------------------------
 OpenMP BLAS3 based DFT computing Module                
 Release: version 1.0, May 2013, Q-Chem Inc. Pittsburgh 
 -------------------------------------------------------
 A unrestricted SCF calculation will be
 performed using DIIS, GDM
 SCF converges when RMS gradient is below 1.0e-07
 ---------------------------------------
  Cycle       Energy         DIIS error
 ---------------------------------------
    1    -301.9237111039      1.69e-02  
    2    -301.8147306287      2.26e-03  Done DIIS. Switching to GDM
 ---------------------------------------
  Cycle       Energy        RMS Gradient
 ---------------------------------------
    1    -301.8147306287      9.01e-02   Descent step
    2    -301.8475657364      5.93e-02   Normal BFGS step
    3    -301.8618772118      3.30e-02   Normal BFGS step
    4    -301.8649584769      1.00e-02   Normal BFGS step
    5    -301.8653403500      5.11e-03   Normal BFGS step
    6    -301.8654678668      2.35e-03   Normal BFGS step
    7    -301.8655113465      5.62e-04   Normal BFGS step
    8    -301.8655144765      2.01e-04   Normal BFGS step
    9    -301.8655147361      3.12e-04   Normal BFGS step
   10    -301.8655149658      1.13e-04   Normal BFGS step
   11    -301.8655150015      1.02e-04   Normal BFGS step
   12    -301.8655150477      7.59e-05   Normal BFGS step
   13    -301.8655150890      3.23e-05   Normal BFGS step
   14    -301.8655150994      1.27e-05   Normal BFGS step
   15    -301.8655151021      9.75e-06   Normal BFGS step
   16    -301.8655151025      6.88e-06   Normal BFGS step
   17    -301.8655151027      4.48e-06   Normal BFGS step
   18    -301.8655151028      2.63e-06   Normal BFGS step
   19    -301.8655151029      1.20e-06   Normal BFGS step
   20    -301.8655151030      4.95e-07   Normal BFGS step
   21    -301.8655151030      1.78e-07   Normal BFGS step
   22    -301.8655151030      7.03e-08  Convergence criterion met
 ---------------------------------------
 SCF time:   CPU 163.59s  wall 21.00s 
<S^2> =          2.007463618
(3)  G-ENP(liq) elect-nuc-pol free energy of system     -301.865515103 a.u.
(4)  G-CDS(liq) cavity-dispersion-solvent structure 
     free energy                                                0.8774 kcal/mol
(6)  G-S(liq) free energy of system                     -301.864116828 a.u.
 SCF   energy in the final basis set =     -301.8641168278
 Total energy in the final basis set =     -301.8641168278
 
 --------------------------------------------------------------
 
                    Orbital Energies (a.u.)
 --------------------------------------------------------------
 
 Alpha MOs
 -- Occupied --
-19.4687 -19.4421 -19.4382 -19.4138  -1.3554  -1.3279  -1.0136  -0.9834
 -0.6933  -0.6783  -0.6268  -0.6119  -0.6050  -0.5921  -0.4408  -0.4203
 -0.4004  -0.3993
 -- Virtual --
  0.0358   0.0563   0.1171   0.1347   0.1814   0.1851   0.2016   0.2062
  0.2281   0.2303   0.2354   0.2534   0.2644   0.2777   0.2827   0.2917
  0.2982   0.3169   0.3681   0.3782   0.3883   0.4388   0.5846   0.6750
  0.7648   0.7804   0.8022   0.8361   0.9645   1.0120   1.0271   1.0377
  1.0500   1.0636   1.1107   1.1186   1.1287   1.1318   1.1721   1.2185
  1.3324   1.3551   1.3744   1.4021   1.4259   1.4821   1.5111   1.5516
  1.5775   1.6023   1.6334   1.6399   1.7604   1.8741   1.9521   2.0968
  2.1275   2.2265   2.2448   2.2571   2.2689   2.3135   2.4510   2.5033
  2.5895   2.6091   2.7433   2.9094   3.6785   3.7394   3.8398   3.8990
  4.1555   4.3031   4.4907   4.5097   4.6524   4.6954   4.7062   4.7221
  4.7565   4.7584   4.8655   4.8879   5.0029   5.0194   5.0569   5.0627
  5.0736   5.0875   5.1099   5.1206   5.1261   5.1813   5.1987   5.2135
  5.2499   5.2638   5.2870   5.4044   5.4418   5.4497   5.6212   5.6257
  5.7394   5.7505   6.4254   6.4300   6.4363   6.4484   6.7355   6.7724
  6.8291   6.8711   6.8890   6.9301   6.9471   7.0071   7.0264   7.0496
  7.0616   7.0885   7.1065   7.1785   7.3359   7.3496   7.3549   7.3927
  7.6298   7.6587   7.9198   7.9420   7.9726   7.9985  50.3692  50.3871
 50.4176  50.4445
 
 Beta MOs
 -- Occupied --
-19.4584 -19.4322 -19.4190 -19.3946  -1.3279  -1.3007  -0.9737  -0.9424
 -0.6761  -0.6619  -0.5919  -0.5740  -0.5409  -0.5207  -0.4193  -0.3773
 -- Virtual --
 -0.0421  -0.0238   0.0370   0.0572   0.1221   0.1409   0.1860   0.1903
  0.2073   0.2130   0.2325   0.2367   0.2428   0.2576   0.2756   0.2829
  0.2871   0.2981   0.3108   0.3247   0.3714   0.3803   0.3893   0.4388
  0.5880   0.6764   0.7687   0.7852   0.8068   0.8387   0.9690   1.0187
  1.0329   1.0453   1.0784   1.0994   1.1178   1.1389   1.1569   1.1624
  1.1804   1.2280   1.3450   1.3823   1.4011   1.4169   1.4436   1.5032
  1.5269   1.5693   1.5946   1.6191   1.6643   1.6762   1.7767   1.8940
  1.9713   2.1164   2.1439   2.2353   2.2710   2.2826   2.2861   2.3238
  2.4584   2.5126   2.6041   2.6208   2.7513   2.9170   3.6877   3.7468
  3.8452   3.9033   4.1617   4.3099   4.5317   4.5505   4.6654   4.7077
  4.7325   4.7485   4.7715   4.7745   4.8885   4.9121   5.0709   5.0968
  5.1090   5.1306   5.1330   5.1486   5.1530   5.1628   5.1823   5.2127
  5.2311   5.2504   5.2852   5.2959   5.3105   5.4345   5.4729   5.4792
  5.6490   5.6535   5.7617   5.7729   6.4498   6.4610   6.4735   6.4777
  6.8129   6.8536   6.9158   6.9355   6.9523   6.9701   6.9952   7.0444
  7.0751   7.0977   7.0994   7.1203   7.1412   7.2165   7.3785   7.3911
  7.4103   7.4185   7.6481   7.6789   7.9303   7.9547   7.9967   8.0214
 50.3811  50.3970  50.4298  50.4555
 --------------------------------------------------------------
 
          Ground-State Mulliken Net Atomic Charges

     Atom                 Charge (a.u.)    Spin (a.u.)
  --------------------------------------------------------
      1 O                    -0.204068       0.689173
      2 O                    -0.121215       0.322391
      3 H                     0.399183      -0.009202
      4 H                     0.373633      -0.007618
      5 O                    -0.203878       0.316573
      6 O                    -0.243655       0.688683
  --------------------------------------------------------
  Sum of atomic charges =    -0.000000
  Sum of spin   charges =     2.000000

 -----------------------------------------------------------------
                    Cartesian Multipole Moments
 -----------------------------------------------------------------
    Charge (ESU x 10^10)
                -0.0000
    Dipole Moment (Debye)
         X      -5.1084      Y      -3.0755      Z      -0.0959
       Tot       5.9636
    Quadrupole Moments (Debye-Ang)
        XX     -20.1465     XY       0.9320     YY     -23.3297
        XZ     -15.9546     YZ      -9.5790     ZZ     -23.4695
    Octopole Moments (Debye-Ang^2)
       XXX     -53.5937    XXY     -13.9617    XYY     -16.7593
       YYY       8.1793    XXZ     -47.0581    XYZ       5.0867
       YYZ     -57.2546    XZZ     -59.6308    YZZ     -27.7304
       ZZZ    -177.1776
    Hexadecapole Moments (Debye-Ang^3)
      XXXX    -246.1593   XXXY     -50.7950   XXYY     -58.1687
      XYYY     -60.7185   YYYY    -133.0158   XXXZ    -141.4821
      XXYZ     -45.0552   XYYZ     -46.2676   YYYZ       9.9053
      XXZZ    -162.8469   XYZZ      -1.4352   YYZZ    -169.8330
      XZZZ    -223.4929   YZZZ     -81.9624   ZZZZ    -948.8783
 -----------------------------------------------------------------
 Calculating analytic gradient of the SCF energy
 Gradient of CDS energy
            1           2           3           4           5           6
    1  -0.0000698   0.0003101   0.0000163  -0.0004204   0.0001597   0.0000042
    2   0.0000364   0.0000431  -0.0002064  -0.0001494   0.0002510   0.0000253
    3   0.0000850  -0.0001173  -0.0003027   0.0001655   0.0001705  -0.0000010
 Gradient of SCF Energy
            1           2           3           4           5           6
    1   0.0013839   0.0174457  -0.0055621  -0.0186223   0.0049700   0.0003849
    2  -0.0034954   0.0163141  -0.0054705  -0.0131459   0.0046932   0.0011046
    3  -0.0003796  -0.0041025  -0.0023895   0.0052004  -0.0005757   0.0022468
 Max gradient component =       1.862E-02
 RMS gradient           =       8.394E-03
 Computing fast CPCM-SWIG gradient
 Updating gradient with PCM contributions...
 -- total gradient after adding PCM contribution --
---------------------------------------------------
  Atom         X              Y              Z     
---------------------------------------------------
   1       0.000218       0.000416       0.000102
   2       0.000494       0.000084      -0.000143
   3      -0.000289      -0.000082       0.000139
   4       0.000191       0.000060      -0.000060
   5      -0.000278      -0.000177       0.000226
   6      -0.000336      -0.000300      -0.000264
---------------------------------------------------
 Number of fixed atoms: 0
 Gradient time:  CPU 17.14 s  wall 2.52 s
-Performing force calculation on product structure in state0
 ----------------------------------------------------------------
             Standard Nuclear Orientation (Angstroms)
    I     Atom           X                Y                Z
 ----------------------------------------------------------------
    1      O      -0.6924687386    -1.0973133383     1.5910191337
    2      O      -0.9587599179    -1.1831102380     2.9913218212
    3      H       0.2745723529    -1.0967348272     1.5629207314
    4      H      -1.0036227501    -0.2526405715     3.2515470251
    5      O       1.7477257086     0.4560248399     2.6571494276
    6      O       0.9590652450     1.2348711351     3.1077322610
 ----------------------------------------------------------------
 Nuclear Repulsion Energy =         114.95932511 hartrees
 There are       18 alpha and       16 beta electrons
 Discretize the solute cavity surface with Lebedev spheres
	Using 110 Lebedev grid points for each H atom
	Using 194 Lebedev grid points for other atoms
	Atomic van der Waals radii will be scaled by 1.20
 Remove points where switching function is < 1.0e-08
 Keep 697 surface tesserae and discard 299 interior tesserae
 Molecular Surface Area = 85.191 Angst**2

                       Distance Matrix (Angstroms)
             O (  1)   O (  2)   H (  3)   H (  4)   O (  5)
   O (  2)  1.427977
   H (  3)  0.967449  1.889153
   H (  4)  1.888820  0.967214  2.279855
   O (  5)  3.082863  3.181745  2.403868  2.902660
   O (  6)  3.235285  3.088404  2.879472  2.466884  1.196500
 
 Applying Cartesian multipole field
    Component          Value
    ---------          -----
     (2,0,0)        1.00000E-11
     (0,2,0)        2.00000E-11
     (0,0,2)       -3.00000E-11
 Nucleus-field energy     =    -0.0000000214 hartrees
 Requested basis set is 6-311++G(2df,2p)
 There are 44 shells and 156 basis functions
 A cutoff of  1.0D-12 yielded    930 shell pairs
 There are     11684 function pairs (     14846 Cartesian)
 Smallest overlap matrix eigenvalue = 5.11E-04
 Guess from superposition of atomic densities
 Warning:  Energy on first SCF cycle will be non-variational
 SAD guess density has 34.000000 electrons

 -----------------------------------------------------------------------
  General SCF calculation program by
  Eric Jon Sundstrom, Paul Horn, Yuezhi Mao, Dmitri Zuev, Alec White,
  David Stuck, Shaama M.S., Shane Yost, Joonho Lee, David Small,
  Daniel Levine, Susi Lehtola, Hugh Burton, Evgeny Epifanovsky,
  Bang C. Huynh
 -----------------------------------------------------------------------
 Exchange:     0.1500 Hartree-Fock + 1.0000 wB97M-V + LR-HF
 Correlation:  1.0000 wB97M-V
 Using SG-2 standard quadrature grid
 Nonlocal Correlation:  VV10 with C = 0.0100 and b = 6.00 and scale = 1.00000
 Grid used for NLC:  SG-1 standard quadrature
 
 Citation of the SMD model:
 Marenich, A.V.; Cramer, C.J.; Truhlar, D.G.
 J. Phys. Chem. B 2009, 113, 6378-6396.
 iSolventCode=           1
 Solvent: water                                                           
 
 vradii
            1           2           3           4           5           6
    1   1.5200000   1.5200000   1.2000000   1.2000000   1.5200000   1.5200000
 -------------------------------------------------------
 OpenMP BLAS3 based DFT computing Module                
 Release: version 1.0, May 2013, Q-Chem Inc. Pittsburgh 
 -------------------------------------------------------
 A unrestricted SCF calculation will be
 performed using DIIS, GDM
 SCF converges when RMS gradient is below 1.0e-07
 ---------------------------------------
  Cycle       Energy         DIIS error
 ---------------------------------------
    1    -301.9547857716      1.74e-02  
    2    -301.8592362555      2.32e-03  Done DIIS. Switching to GDM
 ---------------------------------------
  Cycle       Energy        RMS Gradient
 ---------------------------------------
    1    -301.8592362555      5.35e-02   Descent step
    2    -301.9038047132      2.71e-02   Normal BFGS step
    3    -301.9105172145      5.99e-03   Normal BFGS step
    4    -301.9110417661      2.49e-03   Normal BFGS step
    5    -301.9111227912      7.08e-04   Normal BFGS step
    6    -301.9111264024      9.13e-04   Normal BFGS step
    7    -301.9111275758      4.05e-04   Normal BFGS step
    8    -301.9111279258      4.55e-05   Normal BFGS step
    9    -301.9111279709      1.94e-05   Normal BFGS step
   10    -301.9111279721      7.44e-06   Normal BFGS step
   11    -301.9111279728      5.97e-06   Normal BFGS step
   12    -301.9111279729      1.37e-06   Normal BFGS step
   13    -301.9111279729      8.97e-07   Normal BFGS step
   14    -301.9111279729      2.66e-07   Normal BFGS step
   15    -301.9111279729      7.29e-08  Convergence criterion met
 ---------------------------------------
 SCF time:   CPU 117.29s  wall 15.00s 
<S^2> =          2.008335029
(3)  G-ENP(liq) elect-nuc-pol free energy of system     -301.911127973 a.u.
(4)  G-CDS(liq) cavity-dispersion-solvent structure 
     free energy                                                0.9016 kcal/mol
(6)  G-S(liq) free energy of system                     -301.909691189 a.u.
 SCF   energy in the final basis set =     -301.9096911890
 Total energy in the final basis set =     -301.9096911890
 
 --------------------------------------------------------------
 
                    Orbital Energies (a.u.)
 --------------------------------------------------------------
 
 Alpha MOs
 -- Occupied --
-19.4908 -19.4906 -19.3932 -19.3931  -1.4434  -1.2610  -1.0251  -0.9606
 -0.6858  -0.6788  -0.6677  -0.6534  -0.6003  -0.5476  -0.4217  -0.4164
 -0.4100  -0.4077
 -- Virtual --
  0.0416   0.0494   0.1154   0.1514   0.1581   0.1810   0.2053   0.2058
  0.2139   0.2307   0.2334   0.2366   0.2728   0.2789   0.2868   0.2970
  0.3203   0.3286   0.3689   0.3854   0.4034   0.4447   0.6146   0.6275
  0.7608   0.8209   0.8251   0.8647   0.9422   0.9628   1.0146   1.0351
  1.0435   1.0753   1.0899   1.1043   1.1487   1.1517   1.1684   1.1983
  1.2801   1.3566   1.3830   1.3922   1.4099   1.4194   1.4904   1.5381
  1.5685   1.6281   1.6350   1.6411   1.7212   1.7543   1.8852   1.9347
  2.0276   2.1813   2.2369   2.2741   2.3196   2.3330   2.3880   2.4076
  2.5875   2.5925   2.7941   2.8553   3.6929   3.7870   3.8324   3.8852
  4.1943   4.2479   4.5384   4.5555   4.5692   4.5744   4.6006   4.6800
  4.7020   4.8538   4.8652   4.8917   4.8929   4.9545   4.9952   5.0064
  5.0669   5.1012   5.1426   5.1477   5.1516   5.1538   5.1569   5.2615
  5.2644   5.3357   5.3665   5.4153   5.4226   5.6163   5.6364   5.7535
  5.7544   5.7828   6.0601   6.0805   6.6333   6.6559   6.7907   6.7927
  6.8127   6.8231   6.8316   6.8645   6.9462   6.9639   6.9711   6.9740
  6.9926   7.0912   7.1825   7.2685   7.3402   7.3471   7.3726   7.3867
  7.5362   7.5557   7.8123   8.0489   8.0978   8.1080  50.3794  50.4317
 50.4568  50.5338
 
 Beta MOs
 -- Occupied --
-19.4606 -19.4603 -19.3931 -19.3931  -1.3873  -1.2609  -1.0250  -0.8739
 -0.6630  -0.6205  -0.5999  -0.5754  -0.5731  -0.5446  -0.4186  -0.4161
 -- Virtual --
 -0.0150  -0.0126   0.0419   0.0503   0.1160   0.1543   0.1610   0.1850
  0.2063   0.2092   0.2161   0.2326   0.2390   0.2423   0.2754   0.2800
  0.2890   0.2974   0.3248   0.3365   0.3688   0.4036   0.4192   0.4501
  0.6147   0.6275   0.7674   0.8217   0.8252   0.8700   0.9428   0.9635
  1.0262   1.0506   1.0683   1.0847   1.1235   1.1366   1.1603   1.1618
  1.1904   1.2004   1.3058   1.3851   1.4002   1.4222   1.4430   1.4523
  1.4986   1.5616   1.5721   1.6299   1.6415   1.6534   1.7720   1.8029
  1.8954   1.9348   2.0362   2.1843   2.2376   2.2771   2.3537   2.3594
  2.3973   2.4335   2.5904   2.6119   2.7945   2.8556   3.6939   3.7870
  3.8327   3.8860   4.1945   4.2479   4.5942   4.5995   4.6079   4.6204
  4.6261   4.6800   4.7030   4.8545   4.9000   4.9716   4.9729   4.9958
  5.0514   5.1002   5.1355   5.1484   5.1667   5.1724   5.1990   5.2364
  5.2382   5.2654   5.2694   5.3667   5.3840   5.4155   5.4228   5.6167
  5.6365   5.7830   5.8147   5.8154   6.0603   6.0806   6.7579   6.7869
  6.8068   6.8996   6.9029   6.9130   6.9169   6.9295   6.9678   6.9746
  6.9768   7.0531   7.0642   7.1010   7.1838   7.2702   7.3462   7.3681
  7.4038   7.4313   7.5366   7.5570   7.8125   8.0491   8.1301   8.1601
 50.4031  50.4318  50.4571  50.5577
 --------------------------------------------------------------
 
          Ground-State Mulliken Net Atomic Charges

     Atom                 Charge (a.u.)    Spin (a.u.)
  --------------------------------------------------------
      1 O                    -0.341372      -0.001044
      2 O                    -0.331451      -0.001222
      3 H                     0.332359       0.002715
      4 H                     0.331853       0.002321
      5 O                     0.002465       0.996900
      6 O                     0.006147       1.000330
  --------------------------------------------------------
  Sum of atomic charges =     0.000000
  Sum of spin   charges =     2.000000

 -----------------------------------------------------------------
                    Cartesian Multipole Moments
 -----------------------------------------------------------------
    Charge (ESU x 10^10)
                 0.0000
    Dipole Moment (Debye)
         X       2.0797      Y       2.1050      Z       0.5337
       Tot       3.0068
    Quadrupole Moments (Debye-Ang)
        XX     -23.7358     XY      -4.0729     YY     -26.0896
        XZ       2.6403     YZ       6.2654     ZZ     -19.7569
    Octopole Moments (Debye-Ang^2)
       XXX     -10.4758    XXY       9.0175    XYY       2.0452
       YYY      20.3015    XXZ     -59.1797    XYZ      -8.8711
       YYZ     -68.2139    XZZ      -1.8922    YZZ      24.4375
       ZZZ    -161.2855
    Hexadecapole Moments (Debye-Ang^3)
      XXXX    -196.1394   XXXY     -67.1182   XXYY     -63.3223
      XYYY     -70.9849   YYYY    -174.1462   XXXZ     -41.1744
      XXYZ      16.4782   XYYZ      -1.1978   YYYZ      30.5668
      XXZZ    -191.6829   XYZZ     -43.2812   YYZZ    -220.3815
      XZZZ     -49.9636   YZZZ      77.5742   ZZZZ    -907.6165
 -----------------------------------------------------------------
 Calculating analytic gradient of the SCF energy
 Gradient of CDS energy
            1           2           3           4           5           6
    1  -0.0002246   0.0000868   0.0002785  -0.0003129   0.0000347   0.0001376
    2   0.0000078  -0.0001634  -0.0002125   0.0002194   0.0001112   0.0000375
    3   0.0001871  -0.0002186  -0.0003157   0.0002896   0.0001035  -0.0000459
 Gradient of SCF Energy
            1           2           3           4           5           6
    1  -0.0157656  -0.0011945   0.0145700   0.0027945   0.0068635  -0.0072679
    2  -0.0012619  -0.0160872   0.0031753   0.0144384  -0.0072298   0.0069653
    3  -0.0027826  -0.0014791   0.0011421   0.0031702  -0.0033441   0.0032935
 Max gradient component =       1.609E-02
 RMS gradient           =       8.141E-03
 Computing fast CPCM-SWIG gradient
 Updating gradient with PCM contributions...
 -- total gradient after adding PCM contribution --
---------------------------------------------------
  Atom         X              Y              Z     
---------------------------------------------------
   1       0.000159       0.000283       0.000365
   2       0.000376       0.000395      -0.000053
   3       0.000002       0.000347       0.000531
   4       0.000474      -0.000109      -0.000611
   5      -0.000620      -0.000319      -0.000192
   6      -0.000392      -0.000597      -0.000040
---------------------------------------------------
 Number of fixed atoms: 0
 Gradient time:  CPU 16.92 s  wall 2.50 s

STARTING FREEZING STRING ITERATION # 1
 The distance between the innermost nodes (Angstroms): 2.374
-Adding two new nodes
 The distance between the previous and current R_nodes (Angstroms): 0.1193
 The distance between the previous and current P_nodes (Angstroms): 0.1250
-Optimizing new reactant side node
 Using BFGS, step: 2 E_tol 0.0456
 max_steps 6, node_spacing 0.1187, sigma 0.7000
 ----------------------------------------------------------------
             Standard Nuclear Orientation (Angstroms)
    I     Atom           X                Y                Z
 ----------------------------------------------------------------
    1      O      -0.4200684420    -1.3484711581     2.2163029337
    2      O      -1.2842521840    -0.6024280774     2.8655239387
    3      H       0.8278612188    -0.2653841783     1.9026472452
    4      H      -2.0301798073    -1.1876991453     3.0939050574
    5      O       1.5806324949     0.5056275669     1.9250474586
    6      O       1.6420103158     0.9183083376     3.1594729768
 ----------------------------------------------------------------
 Nuclear Repulsion Energy =         114.74920594 hartrees
 There are       18 alpha and       16 beta electrons
 Discretize the solute cavity surface with Lebedev spheres
	Using 110 Lebedev grid points for each H atom
	Using 194 Lebedev grid points for other atoms
	Atomic van der Waals radii will be scaled by 1.20
 Remove points where switching function is < 1.0e-08
 Keep 667 surface tesserae and discard 329 interior tesserae
 Molecular Surface Area = 82.109 Angst**2

                       Distance Matrix (Angstroms)
             O (  1)   O (  2)   H (  3)   H (  4)   O (  5)
   O (  2)  1.313348
   H (  3)  1.681899  2.345582
   H (  4)  1.840786  0.975248  3.230814
   O (  5)  2.743231  3.212452  1.077787  4.155905
   O (  6)  3.206248  3.310900  1.908816  4.233739  1.303027
 
 Applying Cartesian multipole field
    Component          Value
    ---------          -----
     (2,0,0)        1.00000E-11
     (0,2,0)        2.00000E-11
     (0,0,2)       -3.00000E-11
 Nucleus-field energy     =    -0.0000000202 hartrees
 Requested basis set is 6-311++G(2df,2p)
 There are 44 shells and 156 basis functions
 A cutoff of  1.0D-12 yielded    913 shell pairs
 There are     11507 function pairs (     14614 Cartesian)
 Smallest overlap matrix eigenvalue = 6.63E-04
 Guess from superposition of atomic densities
 Warning:  Energy on first SCF cycle will be non-variational
 SAD guess density has 34.000000 electrons

 -----------------------------------------------------------------------
  General SCF calculation program by
  Eric Jon Sundstrom, Paul Horn, Yuezhi Mao, Dmitri Zuev, Alec White,
  David Stuck, Shaama M.S., Shane Yost, Joonho Lee, David Small,
  Daniel Levine, Susi Lehtola, Hugh Burton, Evgeny Epifanovsky,
  Bang C. Huynh
 -----------------------------------------------------------------------
 Exchange:     0.1500 Hartree-Fock + 1.0000 wB97M-V + LR-HF
 Correlation:  1.0000 wB97M-V
 Using SG-2 standard quadrature grid
 Nonlocal Correlation:  VV10 with C = 0.0100 and b = 6.00 and scale = 1.00000
 Grid used for NLC:  SG-1 standard quadrature
 
 Citation of the SMD model:
 Marenich, A.V.; Cramer, C.J.; Truhlar, D.G.
 J. Phys. Chem. B 2009, 113, 6378-6396.
 iSolventCode=           1
 Solvent: water                                                           
 
 vradii
            1           2           3           4           5           6
    1   1.5200000   1.5200000   1.2000000   1.2000000   1.5200000   1.5200000
 -------------------------------------------------------
 OpenMP BLAS3 based DFT computing Module                
 Release: version 1.0, May 2013, Q-Chem Inc. Pittsburgh 
 -------------------------------------------------------
 A unrestricted SCF calculation will be
 performed using DIIS, GDM
 SCF converges when RMS gradient is below 1.0e-07
 ---------------------------------------
  Cycle       Energy         DIIS error
 ---------------------------------------
    1    -301.8742769621      1.65e-02  
    2    -301.8091214109      2.29e-03  Done DIIS. Switching to GDM
 ---------------------------------------
  Cycle       Energy        RMS Gradient
 ---------------------------------------
    1    -301.8091214109      9.93e-02   Descent step
    2    -301.8432586690      6.86e-02   Normal BFGS step
    3    -301.8576627141      3.46e-02   Normal BFGS step
    4    -301.8607512604      1.03e-02   Normal BFGS step
    5    -301.8611565213      5.69e-03   Normal BFGS step
    6    -301.8612865021      2.84e-03   Normal BFGS step
    7    -301.8613341437      1.58e-03   Normal BFGS step
    8    -301.8613364305      1.33e-03   Normal BFGS step
    9    -301.8613402504      1.98e-04   Normal BFGS step
   10    -301.8613404388      1.63e-04   Normal BFGS step
   11    -301.8613405640      1.25e-04   Normal BFGS step
   12    -301.8613406499      9.39e-05   Normal BFGS step
   13    -301.8613407379      3.95e-05   Normal BFGS step
   14    -301.8613407576      1.91e-05   Normal BFGS step
   15    -301.8613407618      1.41e-05   Normal BFGS step
   16    -301.8613407628      1.11e-05   Normal BFGS step
   17    -301.8613407635      8.38e-06   Normal BFGS step
   18    -301.8613407640      4.89e-06   Normal BFGS step
   19    -301.8613407643      3.29e-06   Normal BFGS step
   20    -301.8613407644      2.00e-06   Normal BFGS step
   21    -301.8613407644      8.53e-07   Normal BFGS step
   22    -301.8613407644      3.38e-07   Normal BFGS step
   23    -301.8613407644      1.43e-07   Normal BFGS step
   24    -301.8613407644      3.48e-08  Convergence criterion met
 ---------------------------------------
 SCF time:   CPU 179.43s  wall 23.00s 
<S^2> =          2.007570609
(3)  G-ENP(liq) elect-nuc-pol free energy of system     -301.861340764 a.u.
(4)  G-CDS(liq) cavity-dispersion-solvent structure 
     free energy                                                0.9058 kcal/mol
(6)  G-S(liq) free energy of system                     -301.859897316 a.u.
 SCF   energy in the final basis set =     -301.8598973160
 Total energy in the final basis set =     -301.8598973160
 
 --------------------------------------------------------------
 
                    Orbital Energies (a.u.)
 --------------------------------------------------------------
 
 Alpha MOs
 -- Occupied --
-19.4718 -19.4452 -19.4415 -19.4078  -1.3554  -1.3222  -1.0184  -0.9665
 -0.6956  -0.6693  -0.6284  -0.6113  -0.6022  -0.5880  -0.4477  -0.4255
 -0.3932  -0.3899
 -- Virtual --
  0.0358   0.0557   0.1172   0.1353   0.1794   0.1845   0.2020   0.2055
  0.2255   0.2280   0.2322   0.2495   0.2654   0.2769   0.2829   0.2897
  0.3008   0.3226   0.3548   0.3733   0.3913   0.4299   0.5845   0.6492
  0.7548   0.7702   0.8040   0.8326   0.9840   1.0122   1.0329   1.0395
  1.0532   1.0666   1.1108   1.1154   1.1317   1.1348   1.1783   1.2116
  1.3117   1.3510   1.3794   1.4074   1.4234   1.4787   1.5028   1.5477
  1.5777   1.5993   1.6331   1.6392   1.7451   1.8600   1.9371   2.0779
  2.1449   2.2198   2.2374   2.2684   2.2705   2.2989   2.4514   2.5465
  2.5916   2.6125   2.7301   2.8706   3.6790   3.7612   3.8370   3.9147
  4.1578   4.1660   4.4861   4.5163   4.6488   4.6869   4.7075   4.7188
  4.7410   4.7729   4.8442   4.8847   4.9990   5.0207   5.0540   5.0616
  5.0731   5.0824   5.1045   5.1207   5.1285   5.1753   5.1880   5.2169
  5.2368   5.2511   5.2709   5.3385   5.3607   5.4332   5.6032   5.6170
  5.6629   5.7366   6.3963   6.4019   6.4285   6.4655   6.7293   6.7441
  6.7752   6.8282   6.8613   6.8994   6.9292   6.9449   6.9999   7.0206
  7.0470   7.0674   7.0992   7.1493   7.3307   7.3411   7.3607   7.3882
  7.6249   7.6784   7.8994   7.9301   7.9781   8.0019  50.3740  50.3876
 50.4126  50.4335
 
 Beta MOs
 -- Occupied --
-19.4614 -19.4311 -19.4260 -19.3890  -1.3278  -1.2944  -0.9782  -0.9254
 -0.6783  -0.6531  -0.5913  -0.5700  -0.5418  -0.5173  -0.4265  -0.3681
 -- Virtual --
 -0.0473  -0.0182   0.0369   0.0567   0.1220   0.1416   0.1855   0.1885
  0.2073   0.2131   0.2319   0.2336   0.2377   0.2546   0.2759   0.2822
  0.2878   0.2969   0.3104   0.3326   0.3581   0.3753   0.3921   0.4297
  0.5878   0.6499   0.7582   0.7755   0.8085   0.8351   0.9890   1.0191
  1.0389   1.0516   1.0776   1.1017   1.1182   1.1416   1.1531   1.1655
  1.1863   1.2214   1.3232   1.3788   1.4041   1.4234   1.4421   1.4998
  1.5188   1.5629   1.5940   1.6174   1.6673   1.6694   1.7631   1.8798
  1.9583   2.0981   2.1613   2.2290   2.2655   2.2822   2.2974   2.3095
  2.4597   2.5545   2.6049   2.6241   2.7369   2.8774   3.6883   3.7653
  3.8424   3.9169   4.1637   4.1701   4.5270   4.5573   4.6620   4.6982
  4.7341   4.7451   4.7566   4.7904   4.8656   4.9088   5.0682   5.0965
  5.1059   5.1218   5.1302   5.1443   5.1540   5.1576   5.1855   5.2066
  5.2234   5.2514   5.2725   5.2749   5.3003   5.3690   5.3919   5.4643
  5.6327   5.6447   5.6886   5.7586   6.4161   6.4416   6.4440   6.5137
  6.7543   6.8083   6.8546   6.9154   6.9263   6.9606   6.9702   6.9945
  7.0381   7.0743   7.0983   7.1107   7.1344   7.1901   7.3696   7.3866
  7.4129   7.4157   7.6432   7.7001   7.9102   7.9428   8.0015   8.0249
 50.3842  50.3987  50.4254  50.4446
 --------------------------------------------------------------
 
          Ground-State Mulliken Net Atomic Charges

     Atom                 Charge (a.u.)    Spin (a.u.)
  --------------------------------------------------------
      1 O                    -0.186822       0.686500
      2 O                    -0.115881       0.326153
      3 H                     0.402856      -0.011929
      4 H                     0.375561      -0.007649
      5 O                    -0.216388       0.333826
      6 O                    -0.259326       0.673100
  --------------------------------------------------------
  Sum of atomic charges =    -0.000000
  Sum of spin   charges =     2.000000

 -----------------------------------------------------------------
                    Cartesian Multipole Moments
 -----------------------------------------------------------------
    Charge (ESU x 10^10)
                 0.0000
    Dipole Moment (Debye)
         X      -5.3168      Y      -3.3534      Z      -0.1580
       Tot       6.2880
    Quadrupole Moments (Debye-Ang)
        XX     -20.4419     XY       0.6607     YY     -23.3847
        XZ     -16.6949     YZ     -10.4256     ZZ     -23.8021
    Octopole Moments (Debye-Ang^2)
       XXX     -53.9323    XXY     -13.9319    XYY     -16.8238
       YYY       7.5648    XXZ     -47.6600    XYZ       4.4199
       YYZ     -57.4661    XZZ     -62.3001    YZZ     -30.4945
       ZZZ    -178.6809
    Hexadecapole Moments (Debye-Ang^3)
      XXXX    -243.0768   XXXY     -51.8654   XXYY     -58.5709
      XYYY     -61.5602   YYYY    -135.6696   XXXZ    -143.1300
      XXYZ     -45.7865   XYYZ     -47.0641   YYYZ       6.2124
      XXZZ    -163.3517   XYZZ      -3.3361   YYZZ    -171.2928
      XZZZ    -234.1316   YZZZ     -93.0206   ZZZZ    -956.4391
 -----------------------------------------------------------------
 Calculating analytic gradient of the SCF energy
 Gradient of CDS energy
            1           2           3           4           5           6
    1  -0.0000775   0.0003078   0.0000444  -0.0004183   0.0001392   0.0000044
    2   0.0000330   0.0000395  -0.0001872  -0.0001427   0.0002320   0.0000253
    3   0.0000832  -0.0001286  -0.0002975   0.0001781   0.0001659  -0.0000012
 Gradient of SCF Energy
            1           2           3           4           5           6
    1   0.0037636   0.0121827  -0.0354204  -0.0183611   0.0370971   0.0007382
    2  -0.0096824   0.0188958  -0.0372543  -0.0117581   0.0396435   0.0001556
    3  -0.0036832  -0.0005091  -0.0060124   0.0056364   0.0077956  -0.0032273
 Max gradient component =       3.964E-02
 RMS gradient           =       1.948E-02
 Computing fast CPCM-SWIG gradient
 Updating gradient with PCM contributions...
 -- total gradient after adding PCM contribution --
---------------------------------------------------
  Atom         X              Y              Z     
---------------------------------------------------
   1       0.002798      -0.005455      -0.002879
   2      -0.005384       0.002232       0.003513
   3      -0.030481      -0.031794      -0.003021
   4       0.001209       0.001694      -0.000070
   5       0.031939       0.034748       0.008351
   6      -0.000081      -0.001425      -0.005895
---------------------------------------------------
 Number of fixed atoms: 0
 Gradient time:  CPU 17.22 s  wall 2.52 s
 ----------------------------------------------------------------
             Standard Nuclear Orientation (Angstroms)
    I     Atom           X                Y                Z
 ----------------------------------------------------------------
    1      O      -0.4276340276    -1.3396298188     2.2035484786
    2      O      -1.2660988593    -0.6001573259     2.8655925436
    3      H       0.8595109200    -0.2436459898     1.8964448161
    4      H      -2.0214872981    -1.1808367773     3.1035644108
    5      O       1.5490647588     0.4661629432     1.9227068932
    6      O       1.6244634259     0.9305460514     3.1726350854
 ----------------------------------------------------------------
 Nuclear Repulsion Energy =         115.17912389 hartrees
 There are       18 alpha and       16 beta electrons
 Discretize the solute cavity surface with Lebedev spheres
	Using 110 Lebedev grid points for each H atom
	Using 194 Lebedev grid points for other atoms
	Atomic van der Waals radii will be scaled by 1.20
 Remove points where switching function is < 1.0e-08
 Keep 664 surface tesserae and discard 332 interior tesserae
 Molecular Surface Area = 82.048 Angst**2

                       Distance Matrix (Angstroms)
             O (  1)   O (  2)   H (  3)   H (  4)   O (  5)
   O (  2)  1.299286
   H (  3)  1.718207  2.363168
   H (  4)  1.837284  0.982054  3.261229
   O (  5)  2.692043  3.154555  0.989951  4.105591
   O (  6)  3.209974  3.285221  1.895400  4.213747  1.335536
 
 Applying Cartesian multipole field
    Component          Value
    ---------          -----
     (2,0,0)        1.00000E-11
     (0,2,0)        2.00000E-11
     (0,0,2)       -3.00000E-11
 Nucleus-field energy     =    -0.0000000203 hartrees
 Requested basis set is 6-311++G(2df,2p)
 There are 44 shells and 156 basis functions
 A cutoff of  1.0D-12 yielded    913 shell pairs
 There are     11507 function pairs (     14614 Cartesian)
 Smallest overlap matrix eigenvalue = 6.50E-04
 Guess from superposition of atomic densities
 Warning:  Energy on first SCF cycle will be non-variational
 SAD guess density has 34.000000 electrons

 -----------------------------------------------------------------------
  General SCF calculation program by
  Eric Jon Sundstrom, Paul Horn, Yuezhi Mao, Dmitri Zuev, Alec White,
  David Stuck, Shaama M.S., Shane Yost, Joonho Lee, David Small,
  Daniel Levine, Susi Lehtola, Hugh Burton, Evgeny Epifanovsky,
  Bang C. Huynh
 -----------------------------------------------------------------------
 Exchange:     0.1500 Hartree-Fock + 1.0000 wB97M-V + LR-HF
 Correlation:  1.0000 wB97M-V
 Using SG-2 standard quadrature grid
 Nonlocal Correlation:  VV10 with C = 0.0100 and b = 6.00 and scale = 1.00000
 Grid used for NLC:  SG-1 standard quadrature
 
 Citation of the SMD model:
 Marenich, A.V.; Cramer, C.J.; Truhlar, D.G.
 J. Phys. Chem. B 2009, 113, 6378-6396.
 iSolventCode=           1
 Solvent: water                                                           
 
 vradii
            1           2           3           4           5           6
    1   1.5200000   1.5200000   1.2000000   1.2000000   1.5200000   1.5200000
 -------------------------------------------------------
 OpenMP BLAS3 based DFT computing Module                
 Release: version 1.0, May 2013, Q-Chem Inc. Pittsburgh 
 -------------------------------------------------------
 A unrestricted SCF calculation will be
 performed using DIIS, GDM
 SCF converges when RMS gradient is below 1.0e-07
 ---------------------------------------
  Cycle       Energy         DIIS error
 ---------------------------------------
    1    -301.8893580007      1.66e-02  
    2    -301.8143059466      2.23e-03  Done DIIS. Switching to GDM
 ---------------------------------------
  Cycle       Energy        RMS Gradient
 ---------------------------------------
    1    -301.8143059466      8.65e-02   Descent step
    2    -301.8460966785      5.17e-02   Normal BFGS step
    3    -301.8606092734      3.30e-02   Normal BFGS step
    4    -301.8637367292      1.03e-02   Normal BFGS step
    5    -301.8641411961      6.80e-03   Normal BFGS step
    6    -301.8642751382      3.54e-03   Normal BFGS step
    7    -301.8643245167      2.05e-03   Normal BFGS step
    8    -301.8643344156      5.36e-04   Normal BFGS step
    9    -301.8643374521      2.30e-04   Normal BFGS step
   10    -301.8643377855      2.17e-04   Normal BFGS step
   11    -301.8643380749      1.84e-04   Normal BFGS step
   12    -301.8643382574      1.34e-04   Normal BFGS step
   13    -301.8643384097      6.33e-05   Normal BFGS step
   14    -301.8643384575      5.15e-05   Normal BFGS step
   15    -301.8643384695      2.86e-05   Normal BFGS step
   16    -301.8643384737      1.57e-05   Normal BFGS step
   17    -301.8643384758      1.16e-05   Normal BFGS step
   18    -301.8643384768      9.64e-06   Normal BFGS step
   19    -301.8643384775      8.15e-06   Normal BFGS step
   20    -301.8643384779      3.91e-06   Normal BFGS step
   21    -301.8643384780      8.74e-07   Normal BFGS step
   22    -301.8643384780      4.00e-07   Normal BFGS step
   23    -301.8643384780      1.73e-07   Normal BFGS step
   24    -301.8643384780      7.15e-08  Convergence criterion met
 ---------------------------------------
 SCF time:   CPU 176.49s  wall 22.00s 
<S^2> =          2.007554635
(3)  G-ENP(liq) elect-nuc-pol free energy of system     -301.864338478 a.u.
(4)  G-CDS(liq) cavity-dispersion-solvent structure 
     free energy                                                0.8905 kcal/mol
(6)  G-S(liq) free energy of system                     -301.862919403 a.u.
 SCF   energy in the final basis set =     -301.8629194031
 Total energy in the final basis set =     -301.8629194031
 
 --------------------------------------------------------------
 
                    Orbital Energies (a.u.)
 --------------------------------------------------------------
 
 Alpha MOs
 -- Occupied --
-19.4694 -19.4401 -19.4369 -19.4190  -1.3595  -1.3124  -1.0126  -0.9897
 -0.6944  -0.6758  -0.6289  -0.6123  -0.5984  -0.5854  -0.4413  -0.4186
 -0.4061  -0.4017
 -- Virtual --
  0.0358   0.0558   0.1134   0.1363   0.1789   0.1852   0.2045   0.2070
  0.2281   0.2302   0.2345   0.2511   0.2576   0.2762   0.2846   0.2952
  0.2980   0.3200   0.3680   0.3775   0.3908   0.4340   0.5814   0.6728
  0.7613   0.7832   0.8079   0.8346   0.9689   1.0114   1.0316   1.0437
  1.0535   1.0670   1.1125   1.1163   1.1309   1.1349   1.1762   1.2184
  1.3368   1.3570   1.3694   1.4046   1.4252   1.4789   1.5069   1.5512
  1.5819   1.5994   1.6297   1.6395   1.7422   1.8634   1.9629   2.0774
  2.1155   2.2289   2.2340   2.2519   2.2630   2.3163   2.4646   2.4869
  2.5874   2.6283   2.7400   2.9079   3.6805   3.7391   3.8408   3.9039
  4.1454   4.3082   4.4924   4.5072   4.6542   4.6971   4.7027   4.7117
  4.7519   4.7735   4.8738   4.8968   5.0016   5.0204   5.0588   5.0633
  5.0751   5.0868   5.1063   5.1163   5.1253   5.1786   5.1927   5.1963
  5.2493   5.2641   5.2927   5.3952   5.4090   5.4373   5.6211   5.6313
  5.6723   5.7537   6.3366   6.3862   6.4544   6.4741   6.7300   6.7713
  6.8168   6.8669   6.8774   6.9261   6.9447   7.0030   7.0206   7.0288
  7.0421   7.0934   7.0981   7.1774   7.3351   7.3422   7.3490   7.3866
  7.6367   7.6745   7.8982   7.9151   7.9478   8.0150  50.3506  50.3892
 50.4108  50.4426
 
 Beta MOs
 -- Occupied --
-19.4589 -19.4305 -19.4178 -19.3995  -1.3320  -1.2851  -0.9729  -0.9483
 -0.6771  -0.6591  -0.5923  -0.5682  -0.5429  -0.5136  -0.4199  -0.3796
 -- Virtual --
 -0.0405  -0.0296   0.0370   0.0568   0.1189   0.1427   0.1859   0.1885
  0.2091   0.2156   0.2332   0.2360   0.2426   0.2553   0.2711   0.2807
  0.2893   0.3015   0.3083   0.3261   0.3711   0.3801   0.3916   0.4340
  0.5848   0.6742   0.7649   0.7885   0.8125   0.8372   0.9731   1.0184
  1.0377   1.0587   1.0802   1.0978   1.1190   1.1405   1.1563   1.1644
  1.1839   1.2280   1.3494   1.3849   1.3948   1.4184   1.4430   1.5003
  1.5238   1.5672   1.5993   1.6182   1.6606   1.6745   1.7594   1.8831
  1.9822   2.0947   2.1345   2.2376   2.2621   2.2724   2.2828   2.3255
  2.4716   2.4974   2.6015   2.6399   2.7481   2.9154   3.6896   3.7464
  3.8463   3.9082   4.1516   4.3148   4.5337   4.5472   4.6676   4.7127
  4.7230   4.7277   4.7785   4.7901   4.8975   4.9205   5.0698   5.0997
  5.1132   5.1287   5.1350   5.1441   5.1524   5.1626   5.1765   5.2127
  5.2235   5.2343   5.2883   5.2950   5.3118   5.4251   5.4391   5.4683
  5.6476   5.6595   5.6947   5.7762   6.3825   6.3990   6.4871   6.5031
  6.8070   6.8525   6.9060   6.9312   6.9413   6.9645   6.9926   7.0312
  7.0664   7.0787   7.0850   7.1221   7.1401   7.2170   7.3683   7.3926
  7.4052   7.4117   7.6548   7.6945   7.9107   7.9373   7.9605   8.0383
 50.3633  50.3988  50.4212  50.4550
 --------------------------------------------------------------
 
          Ground-State Mulliken Net Atomic Charges

     Atom                 Charge (a.u.)    Spin (a.u.)
  --------------------------------------------------------
      1 O                    -0.209359       0.684772
      2 O                    -0.116842       0.327045
      3 H                     0.399862      -0.008442
      4 H                     0.375518      -0.007965
      5 O                    -0.219311       0.305576
      6 O                    -0.229868       0.699014
  --------------------------------------------------------
  Sum of atomic charges =     0.000000
  Sum of spin   charges =     2.000000

 -----------------------------------------------------------------
                    Cartesian Multipole Moments
 -----------------------------------------------------------------
    Charge (ESU x 10^10)
                -0.0000
    Dipole Moment (Debye)
         X      -5.0094      Y      -3.0783      Z      -0.0027
       Tot       5.8796
    Quadrupole Moments (Debye-Ang)
        XX     -20.0988     XY       0.7838     YY     -23.4346
        XZ     -15.7438     YZ      -9.7084     ZZ     -22.8586
    Octopole Moments (Debye-Ang^2)
       XXX     -51.8348    XXY     -13.0730    XYY     -16.0415
       YYY       8.5036    XXZ     -46.3883    XYZ       4.9713
       YYZ     -57.3180    XZZ     -58.8872    YZZ     -28.3386
       ZZZ    -174.3651
    Hexadecapole Moments (Debye-Ang^3)
      XXXX    -235.6136   XXXY     -50.0434   XXYY     -57.1149
      XYYY     -60.2226   YYYY    -134.6407   XXXZ    -137.4244
      XXYZ     -43.5095   XYYZ     -45.0584   YYYZ       7.7875
      XXZZ    -157.4497   XYZZ      -0.5939   YYZZ    -169.9456
      XZZZ    -221.8740   YZZZ     -86.7310   ZZZZ    -939.5473
 -----------------------------------------------------------------
 Calculating analytic gradient of the SCF energy
 Gradient of CDS energy
            1           2           3           4           5           6
    1  -0.0000763   0.0003075   0.0000381  -0.0004144   0.0001411   0.0000040
    2   0.0000324   0.0000409  -0.0002166  -0.0001388   0.0002617   0.0000204
    3   0.0000792  -0.0001360  -0.0003010   0.0001822   0.0001767  -0.0000011
 Gradient of SCF Energy
            1           2           3           4           5           6
    1  -0.0030394   0.0262835  -0.0022200  -0.0222238  -0.0042881   0.0054878
    2   0.0014259   0.0143790  -0.0051075  -0.0152675  -0.0086601   0.0132302
    3   0.0031046  -0.0091644  -0.0108064   0.0068329  -0.0134837   0.0235170
 Max gradient component =       2.628E-02
 RMS gradient           =       1.282E-02
 Computing fast CPCM-SWIG gradient
 Updating gradient with PCM contributions...
 -- total gradient after adding PCM contribution --
---------------------------------------------------
  Atom         X              Y              Z     
---------------------------------------------------
   1      -0.003789       0.005212       0.003836
   2       0.008640      -0.001447      -0.004870
   3       0.002961       0.000514      -0.008209
   4      -0.003120      -0.002406       0.001066
   5      -0.009733      -0.014034      -0.013494
   6       0.005042       0.012161       0.021670
---------------------------------------------------
 Number of fixed atoms: 0
 Gradient time:  CPU 17.07 s  wall 2.47 s
 FSM gradient convergence criteria satisfied
done with opt_step_by_gradient, Reactant, iter1
-Optimizing new product side node
 Using BFGS, step: 2 E_tol 0.0455744
 max_steps 6, node_spacing 0.1186885, sigma 0.7000000
 ----------------------------------------------------------------
             Standard Nuclear Orientation (Angstroms)
    I     Atom           X                Y                Z
 ----------------------------------------------------------------
    1      O      -0.6886326824    -1.1060276845     1.6064408827
    2      O      -0.9715398684    -1.1990286462     2.9928288110
    3      H       0.3229145327    -1.0518450893     1.5762999276
    4      H      -1.0838531193    -0.2757877981     3.2586219609
    5      O       1.7491014354     0.4432729211     2.6100508826
    6      O       0.9877731320     1.2261463405     3.1138085518
 ----------------------------------------------------------------
 Nuclear Repulsion Energy =         114.61239493 hartrees
 There are       18 alpha and       16 beta electrons
 Discretize the solute cavity surface with Lebedev spheres
	Using 110 Lebedev grid points for each H atom
	Using 194 Lebedev grid points for other atoms
	Atomic van der Waals radii will be scaled by 1.20
 Remove points where switching function is < 1.0e-08
 Keep 693 surface tesserae and discard 303 interior tesserae
 Molecular Surface Area = 85.536 Angst**2

                       Distance Matrix (Angstroms)
             O (  1)   O (  2)   H (  3)   H (  4)   O (  5)
   O (  2)  1.418012
   H (  3)  1.013446  1.924534
   H (  4)  1.890820  0.967282  2.326256
   O (  5)  3.057795  3.200869  2.310417  2.993881
   O (  6)  3.243691  3.120099  2.827581  2.562891  1.202615
 
 Applying Cartesian multipole field
    Component          Value
    ---------          -----
     (2,0,0)        1.00000E-11
     (0,2,0)        2.00000E-11
     (0,0,2)       -3.00000E-11
 Nucleus-field energy     =    -0.0000000213 hartrees
 Requested basis set is 6-311++G(2df,2p)
 There are 44 shells and 156 basis functions
 A cutoff of  1.0D-12 yielded    926 shell pairs
 There are     11601 function pairs (     14713 Cartesian)
 Smallest overlap matrix eigenvalue = 5.30E-04
 Guess from superposition of atomic densities
 Warning:  Energy on first SCF cycle will be non-variational
 SAD guess density has 34.000000 electrons

 -----------------------------------------------------------------------
  General SCF calculation program by
  Eric Jon Sundstrom, Paul Horn, Yuezhi Mao, Dmitri Zuev, Alec White,
  David Stuck, Shaama M.S., Shane Yost, Joonho Lee, David Small,
  Daniel Levine, Susi Lehtola, Hugh Burton, Evgeny Epifanovsky,
  Bang C. Huynh
 -----------------------------------------------------------------------
 Exchange:     0.1500 Hartree-Fock + 1.0000 wB97M-V + LR-HF
 Correlation:  1.0000 wB97M-V
 Using SG-2 standard quadrature grid
 Nonlocal Correlation:  VV10 with C = 0.0100 and b = 6.00 and scale = 1.00000
 Grid used for NLC:  SG-1 standard quadrature
 
 Citation of the SMD model:
 Marenich, A.V.; Cramer, C.J.; Truhlar, D.G.
 J. Phys. Chem. B 2009, 113, 6378-6396.
 iSolventCode=           1
 Solvent: water                                                           
 
 vradii
            1           2           3           4           5           6
    1   1.5200000   1.5200000   1.2000000   1.2000000   1.5200000   1.5200000
 -------------------------------------------------------
 OpenMP BLAS3 based DFT computing Module                
 Release: version 1.0, May 2013, Q-Chem Inc. Pittsburgh 
 -------------------------------------------------------
 A unrestricted SCF calculation will be
 performed using DIIS, GDM
 SCF converges when RMS gradient is below 1.0e-07
 ---------------------------------------
  Cycle       Energy         DIIS error
 ---------------------------------------
    1    -301.9180968443      1.71e-02  
    2    -301.8568240233      2.33e-03  Done DIIS. Switching to GDM
 ---------------------------------------
  Cycle       Energy        RMS Gradient
 ---------------------------------------
    1    -301.8568240233      5.27e-02   Descent step
    2    -301.9018400160      2.78e-02   Normal BFGS step
    3    -301.9085791891      6.06e-03   Normal BFGS step
    4    -301.9091439723      3.66e-03   Normal BFGS step
    5    -301.9092370195      2.82e-03   Normal BFGS step
    6    -301.9092449122      1.96e-03   Normal BFGS step
    7    -301.9092534936      1.65e-04   Normal BFGS step
    8    -301.9092537761      7.39e-05   Normal BFGS step
    9    -301.9092538455      3.53e-05   Normal BFGS step
   10    -301.9092538558      2.18e-05   Normal BFGS step
   11    -301.9092538608      9.90e-06   Normal BFGS step
   12    -301.9092538612      6.37e-06   Normal BFGS step
   13    -301.9092538614      1.79e-06   Normal BFGS step
   14    -301.9092538614      8.11e-07   Normal BFGS step
   15    -301.9092538614      1.44e-07   Normal BFGS step
   16    -301.9092538614      6.40e-08  Convergence criterion met
 ---------------------------------------
 SCF time:   CPU 128.98s  wall 17.00s 
<S^2> =          2.008424170
(3)  G-ENP(liq) elect-nuc-pol free energy of system     -301.909253861 a.u.
(4)  G-CDS(liq) cavity-dispersion-solvent structure 
     free energy                                                0.9283 kcal/mol
(6)  G-S(liq) free energy of system                     -301.907774572 a.u.
 SCF   energy in the final basis set =     -301.9077745721
 Total energy in the final basis set =     -301.9077745721
 
 --------------------------------------------------------------
 
                    Orbital Energies (a.u.)
 --------------------------------------------------------------
 
 Alpha MOs
 -- Occupied --
-19.4922 -19.4916 -19.3951 -19.3918  -1.4389  -1.2601  -1.0163  -0.9629
 -0.6843  -0.6770  -0.6670  -0.6511  -0.5977  -0.5471  -0.4207  -0.4139
 -0.4122  -0.4071
 -- Virtual --
  0.0410   0.0493   0.1184   0.1506   0.1597   0.1806   0.2011   0.2063
  0.2160   0.2271   0.2311   0.2381   0.2718   0.2783   0.2862   0.2989
  0.3154   0.3277   0.3689   0.3802   0.4037   0.4389   0.5984   0.6192
  0.7651   0.8126   0.8281   0.8632   0.9462   0.9707   1.0152   1.0341
  1.0462   1.0729   1.0898   1.1036   1.1430   1.1550   1.1675   1.1996
  1.2727   1.3563   1.3648   1.3951   1.4074   1.4264   1.4764   1.5416
  1.5766   1.6169   1.6302   1.6345   1.7166   1.7550   1.8638   1.9525
  2.0225   2.1930   2.2449   2.2736   2.3121   2.3296   2.3854   2.4106
  2.5806   2.5906   2.7739   2.8398   3.6952   3.7851   3.8342   3.8848
  4.1197   4.2305   4.5322   4.5499   4.5718   4.5788   4.6100   4.6745
  4.6966   4.8511   4.8698   4.8945   4.8974   4.9540   4.9919   5.0058
  5.0651   5.0974   5.1312   5.1453   5.1503   5.1537   5.1576   5.2380
  5.2593   5.3218   5.3545   5.3822   5.4075   5.5437   5.6312   5.7389
  5.7401   5.7420   6.0891   6.1098   6.6324   6.6556   6.7911   6.7992
  6.8033   6.8103   6.8379   6.8806   6.9333   6.9549   6.9644   6.9703
  6.9844   7.0154   7.0863   7.2267   7.3372   7.3417   7.3688   7.3803
  7.5482   7.5716   7.8351   8.0354   8.0746   8.0975  50.3754  50.4160
 50.4516  50.5122
 
 Beta MOs
 -- Occupied --
-19.4618 -19.4614 -19.3950 -19.3918  -1.3826  -1.2599  -1.0161  -0.8762
 -0.6606  -0.6201  -0.5978  -0.5733  -0.5711  -0.5437  -0.4146  -0.4132
 -- Virtual --
 -0.0178  -0.0150   0.0414   0.0503   0.1191   0.1536   0.1628   0.1851
  0.2030   0.2088   0.2179   0.2319   0.2347   0.2427   0.2744   0.2795
  0.2886   0.2994   0.3207   0.3368   0.3689   0.4038   0.4137   0.4431
  0.5985   0.6192   0.7712   0.8134   0.8284   0.8682   0.9469   0.9720
  1.0266   1.0532   1.0678   1.0831   1.1223   1.1375   1.1566   1.1626
  1.1847   1.2059   1.2952   1.3802   1.3926   1.4261   1.4385   1.4531
  1.4901   1.5621   1.5803   1.6197   1.6335   1.6505   1.7666   1.8024
  1.8750   1.9526   2.0314   2.1964   2.2459   2.2785   2.3461   2.3586
  2.3954   2.4308   2.5824   2.6112   2.7744   2.8401   3.6960   3.7850
  3.8344   3.8857   4.1199   4.2305   4.5876   4.6012   4.6101   4.6232
  4.6303   4.6749   4.6975   4.8515   4.9041   4.9745   4.9775   4.9927
  5.0511   5.0996   5.1352   5.1477   5.1605   5.1677   5.1953   5.2319
  5.2354   5.2461   5.2640   5.3546   5.3703   5.3825   5.4077   5.5442
  5.6315   5.7422   5.7999   5.8010   6.0893   6.1099   6.7622   6.7853
  6.8340   6.8791   6.8823   6.9097   6.9211   6.9326   6.9559   6.9679
  6.9781   7.0109   7.0453   7.0630   7.0998   7.2271   7.3448   7.3677
  7.3979   7.4235   7.5485   7.5727   7.8354   8.0356   8.1061   8.1496
 50.3988  50.4163  50.4519  50.5361
 --------------------------------------------------------------
 
          Ground-State Mulliken Net Atomic Charges

     Atom                 Charge (a.u.)    Spin (a.u.)
  --------------------------------------------------------
      1 O                    -0.354293      -0.000017
      2 O                    -0.329480      -0.001052
      3 H                     0.342389       0.002664
      4 H                     0.331834       0.001809
      5 O                    -0.005146       0.991396
      6 O                     0.014696       1.005200
  --------------------------------------------------------
  Sum of atomic charges =    -0.000000
  Sum of spin   charges =     2.000000

 -----------------------------------------------------------------
                    Cartesian Multipole Moments
 -----------------------------------------------------------------
    Charge (ESU x 10^10)
                 0.0000
    Dipole Moment (Debye)
         X       1.9924      Y       2.2314      Z       0.5526
       Tot       3.0421
    Quadrupole Moments (Debye-Ang)
        XX     -23.3568     XY      -4.1207     YY     -26.4433
        XZ       2.2816     YZ       6.4643     ZZ     -19.7392
    Octopole Moments (Debye-Ang^2)
       XXX     -11.2122    XXY       9.2081    XYY       2.0867
       YYY      21.8319    XXZ     -57.8825    XYZ      -9.0174
       YYZ     -68.7656    XZZ      -3.3935    YZZ      25.0546
       ZZZ    -161.1005
    Hexadecapole Moments (Debye-Ang^3)
      XXXX    -198.3667   XXXY     -67.8197   XXYY     -64.2607
      XYYY     -71.9615   YYYY    -176.2242   XXXZ     -41.9632
      XXYZ      17.2521   XYYZ      -0.4504   YYYZ      34.7852
      XXZZ    -187.5679   XYZZ     -43.9017   YYZZ    -221.2661
      XZZZ     -54.5621   YZZZ      80.9514   ZZZZ    -904.5565
 -----------------------------------------------------------------
 Calculating analytic gradient of the SCF energy
 Gradient of CDS energy
            1           2           3           4           5           6
    1  -0.0002145   0.0001070   0.0002663  -0.0003303   0.0000378   0.0001338
    2  -0.0000129  -0.0001558  -0.0001963   0.0002148   0.0001161   0.0000341
    3   0.0001771  -0.0002180  -0.0003107   0.0002829   0.0001095  -0.0000408
 Gradient of SCF Energy
            1           2           3           4           5           6
    1  -0.0528906   0.0002248   0.0518942   0.0011068   0.0129813  -0.0133166
    2  -0.0048643  -0.0149165   0.0057924   0.0142900  -0.0135040   0.0132025
    3   0.0044534  -0.0074361  -0.0013122   0.0045828  -0.0080978   0.0078100
 Max gradient component =       5.289E-02
 RMS gradient           =       1.958E-02
 Computing fast CPCM-SWIG gradient
 Updating gradient with PCM contributions...
 -- total gradient after adding PCM contribution --
---------------------------------------------------
  Atom         X              Y              Z     
---------------------------------------------------
   1      -0.037313      -0.002621       0.007793
   2       0.000664       0.001553      -0.006070
   3       0.037816       0.002528      -0.001756
   4      -0.000122      -0.000446       0.000616
   5       0.005445      -0.007083      -0.004667
   6      -0.006490       0.006068       0.004084
---------------------------------------------------
 Number of fixed atoms: 0
 Gradient time:  CPU 17.27 s  wall 2.61 s
 ----------------------------------------------------------------
             Standard Nuclear Orientation (Angstroms)
    I     Atom           X                Y                Z
 ----------------------------------------------------------------
    1      O      -0.6386326824    -1.1019717306     1.5992354979
    2      O      -0.9723132219    -1.2018222001     3.0019305875
    3      H       0.2817719902    -1.0474614150     1.5809919490
    4      H      -1.0965988850    -0.2774691070     3.2587934304
    5      O       1.7429450926     0.4515232533     2.6086534843
    6      O       1.0016111372     1.2179177252     3.1088994857
 ----------------------------------------------------------------
 Nuclear Repulsion Energy =         115.35473296 hartrees
 There are       18 alpha and       16 beta electrons
 Discretize the solute cavity surface with Lebedev spheres
	Using 110 Lebedev grid points for each H atom
	Using 194 Lebedev grid points for other atoms
	Atomic van der Waals radii will be scaled by 1.20
 Remove points where switching function is < 1.0e-08
 Keep 693 surface tesserae and discard 303 interior tesserae
 Molecular Surface Area = 85.219 Angst**2

                       Distance Matrix (Angstroms)
             O (  1)   O (  2)   H (  3)   H (  4)   O (  5)
   O (  2)  1.445291
   H (  3)  0.922198  1.901479
   H (  4)  1.908840  0.967396  2.303869
   O (  5)  3.017314  3.203255  2.331967  3.002852
   O (  6)  3.217355  3.124574  2.825706  2.580918  1.177787
 
 Applying Cartesian multipole field
    Component          Value
    ---------          -----
     (2,0,0)        1.00000E-11
     (0,2,0)        2.00000E-11
     (0,0,2)       -3.00000E-11
 Nucleus-field energy     =    -0.0000000213 hartrees
 Requested basis set is 6-311++G(2df,2p)
 There are 44 shells and 156 basis functions
 A cutoff of  1.0D-12 yielded    928 shell pairs
 There are     11609 function pairs (     14721 Cartesian)
 Smallest overlap matrix eigenvalue = 4.79E-04
 Guess from superposition of atomic densities
 Warning:  Energy on first SCF cycle will be non-variational
 SAD guess density has 34.000000 electrons

 -----------------------------------------------------------------------
  General SCF calculation program by
  Eric Jon Sundstrom, Paul Horn, Yuezhi Mao, Dmitri Zuev, Alec White,
  David Stuck, Shaama M.S., Shane Yost, Joonho Lee, David Small,
  Daniel Levine, Susi Lehtola, Hugh Burton, Evgeny Epifanovsky,
  Bang C. Huynh
 -----------------------------------------------------------------------
 Exchange:     0.1500 Hartree-Fock + 1.0000 wB97M-V + LR-HF
 Correlation:  1.0000 wB97M-V
 Using SG-2 standard quadrature grid
 Nonlocal Correlation:  VV10 with C = 0.0100 and b = 6.00 and scale = 1.00000
 Grid used for NLC:  SG-1 standard quadrature
 
 Citation of the SMD model:
 Marenich, A.V.; Cramer, C.J.; Truhlar, D.G.
 J. Phys. Chem. B 2009, 113, 6378-6396.
 iSolventCode=           1
 Solvent: water                                                           
 
 vradii
            1           2           3           4           5           6
    1   1.5200000   1.5200000   1.2000000   1.2000000   1.5200000   1.5200000
 -------------------------------------------------------
 OpenMP BLAS3 based DFT computing Module                
 Release: version 1.0, May 2013, Q-Chem Inc. Pittsburgh 
 -------------------------------------------------------
 A unrestricted SCF calculation will be
 performed using DIIS, GDM
 SCF converges when RMS gradient is below 1.0e-07
 ---------------------------------------
  Cycle       Energy         DIIS error
 ---------------------------------------
    1    -302.0093686866      1.78e-02  
    2    -301.8568268273      2.31e-03  Done DIIS. Switching to GDM
 ---------------------------------------
  Cycle       Energy        RMS Gradient
 ---------------------------------------
    1    -301.8568268273      5.14e-02   Descent step
    2    -301.9004579724      2.69e-02   Normal BFGS step
    3    -301.9072960749      6.79e-03   Normal BFGS step
    4    -301.9078023435      2.86e-03   Normal BFGS step
    5    -301.9079023797      1.57e-03   Normal BFGS step
    6    -301.9079150945      8.92e-04   Normal BFGS step
    7    -301.9079210379      2.36e-04   Normal BFGS step
    8    -301.9079212197      2.18e-04   Normal BFGS step
    9    -301.9079213277      7.56e-05   Normal BFGS step
   10    -301.9079213421      1.46e-05   Normal BFGS step
   11    -301.9079213461      7.75e-06   Normal BFGS step
   12    -301.9079213463      5.16e-06   Normal BFGS step
   13    -301.9079213464      1.15e-06   Normal BFGS step
   14    -301.9079213465      6.09e-07   Normal BFGS step
   15    -301.9079213465      8.54e-08  Convergence criterion met
 ---------------------------------------
 SCF time:   CPU 118.03s  wall 15.00s 
<S^2> =          2.008037185
(3)  G-ENP(liq) elect-nuc-pol free energy of system     -301.907921346 a.u.
(4)  G-CDS(liq) cavity-dispersion-solvent structure 
     free energy                                                0.9022 kcal/mol
(6)  G-S(liq) free energy of system                     -301.906483529 a.u.
 SCF   energy in the final basis set =     -301.9064835290
 Total energy in the final basis set =     -301.9064835290
 
 --------------------------------------------------------------
 
                    Orbital Energies (a.u.)
 --------------------------------------------------------------
 
 Alpha MOs
 -- Occupied --
-19.4883 -19.4879 -19.3961 -19.3907  -1.4587  -1.2578  -1.0379  -0.9547
 -0.6914  -0.6852  -0.6714  -0.6585  -0.5997  -0.5451  -0.4240  -0.4206
 -0.4035  -0.4021
 -- Virtual --
  0.0416   0.0482   0.1103   0.1510   0.1589   0.1784   0.2048   0.2078
  0.2131   0.2311   0.2379   0.2423   0.2709   0.2784   0.2869   0.2957
  0.3178   0.3419   0.3684   0.4016   0.4056   0.4407   0.6164   0.6512
  0.7737   0.8202   0.8317   0.8691   0.9361   0.9594   1.0151   1.0332
  1.0391   1.0737   1.0891   1.1042   1.1464   1.1504   1.1708   1.2016
  1.2751   1.3503   1.3856   1.3969   1.4142   1.4325   1.5062   1.5465
  1.5659   1.6244   1.6407   1.6446   1.7282   1.7701   1.8802   1.9066
  2.0449   2.1802   2.2329   2.2572   2.3390   2.3516   2.3830   2.4178
  2.5894   2.6005   2.8032   2.8834   3.6914   3.7943   3.8316   3.8874
  4.2128   4.3382   4.5566   4.5600   4.5655   4.5757   4.5834   4.6943
  4.7287   4.8439   4.8737   4.8797   4.8830   4.9538   5.0022   5.0048
  5.0661   5.1057   5.1467   5.1490   5.1618   5.1664   5.2001   5.2625
  5.2832   5.3415   5.3781   5.4304   5.4407   5.6238   5.7177   5.7820
  5.7982   5.7995   6.0219   6.0761   6.6326   6.6574   6.7414   6.7935
  6.8071   6.8196   6.8732   6.8805   6.9389   6.9574   6.9689   6.9982
  7.0131   7.1002   7.2053   7.3215   7.3422   7.3784   7.4002   7.4604
  7.5462   7.5499   7.7956   8.0524   8.1436   8.1732  50.3893  50.4391
 50.4869  50.6051
 
 Beta MOs
 -- Occupied --
-19.4580 -19.4576 -19.3961 -19.3906  -1.4032  -1.2577  -1.0377  -0.8681
 -0.6675  -0.6233  -0.5995  -0.5819  -0.5802  -0.5427  -0.4221  -0.4204
 -- Virtual --
 -0.0083  -0.0059   0.0418   0.0491   0.1106   0.1537   0.1615   0.1819
  0.2074   0.2091   0.2155   0.2329   0.2417   0.2492   0.2737   0.2794
  0.2892   0.2960   0.3219   0.3468   0.3682   0.4023   0.4293   0.4587
  0.6164   0.6516   0.7798   0.8209   0.8324   0.8736   0.9367   0.9600
  1.0270   1.0457   1.0677   1.0823   1.1225   1.1386   1.1573   1.1582
  1.1913   1.2066   1.2999   1.3807   1.4012   1.4281   1.4518   1.4597
  1.5192   1.5656   1.5701   1.6283   1.6433   1.6609   1.7794   1.8160
  1.8893   1.9068   2.0537   2.1825   2.2346   2.2592   2.3542   2.3862
  2.4029   2.4449   2.5994   2.6131   2.8036   2.8838   3.6922   3.7943
  3.8319   3.8882   4.2129   4.3390   4.5819   4.6109   4.6140   4.6174
  4.6292   4.6945   4.7297   4.8732   4.8821   4.9591   4.9621   5.0032
  5.0506   5.0978   5.1313   5.1451   5.1655   5.1883   5.2396   5.2458
  5.2532   5.2689   5.2856   5.3417   5.4261   5.4311   5.4409   5.6241
  5.7178   5.7825   5.8598   5.8607   6.0220   6.0762   6.7295   6.7797
  6.7890   6.8659   6.9137   6.9259   6.9453   6.9530   6.9560   6.9780
  6.9791   7.0768   7.0866   7.1139   7.2058   7.3236   7.3434   7.4269
  7.4462   7.4621   7.5474   7.5505   7.7958   8.0525   8.1948   8.2084
 50.4129  50.4394  50.4870  50.6290
 --------------------------------------------------------------
 
          Ground-State Mulliken Net Atomic Charges

     Atom                 Charge (a.u.)    Spin (a.u.)
  --------------------------------------------------------
      1 O                    -0.336533      -0.001336
      2 O                    -0.325002      -0.001058
      3 H                     0.320123       0.003519
      4 H                     0.333560       0.001702
      5 O                    -0.004131       0.993187
      6 O                     0.011983       1.003987
  --------------------------------------------------------
  Sum of atomic charges =     0.000000
  Sum of spin   charges =     2.000000

 -----------------------------------------------------------------
                    Cartesian Multipole Moments
 -----------------------------------------------------------------
    Charge (ESU x 10^10)
                 0.0000
    Dipole Moment (Debye)
         X       1.8200      Y       2.2255      Z       0.6060
       Tot       2.9382
    Quadrupole Moments (Debye-Ang)
        XX     -23.1796     XY      -3.9281     YY     -26.3883
        XZ       1.8851     YZ       6.3372     ZZ     -19.3896
    Octopole Moments (Debye-Ang^2)
       XXX     -12.3506    XXY       9.1766    XYY       1.6577
       YYY      21.5587    XXZ     -57.2820    XYZ      -8.5825
       YYZ     -68.6286    XZZ      -4.7059    YZZ      24.3763
       ZZZ    -159.4800
    Hexadecapole Moments (Debye-Ang^3)
      XXXX    -195.8985   XXXY     -66.8096   XXYY     -63.4705
      XYYY     -71.0403   YYYY    -175.1625   XXXZ     -43.9850
      XXYZ      17.2771   XYYZ      -1.2413   YYYZ      34.3670
[...]
    3      H       0.6669518667    -0.4500523921     1.8349800192
    4      H      -1.4718823074    -0.3419671601     2.9975794665
    5      O       1.3524206528     0.3637853199     2.0761915064
    6      O       0.9713729643     0.8327487220     3.1930183628
 ----------------------------------------------------------------
 Nuclear Repulsion Energy =         124.22712605 hartrees
 There are       18 alpha and       16 beta electrons
 Discretize the solute cavity surface with Lebedev spheres
	Using 110 Lebedev grid points for each H atom
	Using 194 Lebedev grid points for other atoms
	Atomic van der Waals radii will be scaled by 1.20
 Remove points where switching function is < 1.0e-08
 Keep 630 surface tesserae and discard 366 interior tesserae
 Molecular Surface Area = 76.331 Angst**2
 Applying Cartesian multipole field
    Component          Value
    ---------          -----
     (2,0,0)        1.00000E-11
     (0,2,0)        2.00000E-11
     (0,0,2)       -3.00000E-11
 Nucleus-field energy     =    -0.0000000220 hartrees
 Requested basis set is 6-311++G(2df,2p)
 There are 44 shells and 156 basis functions
 A cutoff of  1.0D-12 yielded    950 shell pairs
 There are     12162 function pairs (     15559 Cartesian)
 Smallest overlap matrix eigenvalue = 4.03E-04
 Guess MOs from SCF MO coefficient file

 -----------------------------------------------------------------------
  General SCF calculation program by
  Eric Jon Sundstrom, Paul Horn, Yuezhi Mao, Dmitri Zuev, Alec White,
  David Stuck, Shaama M.S., Shane Yost, Joonho Lee, David Small,
  Daniel Levine, Susi Lehtola, Hugh Burton, Evgeny Epifanovsky,
  Bang C. Huynh
 -----------------------------------------------------------------------
 Exchange:     0.1500 Hartree-Fock + 1.0000 wB97M-V + LR-HF
 Correlation:  1.0000 wB97M-V
 Using SG-2 standard quadrature grid
 Nonlocal Correlation:  VV10 with C = 0.0100 and b = 6.00 and scale = 1.00000
 Grid used for NLC:  SG-1 standard quadrature
 
 Citation of the SMD model:
 Marenich, A.V.; Cramer, C.J.; Truhlar, D.G.
 J. Phys. Chem. B 2009, 113, 6378-6396.
 iSolventCode=           1
 Solvent: water                                                           
 
 vradii
            1           2           3           4           5           6
    1   1.5200000   1.5200000   1.2000000   1.2000000   1.5200000   1.5200000
 -------------------------------------------------------
 OpenMP BLAS3 based DFT computing Module                
 Release: version 1.0, May 2013, Q-Chem Inc. Pittsburgh 
 -------------------------------------------------------
 A unrestricted SCF calculation will be
 performed using Roothaan-Hall, DIIS, GDM
 SCF converges when RMS gradient is below 1.0e-07
 ---------------------------------------
  Cycle       Energy         DIIS error
 ---------------------------------------
    1    -301.8345693359      3.74e-04  Roothaan Step
 ---------------------------------------
  Cycle       Energy         DIIS error
 ---------------------------------------
    1    -301.8504683962      4.00e-04  
    2    -301.8525626566      2.61e-04  Done DIIS. Switching to GDM
 ---------------------------------------
  Cycle       Energy        RMS Gradient
 ---------------------------------------
    1    -301.8525626566      1.60e-02   Normal BFGS step
    2    -301.8522935469      2.57e-02  Line search: overstep
    3    -301.8530770417      2.67e-03   Normal BFGS step
    4    -301.8531408476      1.55e-03   Normal BFGS step
    5    -301.8531533078      1.07e-03   Normal BFGS step
    6    -301.8531559454      7.09e-04   Normal BFGS step
    7    -301.8531576252      4.82e-04   Normal BFGS step
    8    -301.8531585626      1.40e-04   Normal BFGS step
    9    -301.8531587110      1.06e-04   Normal BFGS step
   10    -301.8531587763      5.90e-05   Normal BFGS step
   11    -301.8531587893      2.91e-05   Normal BFGS step
   12    -301.8531587961      1.83e-05   Normal BFGS step
   13    -301.8531587972      1.39e-05   Normal BFGS step
   14    -301.8531587976      1.02e-05   Normal BFGS step
   15    -301.8531587979      4.81e-06   Normal BFGS step
   16    -301.8531587981      2.19e-06   Normal BFGS step
   17    -301.8531587981      1.45e-06   Normal BFGS step
   18    -301.8531587981      5.68e-07   Normal BFGS step
   19    -301.8531587981      3.50e-07   Normal BFGS step
   20    -301.8531587981      2.51e-07   Normal BFGS step
   21    -301.8531587981      1.53e-07   Normal BFGS step
   22    -301.8531587981      6.42e-08  Convergence criterion met
 ---------------------------------------
 SCF time:   CPU 184.41s  wall 23.00s 
<S^2> =          2.011979008
(3)  G-ENP(liq) elect-nuc-pol free energy of system     -301.853158798 a.u.
(4)  G-CDS(liq) cavity-dispersion-solvent structure 
     free energy                                                0.7988 kcal/mol
(6)  G-S(liq) free energy of system                     -301.851885862 a.u.
 SCF   energy in the final basis set =     -301.8518858622
 Total energy in the final basis set =     -301.8518858622
 
 --------------------------------------------------------------
 
                    Orbital Energies (a.u.)
 --------------------------------------------------------------
 
 Alpha MOs
 -- Occupied --
-19.4695 -19.4563 -19.4440 -19.4193  -1.3750  -1.3271  -1.0228  -0.9767
 -0.7236  -0.6740  -0.6359  -0.6286  -0.5981  -0.5853  -0.4626  -0.4271
 -0.4068  -0.3827
 -- Virtual --
  0.0383   0.0537   0.1227   0.1514   0.1618   0.1872   0.2001   0.2084
  0.2199   0.2301   0.2381   0.2644   0.2740   0.2775   0.2898   0.2989
  0.3186   0.3673   0.3732   0.3825   0.4458   0.4733   0.5952   0.6416
  0.7250   0.7875   0.8342   0.8458   0.9535   0.9787   1.0145   1.0480
  1.0542   1.0657   1.1076   1.1125   1.1532   1.1575   1.1901   1.2196
  1.3605   1.3733   1.3953   1.4309   1.4461   1.5177   1.5299   1.6000
  1.6281   1.6625   1.6773   1.7462   1.7531   1.8637   2.0585   2.1072
  2.1926   2.2498   2.2724   2.2944   2.3587   2.3672   2.5168   2.5561
  2.6446   2.6920   2.7626   2.9229   3.6760   3.7626   3.8217   3.9389
  3.9691   4.1781   4.5045   4.5628   4.6513   4.6629   4.7173   4.7253
  4.7473   4.7624   4.8412   4.9016   4.9887   5.0035   5.0227   5.0680
  5.0836   5.0915   5.1161   5.1495   5.1508   5.1780   5.1993   5.2192
  5.2518   5.2898   5.3517   5.3816   5.4404   5.4611   5.6112   5.6412
  5.6714   5.7360   6.3375   6.3472   6.5583   6.5718   6.7035   6.7729
  6.8066   6.8371   6.9014   6.9121   6.9576   6.9756   7.0336   7.0570
  7.0815   7.1017   7.1393   7.3376   7.3500   7.3696   7.3785   7.4965
  7.5983   7.8186   7.9170   7.9826   8.0166   8.0878  50.3837  50.4134
 50.4228  50.4807
 
 Beta MOs
 -- Occupied --
-19.4525 -19.4470 -19.4206 -19.4064  -1.3386  -1.3048  -0.9922  -0.9256
 -0.6940  -0.6532  -0.5961  -0.5842  -0.5431  -0.5189  -0.4085  -0.3756
 -- Virtual --
 -0.0765  -0.0272   0.0399   0.0554   0.1288   0.1576   0.1665   0.1918
  0.2035   0.2146   0.2267   0.2373   0.2429   0.2704   0.2794   0.2875
  0.2943   0.3054   0.3345   0.3721   0.3774   0.3968   0.4548   0.4757
  0.5983   0.6477   0.7300   0.7941   0.8361   0.8504   0.9582   0.9902
  1.0270   1.0602   1.0791   1.0896   1.1187   1.1375   1.1682   1.1723
  1.2024   1.2372   1.3792   1.4026   1.4086   1.4524   1.4687   1.5340
  1.5476   1.6053   1.6440   1.6938   1.7058   1.7621   1.7769   1.8814
  2.0702   2.1292   2.2122   2.2656   2.2888   2.3170   2.3698   2.3843
  2.5317   2.5697   2.6578   2.7089   2.7662   2.9174   3.6806   3.7601
  3.8260   3.9452   3.9649   4.1835   4.5495   4.5920   4.6598   4.6968
  4.7289   4.7488   4.7691   4.7948   4.8604   4.9220   5.0474   5.0764
  5.0806   5.1159   5.1278   5.1565   5.1667   5.1764   5.1929   5.2097
  5.2323   5.2611   5.2862   5.3161   5.3898   5.4128   5.4677   5.5074
  5.6340   5.6794   5.6994   5.7599   6.3561   6.3703   6.5924   6.6273
  6.7908   6.8067   6.8874   6.9282   6.9603   6.9711   6.9872   7.0162
  7.0608   7.1021   7.1254   7.1558   7.1706   7.3758   7.4030   7.4176
  7.4234   7.5355   7.6145   7.8513   7.9309   7.9995   8.0435   8.1235
 50.3952  50.4276  50.4355  50.4917
 --------------------------------------------------------------
 
          Ground-State Mulliken Net Atomic Charges

     Atom                 Charge (a.u.)    Spin (a.u.)
  --------------------------------------------------------
      1 O                    -0.369306       0.431598
      2 O                    -0.078491       0.284057
      3 H                     0.415211      -0.030547
      4 H                     0.338158      -0.007013
      5 O                    -0.155541       0.523813
      6 O                    -0.150030       0.798091
  --------------------------------------------------------
  Sum of atomic charges =     0.000000
  Sum of spin   charges =     2.000000

 -----------------------------------------------------------------
                    Cartesian Multipole Moments
 -----------------------------------------------------------------
    Charge (ESU x 10^10)
                 0.0000
    Dipole Moment (Debye)
         X      -2.3412      Y       0.6876      Z      -0.3514
       Tot       2.4653
    Quadrupole Moments (Debye-Ang)
        XX     -20.2557     XY      -2.3018     YY     -26.9584
        XZ      -7.8774     YZ       1.2728     ZZ     -25.4271
    Octopole Moments (Debye-Ang^2)
       XXX     -27.1381    XXY       4.8643    XYY      -5.5466
       YYY      26.1539    XXZ     -50.0658    XYZ      -5.8266
       YYZ     -69.1723    XZZ     -30.6602    YZZ       9.6789
       ZZZ    -189.4723
    Hexadecapole Moments (Debye-Ang^3)
      XXXX    -133.7682   XXXY     -44.6340   XXYY     -49.4275
      XYYY     -46.1263   YYYY    -152.9928   XXXZ     -65.5390
      XXYZ       8.7598   XYYZ     -12.6643   YYYZ      53.8191
      XXZZ    -158.1720   XYZZ     -31.8163   YYZZ    -214.7884
      XZZZ    -116.0491   YZZZ      51.2273   ZZZZ   -1028.7111
 -----------------------------------------------------------------
 Calculating analytic gradient of the SCF energy
 Gradient of CDS energy
            1           2           3           4           5           6
    1  -0.0001261   0.0002789   0.0001157  -0.0004567   0.0000914   0.0000968
    2  -0.0001818  -0.0000873  -0.0001313   0.0001780   0.0002295  -0.0000069
    3   0.0001509  -0.0001209  -0.0003311   0.0000925   0.0001999   0.0000087
 Gradient of SCF Energy
            1           2           3           4           5           6
    1  -0.0025047   0.0122600  -0.0031101  -0.0127512   0.0046493   0.0014567
    2  -0.0054231  -0.0145416  -0.0004487   0.0152334   0.0044991   0.0006808
    3  -0.0016938   0.0041607  -0.0020088  -0.0028815   0.0000209   0.0024025
 Max gradient component =       1.523E-02
 RMS gradient           =       7.011E-03
 Computing fast CPCM-SWIG gradient
 Updating gradient with PCM contributions...
 -- total gradient after adding PCM contribution --
---------------------------------------------------
  Atom         X              Y              Z     
---------------------------------------------------
   1      -0.000041       0.000038       0.000017
   2      -0.000062       0.000064      -0.000018
   3      -0.000051      -0.000041      -0.000005
   4       0.000052       0.000025       0.000035
   5       0.000026      -0.000027      -0.000016
   6       0.000075      -0.000060      -0.000013
---------------------------------------------------
 Number of fixed atoms: 0
 Gradient time:  CPU 19.97 s  wall 2.97 s
 Geometry Optimization Parameters
   NAtoms,    NIC,     NZ,  NCons,   NDum,   NFix, NCnnct, MaxDiis
        6      24       0       0       0       0       0       0

 Cartesian Hessian Update
 Hessian updated using Powell/Murtagh-Sargent update
**WARNING** Small scalar product
 Hessian update skipped this cycle


** GEOMETRY OPTIMIZATION IN DELOCALIZED INTERNAL COORDINATES **
   Searching for a Transition State

   Optimization Cycle:  60

                       Coordinates (Angstroms)
     ATOM                X               Y               Z
      1  O        -0.3317834170   -1.3242649916    1.9105303637
      2  O        -0.8326618675   -1.0676328410    3.1234569566
      3  H         0.6669518667   -0.4500523921    1.8349800192
      4  H        -1.4718823074   -0.3419671601    2.9975794665
      5  O         1.3524206528    0.3637853199    2.0761915064
      6  O         0.9713729643    0.8327487220    3.1930183628
   Point Group: c1    Number of degrees of freedom:    12


   Energy is   -301.851885862

 Hessian updated using Powell/Murtagh-Sargent update
  Mixing factors:     0.999901 Powell                      0.000099 Murtagh-Sargent

 12 Hessian modes will be used to form the next step
  Hessian Eigenvalues:
    -0.090877    0.001197    0.024476    0.055952    0.146860    0.156836
     0.196020    0.225907    0.342906    0.604710    0.659545    0.844699

 Transition state search - taking P-RFO step
 Searching for Lamda that Maximizes Along the Lowest mode
 Value Taken    Lamda =   0.00000000
 Searching for Lamda that Minimizes Along All other modes
 Value Taken    Lamda =  -0.00000002
 Step Taken.  Stepsize is  0.000641

                             Maximum     Tolerance    Cnvgd?
         Gradient           0.000041      0.000300     YES
         Displacement       0.000427      0.001200     YES
         Energy change     -0.000001      0.000001     YES


                       Distance Matrix (Angstroms)
             O (  1)   O (  2)   H (  3)   H (  4)   O (  5)
   O (  2)  1.337135
   H (  3)  1.329446  2.071333
   H (  4)  1.856451  0.975212  2.436787
   O (  5)  2.390293  2.814304  1.091046  3.053478
   O (  6)  2.827667  2.621227  1.892754  2.718023  1.269813
 
 Final energy is   -301.851885862190     


 ******************************
 **  OPTIMIZATION CONVERGED  **
 ******************************

                       Coordinates (Angstroms)
     ATOM                X               Y               Z
      1  O        -0.3317834170   -1.3242649916    1.9105303637
      2  O        -0.8326618675   -1.0676328410    3.1234569566
      3  H         0.6669518667   -0.4500523921    1.8349800192
      4  H        -1.4718823074   -0.3419671601    2.9975794665
      5  O         1.3524206528    0.3637853199    2.0761915064
      6  O         0.9713729643    0.8327487220    3.1930183628

Z-matrix Print:
$molecule
0 3
O 
H  1 1.091046
O  1 1.269813 2 106.343631
O  2 1.329446 1 161.790221 3 -0.262496 0
O  4 1.337135 2 101.932025 1 -4.594871 0
H  5 0.975212 4 105.739273 2 86.327884 0
$end

 
 --------------------------------------------------------------
 
                    Orbital Energies (a.u.)
 --------------------------------------------------------------
 
 Alpha MOs
 -- Occupied --
-19.4695 -19.4563 -19.4440 -19.4193  -1.3750  -1.3271  -1.0228  -0.9767
 -0.7236  -0.6740  -0.6359  -0.6286  -0.5981  -0.5853  -0.4626  -0.4271
 -0.4068  -0.3827
 -- Virtual --
  0.0383   0.0537   0.1227   0.1514   0.1618   0.1872   0.2001   0.2084
  0.2199   0.2301   0.2381   0.2644   0.2740   0.2775   0.2898   0.2989
  0.3186   0.3673   0.3732   0.3825   0.4458   0.4733   0.5952   0.6416
  0.7250   0.7875   0.8342   0.8458   0.9535   0.9787   1.0145   1.0480
  1.0542   1.0657   1.1076   1.1125   1.1532   1.1575   1.1901   1.2196
  1.3605   1.3733   1.3953   1.4309   1.4461   1.5177   1.5299   1.6000
  1.6281   1.6625   1.6773   1.7462   1.7531   1.8637   2.0585   2.1072
  2.1926   2.2498   2.2724   2.2944   2.3587   2.3672   2.5168   2.5561
  2.6446   2.6920   2.7626   2.9229   3.6760   3.7626   3.8217   3.9389
  3.9691   4.1781   4.5045   4.5628   4.6513   4.6629   4.7173   4.7253
  4.7473   4.7624   4.8412   4.9016   4.9887   5.0035   5.0227   5.0680
  5.0836   5.0915   5.1161   5.1495   5.1508   5.1780   5.1993   5.2192
  5.2518   5.2898   5.3517   5.3816   5.4404   5.4611   5.6112   5.6412
  5.6714   5.7360   6.3375   6.3472   6.5583   6.5718   6.7035   6.7729
  6.8066   6.8371   6.9014   6.9121   6.9576   6.9756   7.0336   7.0570
  7.0815   7.1017   7.1393   7.3376   7.3500   7.3696   7.3785   7.4965
  7.5983   7.8186   7.9170   7.9826   8.0166   8.0878  50.3837  50.4134
 50.4228  50.4807
 
 Beta MOs
 -- Occupied --
-19.4525 -19.4470 -19.4206 -19.4064  -1.3386  -1.3048  -0.9922  -0.9256
 -0.6940  -0.6532  -0.5961  -0.5842  -0.5431  -0.5189  -0.4085  -0.3756
 -- Virtual --
 -0.0765  -0.0272   0.0399   0.0554   0.1288   0.1576   0.1665   0.1918
  0.2035   0.2146   0.2267   0.2373   0.2429   0.2704   0.2794   0.2875
  0.2943   0.3054   0.3345   0.3721   0.3774   0.3968   0.4548   0.4757
  0.5983   0.6477   0.7300   0.7941   0.8361   0.8504   0.9582   0.9902
  1.0270   1.0602   1.0791   1.0896   1.1187   1.1375   1.1682   1.1723
  1.2024   1.2372   1.3792   1.4026   1.4086   1.4524   1.4687   1.5340
  1.5476   1.6053   1.6440   1.6938   1.7058   1.7621   1.7769   1.8814
  2.0702   2.1292   2.2122   2.2656   2.2888   2.3170   2.3698   2.3843
  2.5317   2.5697   2.6578   2.7089   2.7662   2.9174   3.6806   3.7601
  3.8260   3.9452   3.9649   4.1835   4.5495   4.5920   4.6598   4.6968
  4.7289   4.7488   4.7691   4.7948   4.8604   4.9220   5.0474   5.0764
  5.0806   5.1159   5.1278   5.1565   5.1667   5.1764   5.1929   5.2097
  5.2323   5.2611   5.2862   5.3161   5.3898   5.4128   5.4677   5.5074
  5.6340   5.6794   5.6994   5.7599   6.3561   6.3703   6.5924   6.6273
  6.7908   6.8067   6.8874   6.9282   6.9603   6.9711   6.9872   7.0162
  7.0608   7.1021   7.1254   7.1558   7.1706   7.3758   7.4030   7.4176
  7.4234   7.5355   7.6145   7.8513   7.9309   7.9995   8.0435   8.1235
 50.3952  50.4276  50.4355  50.4917
 --------------------------------------------------------------
 
          Ground-State Mulliken Net Atomic Charges

     Atom                 Charge (a.u.)    Spin (a.u.)
  --------------------------------------------------------
      1 O                    -0.369306       0.431598
      2 O                    -0.078491       0.284057
      3 H                     0.415211      -0.030547
      4 H                     0.338158      -0.007013
      5 O                    -0.155541       0.523813
      6 O                    -0.150030       0.798091
  --------------------------------------------------------
  Sum of atomic charges =     0.000000
  Sum of spin   charges =     2.000000

 -----------------------------------------------------------------
                    Cartesian Multipole Moments
 -----------------------------------------------------------------
    Charge (ESU x 10^10)
                 0.0000
    Dipole Moment (Debye)
         X      -2.3412      Y       0.6876      Z      -0.3514
       Tot       2.4653
    Quadrupole Moments (Debye-Ang)
        XX     -20.2557     XY      -2.3018     YY     -26.9584
        XZ      -7.8774     YZ       1.2728     ZZ     -25.4271
    Octopole Moments (Debye-Ang^2)
       XXX     -27.1381    XXY       4.8643    XYY      -5.5466
       YYY      26.1539    XXZ     -50.0658    XYZ      -5.8266
       YYZ     -69.1723    XZZ     -30.6602    YZZ       9.6789
       ZZZ    -189.4723
    Hexadecapole Moments (Debye-Ang^3)
      XXXX    -133.7682   XXXY     -44.6340   XXYY     -49.4275
      XYYY     -46.1263   YYYY    -152.9928   XXXZ     -65.5390
      XXYZ       8.7598   XYYZ     -12.6643   YYYZ      53.8191
      XXZZ    -158.1720   XYZZ     -31.8163   YYZZ    -214.7884
      XZZZ    -116.0491   YZZZ      51.2273   ZZZZ   -1028.7111
 -----------------------------------------------------------------
 Total job time:  1587.80s(wall), 12289.85s(cpu) 
 Fri Jan 27 16:12:09 2023

        *************************************************************
        *                                                           *
        *  Thank you very much for using Q-Chem.  Have a nice day.  *
        *                                                           *
        *************************************************************


