
Running Job 1 of 1 Q_in.in
qchem Q_in.in_135489.0 /scratch/ari.fischer/qChem1410453.hpc-mn1/qchem135489/ 0
/usr/local/qchem-5.4.1/exe/qcprog.exe_s Q_in.in_135489.0 /scratch/ari.fischer/qChem1410453.hpc-mn1/qchem135489/
                  Welcome to Q-Chem
     A Quantum Leap Into The Future Of Chemistry


 Q-Chem 5.4, Q-Chem, Inc., Pleasanton, CA (2021)

 License issued to: Nanyang Technological University (site)

 E. Epifanovsky,  A. T. B. Gilbert,  Xintian Feng,  Joonho Lee,  Yuezhi Mao,  
 N. Mardirossian,  P. Pokhilko,  A. White,  M. Wormit,  M. P. Coons,  
 A. L. Dempwolff,  Zhengting Gan,  D. Hait,  P. R. Horn,  L. D. Jacobson,  
 I. Kaliman,  J. Kussmann,  A. W. Lange,  Ka Un Lao,  D. S. Levine,  Jie Liu,  
 S. C. McKenzie,  A. F. Morrison,  K. Nanda,  F. Plasser,  D. R. Rehn,  
 M. L. Vidal,  Zhi-Qiang You,  Ying Zhu,  B. Alam,  B. Albrecht,  
 A. Aldossary,  E. Alguire,  J. H. Andersen,  D. Barton,  K. Begam,  A. Behn,  
 Y. A. Bernard,  E. J. Berquist,  H. Burton,  A. Carreras,  K. Carter-Fenk,  
 R. Chakraborty,  A. D. Chien,  K. D. Closser,  V. Cofer-Shabica,  
 S. Dasgupta,  Jia Deng,  M. de Wergifosse,  M. Diedenhofen,  Hainam Do,  
 S. Ehlert,  Po-Tung Fang,  S. Fatehi,  Qingguo Feng,  T. Friedhoff,  
 J. Gayvert,  Qinghui Ge,  G. Gidofalvi,  M. Goldey,  J. Gomes,  
 C. Gonzalez-Espinoza,  S. Gulania,  A. Gunina,  M. W. D. Hanson-Heine,  
 P. H. P. Harbach,  A. W. Hauser,  M. F. Herbst,  M. Hernandez Vera,  
 M. Hodecker,  Z. C. Holden,  S. Houck,  Xunkun Huang,  Kerwin Hui,  
 B. C. Huynh,  M. Ivanov,  Hyunjun Ji,  Hanjie Jiang,  B. Kaduk,  S. Kaehler,  
 K. Khistyaev,  Jaehoon Kim,  P. Klunzinger,  Z. Koczor-Benda,  
 Joong Hoon Koh,  D. Kosenkov,  L. Koulias,  T. Kowalczyk,  C. M. Krauter,  
 K. Kue,  A. Kunitsa,  T. Kus,  A. Landau,  K. V. Lawler,  D. Lefrancois,  
 S. Lehtola,  Rain Li,  Yi-Pei Li,  Jiashu Liang,  M. Liebenthal,  
 Hung-Hsuan Lin,  You-Sheng Lin,  Fenglai Liu,  Kuan-Yu Liu,  
 M. Loipersberger,  A. Luenser,  A. Manjanath,  P. Manohar,  E. Mansoor,  
 S. F. Manzer,  Shan-Ping Mao,  A. V. Marenich,  T. Markovich,  S. Mason,  
 S. A. Maurer,  P. F. McLaughlin,  M. F. S. J. Menger,  J.-M. Mewes,  
 S. A. Mewes,  P. Morgante,  J. W. Mullinax,  K. J. Oosterbaan,  G. Paran,  
 Alexander C. Paul,  Suranjan K. Paul,  F. Pavosevic,  Zheng Pei,  S. Prager,  
 E. I. Proynov,  E. Ramos,  B. Rana,  A. E. Rask,  A. Rettig,  R. M. Richard,  
 F. Rob,  E. Rossomme,  T. Scheele,  M. Scheurer,  M. Schneider,  
 N. Sergueev,  S. M. Sharada,  W. Skomorowski,  D. W. Small,  C. J. Stein,  
 Yu-Chuan Su,  E. J. Sundstrom,  Zhen Tao,  J. Thirman,  T. Tsuchimochi,  
 N. M. Tubman,  S. P. Veccham,  O. Vydrov,  J. Wenzel,  J. Witte,  A. Yamada,  
 Kun Yao,  S. Yeganeh,  S. R. Yost,  A. Zech,  Igor Ying Zhang,  Xing Zhang,  
 Yu Zhang,  D. Zuev,  A. Aspuru-Guzik,  A. T. Bell,  N. A. Besley,  
 K. B. Bravaya,  B. R. Brooks,  D. Casanova,  Jeng-Da Chai,  S. Coriani,  
 C. J. Cramer,  A. E. DePrince, III,  R. A. DiStasio Jr.,  A. Dreuw,  
 B. D. Dunietz,  T. R. Furlani,  W. A. Goddard III,  S. Grimme,  
 S. Hammes-Schiffer,  T. Head-Gordon,  W. J. Hehre,  Chao-Ping Hsu,  
 T.-C. Jagau,  Yousung Jung,  A. Klamt,  Jing Kong,  D. S. Lambrecht,  
 WanZhen Liang,  N. J. Mayhall,  C. W. McCurdy,  J. B. Neaton,  
 C. Ochsenfeld,  J. A. Parkhill,  R. Peverati,  V. A. Rassolov,  Yihan Shao,  
 L. V. Slipchenko,  T. Stauch,  R. P. Steele,  J. E. Subotnik,  
 A. J. W. Thom,  A. Tkatchenko,  D. G. Truhlar,  T. Van Voorhis,  
 T. A. Wesolowski,  K. B. Whaley,  H. L. Woodcock III,  P. M. Zimmerman,  
 S. Faraji,  P. M. W. Gill,  M. Head-Gordon,  J. M. Herbert,  A. I. Krylov

 Additional authors for Version 5.4.1: 
 S. Kotaru,  Shaozhi Li,  Xiangyuan Li,  F. Matz,  A. Molle,  Haisheng Ren,  
 Yingli Su,  Hung-Yi Tsai,  C. Utku,  Fang Wang

 Contributors to earlier versions of Q-Chem not listed above: 
 R. D. Adamson,  B. Austin,  R. Baer,  J. Baker,  G. J. O. Beran,  
 K. Brandhorst,  S. T. Brown,  E. F. C. Byrd,  A. K. Chakraborty,  
 G. K. L. Chan,  Chun-Min Chang,  Yunqing Chen,  C.-L. Cheng,  
 Siu Hung Chien,  D. M. Chipman,  D. L. Crittenden,  H. Dachsel,  
 R. J. Doerksen,  A. D. Dutoi,  R. G. Edgar,  J. Fosso-Tande,  
 L. Fusti-Molnar,  D. Ghosh,  A. Ghysels,  A. Golubeva-Zadorozhnaya,  
 J. Gonthier,  M. S. Gordon,  S. R. Gwaltney,  G. Hawkins,  J. E. Herr,  
 A. Heyden,  S. Hirata,  E. G. Hohenstein,  G. Kedziora,  F. J. Keil,  
 C. Kelley,  Jihan Kim,  R. A. King,  R. Z. Khaliullin,  P. P. Korambath,  
 W. Kurlancheek,  A. Laurent,  A. M. Lee,  M. S. Lee,  S. V. Levchenko,  
 Ching Yeh Lin,  D. Liotard,  E. Livshits,  R. C. Lochan,  I. Lotan,  
 L. A. Martinez-Martinez,  P. E. Maslen,  N. Nair,  D. P. O'Neill,  
 D. Neuhauser,  E. Neuscamman,  C. M. Oana,  R. Olivares-Amaya,  R. Olson,  
 T. M. Perrine,  B. Peters,  P. A. Pieniazek,  A. Prociuk,  Y. M. Rhee,  
 J. Ritchie,  M. A. Rohrdanz,  E. Rosta,  N. J. Russ,  H. F. Schaefer III,  
 M. W. Schmidt,  N. E. Schultz,  S. Sharma,  N. Shenvi,  C. D. Sherrill,  
 A. C. Simmonett,  A. Sodt,  T. Stein,  D. Stuck,  K. S. Thanthiriwatte,  
 V. Vanovschi,  L. Vogt,  Tao Wang,  A. Warshel,  M. A. Watson,  
 C. F. Williams,  Q. Wu,  X. Xu,  Jun Yang,  W. Zhang,  Yan Zhao

 Please cite Q-Chem as follows:
 Y. Shao et al., Mol. Phys. 113, 184-215 (2015)
 DOI: 10.1080/00268976.2014.952696

 Q-Chem 5.4.1 for Intel X86 EM64T Linux

 Parts of Q-Chem use Armadillo 9.800.1 (Horizon Scraper).
 http://arma.sourceforge.net/

 Q-Chem begins on Wed Jan 25 19:09:09 2023  

 Host: 
0

     Scratch files written to /scratch/ari.fischer/qChem1410453.hpc-mn1/qchem135489//
 Aug1521 |scratch|qcdevops|jenkins|workspace|build_RNUM 8249   
 Processing $rem in /usr/local/qchem-5.4.1/config/preferences:
 Processing $rem in /home/ari.fischer/.qchemrc:
 Symmetry turned off for PCM/SM12/SMD calculation


!!********************************************.
!!******************Warning*******************.
!!Desired Analytical derivatives not available.
!!Finite difference job might take a long time.
!!********************************************.
!!********************************************.


 2-order derivative to be evaluated numerically with 1-order analytical derivatives

 Checking the input file for inconsistencies... 	...done.

--------------------------------------------------------------
User input:
--------------------------------------------------------------
$molecule
0 1
H         0.9860017187   -0.6082515152   -0.5134500749
O         0.7113545294    0.0695800667    0.1191259678
O        -0.7113545438   -0.0695800699    0.1191259814
H        -0.9860017042    0.6082515184   -0.5134500766
$end

$rem
BASIS = 6-311++G(2df,2p)
GUI = 2
JOB_TYPE = Frequency
METHOD = wB97M-V
SOLVENT_METHOD = SMD
SCF_ALGORITHM = DIIS_GDM
MAX_SCF_CYCLES = 400
SCF_CONVERGENCE = 7
THRESH = 12
SYMMETRY_IGNORE = 1
$end
--------------------------------------------------------------
 ----------------------------------------------------------------
             Standard Nuclear Orientation (Angstroms)
    I     Atom           X                Y                Z
 ----------------------------------------------------------------
    1      H       0.9860017187    -0.6082515152    -0.5134500749
    2      O       0.7113545294     0.0695800667     0.1191259678
    3      O      -0.7113545438    -0.0695800699     0.1191259814
    4      H      -0.9860017042     0.6082515184    -0.5134500766
 ----------------------------------------------------------------
 Nuclear Repulsion Energy =          37.15643964 hartrees
 There are        9 alpha and        9 beta electrons
 Requested basis set is 6-311++G(2df,2p)
 There are 28 shells and 88 basis functions

 Total QAlloc Memory Limit 288000 MB
 Mega-Array Size       188 MB
 MEM_STATIC part       192 MB
 
 Citation of the SMD model:
 Marenich, A.V.; Cramer, C.J.; Truhlar, D.G.
 J. Phys. Chem. B 2009, 113, 6378-6396.
 iSolventCode=           1
 Solvent: water                                                           
 
 vradii
            1           2           3           4
    1   1.2000000   1.5200000   1.5200000   1.2000000
 Changing PCM_VDW_RADII to SMD_RADIUS
 Discretize the solute cavity surface with Lebedev spheres
	Using 110 Lebedev grid points for each H atom
	Using 194 Lebedev grid points for other atoms
	Atomic van der Waals radii will be scaled by 1.20
 Remove points where switching function is < 1.0e-08
 Keep 402 surface tesserae and discard 206 interior tesserae
 Molecular Surface Area = 49.579 Angst**2

                       Distance Matrix (Angstroms)
             H (  1)   O (  2)   O (  3)
   O (  2)  0.966974
   O (  3)  1.889798  1.429499
   H (  4)  2.317041  1.889798  0.966974
 
 A cutoff of  1.0D-12 yielded    406 shell pairs
 There are      4058 function pairs (      5061 Cartesian)
 Smallest overlap matrix eigenvalue = 1.22E-03
 Guess from superposition of atomic densities
 Warning:  Energy on first SCF cycle will be non-variational
 SAD guess density has 18.000000 electrons

 -----------------------------------------------------------------------
  General SCF calculation program by
  Eric Jon Sundstrom, Paul Horn, Yuezhi Mao, Dmitri Zuev, Alec White,
  David Stuck, Shaama M.S., Shane Yost, Joonho Lee, David Small,
  Daniel Levine, Susi Lehtola, Hugh Burton, Evgeny Epifanovsky,
  Bang C. Huynh
 -----------------------------------------------------------------------
 Exchange:     0.1500 Hartree-Fock + 1.0000 wB97M-V + LR-HF
 Correlation:  1.0000 wB97M-V
 Using SG-2 standard quadrature grid
 Nonlocal Correlation:  VV10 with C = 0.0100 and b = 6.00 and scale = 1.00000
 Grid used for NLC:  SG-1 standard quadrature
 using 8 threads for integral computing
 -------------------------------------------------------
 OpenMP Integral computing Module                
 Release: version 1.0, May 2013, Q-Chem Inc. Pittsburgh 
 -------------------------------------------------------
 
 Citation of the SMD model:
 Marenich, A.V.; Cramer, C.J.; Truhlar, D.G.
 J. Phys. Chem. B 2009, 113, 6378-6396.
 iSolventCode=           1
 Solvent: water                                                           
 
 vradii
            1           2           3           4
    1   1.2000000   1.5200000   1.5200000   1.2000000
 -------------------------------------------------------
 OpenMP BLAS3 based DFT computing Module                
 Release: version 1.0, May 2013, Q-Chem Inc. Pittsburgh 
 -------------------------------------------------------
 A restricted SCF calculation will be
 performed using DIIS, GDM
 SCF converges when RMS gradient is below 1.0e-07
 ---------------------------------------
  Cycle       Energy         DIIS error
 ---------------------------------------
    1    -151.5368724486      4.45e-02  
    2    -151.5486083327      5.69e-03  Done DIIS. Switching to GDM
 ---------------------------------------
  Cycle       Energy        RMS Gradient
 ---------------------------------------
    1    -151.5486083327      4.31e-02   Normal BFGS step
    2    -151.5688057057      2.01e-02   Normal BFGS step
    3    -151.5735288498      5.64e-03   Normal BFGS step
    4    -151.5738663572      1.79e-03   Normal BFGS step
    5    -151.5739027118      4.28e-04   Normal BFGS step
    6    -151.5739037414      1.48e-04   Normal BFGS step
    7    -151.5739038429      1.73e-05   Normal BFGS step
    8    -151.5739038458      4.53e-06   Normal BFGS step
    9    -151.5739038461      1.33e-06   Normal BFGS step
   10    -151.5739038461      4.77e-07   Normal BFGS step
   11    -151.5739038461      1.05e-07   Normal BFGS step
   12    -151.5739038461      2.92e-08  Convergence criterion met
 ---------------------------------------
 SCF time:   CPU 44.15s  wall 6.00s 
(3)  G-ENP(liq) elect-nuc-pol free energy of system     -151.573903846 a.u.
(4)  G-CDS(liq) cavity-dispersion-solvent structure 
     free energy                                                1.3618 kcal/mol
(6)  G-S(liq) free energy of system                     -151.571733698 a.u.
 SCF   energy in the final basis set =     -151.5717336984
 Total energy in the final basis set =     -151.5717336984
 
 --------------------------------------------------------------
 
                    Orbital Energies (a.u.)
 --------------------------------------------------------------
 
 Alpha MOs
 -- Occupied --
-19.3935 -19.3935  -1.2604  -1.0259  -0.6577  -0.6034  -0.5473  -0.4212
 -0.4142
 -- Virtual --
  0.0333   0.0499   0.1195   0.1855   0.2025   0.2146   0.2170   0.2417
  0.2438   0.2481   0.2835   0.3582   0.3702   0.5992   0.6151   0.7395
  0.7958   0.8567   0.8689   0.9416   0.9630   1.0550   1.1284   1.1440
  1.1724   1.3850   1.4591   1.4960   1.5993   1.6100   1.6188   1.7898
  1.9298   1.9443   2.1845   2.2354   2.2620   2.3667   2.5703   2.7820
  2.8511   3.6342   3.7709   3.8165   3.8445   4.1959   4.2450   4.5974
  4.6839   4.6854   4.8609   4.9931   5.1302   5.1305   5.2477   5.2684
  5.3426   5.3969   5.4438   5.6214   5.6244   5.7681   6.0548   6.0759
  6.7833   6.9274   6.9611   6.9619   7.0549   7.1665   7.2643   7.3521
  7.3596   7.5399   7.5402   7.8054   8.0423  50.4275  50.4394
 --------------------------------------------------------------
 
          Ground-State Mulliken Net Atomic Charges

     Atom                 Charge (a.u.)
  ----------------------------------------
      1 H                     0.340293
      2 O                    -0.340293
      3 O                    -0.340293
      4 H                     0.340293
  ----------------------------------------
  Sum of atomic charges =     0.000000

 -----------------------------------------------------------------
                    Cartesian Multipole Moments
 -----------------------------------------------------------------
    Charge (ESU x 10^10)
                 0.0000
    Dipole Moment (Debye)
         X       0.0000      Y       0.0000      Z      -2.8135
       Tot       2.8135
    Quadrupole Moments (Debye-Ang)
        XX     -10.8696     XY      -3.1908     YY     -11.1068
        XZ       0.0000     YZ      -0.0000     ZZ     -11.7117
    Octopole Moments (Debye-Ang^2)
       XXX       0.0000    XXY       0.0000    XYY      -0.0000
       YYY       0.0000    XXZ      -4.0886    XYZ       1.8275
       YYZ      -1.9901    XZZ      -0.0000    YZZ       0.0000
       ZZZ      -4.1010
    Hexadecapole Moments (Debye-Ang^3)
      XXXX     -44.7492   XXXY      -3.7828   XXYY      -9.4323
      XYYY      -2.0999   YYYY     -11.9586   XXXZ       0.0000
      XXYZ       0.0000   XYYZ       0.0000   YYYZ       0.0000
      XXZZ     -10.1435   XYZZ      -1.0387   YYZZ      -3.6814
      XZZZ       0.0000   YZZZ       0.0000   ZZZZ     -12.7445
 -----------------------------------------------------------------
 Calculating analytic gradient of the SCF energy
 Gradient of CDS energy
            1           2           3           4
    1   0.0003000  -0.0002133   0.0002133  -0.0003000
    2  -0.0002685   0.0000948  -0.0000948   0.0002685
    3  -0.0002673   0.0002673   0.0002673  -0.0002673
 Gradient of SCF Energy
            1           2           3           4
    1   0.0034561  -0.0009360   0.0009360  -0.0034561
    2  -0.0088485   0.0107582  -0.0107582   0.0088485
    3  -0.0116098   0.0116098   0.0116098  -0.0116098
 Max gradient component =       1.161E-02
 RMS gradient           =       8.911E-03
 Computing fast CPCM-SWIG gradient
 Updating gradient with PCM contributions...
 -- total gradient after adding PCM contribution --
---------------------------------------------------
  Atom         X              Y              Z     
---------------------------------------------------
   1       0.000031      -0.000007      -0.000017
   2       0.000086       0.000005       0.000017
   3      -0.000086      -0.000005       0.000017
   4      -0.000031       0.000007      -0.000017
---------------------------------------------------
 Number of fixed atoms: 0
 Gradient time:  CPU 8.82 s  wall 1.79 s
 ######################################################
 ######################################################
 # Starting finite difference calculation for IDERIV  #
 Finite diff step size:  1.88973e-03 a.u.
 ----------------------------------------------------------------
             Standard Nuclear Orientation (Angstroms)
    I     Atom           X                Y                Z
 ----------------------------------------------------------------
    1      H       0.9870017187    -0.6082515152    -0.5134500749
    2      O       0.7113545294     0.0695800667     0.1191259678
    3      O      -0.7113545438    -0.0695800699     0.1191259814
    4      H      -0.9860017042     0.6082515184    -0.5134500766
 ----------------------------------------------------------------
 Nuclear Repulsion Energy =          37.15400383 hartrees
 There are        9 alpha and        9 beta electrons
 Discretize the solute cavity surface with Lebedev spheres
	Using 110 Lebedev grid points for each H atom
	Using 194 Lebedev grid points for other atoms
	Atomic van der Waals radii will be scaled by 1.20
 Remove points where switching function is < 1.0e-08
 Keep 402 surface tesserae and discard 206 interior tesserae
 Molecular Surface Area = 49.583 Angst**2

                       Distance Matrix (Angstroms)
             H (  1)   O (  2)   O (  3)
   O (  2)  0.967259
   O (  3)  1.890697  1.429499
   H (  4)  2.317892  1.889798  0.966974
 
 Requested basis set is 6-311++G(2df,2p)
 There are 28 shells and 88 basis functions
 A cutoff of  1.0D-12 yielded    406 shell pairs
 There are      4058 function pairs (      5061 Cartesian)
 Smallest overlap matrix eigenvalue = 1.22E-03
 Guess MOs from SCF MO coefficient file

 -----------------------------------------------------------------------
  General SCF calculation program by
  Eric Jon Sundstrom, Paul Horn, Yuezhi Mao, Dmitri Zuev, Alec White,
  David Stuck, Shaama M.S., Shane Yost, Joonho Lee, David Small,
  Daniel Levine, Susi Lehtola, Hugh Burton, Evgeny Epifanovsky,
  Bang C. Huynh
 -----------------------------------------------------------------------
 Exchange:     0.1500 Hartree-Fock + 1.0000 wB97M-V + LR-HF
 Correlation:  1.0000 wB97M-V
 Using SG-2 standard quadrature grid
 Nonlocal Correlation:  VV10 with C = 0.0100 and b = 6.00 and scale = 1.00000
 Grid used for NLC:  SG-1 standard quadrature
 
 Citation of the SMD model:
 Marenich, A.V.; Cramer, C.J.; Truhlar, D.G.
 J. Phys. Chem. B 2009, 113, 6378-6396.
 iSolventCode=           1
 Solvent: water                                                           
 
 vradii
            1           2           3           4
    1   1.2000000   1.5200000   1.5200000   1.2000000
 -------------------------------------------------------
 OpenMP BLAS3 based DFT computing Module                
 Release: version 1.0, May 2013, Q-Chem Inc. Pittsburgh 
 -------------------------------------------------------
 A restricted SCF calculation will be
 performed using Roothaan-Hall, DIIS, GDM
 SCF converges when RMS gradient is below 1.0e-07
 ---------------------------------------
  Cycle       Energy         DIIS error
 ---------------------------------------
    1    -151.5532861273      1.42e-03  Roothaan Step
 ---------------------------------------
  Cycle       Energy         DIIS error
 ---------------------------------------
    1    -151.5707305514      1.50e-03  
    2    -151.5733452822      8.80e-04  Done DIIS. Switching to GDM
 ---------------------------------------
  Cycle       Energy        RMS Gradient
 ---------------------------------------
    1    -151.5733452822      7.68e-03   Normal BFGS step
    2    -151.5735945224      5.55e-03   Normal BFGS step
    3    -151.5738986917      5.87e-04   Normal BFGS step
    4    -151.5739036529      2.44e-04   Normal BFGS step
    5    -151.5739041496      3.67e-05   Normal BFGS step
    6    -151.5739041596      3.33e-05   Normal BFGS step
    7    -151.5739041682      9.64e-06   Normal BFGS step
    8    -151.5739041687      3.49e-06   Normal BFGS step
    9    -151.5739041687      8.66e-07   Normal BFGS step
   10    -151.5739041687      1.02e-07   Normal BFGS step
   11    -151.5739041687      2.47e-08  Convergence criterion met
 ---------------------------------------
 SCF time:   CPU 44.12s  wall 6.00s 
(3)  G-ENP(liq) elect-nuc-pol free energy of system     -151.573904169 a.u.
(4)  G-CDS(liq) cavity-dispersion-solvent structure 
     free energy                                                1.3621 kcal/mol
(6)  G-S(liq) free energy of system                     -151.571733454 a.u.
 SCF   energy in the final basis set =     -151.5717334540
 Total energy in the final basis set =     -151.5717334540
 
 --------------------------------------------------------------
 
                    Orbital Energies (a.u.)
 --------------------------------------------------------------
 
 Alpha MOs
 -- Occupied --
-19.3935 -19.3935  -1.2604  -1.0258  -0.6577  -0.6034  -0.5473  -0.4212
 -0.4141
 -- Virtual --
  0.0333   0.0499   0.1195   0.1855   0.2025   0.2146   0.2170   0.2417
  0.2438   0.2480   0.2835   0.3582   0.3702   0.5992   0.6150   0.7395
  0.7957   0.8568   0.8688   0.9417   0.9631   1.0550   1.1284   1.1440
  1.1725   1.3849   1.4590   1.4961   1.5993   1.6099   1.6185   1.7896
  1.9299   1.9442   2.1846   2.2354   2.2620   2.3667   2.5702   2.7819
  2.8509   3.6342   3.7709   3.8164   3.8444   4.1955   4.2448   4.5974
  4.6840   4.6855   4.8611   4.9932   5.1302   5.1305   5.2476   5.2683
  5.3423   5.3969   5.4433   5.6213   5.6240   5.7673   6.0550   6.0761
  6.7834   6.9272   6.9609   6.9619   7.0549   7.1658   7.2636   7.3518
  7.3594   7.5400   7.5406   7.8054   8.0421  50.4274  50.4392
 --------------------------------------------------------------
 
          Ground-State Mulliken Net Atomic Charges

     Atom                 Charge (a.u.)
  ----------------------------------------
      1 H                     0.340384
      2 O                    -0.340453
      3 O                    -0.340219
      4 H                     0.340287
  ----------------------------------------
  Sum of atomic charges =     0.000000

 -----------------------------------------------------------------
                    Cartesian Multipole Moments
 -----------------------------------------------------------------
    Charge (ESU x 10^10)
                 0.0000
    Dipole Moment (Debye)
         X       0.0015      Y      -0.0002      Z      -2.8137
       Tot       2.8137
    Quadrupole Moments (Debye-Ang)
        XX     -10.8656     XY      -3.1925     YY     -11.1074
        XZ      -0.0015     YZ      -0.0002     ZZ     -11.7123
    Octopole Moments (Debye-Ang^2)
       XXX       0.0039    XXY      -0.0027    XYY      -0.0001
       YYY       0.0002    XXZ      -4.0908    XYZ       1.8281
       YYZ      -1.9901    XZZ      -0.0004    YZZ       0.0000
       ZZZ      -4.1008
    Hexadecapole Moments (Debye-Ang^3)
      XXXX     -44.7457   XXXY      -3.7867   XXYY      -9.4318
      XYYY      -2.0998   YYYY     -11.9601   XXXZ      -0.0035
      XXYZ       0.0014   XYYZ      -0.0004   YYYZ      -0.0004
      XXZZ     -10.1435   XYZZ      -1.0389   YYZZ      -3.6819
      XZZZ       0.0000   YZZZ      -0.0004   ZZZZ     -12.7459
 -----------------------------------------------------------------
 Calculating analytic gradient of the SCF energy
 Gradient of CDS energy
            1           2           3           4
    1   0.0003000  -0.0002134   0.0002134  -0.0003000
    2  -0.0002682   0.0000946  -0.0000949   0.0002685
    3  -0.0002671   0.0002672   0.0002672  -0.0002673
 Gradient of SCF Energy
            1           2           3           4
    1   0.0036683  -0.0010759   0.0008688  -0.0034612
    2  -0.0090114   0.0108640  -0.0107022   0.0088496
    3  -0.0117643   0.0117134   0.0116538  -0.0116028
 Max gradient component =       1.176E-02
 RMS gradient           =       8.970E-03
 Computing fast CPCM-SWIG gradient
 Updating gradient with PCM contributions...
 -- total gradient after adding PCM contribution --
---------------------------------------------------
  Atom         X              Y              Z     
---------------------------------------------------
   1       0.000227      -0.000169      -0.000173
   2      -0.000041       0.000110       0.000120
   3      -0.000150       0.000050       0.000066
   4      -0.000036       0.000009      -0.000013
---------------------------------------------------
 Number of fixed atoms: 0
 Gradient time:  CPU 8.40 s  wall 1.16 s
 ----------------------------------------------------------------
             Standard Nuclear Orientation (Angstroms)
    I     Atom           X                Y                Z
 ----------------------------------------------------------------
    1      H       0.9850017187    -0.6082515152    -0.5134500749
    2      O       0.7113545294     0.0695800667     0.1191259678
    3      O      -0.7113545438    -0.0695800699     0.1191259814
    4      H      -0.9860017042     0.6082515184    -0.5134500766
 ----------------------------------------------------------------
 Nuclear Repulsion Energy =          37.15887284 hartrees
 There are        9 alpha and        9 beta electrons
 Discretize the solute cavity surface with Lebedev spheres
	Using 110 Lebedev grid points for each H atom
	Using 194 Lebedev grid points for other atoms
	Atomic van der Waals radii will be scaled by 1.20
 Remove points where switching function is < 1.0e-08
 Keep 402 surface tesserae and discard 206 interior tesserae
 Molecular Surface Area = 49.576 Angst**2

                       Distance Matrix (Angstroms)
             H (  1)   O (  2)   O (  3)
   O (  2)  0.966691
   O (  3)  1.888900  1.429499
   H (  4)  2.316190  1.889798  0.966974
 
 Requested basis set is 6-311++G(2df,2p)
 There are 28 shells and 88 basis functions
 A cutoff of  1.0D-12 yielded    406 shell pairs
 There are      4058 function pairs (      5061 Cartesian)
 Smallest overlap matrix eigenvalue = 1.22E-03
 Guess MOs from SCF MO coefficient file

 -----------------------------------------------------------------------
  General SCF calculation program by
  Eric Jon Sundstrom, Paul Horn, Yuezhi Mao, Dmitri Zuev, Alec White,
  David Stuck, Shaama M.S., Shane Yost, Joonho Lee, David Small,
  Daniel Levine, Susi Lehtola, Hugh Burton, Evgeny Epifanovsky,
  Bang C. Huynh
 -----------------------------------------------------------------------
 Exchange:     0.1500 Hartree-Fock + 1.0000 wB97M-V + LR-HF
 Correlation:  1.0000 wB97M-V
 Using SG-2 standard quadrature grid
 Nonlocal Correlation:  VV10 with C = 0.0100 and b = 6.00 and scale = 1.00000
 Grid used for NLC:  SG-1 standard quadrature
 
 Citation of the SMD model:
 Marenich, A.V.; Cramer, C.J.; Truhlar, D.G.
 J. Phys. Chem. B 2009, 113, 6378-6396.
 iSolventCode=           1
 Solvent: water                                                           
 
 vradii
            1           2           3           4
    1   1.2000000   1.5200000   1.5200000   1.2000000
 -------------------------------------------------------
 OpenMP BLAS3 based DFT computing Module                
 Release: version 1.0, May 2013, Q-Chem Inc. Pittsburgh 
 -------------------------------------------------------
 A restricted SCF calculation will be
 performed using Roothaan-Hall, DIIS, GDM
 SCF converges when RMS gradient is below 1.0e-07
 ---------------------------------------
  Cycle       Energy         DIIS error
 ---------------------------------------
    1    -151.5532901108      1.43e-03  Roothaan Step
 ---------------------------------------
  Cycle       Energy         DIIS error
 ---------------------------------------
    1    -151.5707316335      1.50e-03  
    2    -151.5733476620      8.76e-04  Done DIIS. Switching to GDM
 ---------------------------------------
  Cycle       Energy        RMS Gradient
 ---------------------------------------
    1    -151.5733476620      7.65e-03   Normal BFGS step
    2    -151.5735963364      5.52e-03   Normal BFGS step
    3    -151.5738976760      5.85e-04   Normal BFGS step
    4    -151.5739026332      2.46e-04   Normal BFGS step
    5    -151.5739031195      5.56e-05   Normal BFGS step
    6    -151.5739031295      5.66e-05   Normal BFGS step
    7    -151.5739031529      1.25e-05   Normal BFGS step
    8    -151.5739031535      5.21e-06   Normal BFGS step
    9    -151.5739031536      6.76e-07   Normal BFGS step
   10    -151.5739031536      1.69e-07   Normal BFGS step
   11    -151.5739031536      1.97e-08  Convergence criterion met
 ---------------------------------------
 SCF time:   CPU 44.08s  wall 5.00s 
(3)  G-ENP(liq) elect-nuc-pol free energy of system     -151.573903154 a.u.
(4)  G-CDS(liq) cavity-dispersion-solvent structure 
     free energy                                                1.3614 kcal/mol
(6)  G-S(liq) free energy of system                     -151.571733573 a.u.
 SCF   energy in the final basis set =     -151.5717335726
 Total energy in the final basis set =     -151.5717335726
 
 --------------------------------------------------------------
 
                    Orbital Energies (a.u.)
 --------------------------------------------------------------
 
 Alpha MOs
 -- Occupied --
-19.3935 -19.3935  -1.2605  -1.0259  -0.6577  -0.6035  -0.5474  -0.4212
 -0.4142
 -- Virtual --
  0.0333   0.0499   0.1195   0.1855   0.2025   0.2146   0.2170   0.2417
  0.2438   0.2481   0.2835   0.3583   0.3702   0.5993   0.6152   0.7394
  0.7960   0.8567   0.8689   0.9415   0.9629   1.0550   1.1284   1.1440
  1.1724   1.3851   1.4592   1.4960   1.5993   1.6102   1.6191   1.7900
  1.9298   1.9443   2.1843   2.2354   2.2621   2.3666   2.5704   2.7821
  2.8514   3.6341   3.7709   3.8167   3.8445   4.1963   4.2453   4.5974
  4.6838   4.6853   4.8608   4.9931   5.1302   5.1305   5.2478   5.2686
  5.3429   5.3969   5.4444   5.6215   5.6247   5.7688   6.0547   6.0756
  6.7832   6.9276   6.9612   6.9620   7.0549   7.1672   7.2650   7.3523
  7.3597   7.5396   7.5401   7.8055   8.0424  50.4276  50.4396
 --------------------------------------------------------------
 
          Ground-State Mulliken Net Atomic Charges

     Atom                 Charge (a.u.)
  ----------------------------------------
      1 H                     0.340201
      2 O                    -0.340133
      3 O                    -0.340366
      4 H                     0.340298
  ----------------------------------------
  Sum of atomic charges =     0.000000

 -----------------------------------------------------------------
                    Cartesian Multipole Moments
 -----------------------------------------------------------------
    Charge (ESU x 10^10)
                -0.0000
    Dipole Moment (Debye)
         X      -0.0015      Y       0.0002      Z      -2.8134
       Tot       2.8134
    Quadrupole Moments (Debye-Ang)
        XX     -10.8735     XY      -3.1892     YY     -11.1062
        XZ       0.0015     YZ       0.0002     ZZ     -11.7110
    Octopole Moments (Debye-Ang^2)
       XXX      -0.0039    XXY       0.0027    XYY       0.0001
       YYY      -0.0002    XXZ      -4.0863    XYZ       1.8268
       YYZ      -1.9902    XZZ       0.0004    YZZ      -0.0000
       ZZZ      -4.1011
    Hexadecapole Moments (Debye-Ang^3)
      XXXX     -44.7527   XXXY      -3.7788   XXYY      -9.4328
      XYYY      -2.0999   YYYY     -11.9572   XXXZ       0.0035
      XXYZ      -0.0014   XYYZ       0.0004   YYYZ       0.0004
      XXZZ     -10.1436   XYZZ      -1.0384   YYZZ      -3.6808
      XZZZ      -0.0000   YZZZ       0.0004   ZZZZ     -12.7431
 -----------------------------------------------------------------
 Calculating analytic gradient of the SCF energy
 Gradient of CDS energy
            1           2           3           4
    1   0.0002999  -0.0002132   0.0002133  -0.0003000
    2  -0.0002687   0.0000949  -0.0000946   0.0002685
    3  -0.0002675   0.0002674   0.0002674  -0.0002673
 Gradient of SCF Energy
            1           2           3           4
    1   0.0032442  -0.0007967   0.0010035  -0.0034510
    2  -0.0086856   0.0106525  -0.0108142   0.0088473
    3  -0.0114553   0.0115063   0.0115658  -0.0116168
 Max gradient component =       1.162E-02
 RMS gradient           =       8.853E-03
 Computing fast CPCM-SWIG gradient
 Updating gradient with PCM contributions...
 -- total gradient after adding PCM contribution --
---------------------------------------------------
  Atom         X              Y              Z     
---------------------------------------------------
   1      -0.000164       0.000155       0.000139
   2       0.000212      -0.000100      -0.000086
   3      -0.000021      -0.000060      -0.000032
   4      -0.000027       0.000005      -0.000021
---------------------------------------------------
 Number of fixed atoms: 0
 Gradient time:  CPU 8.61 s  wall 1.12 s
 ----------------------------------------------------------------
             Standard Nuclear Orientation (Angstroms)
    I     Atom           X                Y                Z
 ----------------------------------------------------------------
    1      H       0.9860017187    -0.6072515152    -0.5134500749
    2      O       0.7113545294     0.0695800667     0.1191259678
    3      O      -0.7113545438    -0.0695800699     0.1191259814
    4      H      -0.9860017042     0.6082515184    -0.5134500766
 ----------------------------------------------------------------
 Nuclear Repulsion Energy =          37.16000386 hartrees
 There are        9 alpha and        9 beta electrons
 Discretize the solute cavity surface with Lebedev spheres
	Using 110 Lebedev grid points for each H atom
	Using 194 Lebedev grid points for other atoms
	Atomic van der Waals radii will be scaled by 1.20
 Remove points where switching function is < 1.0e-08
 Keep 402 surface tesserae and discard 206 interior tesserae
 Molecular Surface Area = 49.575 Angst**2

                       Distance Matrix (Angstroms)
             H (  1)   O (  2)   O (  3)
   O (  2)  0.966274
   O (  3)  1.889514  1.429499
   H (  4)  2.316516  1.889798  0.966974
 
 Requested basis set is 6-311++G(2df,2p)
 There are 28 shells and 88 basis functions
 A cutoff of  1.0D-12 yielded    406 shell pairs
 There are      4058 function pairs (      5061 Cartesian)
 Smallest overlap matrix eigenvalue = 1.21E-03
 Guess MOs from SCF MO coefficient file

 -----------------------------------------------------------------------
  General SCF calculation program by
  Eric Jon Sundstrom, Paul Horn, Yuezhi Mao, Dmitri Zuev, Alec White,
  David Stuck, Shaama M.S., Shane Yost, Joonho Lee, David Small,
  Daniel Levine, Susi Lehtola, Hugh Burton, Evgeny Epifanovsky,
  Bang C. Huynh
 -----------------------------------------------------------------------
 Exchange:     0.1500 Hartree-Fock + 1.0000 wB97M-V + LR-HF
 Correlation:  1.0000 wB97M-V
 Using SG-2 standard quadrature grid
 Nonlocal Correlation:  VV10 with C = 0.0100 and b = 6.00 and scale = 1.00000
 Grid used for NLC:  SG-1 standard quadrature
 
 Citation of the SMD model:
 Marenich, A.V.; Cramer, C.J.; Truhlar, D.G.
 J. Phys. Chem. B 2009, 113, 6378-6396.
 iSolventCode=           1
 Solvent: water                                                           
 
 vradii
            1           2           3           4
    1   1.2000000   1.5200000   1.5200000   1.2000000
 -------------------------------------------------------
 OpenMP BLAS3 based DFT computing Module                
 Release: version 1.0, May 2013, Q-Chem Inc. Pittsburgh 
 -------------------------------------------------------
 A restricted SCF calculation will be
 performed using Roothaan-Hall, DIIS, GDM
 SCF converges when RMS gradient is below 1.0e-07
 ---------------------------------------
  Cycle       Energy         DIIS error
 ---------------------------------------
    1    -151.5532932511      1.43e-03  Roothaan Step
 ---------------------------------------
  Cycle       Energy         DIIS error
 ---------------------------------------
    1    -151.5707311440      1.50e-03  
    2    -151.5733468595      8.77e-04  Done DIIS. Switching to GDM
 ---------------------------------------
  Cycle       Energy        RMS Gradient
 ---------------------------------------
    1    -151.5733468595      7.65e-03   Normal BFGS step
    2    -151.5735956902      5.53e-03   Normal BFGS step
    3    -151.5738974290      5.85e-04   Normal BFGS step
    4    -151.5739023780      2.43e-04   Normal BFGS step
    5    -151.5739028713      3.67e-05   Normal BFGS step
    6    -151.5739028811      3.48e-05   Normal BFGS step
    7    -151.5739028903      9.87e-06   Normal BFGS step
    8    -151.5739028908      3.59e-06   Normal BFGS step
    9    -151.5739028909      8.26e-07   Normal BFGS step
   10    -151.5739028909      1.09e-07   Normal BFGS step
   11    -151.5739028909      2.48e-08  Convergence criterion met
 ---------------------------------------
 SCF time:   CPU 42.98s  wall 5.00s 
(3)  G-ENP(liq) elect-nuc-pol free energy of system     -151.573902891 a.u.
(4)  G-CDS(liq) cavity-dispersion-solvent structure 
     free energy                                                1.3615 kcal/mol
(6)  G-S(liq) free energy of system                     -151.571733250 a.u.
 SCF   energy in the final basis set =     -151.5717332504
 Total energy in the final basis set =     -151.5717332504
 
 --------------------------------------------------------------
 
                    Orbital Energies (a.u.)
 --------------------------------------------------------------
 
 Alpha MOs
 -- Occupied --
-19.3935 -19.3935  -1.2605  -1.0260  -0.6578  -0.6034  -0.5473  -0.4212
 -0.4142
 -- Virtual --
  0.0333   0.0499   0.1195   0.1855   0.2025   0.2147   0.2171   0.2417
  0.2438   0.2481   0.2836   0.3582   0.3702   0.5994   0.6154   0.7395
  0.7960   0.8567   0.8690   0.9415   0.9629   1.0549   1.1284   1.1439
  1.1724   1.3851   1.4594   1.4960   1.5994   1.6101   1.6190   1.7899
  1.9298   1.9445   2.1844   2.2354   2.2619   2.3666   2.5704   2.7822
  2.8515   3.6341   3.7710   3.8167   3.8445   4.1966   4.2459   4.5974
  4.6840   4.6856   4.8609   4.9932   5.1302   5.1305   5.2479   5.2686
  5.3429   5.3971   5.4441   5.6221   5.6252   5.7686   6.0550   6.0761
  6.7833   6.9275   6.9611   6.9620   7.0550   7.1680   7.2661   7.3521
  7.3597   7.5400   7.5403   7.8054   8.0423  50.4277  50.4397
 --------------------------------------------------------------
 
          Ground-State Mulliken Net Atomic Charges

     Atom                 Charge (a.u.)
  ----------------------------------------
      1 H                     0.340074
      2 O                    -0.340133
      3 O                    -0.340230
      4 H                     0.340289
  ----------------------------------------
  Sum of atomic charges =     0.000000

 -----------------------------------------------------------------
                    Cartesian Multipole Moments
 -----------------------------------------------------------------
    Charge (ESU x 10^10)
                -0.0000
    Dipole Moment (Debye)
         X      -0.0003      Y       0.0018      Z      -2.8139
       Tot       2.8139
    Quadrupole Moments (Debye-Ang)
        XX     -10.8685     XY      -3.1891     YY     -11.1094
        XZ      -0.0006     YZ      -0.0013     ZZ     -11.7105
    Octopole Moments (Debye-Ang^2)
       XXX       0.0012    XXY       0.0012    XYY      -0.0026
       YYY       0.0007    XXZ      -4.0894    XYZ       1.8263
       YYZ      -1.9889    XZZ       0.0008    YZZ       0.0001
       ZZZ      -4.1016
    Hexadecapole Moments (Debye-Ang^3)
      XXXX     -44.7440   XXXY      -3.7829   XXYY      -9.4339
      XYYY      -2.0994   YYYY     -11.9577   XXXZ      -0.0019
      XXYZ      -0.0009   XYYZ       0.0011   YYYZ      -0.0009
      XXZZ     -10.1420   XYZZ      -1.0387   YYZZ      -3.6813
      XZZZ      -0.0011   YZZZ       0.0005   ZZZZ     -12.7420
 -----------------------------------------------------------------
 Calculating analytic gradient of the SCF energy
 Gradient of CDS energy
            1           2           3           4
    1   0.0003002  -0.0002136   0.0002133  -0.0003000
    2  -0.0002684   0.0000948  -0.0000948   0.0002685
    3  -0.0002676   0.0002676   0.0002674  -0.0002673
 Gradient of SCF Energy
            1           2           3           4
    1   0.0032952  -0.0007523   0.0009113  -0.0034541
    2  -0.0083502   0.0102466  -0.0107450   0.0088487
    3  -0.0111667   0.0111521   0.0116292  -0.0116146
 Max gradient component =       1.163E-02
 RMS gradient           =       8.717E-03
 Computing fast CPCM-SWIG gradient
 Updating gradient with PCM contributions...
 -- total gradient after adding PCM contribution --
---------------------------------------------------
  Atom         X              Y              Z     
---------------------------------------------------
   1      -0.000131       0.000481       0.000432
   2       0.000272      -0.000497      -0.000447
   3      -0.000112       0.000012       0.000033
   4      -0.000030       0.000004      -0.000018
---------------------------------------------------
 Number of fixed atoms: 0
 Gradient time:  CPU 8.85 s  wall 1.23 s
 ----------------------------------------------------------------
             Standard Nuclear Orientation (Angstroms)
    I     Atom           X                Y                Z
 ----------------------------------------------------------------
    1      H       0.9860017187    -0.6092515152    -0.5134500749
    2      O       0.7113545294     0.0695800667     0.1191259678
    3      O      -0.7113545438    -0.0695800699     0.1191259814
    4      H      -0.9860017042     0.6082515184    -0.5134500766
 ----------------------------------------------------------------
 Nuclear Repulsion Energy =          37.15287716 hartrees
 There are        9 alpha and        9 beta electrons
 Discretize the solute cavity surface with Lebedev spheres
	Using 110 Lebedev grid points for each H atom
	Using 194 Lebedev grid points for other atoms
	Atomic van der Waals radii will be scaled by 1.20
 Remove points where switching function is < 1.0e-08
 Keep 402 surface tesserae and discard 206 interior tesserae
 Molecular Surface Area = 49.584 Angst**2

                       Distance Matrix (Angstroms)
             H (  1)   O (  2)   O (  3)
   O (  2)  0.967675
   O (  3)  1.890084  1.429499
   H (  4)  2.317566  1.889798  0.966974
 
 Requested basis set is 6-311++G(2df,2p)
 There are 28 shells and 88 basis functions
 A cutoff of  1.0D-12 yielded    406 shell pairs
 There are      4058 function pairs (      5061 Cartesian)
 Smallest overlap matrix eigenvalue = 1.22E-03
 Guess MOs from SCF MO coefficient file

 -----------------------------------------------------------------------
  General SCF calculation program by
  Eric Jon Sundstrom, Paul Horn, Yuezhi Mao, Dmitri Zuev, Alec White,
  David Stuck, Shaama M.S., Shane Yost, Joonho Lee, David Small,
  Daniel Levine, Susi Lehtola, Hugh Burton, Evgeny Epifanovsky,
  Bang C. Huynh
 -----------------------------------------------------------------------
 Exchange:     0.1500 Hartree-Fock + 1.0000 wB97M-V + LR-HF
 Correlation:  1.0000 wB97M-V
 Using SG-2 standard quadrature grid
 Nonlocal Correlation:  VV10 with C = 0.0100 and b = 6.00 and scale = 1.00000
 Grid used for NLC:  SG-1 standard quadrature
 
 Citation of the SMD model:
 Marenich, A.V.; Cramer, C.J.; Truhlar, D.G.
 J. Phys. Chem. B 2009, 113, 6378-6396.
 iSolventCode=           1
 Solvent: water                                                           
 
 vradii
            1           2           3           4
    1   1.2000000   1.5200000   1.5200000   1.2000000
 -------------------------------------------------------
 OpenMP BLAS3 based DFT computing Module                
 Release: version 1.0, May 2013, Q-Chem Inc. Pittsburgh 
 -------------------------------------------------------
 A restricted SCF calculation will be
 performed using Roothaan-Hall, DIIS, GDM
 SCF converges when RMS gradient is below 1.0e-07
 ---------------------------------------
  Cycle       Energy         DIIS error
 ---------------------------------------
    1    -151.5532831206      1.42e-03  Roothaan Step
 ---------------------------------------
  Cycle       Energy         DIIS error
 ---------------------------------------
    1    -151.5707305379      1.50e-03  
    2    -151.5733428094      8.82e-04  Done DIIS. Switching to GDM
 ---------------------------------------
  Cycle       Energy        RMS Gradient
 ---------------------------------------
    1    -151.5733428094      7.70e-03   Normal BFGS step
    2    -151.5735922263      5.57e-03   Normal BFGS step
    3    -151.5738983914      5.87e-04   Normal BFGS step
    4    -151.5739033452      2.45e-04   Normal BFGS step
    5    -151.5739038058      9.71e-05   Normal BFGS step
    6    -151.5739038431      6.55e-05   Normal BFGS step
    7    -151.5739038792      1.33e-05   Normal BFGS step
    8    -151.5739038799      5.77e-06   Normal BFGS step
    9    -151.5739038801      7.71e-07   Normal BFGS step
   10    -151.5739038801      2.05e-07   Normal BFGS step
   11    -151.5739038801      1.99e-08  Convergence criterion met
 ---------------------------------------
 SCF time:   CPU 43.21s  wall 5.00s 
(3)  G-ENP(liq) elect-nuc-pol free energy of system     -151.573903880 a.u.
(4)  G-CDS(liq) cavity-dispersion-solvent structure 
     free energy                                                1.3621 kcal/mol
(6)  G-S(liq) free energy of system                     -151.571733225 a.u.
 SCF   energy in the final basis set =     -151.5717332249
 Total energy in the final basis set =     -151.5717332249
 
 --------------------------------------------------------------
 
                    Orbital Energies (a.u.)
 --------------------------------------------------------------
 
 Alpha MOs
 -- Occupied --
-19.3936 -19.3935  -1.2604  -1.0257  -0.6576  -0.6034  -0.5473  -0.4212
 -0.4141
 -- Virtual --
  0.0333   0.0499   0.1195   0.1855   0.2025   0.2145   0.2170   0.2417
  0.2438   0.2480   0.2835   0.3582   0.3702   0.5990   0.6149   0.7394
  0.7957   0.8568   0.8688   0.9417   0.9632   1.0550   1.1284   1.1440
  1.1725   1.3848   1.4588   1.4961   1.5993   1.6100   1.6186   1.7897
  1.9299   1.9440   2.1845   2.2354   2.2622   2.3668   2.5702   2.7818
  2.8507   3.6342   3.7708   3.8163   3.8445   4.1951   4.2442   4.5974
  4.6839   4.6852   4.8610   4.9931   5.1302   5.1305   5.2475   5.2683
  5.3424   5.3967   5.4436   5.6205   5.6239   5.7675   6.0547   6.0756
  6.7833   6.9273   6.9611   6.9618   7.0548   7.1650   7.2625   7.3520
  7.3595   7.5398   7.5402   7.8055   8.0423  50.4273  50.4391
 --------------------------------------------------------------
 
          Ground-State Mulliken Net Atomic Charges

     Atom                 Charge (a.u.)
  ----------------------------------------
      1 H                     0.340511
      2 O                    -0.340452
      3 O                    -0.340355
      4 H                     0.340296
  ----------------------------------------
  Sum of atomic charges =     0.000000

 -----------------------------------------------------------------
                    Cartesian Multipole Moments
 -----------------------------------------------------------------
    Charge (ESU x 10^10)
                -0.0000
    Dipole Moment (Debye)
         X       0.0003      Y      -0.0018      Z      -2.8132
       Tot       2.8132
    Quadrupole Moments (Debye-Ang)
        XX     -10.8706     XY      -3.1926     YY     -11.1043
        XZ       0.0006     YZ       0.0013     ZZ     -11.7128
    Octopole Moments (Debye-Ang^2)
       XXX      -0.0012    XXY      -0.0012    XYY       0.0026
       YYY      -0.0007    XXZ      -4.0877    XYZ       1.8287
       YYZ      -1.9914    XZZ      -0.0008    YZZ      -0.0001
       ZZZ      -4.1003
    Hexadecapole Moments (Debye-Ang^3)
      XXXX     -44.7544   XXXY      -3.7826   XXYY      -9.4307
      XYYY      -2.1004   YYYY     -11.9596   XXXZ       0.0019
      XXYZ       0.0009   XYYZ      -0.0011   YYYZ       0.0009
      XXZZ     -10.1451   XYZZ      -1.0386   YYZZ      -3.6814
      XZZZ       0.0011   YZZZ      -0.0005   ZZZZ     -12.7470
 -----------------------------------------------------------------
 Calculating analytic gradient of the SCF energy
 Gradient of CDS energy
            1           2           3           4
    1   0.0002997  -0.0002131   0.0002133  -0.0003000
    2  -0.0002685   0.0000947  -0.0000947   0.0002685
    3  -0.0002670   0.0002670   0.0002673  -0.0002673
 Gradient of SCF Energy
            1           2           3           4
    1   0.0036159  -0.0011186   0.0009607  -0.0034580
    2  -0.0093454   0.0112685  -0.0107714   0.0088483
    3  -0.0120504   0.0120650   0.0115905  -0.0116051
 Max gradient component =       1.206E-02
 RMS gradient           =       9.109E-03
 Computing fast CPCM-SWIG gradient
 Updating gradient with PCM contributions...
 -- total gradient after adding PCM contribution --
---------------------------------------------------
  Atom         X              Y              Z     
---------------------------------------------------
   1       0.000193      -0.000494      -0.000464
   2      -0.000100       0.000506       0.000479
   3      -0.000060      -0.000022       0.000001
   4      -0.000033       0.000010      -0.000016
---------------------------------------------------
 Number of fixed atoms: 0
 Gradient time:  CPU 8.21 s  wall 1.05 s
 ----------------------------------------------------------------
             Standard Nuclear Orientation (Angstroms)
    I     Atom           X                Y                Z
 ----------------------------------------------------------------
    1      H       0.9860017187    -0.6082515152    -0.5124500749
    2      O       0.7113545294     0.0695800667     0.1191259678
    3      O      -0.7113545438    -0.0695800699     0.1191259814
    4      H      -0.9860017042     0.6082515184    -0.5134500766
 ----------------------------------------------------------------
 Nuclear Repulsion Energy =          37.15979868 hartrees
 There are        9 alpha and        9 beta electrons
 Discretize the solute cavity surface with Lebedev spheres
	Using 110 Lebedev grid points for each H atom
	Using 194 Lebedev grid points for other atoms
	Atomic van der Waals radii will be scaled by 1.20
 Remove points where switching function is < 1.0e-08
 Keep 402 surface tesserae and discard 206 interior tesserae
 Molecular Surface Area = 49.575 Angst**2

                       Distance Matrix (Angstroms)
             H (  1)   O (  2)   O (  3)
   O (  2)  0.966320
   O (  3)  1.889464  1.429499
   H (  4)  2.317041  1.889798  0.966974
 
 Requested basis set is 6-311++G(2df,2p)
 There are 28 shells and 88 basis functions
 A cutoff of  1.0D-12 yielded    406 shell pairs
 There are      4058 function pairs (      5061 Cartesian)
 Smallest overlap matrix eigenvalue = 1.21E-03
 Guess MOs from SCF MO coefficient file

 -----------------------------------------------------------------------
  General SCF calculation program by
  Eric Jon Sundstrom, Paul Horn, Yuezhi Mao, Dmitri Zuev, Alec White,
  David Stuck, Shaama M.S., Shane Yost, Joonho Lee, David Small,
  Daniel Levine, Susi Lehtola, Hugh Burton, Evgeny Epifanovsky,
  Bang C. Huynh
 -----------------------------------------------------------------------
 Exchange:     0.1500 Hartree-Fock + 1.0000 wB97M-V + LR-HF
 Correlation:  1.0000 wB97M-V
 Using SG-2 standard quadrature grid
 Nonlocal Correlation:  VV10 with C = 0.0100 and b = 6.00 and scale = 1.00000
 Grid used for NLC:  SG-1 standard quadrature
 
 Citation of the SMD model:
 Marenich, A.V.; Cramer, C.J.; Truhlar, D.G.
 J. Phys. Chem. B 2009, 113, 6378-6396.
 iSolventCode=           1
 Solvent: water                                                           
 
 vradii
            1           2           3           4
    1   1.2000000   1.5200000   1.5200000   1.2000000
 -------------------------------------------------------
 OpenMP BLAS3 based DFT computing Module                
 Release: version 1.0, May 2013, Q-Chem Inc. Pittsburgh 
 -------------------------------------------------------
 A restricted SCF calculation will be
 performed using Roothaan-Hall, DIIS, GDM
 SCF converges when RMS gradient is below 1.0e-07
 ---------------------------------------
  Cycle       Energy         DIIS error
 ---------------------------------------
    1    -151.5533001018      1.43e-03  Roothaan Step
 ---------------------------------------
  Cycle       Energy         DIIS error
 ---------------------------------------
    1    -151.5707342124      1.50e-03  
    2    -151.5733493633      8.75e-04  Done DIIS. Switching to GDM
 ---------------------------------------
  Cycle       Energy        RMS Gradient
 ---------------------------------------
    1    -151.5733493633      7.63e-03   Normal BFGS step
    2    -151.5735976595      5.51e-03   Normal BFGS step
    3    -151.5738975003      5.85e-04   Normal BFGS step
    4    -151.5739024474      2.44e-04   Normal BFGS step
    5    -151.5739029049      9.47e-05   Normal BFGS step
    6    -151.5739029397      6.53e-05   Normal BFGS step
    7    -151.5739029753      1.33e-05   Normal BFGS step
    8    -151.5739029760      5.78e-06   Normal BFGS step
    9    -151.5739029762      7.54e-07   Normal BFGS step
   10    -151.5739029762      2.00e-07   Normal BFGS step
   11    -151.5739029762      2.00e-08  Convergence criterion met
 ---------------------------------------
 SCF time:   CPU 43.62s  wall 5.00s 
(3)  G-ENP(liq) elect-nuc-pol free energy of system     -151.573902976 a.u.
(4)  G-CDS(liq) cavity-dispersion-solvent structure 
     free energy                                                1.3615 kcal/mol
(6)  G-S(liq) free energy of system                     -151.571733333 a.u.
 SCF   energy in the final basis set =     -151.5717333335
 Total energy in the final basis set =     -151.5717333335
 
 --------------------------------------------------------------
 
                    Orbital Energies (a.u.)
 --------------------------------------------------------------
 
 Alpha MOs
 -- Occupied --
-19.3935 -19.3935  -1.2605  -1.0260  -0.6577  -0.6035  -0.5473  -0.4213
 -0.4141
 -- Virtual --
  0.0333   0.0499   0.1195   0.1855   0.2025   0.2147   0.2171   0.2417
  0.2438   0.2481   0.2836   0.3582   0.3702   0.5994   0.6153   0.7396
  0.7958   0.8569   0.8690   0.9415   0.9629   1.0549   1.1284   1.1440
  1.1724   1.3851   1.4593   1.4959   1.5995   1.6101   1.6188   1.7900
  1.9298   1.9443   2.1844   2.2355   2.2619   2.3665   2.5705   2.7822
  2.8515   3.6342   3.7710   3.8165   3.8447   4.1967   4.2457   4.5974
  4.6841   4.6854   4.8610   4.9931   5.1302   5.1305   5.2478   5.2687
  5.3425   5.3970   5.4446   5.6219   5.6253   5.7685   6.0550   6.0761
  6.7833   6.9274   6.9612   6.9620   7.0549   7.1679   7.2660   7.3522
  7.3595   7.5401   7.5402   7.8054   8.0423  50.4277  50.4397
 --------------------------------------------------------------
 
          Ground-State Mulliken Net Atomic Charges

     Atom                 Charge (a.u.)
  ----------------------------------------
      1 H                     0.340109
      2 O                    -0.340156
      3 O                    -0.340263
      4 H                     0.340311
  ----------------------------------------
  Sum of atomic charges =     0.000000

 -----------------------------------------------------------------
                    Cartesian Multipole Moments
 -----------------------------------------------------------------
    Charge (ESU x 10^10)
                 0.0000
    Dipole Moment (Debye)
         X      -0.0002      Y      -0.0004      Z      -2.8117
       Tot       2.8117
    Quadrupole Moments (Debye-Ang)
        XX     -10.8686     XY      -3.1915     YY     -11.1057
        XZ       0.0019     YZ      -0.0015     ZZ     -11.7138
    Octopole Moments (Debye-Ang^2)
       XXX       0.0013    XXY      -0.0009    XYY       0.0008
       YYY      -0.0008    XXZ      -4.0872    XYZ       1.8260
       YYZ      -1.9897    XZZ      -0.0022    YZZ       0.0012
       ZZZ      -4.1008
    Hexadecapole Moments (Debye-Ang^3)
      XXXX     -44.7443   XXXY      -3.7847   XXYY      -9.4308
      XYYY      -2.1010   YYYY     -11.9560   XXXZ       0.0002
      XXYZ      -0.0012   XYYZ       0.0003   YYYZ       0.0003
      XXZZ     -10.1449   XYZZ      -1.0376   YYZZ      -3.6816
      XZZZ      -0.0001   YZZZ      -0.0006   ZZZZ     -12.7433
 -----------------------------------------------------------------
 Calculating analytic gradient of the SCF energy
 Gradient of CDS energy
            1           2           3           4
    1   0.0003002  -0.0002136   0.0002133  -0.0003000
    2  -0.0002688   0.0000950  -0.0000947   0.0002685
    3  -0.0002672   0.0002673   0.0002672  -0.0002673
 Gradient of SCF Energy
            1           2           3           4
    1   0.0033020  -0.0007625   0.0009217  -0.0034612
    2  -0.0084034   0.0103000  -0.0107455   0.0088490
    3  -0.0111752   0.0111654   0.0116138  -0.0116040
 Max gradient component =       1.161E-02
 RMS gradient           =       8.727E-03
 Computing fast CPCM-SWIG gradient
 Updating gradient with PCM contributions...
 -- total gradient after adding PCM contribution --
---------------------------------------------------
  Atom         X              Y              Z     
---------------------------------------------------
   1      -0.000125       0.000442       0.000403
   2       0.000260      -0.000455      -0.000412
   3      -0.000100       0.000005       0.000023
   4      -0.000035       0.000008      -0.000014
---------------------------------------------------
 Number of fixed atoms: 0
 Gradient time:  CPU 8.70 s  wall 1.25 s
 ----------------------------------------------------------------
             Standard Nuclear Orientation (Angstroms)
    I     Atom           X                Y                Z
 ----------------------------------------------------------------
    1      H       0.9860017187    -0.6082515152    -0.5144500749
    2      O       0.7113545294     0.0695800667     0.1191259678
    3      O      -0.7113545438    -0.0695800699     0.1191259814
    4      H      -0.9860017042     0.6082515184    -0.5134500766
 ----------------------------------------------------------------
 Nuclear Repulsion Energy =          37.15308146 hartrees
 There are        9 alpha and        9 beta electrons
 Discretize the solute cavity surface with Lebedev spheres
	Using 110 Lebedev grid points for each H atom
	Using 194 Lebedev grid points for other atoms
	Atomic van der Waals radii will be scaled by 1.20
 Remove points where switching function is < 1.0e-08
 Keep 402 surface tesserae and discard 206 interior tesserae
 Molecular Surface Area = 49.584 Angst**2

                       Distance Matrix (Angstroms)
             H (  1)   O (  2)   O (  3)
   O (  2)  0.967629
   O (  3)  1.890133  1.429499
   H (  4)  2.317041  1.889798  0.966974
 
 Requested basis set is 6-311++G(2df,2p)
 There are 28 shells and 88 basis functions
 A cutoff of  1.0D-12 yielded    406 shell pairs
 There are      4058 function pairs (      5061 Cartesian)
 Smallest overlap matrix eigenvalue = 1.22E-03
 Guess MOs from SCF MO coefficient file

 -----------------------------------------------------------------------
  General SCF calculation program by
  Eric Jon Sundstrom, Paul Horn, Yuezhi Mao, Dmitri Zuev, Alec White,
  David Stuck, Shaama M.S., Shane Yost, Joonho Lee, David Small,
  Daniel Levine, Susi Lehtola, Hugh Burton, Evgeny Epifanovsky,
  Bang C. Huynh
 -----------------------------------------------------------------------
 Exchange:     0.1500 Hartree-Fock + 1.0000 wB97M-V + LR-HF
 Correlation:  1.0000 wB97M-V
 Using SG-2 standard quadrature grid
 Nonlocal Correlation:  VV10 with C = 0.0100 and b = 6.00 and scale = 1.00000
 Grid used for NLC:  SG-1 standard quadrature
 
 Citation of the SMD model:
 Marenich, A.V.; Cramer, C.J.; Truhlar, D.G.
 J. Phys. Chem. B 2009, 113, 6378-6396.
 iSolventCode=           1
 Solvent: water                                                           
 
 vradii
            1           2           3           4
    1   1.2000000   1.5200000   1.5200000   1.2000000
 -------------------------------------------------------
 OpenMP BLAS3 based DFT computing Module                
 Release: version 1.0, May 2013, Q-Chem Inc. Pittsburgh 
 -------------------------------------------------------
 A restricted SCF calculation will be
 performed using Roothaan-Hall, DIIS, GDM
 SCF converges when RMS gradient is below 1.0e-07
 ---------------------------------------
  Cycle       Energy         DIIS error
 ---------------------------------------
    1    -151.5532769921      1.42e-03  Roothaan Step
 ---------------------------------------
  Cycle       Energy         DIIS error
 ---------------------------------------
    1    -151.5707275253      1.50e-03  
    2    -151.5733423891      8.82e-04  Done DIIS. Switching to GDM
 ---------------------------------------
  Cycle       Energy        RMS Gradient
 ---------------------------------------
    1    -151.5733423891      7.70e-03   Normal BFGS step
    2    -151.5735920017      5.58e-03   Normal BFGS step
    3    -151.5738984350      5.88e-04   Normal BFGS step
    4    -151.5739033885      2.44e-04   Normal BFGS step
    5    -151.5739038519      9.37e-05   Normal BFGS step
    6    -151.5739038853      6.58e-05   Normal BFGS step
    7    -151.5739039212      1.32e-05   Normal BFGS step
    8    -151.5739039219      5.77e-06   Normal BFGS step
    9    -151.5739039221      7.48e-07   Normal BFGS step
   10    -151.5739039221      2.01e-07   Normal BFGS step
   11    -151.5739039221      1.97e-08  Convergence criterion met
 ---------------------------------------
 SCF time:   CPU 43.31s  wall 6.00s 
(3)  G-ENP(liq) elect-nuc-pol free energy of system     -151.573903922 a.u.
(4)  G-CDS(liq) cavity-dispersion-solvent structure 
     free energy                                                1.3621 kcal/mol
(6)  G-S(liq) free energy of system                     -151.571733269 a.u.
 SCF   energy in the final basis set =     -151.5717332691
 Total energy in the final basis set =     -151.5717332691
 
 --------------------------------------------------------------
 
                    Orbital Energies (a.u.)
 --------------------------------------------------------------
 
 Alpha MOs
 -- Occupied --
-19.3936 -19.3935  -1.2604  -1.0257  -0.6576  -0.6034  -0.5473  -0.4212
 -0.4142
 -- Virtual --
  0.0333   0.0499   0.1195   0.1855   0.2025   0.2145   0.2170   0.2417
  0.2438   0.2480   0.2835   0.3583   0.3702   0.5990   0.6149   0.7394
  0.7959   0.8565   0.8688   0.9418   0.9631   1.0550   1.1284   1.1440
  1.1724   1.3848   1.4589   1.4961   1.5991   1.6099   1.6188   1.7896
  1.9299   1.9442   2.1845   2.2353   2.2622   2.3669   2.5701   2.7818
  2.8508   3.6341   3.7708   3.8166   3.8442   4.1951   4.2444   4.5974
  4.6838   4.6854   4.8609   4.9931   5.1302   5.1305   5.2476   5.2682
  5.3427   5.3968   5.4431   5.6207   5.6237   5.7676   6.0547   6.0757
  6.7833   6.9273   6.9610   6.9619   7.0548   7.1651   7.2626   7.3519
  7.3596   7.5397   7.5403   7.8055   8.0423  50.4273  50.4392
 --------------------------------------------------------------
 
          Ground-State Mulliken Net Atomic Charges

     Atom                 Charge (a.u.)
  ----------------------------------------
      1 H                     0.340476
      2 O                    -0.340429
      3 O                    -0.340322
      4 H                     0.340275
  ----------------------------------------
  Sum of atomic charges =     0.000000

 -----------------------------------------------------------------
                    Cartesian Multipole Moments
 -----------------------------------------------------------------
    Charge (ESU x 10^10)
                 0.0000
    Dipole Moment (Debye)
         X       0.0002      Y       0.0004      Z      -2.8154
       Tot       2.8154
    Quadrupole Moments (Debye-Ang)
        XX     -10.8706     XY      -3.1902     YY     -11.1080
        XZ      -0.0019     YZ       0.0015     ZZ     -11.7095
    Octopole Moments (Debye-Ang^2)
       XXX      -0.0013    XXY       0.0009    XYY      -0.0008
       YYY       0.0008    XXZ      -4.0899    XYZ       1.8289
       YYZ      -1.9906    XZZ       0.0022    YZZ      -0.0012
       ZZZ      -4.1011
    Hexadecapole Moments (Debye-Ang^3)
      XXXX     -44.7541   XXXY      -3.7808   XXYY      -9.4339
      XYYY      -2.0987   YYYY     -11.9613   XXXZ      -0.0002
      XXYZ       0.0012   XYYZ      -0.0003   YYYZ      -0.0003
      XXZZ     -10.1421   XYZZ      -1.0397   YYZZ      -3.6811
      XZZZ       0.0001   YZZZ       0.0006   ZZZZ     -12.7456
 -----------------------------------------------------------------
 Calculating analytic gradient of the SCF energy
 Gradient of CDS energy
            1           2           3           4
    1   0.0002997  -0.0002131   0.0002134  -0.0003000
    2  -0.0002681   0.0000945  -0.0000948   0.0002685
    3  -0.0002674   0.0002673   0.0002674  -0.0002673
 Gradient of SCF Energy
            1           2           3           4
    1   0.0036093  -0.0011086   0.0009503  -0.0034509
    2  -0.0092912   0.0112141  -0.0107709   0.0088480
    3  -0.0120436   0.0120534   0.0116058  -0.0116157
 Max gradient component =       1.205E-02
 RMS gradient           =       9.099E-03
 Computing fast CPCM-SWIG gradient
 Updating gradient with PCM contributions...
 -- total gradient after adding PCM contribution --
---------------------------------------------------
  Atom         X              Y              Z     
---------------------------------------------------
   1       0.000187      -0.000454      -0.000437
   2      -0.000088       0.000463       0.000446
   3      -0.000072      -0.000015       0.000011
   4      -0.000027       0.000006      -0.000020
---------------------------------------------------
 Number of fixed atoms: 0
 Gradient time:  CPU 8.26 s  wall 1.05 s
 ----------------------------------------------------------------
             Standard Nuclear Orientation (Angstroms)
    I     Atom           X                Y                Z
 ----------------------------------------------------------------
    1      H       0.9860017187    -0.6082515152    -0.5134500749
    2      O       0.7123545294     0.0695800667     0.1191259678
    3      O      -0.7113545438    -0.0695800699     0.1191259814
    4      H      -0.9860017042     0.6082515184    -0.5134500766
 ----------------------------------------------------------------
 Nuclear Repulsion Energy =          37.14017624 hartrees
 There are        9 alpha and        9 beta electrons
 Discretize the solute cavity surface with Lebedev spheres
	Using 110 Lebedev grid points for each H atom
	Using 194 Lebedev grid points for other atoms
	Atomic van der Waals radii will be scaled by 1.20
 Remove points where switching function is < 1.0e-08
 Keep 402 surface tesserae and discard 206 interior tesserae
 Molecular Surface Area = 49.587 Angst**2

                       Distance Matrix (Angstroms)
             H (  1)   O (  2)   O (  3)
   O (  2)  0.966691
   O (  3)  1.889798  1.430494
   H (  4)  2.317041  1.890697  0.966974
 
 Requested basis set is 6-311++G(2df,2p)
 There are 28 shells and 88 basis functions
 A cutoff of  1.0D-12 yielded    406 shell pairs
 There are      4058 function pairs (      5061 Cartesian)
 Smallest overlap matrix eigenvalue = 1.22E-03
 Guess MOs from SCF MO coefficient file

 -----------------------------------------------------------------------
  General SCF calculation program by
  Eric Jon Sundstrom, Paul Horn, Yuezhi Mao, Dmitri Zuev, Alec White,
  David Stuck, Shaama M.S., Shane Yost, Joonho Lee, David Small,
  Daniel Levine, Susi Lehtola, Hugh Burton, Evgeny Epifanovsky,
  Bang C. Huynh
 -----------------------------------------------------------------------
 Exchange:     0.1500 Hartree-Fock + 1.0000 wB97M-V + LR-HF
 Correlation:  1.0000 wB97M-V
 Using SG-2 standard quadrature grid
 Nonlocal Correlation:  VV10 with C = 0.0100 and b = 6.00 and scale = 1.00000
 Grid used for NLC:  SG-1 standard quadrature
 
 Citation of the SMD model:
 Marenich, A.V.; Cramer, C.J.; Truhlar, D.G.
 J. Phys. Chem. B 2009, 113, 6378-6396.
 iSolventCode=           1
 Solvent: water                                                           
 
 vradii
            1           2           3           4
    1   1.2000000   1.5200000   1.5200000   1.2000000
 -------------------------------------------------------
 OpenMP BLAS3 based DFT computing Module                
 Release: version 1.0, May 2013, Q-Chem Inc. Pittsburgh 
 -------------------------------------------------------
 A restricted SCF calculation will be
 performed using Roothaan-Hall, DIIS, GDM
 SCF converges when RMS gradient is below 1.0e-07
 ---------------------------------------
  Cycle       Energy         DIIS error
 ---------------------------------------
    1    -151.5532894710      1.43e-03  Roothaan Step
 ---------------------------------------
  Cycle       Energy         DIIS error
 ---------------------------------------
    1    -151.5707299282      1.50e-03  
    2    -151.5733469196      8.77e-04  Done DIIS. Switching to GDM
 ---------------------------------------
  Cycle       Energy        RMS Gradient
 ---------------------------------------
    1    -151.5733469196      7.65e-03   Normal BFGS step
    2    -151.5735957501      5.52e-03   Normal BFGS step
    3    -151.5738971235      5.85e-04   Normal BFGS step
    4    -151.5739020727      2.44e-04   Normal BFGS step
    5    -151.5739025490      6.92e-05   Normal BFGS step
    6    -151.5739025630      6.28e-05   Normal BFGS step
    7    -151.5739025925      1.27e-05   Normal BFGS step
    8    -151.5739025932      5.52e-06   Normal BFGS step
    9    -151.5739025933      6.96e-07   Normal BFGS step
   10    -151.5739025933      1.83e-07   Normal BFGS step
   11    -151.5739025933      1.88e-08  Convergence criterion met
 ---------------------------------------
 SCF time:   CPU 43.34s  wall 6.00s 
(3)  G-ENP(liq) elect-nuc-pol free energy of system     -151.573902593 a.u.
(4)  G-CDS(liq) cavity-dispersion-solvent structure 
     free energy                                                1.3615 kcal/mol
(6)  G-S(liq) free energy of system                     -151.571732849 a.u.
 SCF   energy in the final basis set =     -151.5717328486
 Total energy in the final basis set =     -151.5717328486
 
 --------------------------------------------------------------
 
                    Orbital Energies (a.u.)
 --------------------------------------------------------------
 
 Alpha MOs
 -- Occupied --
-19.3936 -19.3936  -1.2601  -1.0261  -0.6575  -0.6034  -0.5472  -0.4214
 -0.4143
 -- Virtual --
  0.0333   0.0499   0.1191   0.1855   0.2023   0.2146   0.2170   0.2417
  0.2438   0.2481   0.2834   0.3582   0.3701   0.5993   0.6152   0.7395
  0.7958   0.8566   0.8688   0.9416   0.9629   1.0551   1.1284   1.1440
  1.1725   1.3850   1.4591   1.4959   1.5992   1.6100   1.6189   1.7902
  1.9283   1.9441   2.1840   2.2347   2.2617   2.3665   2.5706   2.7825
  2.8508   3.6342   3.7708   3.8164   3.8442   4.1962   4.2453   4.5964
  4.6843   4.6857   4.8616   4.9934   5.1300   5.1304   5.2479   5.2686
  5.3420   5.3973   5.4436   5.6214   5.6245   5.7675   6.0518   6.0730
  6.7800   6.9273   6.9604   6.9614   7.0547   7.1670   7.2649   7.3519
  7.3590   7.5387   7.5394   7.8035   8.0429  50.4278  50.4391
 --------------------------------------------------------------
 
          Ground-State Mulliken Net Atomic Charges

     Atom                 Charge (a.u.)
  ----------------------------------------
      1 H                     0.340242
      2 O                    -0.340174
      3 O                    -0.340407
      4 H                     0.340339
  ----------------------------------------
  Sum of atomic charges =     0.000000

 -----------------------------------------------------------------
                    Cartesian Multipole Moments
 -----------------------------------------------------------------
    Charge (ESU x 10^10)
                -0.0000
    Dipole Moment (Debye)
         X      -0.0015      Y       0.0002      Z      -2.8135
       Tot       2.8135
    Quadrupole Moments (Debye-Ang)
        XX     -10.8694     XY      -3.1906     YY     -11.1073
        XZ       0.0001     YZ       0.0002     ZZ     -11.7122
    Octopole Moments (Debye-Ang^2)
       XXX      -0.0202    XXY      -0.0005    XYY      -0.0055
       YYY      -0.0002    XXZ      -4.0888    XYZ       1.8282
       YYZ      -1.9902    XZZ      -0.0054    YZZ      -0.0000
       ZZZ      -4.1013
    Hexadecapole Moments (Debye-Ang^3)
      XXXX     -44.7917   XXXY      -3.7840   XXYY      -9.4396
      XYYY      -2.1010   YYYY     -11.9590   XXXZ      -0.0026
      XXYZ       0.0004   XYYZ      -0.0006   YYYZ       0.0004
      XXZZ     -10.1508   XYZZ      -1.0390   YYZZ      -3.6814
      XZZZ      -0.0021   YZZZ       0.0004   ZZZZ     -12.7450
 -----------------------------------------------------------------
 Calculating analytic gradient of the SCF energy
 Gradient of CDS energy
            1           2           3           4
    1   0.0002999  -0.0002132   0.0002133  -0.0002999
    2  -0.0002687   0.0000950  -0.0000948   0.0002684
    3  -0.0002675   0.0002674   0.0002674  -0.0002673
 Gradient of SCF Energy
            1           2           3           4
    1   0.0033203  -0.0002049   0.0004115  -0.0035268
    2  -0.0086629   0.0106143  -0.0107761   0.0088247
    3  -0.0114366   0.0114875   0.0115472  -0.0115981
 Max gradient component =       1.160E-02
 RMS gradient           =       8.832E-03
 Computing fast CPCM-SWIG gradient
 Updating gradient with PCM contributions...
 -- total gradient after adding PCM contribution --
---------------------------------------------------
  Atom         X              Y              Z     
---------------------------------------------------
   1      -0.000095       0.000179       0.000157
   2       0.000813      -0.000133      -0.000104
   3      -0.000622      -0.000027      -0.000050
   4      -0.000096      -0.000019      -0.000003
---------------------------------------------------
 Number of fixed atoms: 0
 Gradient time:  CPU 8.40 s  wall 1.16 s
 ----------------------------------------------------------------
             Standard Nuclear Orientation (Angstroms)
    I     Atom           X                Y                Z
 ----------------------------------------------------------------
    1      H       0.9860017187    -0.6082515152    -0.5134500749
    2      O       0.7103545294     0.0695800667     0.1191259678
    3      O      -0.7113545438    -0.0695800699     0.1191259814
    4      H      -0.9860017042     0.6082515184    -0.5134500766
 ----------------------------------------------------------------
 Nuclear Repulsion Energy =          37.17272324 hartrees
 There are        9 alpha and        9 beta electrons
 Discretize the solute cavity surface with Lebedev spheres
	Using 110 Lebedev grid points for each H atom
	Using 194 Lebedev grid points for other atoms
	Atomic van der Waals radii will be scaled by 1.20
 Remove points where switching function is < 1.0e-08
 Keep 402 surface tesserae and discard 206 interior tesserae
 Molecular Surface Area = 49.572 Angst**2

                       Distance Matrix (Angstroms)
             H (  1)   O (  2)   O (  3)
   O (  2)  0.967259
   O (  3)  1.889798  1.428503
   H (  4)  2.317041  1.888900  0.966974
 
 Requested basis set is 6-311++G(2df,2p)
 There are 28 shells and 88 basis functions
 A cutoff of  1.0D-12 yielded    406 shell pairs
 There are      4058 function pairs (      5061 Cartesian)
 Smallest overlap matrix eigenvalue = 1.21E-03
 Guess MOs from SCF MO coefficient file

 -----------------------------------------------------------------------
  General SCF calculation program by
  Eric Jon Sundstrom, Paul Horn, Yuezhi Mao, Dmitri Zuev, Alec White,
  David Stuck, Shaama M.S., Shane Yost, Joonho Lee, David Small,
  Daniel Levine, Susi Lehtola, Hugh Burton, Evgeny Epifanovsky,
  Bang C. Huynh
 -----------------------------------------------------------------------
 Exchange:     0.1500 Hartree-Fock + 1.0000 wB97M-V + LR-HF
 Correlation:  1.0000 wB97M-V
 Using SG-2 standard quadrature grid
 Nonlocal Correlation:  VV10 with C = 0.0100 and b = 6.00 and scale = 1.00000
 Grid used for NLC:  SG-1 standard quadrature
 
 Citation of the SMD model:
 Marenich, A.V.; Cramer, C.J.; Truhlar, D.G.
 J. Phys. Chem. B 2009, 113, 6378-6396.
 iSolventCode=           1
 Solvent: water                                                           
 
 vradii
            1           2           3           4
    1   1.2000000   1.5200000   1.5200000   1.2000000
 -------------------------------------------------------
 OpenMP BLAS3 based DFT computing Module                
 Release: version 1.0, May 2013, Q-Chem Inc. Pittsburgh 
 -------------------------------------------------------
 A restricted SCF calculation will be
 performed using Roothaan-Hall, DIIS, GDM
 SCF converges when RMS gradient is below 1.0e-07
 ---------------------------------------
  Cycle       Energy         DIIS error
 ---------------------------------------
    1    -151.5532878265      1.42e-03  Roothaan Step
 ---------------------------------------
  Cycle       Energy         DIIS error
 ---------------------------------------
    1    -151.5707313935      1.50e-03  
    2    -151.5733454597      8.79e-04  Done DIIS. Switching to GDM
 ---------------------------------------
  Cycle       Energy        RMS Gradient
 ---------------------------------------
    1    -151.5733454597      7.67e-03   Normal BFGS step
    2    -151.5735945144      5.55e-03   Normal BFGS step
    3    -151.5738982285      5.87e-04   Normal BFGS step
    4    -151.5739031988      2.45e-04   Normal BFGS step
    5    -151.5739036877      5.50e-05   Normal BFGS step
    6    -151.5739036975      5.61e-05   Normal BFGS step
    7    -151.5739037206      1.24e-05   Normal BFGS step
    8    -151.5739037212      5.13e-06   Normal BFGS step
    9    -151.5739037214      6.74e-07   Normal BFGS step
   10    -151.5739037214      1.70e-07   Normal BFGS step
   11    -151.5739037214      1.96e-08  Convergence criterion met
 ---------------------------------------
 SCF time:   CPU 43.78s  wall 6.00s 
(3)  G-ENP(liq) elect-nuc-pol free energy of system     -151.573903721 a.u.
(4)  G-CDS(liq) cavity-dispersion-solvent structure 
     free energy                                                1.3620 kcal/mol
(6)  G-S(liq) free energy of system                     -151.571733170 a.u.
 SCF   energy in the final basis set =     -151.5717331703
 Total energy in the final basis set =     -151.5717331703
 
 --------------------------------------------------------------
 
                    Orbital Energies (a.u.)
 --------------------------------------------------------------
 
 Alpha MOs
 -- Occupied --
-19.3935 -19.3934  -1.2608  -1.0256  -0.6579  -0.6035  -0.5475  -0.4211
 -0.4140
 -- Virtual --
  0.0333   0.0500   0.1198   0.1855   0.2027   0.2146   0.2170   0.2417
  0.2438   0.2480   0.2837   0.3582   0.3702   0.5992   0.6150   0.7394
  0.7959   0.8569   0.8689   0.9417   0.9631   1.0548   1.1284   1.1440
  1.1723   1.3849   1.4591   1.4962   1.5995   1.6100   1.6187   1.7894
  1.9314   1.9444   2.1849   2.2361   2.2624   2.3668   2.5700   2.7815
  2.8515   3.6341   3.7710   3.8166   3.8447   4.1956   4.2448   4.5984
[...]
  General SCF calculation program by
  Eric Jon Sundstrom, Paul Horn, Yuezhi Mao, Dmitri Zuev, Alec White,
  David Stuck, Shaama M.S., Shane Yost, Joonho Lee, David Small,
  Daniel Levine, Susi Lehtola, Hugh Burton, Evgeny Epifanovsky,
  Bang C. Huynh
 -----------------------------------------------------------------------
 Exchange:     0.1500 Hartree-Fock + 1.0000 wB97M-V + LR-HF
 Correlation:  1.0000 wB97M-V
 Using SG-2 standard quadrature grid
 Nonlocal Correlation:  VV10 with C = 0.0100 and b = 6.00 and scale = 1.00000
 Grid used for NLC:  SG-1 standard quadrature
 
 Citation of the SMD model:
 Marenich, A.V.; Cramer, C.J.; Truhlar, D.G.
 J. Phys. Chem. B 2009, 113, 6378-6396.
 iSolventCode=           1
 Solvent: water                                                           
 
 vradii
            1           2           3           4
    1   1.2000000   1.5200000   1.5200000   1.2000000
 -------------------------------------------------------
 OpenMP BLAS3 based DFT computing Module                
 Release: version 1.0, May 2013, Q-Chem Inc. Pittsburgh 
 -------------------------------------------------------
 A restricted SCF calculation will be
 performed using Roothaan-Hall, DIIS, GDM
 SCF converges when RMS gradient is below 1.0e-07
 ---------------------------------------
  Cycle       Energy         DIIS error
 ---------------------------------------
    1    -151.5532769918      1.42e-03  Roothaan Step
 ---------------------------------------
  Cycle       Energy         DIIS error
 ---------------------------------------
    1    -151.5707275251      1.50e-03  
    2    -151.5733423890      8.82e-04  Done DIIS. Switching to GDM
 ---------------------------------------
  Cycle       Energy        RMS Gradient
 ---------------------------------------
    1    -151.5733423890      7.70e-03   Normal BFGS step
    2    -151.5735920016      5.58e-03   Normal BFGS step
    3    -151.5738984350      5.88e-04   Normal BFGS step
    4    -151.5739033885      2.44e-04   Normal BFGS step
    5    -151.5739038519      9.37e-05   Normal BFGS step
    6    -151.5739038853      6.58e-05   Normal BFGS step
    7    -151.5739039212      1.32e-05   Normal BFGS step
    8    -151.5739039219      5.77e-06   Normal BFGS step
    9    -151.5739039221      7.48e-07   Normal BFGS step
   10    -151.5739039221      2.01e-07   Normal BFGS step
   11    -151.5739039221      1.97e-08  Convergence criterion met
 ---------------------------------------
 SCF time:   CPU 44.60s  wall 6.00s 
(3)  G-ENP(liq) elect-nuc-pol free energy of system     -151.573903922 a.u.
(4)  G-CDS(liq) cavity-dispersion-solvent structure 
     free energy                                                1.3621 kcal/mol
(6)  G-S(liq) free energy of system                     -151.571733269 a.u.
 SCF   energy in the final basis set =     -151.5717332691
 Total energy in the final basis set =     -151.5717332691
 
 --------------------------------------------------------------
 
                    Orbital Energies (a.u.)
 --------------------------------------------------------------
 
 Alpha MOs
 -- Occupied --
-19.3936 -19.3935  -1.2604  -1.0257  -0.6576  -0.6034  -0.5473  -0.4212
 -0.4142
 -- Virtual --
  0.0333   0.0499   0.1195   0.1855   0.2025   0.2145   0.2170   0.2417
  0.2438   0.2480   0.2835   0.3583   0.3702   0.5990   0.6149   0.7394
  0.7959   0.8565   0.8688   0.9418   0.9631   1.0550   1.1284   1.1440
  1.1724   1.3848   1.4589   1.4961   1.5991   1.6099   1.6188   1.7896
  1.9299   1.9442   2.1845   2.2353   2.2622   2.3669   2.5701   2.7818
  2.8508   3.6341   3.7708   3.8166   3.8442   4.1951   4.2444   4.5974
  4.6838   4.6854   4.8609   4.9931   5.1302   5.1305   5.2476   5.2682
  5.3427   5.3968   5.4431   5.6207   5.6237   5.7676   6.0547   6.0757
  6.7833   6.9273   6.9610   6.9619   7.0548   7.1651   7.2626   7.3519
  7.3596   7.5397   7.5403   7.8055   8.0423  50.4273  50.4392
 --------------------------------------------------------------
 
          Ground-State Mulliken Net Atomic Charges

     Atom                 Charge (a.u.)
  ----------------------------------------
      1 H                     0.340275
      2 O                    -0.340322
      3 O                    -0.340429
      4 H                     0.340476
  ----------------------------------------
  Sum of atomic charges =     0.000000

 -----------------------------------------------------------------
                    Cartesian Multipole Moments
 -----------------------------------------------------------------
    Charge (ESU x 10^10)
                -0.0000
    Dipole Moment (Debye)
         X      -0.0002      Y      -0.0004      Z      -2.8154
       Tot       2.8154
    Quadrupole Moments (Debye-Ang)
        XX     -10.8706     XY      -3.1902     YY     -11.1080
        XZ       0.0019     YZ      -0.0015     ZZ     -11.7095
    Octopole Moments (Debye-Ang^2)
       XXX       0.0013    XXY      -0.0009    XYY       0.0008
       YYY      -0.0008    XXZ      -4.0899    XYZ       1.8289
       YYZ      -1.9906    XZZ      -0.0022    YZZ       0.0012
       ZZZ      -4.1011
    Hexadecapole Moments (Debye-Ang^3)
      XXXX     -44.7541   XXXY      -3.7808   XXYY      -9.4339
      XYYY      -2.0987   YYYY     -11.9613   XXXZ       0.0002
      XXYZ      -0.0012   XYYZ       0.0003   YYYZ       0.0003
      XXZZ     -10.1421   XYZZ      -1.0397   YYZZ      -3.6811
      XZZZ      -0.0001   YZZZ      -0.0006   ZZZZ     -12.7456
 -----------------------------------------------------------------
 Calculating analytic gradient of the SCF energy
 Gradient of CDS energy
            1           2           3           4
    1   0.0003000  -0.0002134   0.0002131  -0.0002997
    2  -0.0002685   0.0000948  -0.0000945   0.0002681
    3  -0.0002673   0.0002674   0.0002673  -0.0002674
 Gradient of SCF Energy
            1           2           3           4
    1   0.0034510  -0.0009503   0.0011086  -0.0036093
    2  -0.0088480   0.0107709  -0.0112142   0.0092913
    3  -0.0116157   0.0116058   0.0120534  -0.0120436
 Max gradient component =       1.205E-02
 RMS gradient           =       9.099E-03
 Computing fast CPCM-SWIG gradient
 Updating gradient with PCM contributions...
 -- total gradient after adding PCM contribution --
---------------------------------------------------
  Atom         X              Y              Z     
---------------------------------------------------
   1       0.000027      -0.000006      -0.000020
   2       0.000072       0.000015       0.000011
   3       0.000088      -0.000463       0.000446
   4      -0.000187       0.000454      -0.000437
---------------------------------------------------
 Number of fixed atoms: 0
 Gradient time:  CPU 8.82 s  wall 1.20 s
Dipole drv :
gprntSymmMtrx error report: 
 Final Hessian.
            1           2           3           4           5           6
    1   0.1036187  -0.0856657  -0.0825119  -0.0669701   0.0557701   0.0544673
    2  -0.0856657   0.2580305   0.2369466   0.0984243  -0.2652942  -0.2449124
    3  -0.0825119   0.2369466   0.2223927   0.0920550  -0.2429876  -0.2270806
    4  -0.0669701   0.0984243   0.0920550   0.3858356  -0.0731330  -0.0640105
    5   0.0557701  -0.2652942  -0.2429876  -0.0731330   0.3045909   0.2509534
    6   0.0544673  -0.2449124  -0.2270806  -0.0640105   0.2509534   0.2589607
    7  -0.0341587  -0.0136095  -0.0074999  -0.2847077  -0.0116819   0.0355445
    8   0.0290448   0.0089404   0.0055118  -0.0116820  -0.0482372   0.0024540
    9   0.0260013   0.0084949   0.0032186  -0.0355453  -0.0024540  -0.0350987
   10  -0.0024895   0.0008508  -0.0020436  -0.0341599   0.0290448  -0.0260009
   11   0.0008508  -0.0016765   0.0005293  -0.0136095   0.0089402  -0.0084951
   12   0.0020436  -0.0005293   0.0014690   0.0074987  -0.0055116   0.0032189
            7           8           9          10          11          12
    1  -0.0341587   0.0290448   0.0260013  -0.0024895   0.0008508   0.0020436
    2  -0.0136095   0.0089404   0.0084949   0.0008508  -0.0016765  -0.0005293
    3  -0.0074999   0.0055118   0.0032186  -0.0020436   0.0005293   0.0014690
    4  -0.2847077  -0.0116820  -0.0355453  -0.0341599  -0.0136095   0.0074987
    5  -0.0116819  -0.0482372  -0.0024540   0.0290448   0.0089402  -0.0055116
    6   0.0355445   0.0024540  -0.0350987  -0.0260009  -0.0084951   0.0032189
    7   0.3858378  -0.0731329   0.0640115  -0.0669694   0.0984244  -0.0920542
    8  -0.0731329   0.3045910  -0.2509534   0.0557702  -0.2652941   0.2429875
    9   0.0640115  -0.2509534   0.2589611  -0.0544673   0.2449124  -0.2270807
   10  -0.0669694   0.0557702  -0.0544673   0.1036185  -0.0856657   0.0825116
   11   0.0984244  -0.2652941   0.2449124  -0.0856657   0.2580304  -0.2369465
   12  -0.0920542   0.2429875  -0.2270807   0.0825116  -0.2369465   0.2223924
 ----------------------------------------------------------------
             Standard Nuclear Orientation (Angstroms)
    I     Atom           X                Y                Z
 ----------------------------------------------------------------
    1      H       0.9860017187    -0.6082515152    -0.5134500749
    2      O       0.7113545294     0.0695800667     0.1191259678
    3      O      -0.7113545438    -0.0695800699     0.1191259814
    4      H      -0.9860017042     0.6082515184    -0.5134500766
 ----------------------------------------------------------------
 Nuclear Repulsion Energy =          37.15643964 hartrees
 There are        9 alpha and        9 beta electrons
 old dipole drv.
            1           2           3           4           5           6
    1   0.3122506  -0.0584723  -0.0391571  -0.3122488   0.0584723   0.1881495
    2  -0.0340158   0.3743660  -0.0760649   0.0340160  -0.3743664   0.1355312
    3  -0.0223081  -0.0787282   0.3888333   0.0074596   0.1285088  -0.3888336
            7           8           9          10          11          12
    1  -0.3122530   0.0584724  -0.1881464   0.3122537  -0.0584723   0.0391567
    2   0.0340142  -0.3743663  -0.1355300  -0.0340145   0.3743660   0.0760648
    3  -0.0074540  -0.1285107  -0.3888280   0.0223135   0.0787263   0.3888353
 New transposed dipole drv.
            1           2           3
    1   0.3122506  -0.0340158  -0.0223081
    2  -0.0584723   0.3743660  -0.0787282
    3  -0.0391571  -0.0760649   0.3888333
    4  -0.3122488   0.0340160   0.0074596
    5   0.0584723  -0.3743664   0.1285088
    6   0.1881495   0.1355312  -0.3888336
    7  -0.3122530   0.0340142  -0.0074540
    8   0.0584724  -0.3743663  -0.1285107
    9  -0.1881464  -0.1355300  -0.3888280
   10   0.3122537  -0.0340145   0.0223135
   11  -0.0584723   0.3743660   0.0787263
   12   0.0391567   0.0760648   0.3888353
FINAL TENSOR RESULT:
Order 2, Length 12
    Atom      X          Y          Z
     1 Order 1, Length 12
    Atom      X          Y          Z
     1    1.036186962653480e-01  -8.566572273318189e-02  -8.251187074914298e-02
     2   -6.697014929006259e-02   5.577012152161327e-02   5.446734173654480e-02
     3   -3.415874514673911e-02   2.904481509268809e-02   2.600132100794748e-02
     4   -2.489459774891972e-03   8.507912234899057e-04   2.043597413083441e-03

Order 1, Length 12
    Atom      X          Y          Z
     1   -8.566572273318189e-02   2.580304738889308e-01   2.369466129831524e-01
     2    9.842429294190094e-02  -2.652941818455010e-01  -2.449124178471253e-01
     3   -1.360947212995615e-02   8.940371504147383e-03   8.494944108124167e-03
     4    8.507516875346393e-04  -1.676546100614339e-03  -5.292638876783487e-04

Order 1, Length 12
    Atom      X          Y          Z
     1   -8.251187074914298e-02   2.369466129831524e-01   2.223926720219647e-01
     2    9.205503205105442e-02  -2.429875749734844e-01  -2.270806108435009e-01
     3   -7.499864468907563e-03   5.511803041654230e-03   3.218591384302613e-03
     4   -2.043637942961011e-03   5.292914842139112e-04   1.469043171555569e-03


     2 Order 1, Length 12
    Atom      X          Y          Z
     1   -6.697014929006259e-02   9.842429294190094e-02   9.205503205105442e-02
     2    3.858356399561860e-01  -7.313296227437602e-02  -6.401049761542807e-02
     3   -2.847076609185760e-01  -1.168199274829558e-02  -3.554530475613127e-02
     4   -3.415990106360723e-02  -1.360945605548764e-02   7.498729431680269e-03

Order 1, Length 12
    Atom      X          Y          Z
     1    5.577012152161327e-02  -2.652941818455010e-01  -2.429875749734844e-01
     2   -7.313296227437602e-02   3.045909004766005e-01   2.509533586914722e-01
     3   -1.168192746882836e-02  -4.823715092679565e-02  -2.454044178671937e-03
     4    2.904480249595669e-02   8.940247273490746e-03  -5.511644486835743e-03

Order 1, Length 12
    Atom      X          Y          Z
     1    5.446734173654480e-02  -2.449124178471253e-01  -2.270806108435009e-01
     2   -6.401049761542807e-02   2.509533586914722e-01   2.589606995332608e-01
     3    3.554446630765381e-02   2.453999416512635e-03  -3.509871522149814e-02
     4   -2.600093224496240e-02  -8.495089088266431e-03   3.218920166818953e-03


     3 Order 1, Length 12
    Atom      X          Y          Z
     1   -3.415874514673911e-02  -1.360947212995615e-02  -7.499864468907563e-03
     2   -2.847076609185760e-01  -1.168192746882836e-02   3.554446630765381e-02
     3    3.858378403758527e-01  -7.313294850140983e-02   6.401149408826758e-02
     4   -6.696944459672183e-02   9.842440446846620e-02  -9.205420079187304e-02

Order 1, Length 12
    Atom      X          Y          Z
     1    2.904481509268809e-02   8.940371504147383e-03   5.511803041654230e-03
     2   -1.168199274829558e-02  -4.823715092679565e-02   2.453999416512635e-03
     3   -7.313294850140983e-02   3.045910457635330e-01  -2.509534297759586e-01
     4    5.577016382421772e-02  -2.652941368014525e-01   2.429875466658331e-01

Order 1, Length 12
    Atom      X          Y          Z
     1    2.600132100794748e-02   8.494944108124167e-03   3.218591384302613e-03
     2   -3.554530475613127e-02  -2.454044178671937e-03  -3.509871522149814e-02
     3    6.401149408826758e-02  -2.509534297759586e-01   2.589610892678096e-01
     4   -5.446728060364699e-02   2.449123963332921e-01  -2.270806774861659e-01


     4 Order 1, Length 12
    Atom      X          Y          Z
     1   -2.489459774891972e-03   8.507516875346393e-04  -2.043637942961011e-03
     2   -3.415990106360723e-02   2.904480249595669e-02  -2.600093224496240e-02
     3   -6.696944459672183e-02   5.577016382421772e-02  -5.446728060364699e-02
     4    1.036185450003377e-01  -8.566566134445967e-02   8.251160712613971e-02

Order 1, Length 12
    Atom      X          Y          Z
     1    8.507912234899057e-04  -1.676546100614339e-03   5.292914842139112e-04
     2   -1.360945605548764e-02   8.940247273490746e-03  -8.495089088266431e-03
     3    9.842440446846620e-02  -2.652941368014525e-01   2.449123963332921e-01
     4   -8.566566134445967e-02   2.580303736690603e-01  -2.369464884880540e-01

Order 1, Length 12
    Atom      X          Y          Z
     1    2.043597413083441e-03  -5.292638876783487e-04   1.469043171555569e-03
     2    7.498729431680269e-03  -5.511644486835743e-03   3.218920166818953e-03
     3   -9.205420079187304e-02   2.429875466658331e-01  -2.270806774861659e-01
     4    8.251160712613971e-02  -2.369464884880540e-01   2.223924368301428e-01




 # Finishing finite difference calculation for IDERIV #
 ######################################################
 ######################################################
 Requested basis set is 6-311++G(2df,2p)
 There are 28 shells and 88 basis functions
 **********************************************************************
 **                                                                  **
 **                       VIBRATIONAL ANALYSIS                       **
 **                       --------------------                       **
 **                                                                  **
 **        VIBRATIONAL FREQUENCIES (CM**-1) AND NORMAL MODES         **
 **     FORCE CONSTANTS (mDYN/ANGSTROM) AND REDUCED MASSES (AMU)     **
 **                  INFRARED INTENSITIES (KM/MOL)                   **
 **                                                                  **
 **********************************************************************
 

 Mode:                 1                      2                      3
 Frequency:       364.88                1017.71                1401.98
 Force Cnst:      0.0852                 9.2288                 1.3056
 Red. Mass:       1.0860                15.1234                 1.1274
 IR Active:          YES                    YES                    YES
 IR Intens:      240.840                  0.433                147.619
 Raman Active:       YES                    YES                    YES
               X      Y      Z        X      Y      Z        X      Y      Z
 H          0.037 -0.466  0.528   -0.009  0.082  0.149    0.682  0.156  0.080
 O          0.000  0.039 -0.033   -0.682 -0.073 -0.009   -0.043 -0.010 -0.045
 O         -0.000 -0.039 -0.033    0.682  0.073 -0.009   -0.043 -0.010  0.045
 H         -0.037  0.466  0.528    0.009 -0.082  0.149    0.682  0.156 -0.080
 TransDip   0.000 -0.000  0.497   -0.000 -0.000  0.021    0.386  0.048  0.000

 Mode:                 4                      5                      6
 Frequency:      1421.76                3777.20                3785.05
 Force Cnst:      1.2804                 8.9757                 9.0287
 Red. Mass:       1.0751                 1.0678                 1.0696
 IR Active:          YES                    YES                    YES
 IR Intens:        0.458                151.500                 84.171
 Raman Active:       YES                    YES                    YES
               X      Y      Z        X      Y      Z        X      Y      Z
 H          0.689  0.114  0.100   -0.194  0.496  0.463   -0.191  0.498  0.462
 O          0.007 -0.046 -0.006    0.012 -0.031 -0.030    0.014 -0.032 -0.029
 O         -0.007  0.046 -0.006    0.012 -0.031  0.030   -0.014  0.032 -0.029
 H         -0.689 -0.114  0.100   -0.194  0.496 -0.463    0.191 -0.498  0.462
 TransDip   0.000 -0.000  0.022   -0.230  0.320 -0.000   -0.000  0.000  0.294

 STANDARD THERMODYNAMIC QUANTITIES AT   298.15 K  AND     1.00 ATM

   This Molecule has  0 Imaginary Frequencies
   Zero point vibrational energy:       16.824 kcal/mol

   Atom    1 Element H  Has Mass    1.00783
   Atom    2 Element O  Has Mass   15.99491
   Atom    3 Element O  Has Mass   15.99491
   Atom    4 Element H  Has Mass    1.00783
   Molecular Mass:    34.005480 amu
   Principal axes and moments of inertia in amu*Bohr^2:
                             1           2           3
    Eigenvalues --        5.89669    67.54373    68.02125
          X               0.99976    -0.02170     0.00000
          Y               0.02170     0.99976     0.00000
          Z              -0.00000    -0.00000     1.00000
   Rotational Symmetry Number is   1
   The Molecule is an Asymmetric Top
   Translational Enthalpy:        0.889 kcal/mol
   Rotational Enthalpy:           0.889 kcal/mol
   Vibrational Enthalpy:         17.071 kcal/mol
   gas constant (RT):             0.592 kcal/mol
   Translational Entropy:        36.503  cal/mol.K
   Rotational Entropy:           17.944  cal/mol.K
   Vibrational Entropy:           1.223  cal/mol.K

   Total Enthalpy:               19.441 kcal/mol
   Total Entropy:                55.670  cal/mol.K
 Total job time:  181.88s(wall), 1374.95s(cpu) 
 Wed Jan 25 19:12:11 2023

        *************************************************************
        *                                                           *
        *  Thank you very much for using Q-Chem.  Have a nice day.  *
        *                                                           *
        *************************************************************


