
Running Job 1 of 1 Q_in.in
qchem Q_in.in_173943.0 /scratch/ari.fischer/qChem1854178.hpc-mn1/qchem173943/ 0
/usr/local/qchem-5.4.1/exe/qcprog.exe_s Q_in.in_173943.0 /scratch/ari.fischer/qChem1854178.hpc-mn1/qchem173943/
                  Welcome to Q-Chem
     A Quantum Leap Into The Future Of Chemistry


 Q-Chem 5.4, Q-Chem, Inc., Pleasanton, CA (2021)

 License issued to: Nanyang Technological University (site)

 E. Epifanovsky,  A. T. B. Gilbert,  Xintian Feng,  Joonho Lee,  Yuezhi Mao,  
 N. Mardirossian,  P. Pokhilko,  A. White,  M. Wormit,  M. P. Coons,  
 A. L. Dempwolff,  Zhengting Gan,  D. Hait,  P. R. Horn,  L. D. Jacobson,  
 I. Kaliman,  J. Kussmann,  A. W. Lange,  Ka Un Lao,  D. S. Levine,  Jie Liu,  
 S. C. McKenzie,  A. F. Morrison,  K. Nanda,  F. Plasser,  D. R. Rehn,  
 M. L. Vidal,  Zhi-Qiang You,  Ying Zhu,  B. Alam,  B. Albrecht,  
 A. Aldossary,  E. Alguire,  J. H. Andersen,  D. Barton,  K. Begam,  A. Behn,  
 Y. A. Bernard,  E. J. Berquist,  H. Burton,  A. Carreras,  K. Carter-Fenk,  
 R. Chakraborty,  A. D. Chien,  K. D. Closser,  V. Cofer-Shabica,  
 S. Dasgupta,  Jia Deng,  M. de Wergifosse,  M. Diedenhofen,  Hainam Do,  
 S. Ehlert,  Po-Tung Fang,  S. Fatehi,  Qingguo Feng,  T. Friedhoff,  
 J. Gayvert,  Qinghui Ge,  G. Gidofalvi,  M. Goldey,  J. Gomes,  
 C. Gonzalez-Espinoza,  S. Gulania,  A. Gunina,  M. W. D. Hanson-Heine,  
 P. H. P. Harbach,  A. W. Hauser,  M. F. Herbst,  M. Hernandez Vera,  
 M. Hodecker,  Z. C. Holden,  S. Houck,  Xunkun Huang,  Kerwin Hui,  
 B. C. Huynh,  M. Ivanov,  Hyunjun Ji,  Hanjie Jiang,  B. Kaduk,  S. Kaehler,  
 K. Khistyaev,  Jaehoon Kim,  P. Klunzinger,  Z. Koczor-Benda,  
 Joong Hoon Koh,  D. Kosenkov,  L. Koulias,  T. Kowalczyk,  C. M. Krauter,  
 K. Kue,  A. Kunitsa,  T. Kus,  A. Landau,  K. V. Lawler,  D. Lefrancois,  
 S. Lehtola,  Rain Li,  Yi-Pei Li,  Jiashu Liang,  M. Liebenthal,  
 Hung-Hsuan Lin,  You-Sheng Lin,  Fenglai Liu,  Kuan-Yu Liu,  
 M. Loipersberger,  A. Luenser,  A. Manjanath,  P. Manohar,  E. Mansoor,  
 S. F. Manzer,  Shan-Ping Mao,  A. V. Marenich,  T. Markovich,  S. Mason,  
 S. A. Maurer,  P. F. McLaughlin,  M. F. S. J. Menger,  J.-M. Mewes,  
 S. A. Mewes,  P. Morgante,  J. W. Mullinax,  K. J. Oosterbaan,  G. Paran,  
 Alexander C. Paul,  Suranjan K. Paul,  F. Pavosevic,  Zheng Pei,  S. Prager,  
 E. I. Proynov,  E. Ramos,  B. Rana,  A. E. Rask,  A. Rettig,  R. M. Richard,  
 F. Rob,  E. Rossomme,  T. Scheele,  M. Scheurer,  M. Schneider,  
 N. Sergueev,  S. M. Sharada,  W. Skomorowski,  D. W. Small,  C. J. Stein,  
 Yu-Chuan Su,  E. J. Sundstrom,  Zhen Tao,  J. Thirman,  T. Tsuchimochi,  
 N. M. Tubman,  S. P. Veccham,  O. Vydrov,  J. Wenzel,  J. Witte,  A. Yamada,  
 Kun Yao,  S. Yeganeh,  S. R. Yost,  A. Zech,  Igor Ying Zhang,  Xing Zhang,  
 Yu Zhang,  D. Zuev,  A. Aspuru-Guzik,  A. T. Bell,  N. A. Besley,  
 K. B. Bravaya,  B. R. Brooks,  D. Casanova,  Jeng-Da Chai,  S. Coriani,  
 C. J. Cramer,  A. E. DePrince, III,  R. A. DiStasio Jr.,  A. Dreuw,  
 B. D. Dunietz,  T. R. Furlani,  W. A. Goddard III,  S. Grimme,  
 S. Hammes-Schiffer,  T. Head-Gordon,  W. J. Hehre,  Chao-Ping Hsu,  
 T.-C. Jagau,  Yousung Jung,  A. Klamt,  Jing Kong,  D. S. Lambrecht,  
 WanZhen Liang,  N. J. Mayhall,  C. W. McCurdy,  J. B. Neaton,  
 C. Ochsenfeld,  J. A. Parkhill,  R. Peverati,  V. A. Rassolov,  Yihan Shao,  
 L. V. Slipchenko,  T. Stauch,  R. P. Steele,  J. E. Subotnik,  
 A. J. W. Thom,  A. Tkatchenko,  D. G. Truhlar,  T. Van Voorhis,  
 T. A. Wesolowski,  K. B. Whaley,  H. L. Woodcock III,  P. M. Zimmerman,  
 S. Faraji,  P. M. W. Gill,  M. Head-Gordon,  J. M. Herbert,  A. I. Krylov

 Additional authors for Version 5.4.1: 
 S. Kotaru,  Shaozhi Li,  Xiangyuan Li,  F. Matz,  A. Molle,  Haisheng Ren,  
 Yingli Su,  Hung-Yi Tsai,  C. Utku,  Fang Wang

 Contributors to earlier versions of Q-Chem not listed above: 
 R. D. Adamson,  B. Austin,  R. Baer,  J. Baker,  G. J. O. Beran,  
 K. Brandhorst,  S. T. Brown,  E. F. C. Byrd,  A. K. Chakraborty,  
 G. K. L. Chan,  Chun-Min Chang,  Yunqing Chen,  C.-L. Cheng,  
 Siu Hung Chien,  D. M. Chipman,  D. L. Crittenden,  H. Dachsel,  
 R. J. Doerksen,  A. D. Dutoi,  R. G. Edgar,  J. Fosso-Tande,  
 L. Fusti-Molnar,  D. Ghosh,  A. Ghysels,  A. Golubeva-Zadorozhnaya,  
 J. Gonthier,  M. S. Gordon,  S. R. Gwaltney,  G. Hawkins,  J. E. Herr,  
 A. Heyden,  S. Hirata,  E. G. Hohenstein,  G. Kedziora,  F. J. Keil,  
 C. Kelley,  Jihan Kim,  R. A. King,  R. Z. Khaliullin,  P. P. Korambath,  
 W. Kurlancheek,  A. Laurent,  A. M. Lee,  M. S. Lee,  S. V. Levchenko,  
 Ching Yeh Lin,  D. Liotard,  E. Livshits,  R. C. Lochan,  I. Lotan,  
 L. A. Martinez-Martinez,  P. E. Maslen,  N. Nair,  D. P. O'Neill,  
 D. Neuhauser,  E. Neuscamman,  C. M. Oana,  R. Olivares-Amaya,  R. Olson,  
 T. M. Perrine,  B. Peters,  P. A. Pieniazek,  A. Prociuk,  Y. M. Rhee,  
 J. Ritchie,  M. A. Rohrdanz,  E. Rosta,  N. J. Russ,  H. F. Schaefer III,  
 M. W. Schmidt,  N. E. Schultz,  S. Sharma,  N. Shenvi,  C. D. Sherrill,  
 A. C. Simmonett,  A. Sodt,  T. Stein,  D. Stuck,  K. S. Thanthiriwatte,  
 V. Vanovschi,  L. Vogt,  Tao Wang,  A. Warshel,  M. A. Watson,  
 C. F. Williams,  Q. Wu,  X. Xu,  Jun Yang,  W. Zhang,  Yan Zhao

 Please cite Q-Chem as follows:
 Y. Shao et al., Mol. Phys. 113, 184-215 (2015)
 DOI: 10.1080/00268976.2014.952696

 Q-Chem 5.4.1 for Intel X86 EM64T Linux

 Parts of Q-Chem use Armadillo 9.800.1 (Horizon Scraper).
 http://arma.sourceforge.net/

 Q-Chem begins on Thu Dec  7 16:04:20 2023  

 Host: 
0

     Scratch files written to /scratch/ari.fischer/qChem1854178.hpc-mn1/qchem173943//
 Aug1521 |scratch|qcdevops|jenkins|workspace|build_RNUM 8249   
 Processing $rem in /usr/local/qchem-5.4.1/config/preferences:
 Processing $rem in /home/ari.fischer/.qchemrc:
 Symmetry turned off for PCM/SM12/SMD calculation

 Checking the input file for inconsistencies... 	...done.

--------------------------------------------------------------
User input:
--------------------------------------------------------------
$molecule
-1 2
C         0.6332016938    0.2492218888    0.7584201423
O         1.4025855345   -0.2466265649    1.5928966321
H        -1.9375709960   -1.0123331655   -0.8866207339
C        -0.5876356319   -0.6521105713    0.4044916578
O        -0.8569532521   -1.6133086963    1.1906387653
O        -1.1874161180   -0.4200235349   -0.6924266891
O         0.6788790895    1.3139223991    0.1285257991
O        -1.4798178908    1.1120009332    2.5219901422
O        -2.4778756125    0.8597842175    1.6870392901
H        -1.6207131163   -2.1609506057    0.9312915941
$end

$rem
BASIS = 6-311++G(3df,2p)
JOB_TYPE = SP
METHOD = wB97M-V
SCF_ALGORITHM = DIIS_GDM
MAX_SCF_CYCLES = 400
SCF_CONVERGENCE = 7
THRESH = 12
Solvent_method = SMD
$end
--------------------------------------------------------------
 ----------------------------------------------------------------
             Standard Nuclear Orientation (Angstroms)
    I     Atom           X                Y                Z
 ----------------------------------------------------------------
    1      C       0.6332016938     0.2492218888     0.7584201423
    2      O       1.4025855345    -0.2466265649     1.5928966321
    3      H      -1.9375709960    -1.0123331655    -0.8866207339
    4      C      -0.5876356319    -0.6521105713     0.4044916578
    5      O      -0.8569532521    -1.6133086963     1.1906387653
    6      O      -1.1874161180    -0.4200235349    -0.6924266891
    7      O       0.6788790895     1.3139223991     0.1285257991
    8      O      -1.4798178908     1.1120009332     2.5219901422
    9      O      -2.4778756125     0.8597842175     1.6870392901
   10      H      -1.6207131163    -2.1609506057     0.9312915941
 ----------------------------------------------------------------
 Nuclear Repulsion Energy =         379.23554331 hartrees
 There are       32 alpha and       31 beta electrons
 Requested basis set is 6-311++G(3df,2p)
 There are 84 shells and 332 basis functions

 Total QAlloc Memory Limit 288000 MB
 Mega-Array Size       188 MB
 MEM_STATIC part       192 MB
 
 Citation of the SMD model:
 Marenich, A.V.; Cramer, C.J.; Truhlar, D.G.
 J. Phys. Chem. B 2009, 113, 6378-6396.
 iSolventCode=           1
 Solvent: water                                                           
 
 vradii
            1           2           3           4           5           6
    1   1.8500000   1.5200000   1.2000000   1.8500000   1.5200000   1.5200000
            7           8           9          10
    1   1.5200000   1.5200000   1.5200000   1.2000000
 Changing PCM_VDW_RADII to SMD_RADIUS
 Discretize the solute cavity surface with Lebedev spheres
	Using 110 Lebedev grid points for each H atom
	Using 194 Lebedev grid points for other atoms
	Atomic van der Waals radii will be scaled by 1.20
 Remove points where switching function is < 1.0e-08
 Keep 1045 surface tesserae and discard 727 interior tesserae
 Molecular Surface Area = 126.290 Angst**2

                       Distance Matrix (Angstroms)
             C (  1)   O (  2)   H (  3)   C (  4)   O (  5)   O (  6)
   O (  2)  1.238615
   H (  3)  3.302507  4.229771
   C (  4)  1.558239  2.353233  1.902382
   O (  5)  2.424128  2.671170  2.417419  1.270614
   O (  6)  2.422291  3.458450  0.975333  1.271547  2.253679
   O (  7)  1.237918  2.259081  3.645243  2.354889  3.472110  2.676488
   O (  8)  2.884340  3.319237  4.042395  2.896874  3.096412  3.572824
   O (  9)  3.303623  4.036209  3.228077  2.739299  2.998331  2.994170
   H ( 10)  3.304383  3.639051  2.173598  1.902989  0.974937  2.419718
             O (  7)   O (  8)   O (  9)
   O (  8)  3.229461
   O (  9)  3.549691  1.325472
   H ( 10)  4.243501  3.641756  3.229663
 
 A cutoff of  1.0D-12 yielded   3155 shell pairs
 There are     50149 function pairs (     65482 Cartesian)
 Smallest overlap matrix eigenvalue = 4.11E-05

 Scale SEOQF with 1.000000e-01/1.000000e-01/1.000000e-01

 Standard Electronic Orientation quadrupole field applied
 Nucleus-field energy     =    -0.0000000039 hartrees
 Guess from superposition of atomic densities
 Warning:  Energy on first SCF cycle will be non-variational
 SAD guess density has 62.000000 electrons

 -----------------------------------------------------------------------
  General SCF calculation program by
  Eric Jon Sundstrom, Paul Horn, Yuezhi Mao, Dmitri Zuev, Alec White,
  David Stuck, Shaama M.S., Shane Yost, Joonho Lee, David Small,
  Daniel Levine, Susi Lehtola, Hugh Burton, Evgeny Epifanovsky,
  Bang C. Huynh
 -----------------------------------------------------------------------
 Exchange:     0.1500 Hartree-Fock + 1.0000 wB97M-V + LR-HF
 Correlation:  1.0000 wB97M-V
 Using SG-2 standard quadrature grid
 Nonlocal Correlation:  VV10 with C = 0.0100 and b = 6.00 and scale = 1.00000
 Grid used for NLC:  SG-1 standard quadrature
 
 Citation of the SMD model:
 Marenich, A.V.; Cramer, C.J.; Truhlar, D.G.
 J. Phys. Chem. B 2009, 113, 6378-6396.
 iSolventCode=           1
 Solvent: water                                                           
 
 vradii
            1           2           3           4           5           6
    1   1.8500000   1.5200000   1.2000000   1.8500000   1.5200000   1.5200000
            7           8           9          10
    1   1.5200000   1.5200000   1.5200000   1.2000000
 using 4 threads for integral computing
 -------------------------------------------------------
 OpenMP Integral computing Module                
 Release: version 1.0, May 2013, Q-Chem Inc. Pittsburgh 
 -------------------------------------------------------
 -------------------------------------------------------
 OpenMP BLAS3 based DFT computing Module                
 Release: version 1.0, May 2013, Q-Chem Inc. Pittsburgh 
 -------------------------------------------------------
 A unrestricted SCF calculation will be
 performed using DIIS, GDM
 SCF converges when RMS gradient is below 1.0e-07
 ---------------------------------------
  Cycle       Energy         DIIS error
 ---------------------------------------
    1    -529.7139588695      1.30e-02  
    2    -528.5976501039      2.38e-03  Done DIIS. Switching to GDM
 ---------------------------------------
  Cycle       Energy        RMS Gradient
 ---------------------------------------
    1    -528.5976501039      1.65e-01   Descent step
    2    -528.8097351413      5.14e-02   Normal BFGS step
    3    -528.8455075077      6.76e-03   Normal BFGS step
    4    -528.8470357360      4.31e-03   Normal BFGS step
    5    -528.8474433941      8.98e-04   Normal BFGS step
    6    -528.8474597627      1.61e-03   Normal BFGS step
    7    -528.8474646336      6.25e-04   Normal BFGS step
    8    -528.8474664837      6.17e-04   Normal BFGS step
    9    -528.8474671865      6.16e-04   Normal BFGS step
   10    -528.8474684458      6.11e-04   Normal BFGS step
   11    -528.8474721998      5.93e-04   Normal BFGS step
   12    -528.8474784839      8.57e-04   Normal BFGS step
   13    -528.8474908825      1.38e-03   Normal BFGS step
   14    -528.8475078061      1.86e-03   Normal BFGS step
   15    -528.8475249962      1.76e-03   Normal BFGS step
   16    -528.8475372417      9.15e-04   Normal BFGS step
   17    -528.8475393975      4.55e-04   Normal BFGS step
   18    -528.8475403216      1.69e-04   Normal BFGS step
   19    -528.8475404576      1.00e-04   Normal BFGS step
   20    -528.8475405224      2.04e-05   Normal BFGS step
   21    -528.8475405299      1.04e-05   Normal BFGS step
   22    -528.8475405312      4.06e-06   Normal BFGS step
   23    -528.8475405313      2.08e-06   Normal BFGS step
   24    -528.8475405313      1.21e-06   Normal BFGS step
   25    -528.8475405313      6.21e-07   Normal BFGS step
   26    -528.8475405313      1.17e-07   Normal BFGS step
   27    -528.8475405313      1.02e-07   Normal BFGS step
   28    -528.8475405314      9.35e-08  Convergence criterion met
 ---------------------------------------
 SCF time:   CPU 1194.72s  wall 300.00s 
<S^2> =          0.755150522
(3)  G-ENP(liq) elect-nuc-pol free energy of system     -528.847540531 a.u.
(4)  G-CDS(liq) cavity-dispersion-solvent structure 
     free energy                                                5.1142 kcal/mol
(6)  G-S(liq) free energy of system                     -528.839390529 a.u.
 SCF   energy in the final basis set =     -528.8393905293
 Total energy in the final basis set =     -528.8393905293
 
 --------------------------------------------------------------
 
                    Orbital Energies (a.u.)
 --------------------------------------------------------------
 
 Alpha MOs
 -- Occupied --
-19.4379 -19.4375 -19.3377 -19.3374 -19.3065 -19.3064 -10.5491 -10.4745
 -1.3246  -1.2435  -1.2164  -1.1950  -1.1108  -0.8681  -0.8645  -0.7742
 -0.7108  -0.6370  -0.6298  -0.5743  -0.5543  -0.5415  -0.5359  -0.5240
 -0.5201  -0.5041  -0.4910  -0.3931  -0.3895  -0.3841  -0.3245  -0.2933
 -- Virtual --
  0.0098   0.0307   0.0605   0.0656   0.0841   0.0976   0.1064   0.1135
  0.1319   0.1489   0.1551   0.1683   0.1784   0.1805   0.2179   0.2211
  0.2393   0.2516   0.2574   0.2645   0.2762   0.2879   0.2978   0.3016
  0.3042   0.3117   0.3153   0.3281   0.3309   0.3400   0.3440   0.3540
  0.3584   0.3700   0.3744   0.3941   0.4010   0.4109   0.4217   0.4362
  0.4391   0.4551   0.4991   0.5071   0.5297   0.5651   0.5813   0.5920
  0.6063   0.6346   0.6737   0.6999   0.7066   0.7200   0.7541   0.7663
  0.7709   0.7821   0.7976   0.8302   0.8470   0.8827   0.8974   0.9089
  0.9555   0.9592   0.9794   0.9973   1.0021   1.0273   1.0421   1.0465
  1.0598   1.0639   1.0763   1.0776   1.1074   1.1165   1.1275   1.1363
  1.1398   1.1457   1.1630   1.1724   1.1833   1.1936   1.1998   1.2179
  1.2248   1.2325   1.2408   1.2615   1.2849   1.3005   1.3136   1.3431
  1.3617   1.3638   1.3962   1.4046   1.4202   1.4480   1.4815   1.4922
  1.5038   1.5276   1.5400   1.5610   1.5723   1.6678   1.6787   1.6917
  1.7091   1.7611   1.7775   1.7969   1.8370   1.8879   1.9100   1.9407
  1.9810   2.0309   2.0801   2.0835   2.1722   2.1923   2.2135   2.2451
  2.2949   2.3394   2.4117   2.5350   2.5469   2.5841   2.8084   2.8105
  2.8930   2.9119   2.9381   2.9676   3.0449   3.0543   3.0833   3.1005
  3.1775   3.1853   3.2159   3.2387   3.2768   3.3017   3.3417   3.3608
  3.3910   3.4503   3.4774   3.4808   3.5315   3.5477   3.5788   3.6044
  3.6181   3.6334   3.6563   3.6649   3.6795   3.7003   3.7138   3.7407
  3.7552   3.7916   3.8231   3.8498   3.8701   3.9097   3.9783   3.9910
  4.0137   4.0669   4.1078   4.1164   4.1749   4.1910   4.2568   4.3569
  4.3832   4.4299   4.5217   4.5627   4.7840   4.7916   4.8023   4.8083
  4.8143   4.8795   4.9619   5.0162   5.0480   5.1112   5.1194   5.1287
  5.1676   5.1840   5.1992   5.2094   5.2199   5.2308   5.2361   5.2497
  5.2776   5.2911   5.2982   5.3353   5.3547   5.3804   5.3921   5.4231
  5.4754   5.4917   5.5237   5.5596   5.5616   5.5830   5.6188   5.6217
  5.6389   5.6577   5.6652   5.6720   5.6736   5.6950   5.7265   5.7756
  5.8061   5.9086   5.9314   5.9795   6.1862   6.1976   6.2583   6.2998
  6.3861   6.4932   6.5528   6.5839   6.6328   6.7550   6.9924   7.0584
  7.1288   7.1847   7.3392   7.3952   7.4762   7.5065   7.5478   7.5712
  7.8239   7.8510   7.9365   8.0167   8.3591   8.6475  14.3142  14.3680
 14.4211  14.4420  14.4886  14.4973  14.5138  14.5329  14.5344  14.5410
 14.5612  14.5765  14.5866  14.6241  14.6719  14.6940  14.7058  14.7370
 14.7993  14.8338  14.8577  14.8663  14.9125  15.0886  15.1023  15.1568
 15.2749  15.4073  15.4220  15.7971  25.2808  25.5567  50.5375  50.7160
 50.7219  50.8827  50.9152  51.0723
 
 Beta MOs
 -- Occupied --
-19.4379 -19.4375 -19.3233 -19.3231 -19.3066 -19.3064 -10.5491 -10.4745
 -1.3246  -1.2435  -1.1953  -1.1869  -1.1109  -0.8680  -0.8222  -0.7742
 -0.7107  -0.6365  -0.6298  -0.5742  -0.5543  -0.5401  -0.5330  -0.5073
 -0.4994  -0.4767  -0.4372  -0.3928  -0.3892  -0.3839  -0.2742
 -- Virtual --
  0.0099   0.0308   0.0342   0.0608   0.0658   0.0845   0.0979   0.1069
  0.1145   0.1324   0.1490   0.1560   0.1687   0.1808   0.1835   0.2180
  0.2243   0.2410   0.2546   0.2595   0.2683   0.2783   0.2890   0.2997
  0.3022   0.3105   0.3157   0.3172   0.3291   0.3328   0.3406   0.3445
  0.3550   0.3623   0.3705   0.3747   0.3966   0.4015   0.4118   0.4266
  0.4370   0.4393   0.4562   0.4994   0.5077   0.5299   0.5654   0.5821
  0.5921   0.6064   0.6365   0.6738   0.7000   0.7069   0.7206   0.7553
  0.7664   0.7723   0.7823   0.7981   0.8305   0.8475   0.8847   0.9015
  0.9105   0.9590   0.9635   0.9840   1.0008   1.0057   1.0304   1.0442
  1.0502   1.0607   1.0674   1.0792   1.0827   1.1104   1.1254   1.1310
  1.1410   1.1504   1.1620   1.1704   1.1749   1.1849   1.1953   1.2021
  1.2192   1.2297   1.2406   1.2437   1.2650   1.2897   1.3011   1.3173
  1.3441   1.3626   1.3650   1.3999   1.4097   1.4225   1.4509   1.4830
  1.4933   1.5109   1.5281   1.5402   1.5639   1.5771   1.6684   1.6812
  1.6923   1.7115   1.7624   1.7786   1.7977   1.8399   1.8904   1.9112
  1.9420   1.9825   2.0319   2.0807   2.0873   2.1725   2.1926   2.2139
  2.2459   2.2953   2.3397   2.4130   2.5427   2.5537   2.5843   2.8087
  2.8107   2.8934   2.9121   2.9384   2.9678   3.0468   3.0560   3.0845
  3.1021   3.2011   3.2070   3.2173   3.2402   3.2787   3.3024   3.3466
  3.3627   3.3968   3.4520   3.4778   3.4854   3.5321   3.5494   3.5944
  3.6066   3.6255   3.6473   3.6744   3.6854   3.7038   3.7136   3.7347
  3.7436   3.7819   3.8095   3.8277   3.8510   3.8778   3.9118   3.9788
  3.9920   4.0144   4.0675   4.1085   4.1335   4.1753   4.1920   4.2569
  4.3571   4.3833   4.4301   4.5218   4.5629   4.8015   4.8090   4.8197
  4.8296   4.8366   4.8933   4.9636   5.0276   5.0497   5.1152   5.1507
  5.1605   5.1704   5.1939   5.2114   5.2209   5.2451   5.2554   5.2718
  5.2813   5.3088   5.3134   5.3234   5.3421   5.3581   5.3846   5.3943
  5.4257   5.4877   5.5036   5.5353   5.5617   5.5645   5.5834   5.6196
  5.6253   5.6424   5.6677   5.6743   5.6815   5.6873   5.7040   5.7316
  5.7762   5.8077   5.9108   5.9321   5.9981   6.1864   6.1978   6.2587
  6.2999   6.3861   6.4935   6.5542   6.6176   6.6419   6.7552   6.9925
  7.0585   7.1289   7.1848   7.3392   7.3952   7.4762   7.5065   7.5478
  7.5713   7.8244   7.8643   7.9365   8.0167   8.3591   8.6475  14.3898
 14.4179  14.4452  14.4617  14.5017  14.5288  14.5362  14.5669  14.5735
 14.5828  14.5962  14.6087  14.6253  14.6498  14.6760  14.6946  14.7066
 14.7379  14.8338  14.8637  14.8735  14.8835  14.9129  15.0886  15.1024
 15.1567  15.2750  15.4074  15.4220  15.8315  25.2808  25.5567  50.5482
 50.7215  50.7270  50.8828  50.9152  51.0723
 --------------------------------------------------------------
 
          Ground-State Mulliken Net Atomic Charges

     Atom                 Charge (a.u.)    Spin (a.u.)
  --------------------------------------------------------
      1 C                     0.952557      -0.001113
      2 O                    -0.807652      -0.001079
      3 H                     0.361461       0.000041
      4 C                     0.839973       0.000561
      5 O                    -0.471762       0.000918
      6 O                    -0.480472       0.000332
      7 O                    -0.809246       0.000355
      8 O                    -0.462998       0.503326
      9 O                    -0.482354       0.496758
     10 H                     0.360493      -0.000100
  --------------------------------------------------------
  Sum of atomic charges =    -1.000000
  Sum of spin   charges =     1.000000

 -----------------------------------------------------------------
                    Cartesian Multipole Moments
 -----------------------------------------------------------------
    Charge (ESU x 10^10)
                -4.8032
    Dipole Moment (Debye)
         X      -2.3631      Y     -13.1096      Z     -13.1965
       Tot      18.7508
    Quadrupole Moments (Debye-Ang)
        XX     -61.1159     XY      18.7103     YY     -47.8777
        XZ      11.7205     YZ      -8.8322     ZZ     -74.5345
    Octopole Moments (Debye-Ang^2)
       XXX      83.0759    XXY     -48.4058    XYY       9.6242
       YYY     -52.0455    XXZ     -96.4684    XYZ      23.1024
       YYZ     -56.9815    XZZ      46.5803    YZZ     -29.5417
       ZZZ    -204.6347
    Hexadecapole Moments (Debye-Ang^3)
      XXXX    -646.4799   XXXY     107.8373   XXYY    -134.1046
      XYYY      67.2863   YYYY    -278.0725   XXXZ     182.7462
      XXYZ     -58.2781   XYYZ      48.4045   YYYZ     -78.1180
      XXZZ    -270.9578   XYZZ      61.6936   YYZZ    -175.4010
      XZZZ     175.8298   YZZZ    -102.8396   ZZZZ    -730.1648
 -----------------------------------------------------------------
 Total job time:  301.48s(wall), 1197.21s(cpu) 
 Thu Dec  7 16:09:21 2023

        *************************************************************
        *                                                           *
        *  Thank you very much for using Q-Chem.  Have a nice day.  *
        *                                                           *
        *************************************************************


