
Running Job 1 of 1 Q_in.in
qchem Q_in.in_44020.0 /scratch/ari.fischer/qChem1789181.hpc-mn1/qchem44020/ 0
/usr/local/qchem-5.4.1/exe/qcprog.exe_s Q_in.in_44020.0 /scratch/ari.fischer/qChem1789181.hpc-mn1/qchem44020/
                  Welcome to Q-Chem
     A Quantum Leap Into The Future Of Chemistry


 Q-Chem 5.4, Q-Chem, Inc., Pleasanton, CA (2021)

 License issued to: Nanyang Technological University (site)

 E. Epifanovsky,  A. T. B. Gilbert,  Xintian Feng,  Joonho Lee,  Yuezhi Mao,  
 N. Mardirossian,  P. Pokhilko,  A. White,  M. Wormit,  M. P. Coons,  
 A. L. Dempwolff,  Zhengting Gan,  D. Hait,  P. R. Horn,  L. D. Jacobson,  
 I. Kaliman,  J. Kussmann,  A. W. Lange,  Ka Un Lao,  D. S. Levine,  Jie Liu,  
 S. C. McKenzie,  A. F. Morrison,  K. Nanda,  F. Plasser,  D. R. Rehn,  
 M. L. Vidal,  Zhi-Qiang You,  Ying Zhu,  B. Alam,  B. Albrecht,  
 A. Aldossary,  E. Alguire,  J. H. Andersen,  D. Barton,  K. Begam,  A. Behn,  
 Y. A. Bernard,  E. J. Berquist,  H. Burton,  A. Carreras,  K. Carter-Fenk,  
 R. Chakraborty,  A. D. Chien,  K. D. Closser,  V. Cofer-Shabica,  
 S. Dasgupta,  Jia Deng,  M. de Wergifosse,  M. Diedenhofen,  Hainam Do,  
 S. Ehlert,  Po-Tung Fang,  S. Fatehi,  Qingguo Feng,  T. Friedhoff,  
 J. Gayvert,  Qinghui Ge,  G. Gidofalvi,  M. Goldey,  J. Gomes,  
 C. Gonzalez-Espinoza,  S. Gulania,  A. Gunina,  M. W. D. Hanson-Heine,  
 P. H. P. Harbach,  A. W. Hauser,  M. F. Herbst,  M. Hernandez Vera,  
 M. Hodecker,  Z. C. Holden,  S. Houck,  Xunkun Huang,  Kerwin Hui,  
 B. C. Huynh,  M. Ivanov,  Hyunjun Ji,  Hanjie Jiang,  B. Kaduk,  S. Kaehler,  
 K. Khistyaev,  Jaehoon Kim,  P. Klunzinger,  Z. Koczor-Benda,  
 Joong Hoon Koh,  D. Kosenkov,  L. Koulias,  T. Kowalczyk,  C. M. Krauter,  
 K. Kue,  A. Kunitsa,  T. Kus,  A. Landau,  K. V. Lawler,  D. Lefrancois,  
 S. Lehtola,  Rain Li,  Yi-Pei Li,  Jiashu Liang,  M. Liebenthal,  
 Hung-Hsuan Lin,  You-Sheng Lin,  Fenglai Liu,  Kuan-Yu Liu,  
 M. Loipersberger,  A. Luenser,  A. Manjanath,  P. Manohar,  E. Mansoor,  
 S. F. Manzer,  Shan-Ping Mao,  A. V. Marenich,  T. Markovich,  S. Mason,  
 S. A. Maurer,  P. F. McLaughlin,  M. F. S. J. Menger,  J.-M. Mewes,  
 S. A. Mewes,  P. Morgante,  J. W. Mullinax,  K. J. Oosterbaan,  G. Paran,  
 Alexander C. Paul,  Suranjan K. Paul,  F. Pavosevic,  Zheng Pei,  S. Prager,  
 E. I. Proynov,  E. Ramos,  B. Rana,  A. E. Rask,  A. Rettig,  R. M. Richard,  
 F. Rob,  E. Rossomme,  T. Scheele,  M. Scheurer,  M. Schneider,  
 N. Sergueev,  S. M. Sharada,  W. Skomorowski,  D. W. Small,  C. J. Stein,  
 Yu-Chuan Su,  E. J. Sundstrom,  Zhen Tao,  J. Thirman,  T. Tsuchimochi,  
 N. M. Tubman,  S. P. Veccham,  O. Vydrov,  J. Wenzel,  J. Witte,  A. Yamada,  
 Kun Yao,  S. Yeganeh,  S. R. Yost,  A. Zech,  Igor Ying Zhang,  Xing Zhang,  
 Yu Zhang,  D. Zuev,  A. Aspuru-Guzik,  A. T. Bell,  N. A. Besley,  
 K. B. Bravaya,  B. R. Brooks,  D. Casanova,  Jeng-Da Chai,  S. Coriani,  
 C. J. Cramer,  A. E. DePrince, III,  R. A. DiStasio Jr.,  A. Dreuw,  
 B. D. Dunietz,  T. R. Furlani,  W. A. Goddard III,  S. Grimme,  
 S. Hammes-Schiffer,  T. Head-Gordon,  W. J. Hehre,  Chao-Ping Hsu,  
 T.-C. Jagau,  Yousung Jung,  A. Klamt,  Jing Kong,  D. S. Lambrecht,  
 WanZhen Liang,  N. J. Mayhall,  C. W. McCurdy,  J. B. Neaton,  
 C. Ochsenfeld,  J. A. Parkhill,  R. Peverati,  V. A. Rassolov,  Yihan Shao,  
 L. V. Slipchenko,  T. Stauch,  R. P. Steele,  J. E. Subotnik,  
 A. J. W. Thom,  A. Tkatchenko,  D. G. Truhlar,  T. Van Voorhis,  
 T. A. Wesolowski,  K. B. Whaley,  H. L. Woodcock III,  P. M. Zimmerman,  
 S. Faraji,  P. M. W. Gill,  M. Head-Gordon,  J. M. Herbert,  A. I. Krylov

 Additional authors for Version 5.4.1: 
 S. Kotaru,  Shaozhi Li,  Xiangyuan Li,  F. Matz,  A. Molle,  Haisheng Ren,  
 Yingli Su,  Hung-Yi Tsai,  C. Utku,  Fang Wang

 Contributors to earlier versions of Q-Chem not listed above: 
 R. D. Adamson,  B. Austin,  R. Baer,  J. Baker,  G. J. O. Beran,  
 K. Brandhorst,  S. T. Brown,  E. F. C. Byrd,  A. K. Chakraborty,  
 G. K. L. Chan,  Chun-Min Chang,  Yunqing Chen,  C.-L. Cheng,  
 Siu Hung Chien,  D. M. Chipman,  D. L. Crittenden,  H. Dachsel,  
 R. J. Doerksen,  A. D. Dutoi,  R. G. Edgar,  J. Fosso-Tande,  
 L. Fusti-Molnar,  D. Ghosh,  A. Ghysels,  A. Golubeva-Zadorozhnaya,  
 J. Gonthier,  M. S. Gordon,  S. R. Gwaltney,  G. Hawkins,  J. E. Herr,  
 A. Heyden,  S. Hirata,  E. G. Hohenstein,  G. Kedziora,  F. J. Keil,  
 C. Kelley,  Jihan Kim,  R. A. King,  R. Z. Khaliullin,  P. P. Korambath,  
 W. Kurlancheek,  A. Laurent,  A. M. Lee,  M. S. Lee,  S. V. Levchenko,  
 Ching Yeh Lin,  D. Liotard,  E. Livshits,  R. C. Lochan,  I. Lotan,  
 L. A. Martinez-Martinez,  P. E. Maslen,  N. Nair,  D. P. O'Neill,  
 D. Neuhauser,  E. Neuscamman,  C. M. Oana,  R. Olivares-Amaya,  R. Olson,  
 T. M. Perrine,  B. Peters,  P. A. Pieniazek,  A. Prociuk,  Y. M. Rhee,  
 J. Ritchie,  M. A. Rohrdanz,  E. Rosta,  N. J. Russ,  H. F. Schaefer III,  
 M. W. Schmidt,  N. E. Schultz,  S. Sharma,  N. Shenvi,  C. D. Sherrill,  
 A. C. Simmonett,  A. Sodt,  T. Stein,  D. Stuck,  K. S. Thanthiriwatte,  
 V. Vanovschi,  L. Vogt,  Tao Wang,  A. Warshel,  M. A. Watson,  
 C. F. Williams,  Q. Wu,  X. Xu,  Jun Yang,  W. Zhang,  Yan Zhao

 Please cite Q-Chem as follows:
 Y. Shao et al., Mol. Phys. 113, 184-215 (2015)
 DOI: 10.1080/00268976.2014.952696

 Q-Chem 5.4.1 for Intel X86 EM64T Linux

 Parts of Q-Chem use Armadillo 9.800.1 (Horizon Scraper).
 http://arma.sourceforge.net/

 Q-Chem begins on Mon Oct  2 18:30:57 2023  

 Host: 
0

     Scratch files written to /scratch/ari.fischer/qChem1789181.hpc-mn1/qchem44020//
 Aug1521 |scratch|qcdevops|jenkins|workspace|build_RNUM 8249   
 Processing $rem in /usr/local/qchem-5.4.1/config/preferences:
 Processing $rem in /home/ari.fischer/.qchemrc:
 Symmetry turned off for PCM/SM12/SMD calculation


!!********************************************.
!!******************Warning*******************.
!!Desired Analytical derivatives not available.
!!Finite difference job might take a long time.
!!********************************************.
!!********************************************.


 2-order derivative to be evaluated numerically with 1-order analytical derivatives

 Checking the input file for inconsistencies... 	...done.

--------------------------------------------------------------
User input:
--------------------------------------------------------------
$molecule
0 2
C         1.6339595570    0.6298880287   -1.7529351582
C         0.5047290790   -0.1586103868   -2.3877816017
O         0.9026161608   -1.5070129138   -2.3517700138
O         0.3279893345    0.3108408184   -3.7013313808
O         2.7586284754    0.6116984442   -2.5505421791
H         0.1186379270   -2.0574258864   -2.4581526708
H        -0.5554424583    0.0622694345   -3.9954950444
H         1.8278345278    0.2961245147   -0.7361703587
H        -0.4063339914   -0.0138652228   -1.8063718799
O         1.1172893180    2.0014340463   -1.6403479560
O         1.9600216742    2.7539882533   -0.9917959567
H         3.5300641960    0.8108456698   -2.0072477000
$end

$rem
BASIS = 6-311++G(2df,2p)
GUI = 2
JOB_TYPE = Frequency
METHOD = wB97M-V
SOLVENT_METHOD = SMD
SCF_ALGORITHM = DIIS_GDM
MAX_SCF_CYCLES = 400
SCF_CONVERGENCE = 7
THRESH = 12
$end
--------------------------------------------------------------
 ----------------------------------------------------------------
             Standard Nuclear Orientation (Angstroms)
    I     Atom           X                Y                Z
 ----------------------------------------------------------------
    1      C       1.6339595570     0.6298880287    -1.7529351582
    2      C       0.5047290790    -0.1586103868    -2.3877816017
    3      O       0.9026161608    -1.5070129138    -2.3517700138
    4      O       0.3279893345     0.3108408184    -3.7013313808
    5      O       2.7586284754     0.6116984442    -2.5505421791
    6      H       0.1186379270    -2.0574258864    -2.4581526708
    7      H      -0.5554424583     0.0622694345    -3.9954950444
    8      H       1.8278345278     0.2961245147    -0.7361703587
    9      H      -0.4063339914    -0.0138652228    -1.8063718799
   10      O       1.1172893180     2.0014340463    -1.6403479560
   11      O       1.9600216742     2.7539882533    -0.9917959567
   12      H       3.5300641960     0.8108456698    -2.0072477000
 ----------------------------------------------------------------
 Nuclear Repulsion Energy =         338.28572582 hartrees
 There are       29 alpha and       28 beta electrons
 Requested basis set is 6-311++G(2df,2p)
 There are 86 shells and 288 basis functions

 Total QAlloc Memory Limit 288000 MB
 Mega-Array Size       188 MB
 MEM_STATIC part       192 MB
 
 Citation of the SMD model:
 Marenich, A.V.; Cramer, C.J.; Truhlar, D.G.
 J. Phys. Chem. B 2009, 113, 6378-6396.
 iSolventCode=           1
 Solvent: water                                                           
 
 vradii
            1           2           3           4           5           6
    1   1.8500000   1.8500000   1.5200000   1.5200000   1.5200000   1.2000000
            7           8           9          10          11          12
    1   1.2000000   1.2000000   1.2000000   1.5200000   1.5200000   1.2000000
 Changing PCM_VDW_RADII to SMD_RADIUS
 Discretize the solute cavity surface with Lebedev spheres
	Using 110 Lebedev grid points for each H atom
	Using 194 Lebedev grid points for other atoms
	Atomic van der Waals radii will be scaled by 1.20
 Remove points where switching function is < 1.0e-08
 Keep 1027 surface tesserae and discard 881 interior tesserae
 Molecular Surface Area = 117.975 Angst**2

                       Distance Matrix (Angstroms)
             C (  1)   C (  2)   O (  3)   O (  4)   O (  5)   H (  6)
   C (  2)  1.516549
   O (  3)  2.336624  1.406343
   O (  4)  2.367192  1.406071  2.335830
   O (  5)  1.378908  2.387452  2.823691  2.706074
   H (  6)  3.164678  1.938948  0.963791  2.682910  3.755304
   H (  7)  3.185082  1.938426  2.700077  0.963728  3.656888  2.703870
   H (  8)  1.087564  2.164535  2.591813  3.322940  2.063470  3.380203
   H (  9)  2.140110  1.090424  2.059199  2.058042  3.310907  2.208292
   O ( 10)  1.469953  2.366364  3.586280  2.780063  2.335340  4.259161
   O ( 11)  2.279792  3.542581  4.596060  3.996759  2.767105  5.356361
   H ( 12)  1.921623  3.199579  3.520603  3.656940  0.964335  4.479746
             H (  7)   H (  8)   H (  9)   O ( 10)   O ( 11)
   H (  8)  4.044489
   H (  9)  2.195516  2.496584
   O ( 10)  3.479240  2.056816  2.531881
   O ( 11)  4.753432  2.474654  3.731513  1.302749
   H ( 12)  4.604873  2.185901  4.026876  2.715437  2.696661
 
 A cutoff of  1.0D-12 yielded   3470 shell pairs
 There are     39062 function pairs (     49079 Cartesian)
 Smallest overlap matrix eigenvalue = 4.82E-05
 Guess from superposition of atomic densities
 Warning:  Energy on first SCF cycle will be non-variational
 SAD guess density has 57.000000 electrons

 -----------------------------------------------------------------------
  General SCF calculation program by
  Eric Jon Sundstrom, Paul Horn, Yuezhi Mao, Dmitri Zuev, Alec White,
  David Stuck, Shaama M.S., Shane Yost, Joonho Lee, David Small,
  Daniel Levine, Susi Lehtola, Hugh Burton, Evgeny Epifanovsky,
  Bang C. Huynh
 -----------------------------------------------------------------------
 Exchange:     0.1500 Hartree-Fock + 1.0000 wB97M-V + LR-HF
 Correlation:  1.0000 wB97M-V
 Using SG-2 standard quadrature grid
 Nonlocal Correlation:  VV10 with C = 0.0100 and b = 6.00 and scale = 1.00000
 Grid used for NLC:  SG-1 standard quadrature
 using 8 threads for integral computing
 -------------------------------------------------------
 OpenMP Integral computing Module                
 Release: version 1.0, May 2013, Q-Chem Inc. Pittsburgh 
 -------------------------------------------------------
 
 Citation of the SMD model:
 Marenich, A.V.; Cramer, C.J.; Truhlar, D.G.
 J. Phys. Chem. B 2009, 113, 6378-6396.
 iSolventCode=           1
 Solvent: water                                                           
 
 vradii
            1           2           3           4           5           6
    1   1.8500000   1.8500000   1.5200000   1.5200000   1.5200000   1.2000000
            7           8           9          10          11          12
    1   1.2000000   1.2000000   1.2000000   1.5200000   1.5200000   1.2000000
 -------------------------------------------------------
 OpenMP BLAS3 based DFT computing Module                
 Release: version 1.0, May 2013, Q-Chem Inc. Pittsburgh 
 -------------------------------------------------------
 A unrestricted SCF calculation will be
 performed using DIIS, GDM
 SCF converges when RMS gradient is below 1.0e-07
 ---------------------------------------
  Cycle       Energy         DIIS error
 ---------------------------------------
    1    -456.3912655711      1.45e-02  
    2    -455.1088854445      2.13e-03  Done DIIS. Switching to GDM
 ---------------------------------------
  Cycle       Energy        RMS Gradient
 ---------------------------------------
    1    -455.1088854445      9.08e-02   Descent step
    2    -455.2393952942      1.93e-02   Normal BFGS step
    3    -455.2527644530      3.27e-02   Normal BFGS step
    4    -455.2550006372      8.59e-03   Normal BFGS step
    5    -455.2561489411      4.54e-03   Normal BFGS step
    6    -455.2562781570      4.02e-03   Normal BFGS step
    7    -455.2563356781      1.84e-03   Normal BFGS step
    8    -455.2563451672      4.60e-04   Normal BFGS step
    9    -455.2563472365      3.10e-04   Normal BFGS step
   10    -455.2563476165      2.90e-04   Normal BFGS step
   11    -455.2563477884      2.51e-04   Normal BFGS step
   12    -455.2563479887      1.55e-04   Normal BFGS step
   13    -455.2563481016      6.53e-05   Normal BFGS step
   14    -455.2563481528      2.70e-05   Normal BFGS step
   15    -455.2563481653      8.27e-06   Normal BFGS step
   16    -455.2563481676      3.28e-06   Normal BFGS step
   17    -455.2563481679      1.83e-06   Normal BFGS step
   18    -455.2563481679      5.54e-07   Normal BFGS step
   19    -455.2563481679      2.08e-07   Normal BFGS step
   20    -455.2563481679      1.10e-07   Normal BFGS step
   21    -455.2563481680      4.40e-08  Convergence criterion met
 ---------------------------------------
 SCF time:   CPU 789.00s  wall 100.00s 
<S^2> =          0.753841919
(3)  G-ENP(liq) elect-nuc-pol free energy of system     -455.256348168 a.u.
(4)  G-CDS(liq) cavity-dispersion-solvent structure 
     free energy                                                2.4995 kcal/mol
(6)  G-S(liq) free energy of system                     -455.252365039 a.u.
 SCF   energy in the final basis set =     -455.2523650386
 Total energy in the final basis set =     -455.2523650386
 
 --------------------------------------------------------------
 
                    Orbital Energies (a.u.)
 --------------------------------------------------------------
 
 Alpha MOs
 -- Occupied --
-19.4638 -19.4230 -19.3652 -19.3510 -19.3506 -10.4625 -10.4566  -1.3505
 -1.2159  -1.1869  -1.1424  -1.0157  -0.8575  -0.7462  -0.7023  -0.6773
 -0.6348  -0.6333  -0.6266  -0.5927  -0.5637  -0.5113  -0.5047  -0.4612
 -0.4544  -0.4252  -0.4170  -0.4033  -0.4031
 -- Virtual --
  0.0251   0.0412   0.0519   0.0564   0.0740   0.0951   0.1028   0.1233
  0.1289   0.1321   0.1442   0.1592   0.1651   0.1762   0.2075   0.2200
  0.2235   0.2365   0.2418   0.2507   0.2566   0.2711   0.2746   0.2836
  0.2879   0.2919   0.3001   0.3185   0.3239   0.3383   0.3408   0.3489
  0.3592   0.3612   0.3701   0.3825   0.3907   0.4036   0.4107   0.4334
  0.4406   0.4661   0.4841   0.4907   0.5555   0.5892   0.5984   0.6221
  0.6320   0.6527   0.6669   0.6920   0.6993   0.7078   0.7363   0.7809
  0.7956   0.8348   0.8665   0.8695   0.9058   0.9460   0.9619   1.0099
  1.0147   1.0541   1.0683   1.0969   1.1039   1.1205   1.1318   1.1496
  1.1535   1.1635   1.1729   1.1870   1.1969   1.2057   1.2194   1.2281
  1.2380   1.2425   1.2716   1.3107   1.3259   1.3527   1.3810   1.4184
  1.4465   1.4599   1.4706   1.5043   1.5289   1.5427   1.5646   1.5839
  1.6013   1.6061   1.6231   1.6555   1.6632   1.7112   1.7471   1.7724
  1.8043   1.8503   1.9142   1.9226   1.9355   1.9721   2.0545   2.0781
  2.1554   2.2132   2.2472   2.2681   2.3130   2.3268   2.3417   2.3561
  2.3834   2.4041   2.4355   2.4526   2.4855   2.5113   2.6399   2.7000
  2.7100   2.7837   2.8232   2.8637   2.9301   3.0111   3.1184   3.1830
  3.1928   3.2949   3.3115   3.3431   3.3665   3.4209   3.4486   3.4580
  3.5185   3.5564   3.5674   3.6054   3.6209   3.6594   3.6854   3.7462
  3.7727   3.8074   3.8323   3.8561   3.8589   3.8901   3.9212   4.0364
  4.0610   4.1029   4.1098   4.1792   4.2222   4.2629   4.2690   4.2871
  4.3177   4.3539   4.4160   4.4421   4.5298   4.5733   4.6461   4.6678
  4.7161   4.8340   4.8830   5.0210   5.0459   5.0773   5.0831   5.1503
  5.1727   5.1989   5.2087   5.2278   5.2365   5.2580   5.2749   5.2779
  5.2921   5.3180   5.3389   5.3518   5.3718   5.3867   5.4263   5.4609
  5.4752   5.5108   5.5580   5.5647   5.6088   5.6298   5.6512   5.6620
  5.6774   5.7402   5.7861   5.8456   6.0007   6.0562   6.0640   6.1181
  6.1920   6.3752   6.4667   6.5300   6.5911   6.6911   6.7264   6.8267
  6.8817   6.9458   7.0482   7.0522   7.1033   7.1441   7.1527   7.2078
  7.2343   7.2408   7.2721   7.2842   7.3394   7.3619   7.3748   7.3830
  7.4176   7.5013   7.5404   7.5840   7.7072   7.7555   7.7804   7.8240
  7.8403   7.8789   8.0502   8.1009  24.7013  24.8435  50.4144  50.5071
 50.5832  50.6031  50.6533
 
 Beta MOs
 -- Occupied --
-19.4538 -19.4039 -19.3650 -19.3510 -19.3505 -10.4629 -10.4566  -1.3249
 -1.2148  -1.1858  -1.1423  -0.9843  -0.8486  -0.7418  -0.6973  -0.6696
 -0.6308  -0.6192  -0.6125  -0.5562  -0.5454  -0.5105  -0.4895  -0.4561
 -0.4499  -0.4240  -0.4168  -0.3858
 -- Virtual --
 -0.0351   0.0255   0.0414   0.0521   0.0567   0.0744   0.0960   0.1035
  0.1243   0.1303   0.1331   0.1456   0.1594   0.1656   0.1790   0.2116
  0.2213   0.2259   0.2370   0.2433   0.2524   0.2647   0.2742   0.2754
  0.2860   0.2893   0.2924   0.3016   0.3188   0.3260   0.3411   0.3421
  0.3495   0.3601   0.3640   0.3705   0.3848   0.3923   0.4050   0.4119
  0.4337   0.4420   0.4670   0.4844   0.4913   0.5557   0.5896   0.5988
  0.6223   0.6328   0.6531   0.6672   0.6920   0.6995   0.7081   0.7370
  0.7818   0.7965   0.8364   0.8677   0.8703   0.9063   0.9466   0.9623
  1.0114   1.0162   1.0569   1.0711   1.1042   1.1215   1.1259   1.1341
  1.1549   1.1578   1.1685   1.1758   1.1953   1.2035   1.2169   1.2199
  1.2317   1.2414   1.2453   1.2740   1.3123   1.3276   1.3543   1.3868
  1.4219   1.4484   1.4624   1.4815   1.5068   1.5325   1.5477   1.5734
  1.5947   1.6059   1.6140   1.6363   1.6587   1.6691   1.7165   1.7603
  1.7752   1.8166   1.8557   1.9155   1.9250   1.9404   1.9747   2.0579
  2.0800   2.1614   2.2220   2.2535   2.2814   2.3199   2.3322   2.3442
  2.3585   2.3887   2.4054   2.4363   2.4549   2.4870   2.5123   2.6428
  2.7028   2.7153   2.7851   2.8241   2.8642   2.9302   3.0113   3.1194
  3.1836   3.1932   3.2956   3.3128   3.3430   3.3669   3.4217   3.4488
  3.4586   3.5188   3.5569   3.5672   3.6058   3.6206   3.6599   3.6856
  3.7467   3.7735   3.8081   3.8325   3.8562   3.8593   3.8903   3.9216
  4.0373   4.0619   4.1030   4.1100   4.1794   4.2228   4.2640   4.2698
  4.2873   4.3183   4.3545   4.4184   4.4425   4.5329   4.6042   4.6504
  4.6696   4.7354   4.8587   4.8939   5.0385   5.1233   5.1294   5.1392
  5.1800   5.1995   5.2088   5.2243   5.2387   5.2635   5.2663   5.2787
  5.2805   5.2973   5.3236   5.3445   5.3600   5.3844   5.3932   5.4301
  5.4672   5.4814   5.5172   5.5593   5.5704   5.6200   5.6320   5.6567
  5.6636   5.6811   5.7505   5.7975   5.8462   6.0039   6.0572   6.0677
  6.1191   6.1944   6.3876   6.5095   6.5347   6.6025   6.7024   6.7281
  6.9064   6.9609   7.0027   7.0536   7.0615   7.1299   7.1519   7.1716
  7.2256   7.2389   7.2484   7.2747   7.2878   7.3473   7.3651   7.3812
  7.4130   7.4442   7.5127   7.5478   7.5852   7.7091   7.7562   7.7869
  7.8250   7.8478   7.8800   8.0607   8.1218  24.7011  24.8434  50.4273
 50.5154  50.5836  50.6034  50.6539
 --------------------------------------------------------------
 
          Ground-State Mulliken Net Atomic Charges

     Atom                 Charge (a.u.)    Spin (a.u.)
  --------------------------------------------------------
      1 C                    -0.000230      -0.002395
      2 C                    -0.101800      -0.000922
      3 O                    -0.442951      -0.000044
      4 O                    -0.440279       0.002308
      5 O                    -0.408448       0.002608
      6 H                     0.342811      -0.000455
      7 H                     0.347901       0.000178
      8 H                     0.281238       0.005501
      9 H                     0.262080       0.000406
     10 O                     0.020604       0.306484
     11 O                    -0.219709       0.685907
     12 H                     0.358782       0.000424
  --------------------------------------------------------
  Sum of atomic charges =     0.000000
  Sum of spin   charges =     1.000000

 -----------------------------------------------------------------
                    Cartesian Multipole Moments
 -----------------------------------------------------------------
    Charge (ESU x 10^10)
                 0.0000
    Dipole Moment (Debye)
         X      -3.4980      Y      -3.6681      Z       1.9383
       Tot       5.4266
    Quadrupole Moments (Debye-Ang)
        XX     -36.4232     XY       0.7023     YY     -50.4357
        XZ      15.9025     YZ       7.4071     ZZ     -51.0691
    Octopole Moments (Debye-Ang^2)
       XXX    -127.3364    XXY     -20.1068    XYY     -75.8584
       YYY    -112.5597    XXZ      93.1208    XYZ      -5.6262
       YYZ     100.1371    XZZ    -116.1435    YZZ     -45.4421
       ZZZ     311.7118
    Hexadecapole Moments (Debye-Ang^3)
      XXXX    -467.9098   XXXY    -121.9116   XXYY    -228.5567
      XYYY    -190.7574   YYYY    -614.5918   XXXZ     284.4346
      XXYZ      14.8658   XYYZ     136.4956   YYYZ     145.5714
      XXZZ    -380.0288   XYZZ     -38.8622   YYZZ    -338.5808
      XZZZ     551.6390   YZZZ     158.2081   ZZZZ   -1545.5211
 -----------------------------------------------------------------
 Calculating analytic gradient of the SCF energy
 Gradient of CDS energy
            1           2           3           4           5           6
    1   0.0040086   0.0002035  -0.0006055   0.0005877  -0.0042123  -0.0001040
    2  -0.0001546  -0.0017247   0.0027083  -0.0008793   0.0001702  -0.0005156
    3  -0.0026160  -0.0020626  -0.0002329   0.0024716   0.0026763   0.0000427
            7           8           9          10          11          12
    1  -0.0003065   0.0000591  -0.0000988   0.0000948  -0.0001070   0.0004803
    2   0.0001180   0.0000371   0.0001279   0.0000732   0.0000657  -0.0000262
    3  -0.0004125   0.0001569   0.0000438  -0.0000636   0.0000039  -0.0000074
 Gradient of SCF Energy
            1           2           3           4           5           6
    1  -0.0061058   0.0133704   0.0217555   0.0229944  -0.0120120  -0.0188100
    2   0.0022378  -0.0001010   0.0098928   0.0078898  -0.0036391  -0.0086371
    3  -0.0057349  -0.0055391  -0.0012518   0.0023367  -0.0130779  -0.0008301
            7           8           9          10          11          12
    1  -0.0187299   0.0018377  -0.0128928   0.0006329  -0.0012501   0.0092096
    2  -0.0070064  -0.0027733  -0.0006002  -0.0003114   0.0019046   0.0011435
    3  -0.0015343   0.0092142   0.0067111  -0.0005754   0.0002160   0.0100656
 Max gradient component =       2.299E-02
 RMS gradient           =       9.302E-03
 Computing fast CPCM-SWIG gradient
 Updating gradient with PCM contributions...
 -- total gradient after adding PCM contribution --
---------------------------------------------------
  Atom         X              Y              Z     
---------------------------------------------------
   1      -0.000014      -0.000022       0.000026
   2      -0.000004      -0.000026       0.000020
   3      -0.000026       0.000016       0.000005
   4       0.000005       0.000045      -0.000002
   5       0.000036       0.000029      -0.000010
   6      -0.000022       0.000010       0.000018
   7       0.000013      -0.000035      -0.000022
   8       0.000001       0.000014      -0.000005
   9      -0.000008       0.000019      -0.000016
  10      -0.000055      -0.000036      -0.000051
  11       0.000065       0.000033       0.000020
  12       0.000008      -0.000046       0.000017
---------------------------------------------------
 Number of fixed atoms: 0
 Gradient time:  CPU 105.58 s  wall 16.65 s
 ######################################################
 ######################################################
 # Starting finite difference calculation for IDERIV  #
 Finite diff step size:  1.88973e-03 a.u.
 ----------------------------------------------------------------
             Standard Nuclear Orientation (Angstroms)
    I     Atom           X                Y                Z
 ----------------------------------------------------------------
    1      C       1.6349595570     0.6298880287    -1.7529351582
    2      C       0.5047290790    -0.1586103868    -2.3877816017
    3      O       0.9026161608    -1.5070129138    -2.3517700138
    4      O       0.3279893345     0.3108408184    -3.7013313808
    5      O       2.7586284754     0.6116984442    -2.5505421791
    6      H       0.1186379270    -2.0574258864    -2.4581526708
    7      H      -0.5554424583     0.0622694345    -3.9954950444
    8      H       1.8278345278     0.2961245147    -0.7361703587
    9      H      -0.4063339914    -0.0138652228    -1.8063718799
   10      O       1.1172893180     2.0014340463    -1.6403479560
   11      O       1.9600216742     2.7539882533    -0.9917959567
   12      H       3.5300641960     0.8108456698    -2.0072477000
 ----------------------------------------------------------------
 Nuclear Repulsion Energy =         338.28336531 hartrees
 There are       29 alpha and       28 beta electrons
 Discretize the solute cavity surface with Lebedev spheres
	Using 110 Lebedev grid points for each H atom
	Using 194 Lebedev grid points for other atoms
	Atomic van der Waals radii will be scaled by 1.20
 Remove points where switching function is < 1.0e-08
 Keep 1027 surface tesserae and discard 881 interior tesserae
 Molecular Surface Area = 117.971 Angst**2

                       Distance Matrix (Angstroms)
             C (  1)   C (  2)   O (  3)   O (  4)   O (  5)   H (  6)
   C (  2)  1.517294
   O (  3)  2.336937  1.406343
   O (  4)  2.367744  1.406071  2.335830
   O (  5)  1.378093  2.387452  2.823691  2.706074
   H (  6)  3.165157  1.938948  0.963791  2.682910  3.755304
   H (  7)  3.185769  1.938426  2.700077  0.963728  3.656888  2.703870
   H (  8)  1.087387  2.164535  2.591813  3.322940  2.063470  3.380203
   H (  9)  2.141064  1.090424  2.059199  2.058042  3.310907  2.208292
   O ( 10)  1.470305  2.366364  3.586280  2.780063  2.335340  4.259161
   O ( 11)  2.279649  3.542581  4.596060  3.996759  2.767105  5.356361
   H ( 12)  1.920636  3.199579  3.520603  3.656940  0.964335  4.479746
             H (  7)   H (  8)   H (  9)   O ( 10)   O ( 11)
   H (  8)  4.044489
   H (  9)  2.195516  2.496584
   O ( 10)  3.479240  2.056816  2.531881
   O ( 11)  4.753432  2.474654  3.731513  1.302749
   H ( 12)  4.604873  2.185901  4.026876  2.715437  2.696661
 
 Requested basis set is 6-311++G(2df,2p)
 There are 86 shells and 288 basis functions
 A cutoff of  1.0D-12 yielded   3470 shell pairs
 There are     39062 function pairs (     49079 Cartesian)
 Smallest overlap matrix eigenvalue = 4.83E-05
 Guess MOs from SCF MO coefficient file

 -----------------------------------------------------------------------
  General SCF calculation program by
  Eric Jon Sundstrom, Paul Horn, Yuezhi Mao, Dmitri Zuev, Alec White,
  David Stuck, Shaama M.S., Shane Yost, Joonho Lee, David Small,
  Daniel Levine, Susi Lehtola, Hugh Burton, Evgeny Epifanovsky,
  Bang C. Huynh
 -----------------------------------------------------------------------
 Exchange:     0.1500 Hartree-Fock + 1.0000 wB97M-V + LR-HF
 Correlation:  1.0000 wB97M-V
 Using SG-2 standard quadrature grid
 Nonlocal Correlation:  VV10 with C = 0.0100 and b = 6.00 and scale = 1.00000
 Grid used for NLC:  SG-1 standard quadrature
 
 Citation of the SMD model:
 Marenich, A.V.; Cramer, C.J.; Truhlar, D.G.
 J. Phys. Chem. B 2009, 113, 6378-6396.
 iSolventCode=           1
 Solvent: water                                                           
 
 vradii
            1           2           3           4           5           6
    1   1.8500000   1.8500000   1.5200000   1.5200000   1.5200000   1.2000000
            7           8           9          10          11          12
    1   1.2000000   1.2000000   1.2000000   1.5200000   1.5200000   1.2000000
 -------------------------------------------------------
 OpenMP BLAS3 based DFT computing Module                
 Release: version 1.0, May 2013, Q-Chem Inc. Pittsburgh 
 -------------------------------------------------------
 A unrestricted SCF calculation will be
 performed using Roothaan-Hall, DIIS, GDM
 SCF converges when RMS gradient is below 1.0e-07
 ---------------------------------------
  Cycle       Energy         DIIS error
 ---------------------------------------
    1    -455.2082261727      3.87e-04  Roothaan Step
 ---------------------------------------
  Cycle       Energy         DIIS error
 ---------------------------------------
    1    -455.2452164222      4.36e-04  
    2    -455.2534640605      3.17e-04  Done DIIS. Switching to GDM
 ---------------------------------------
  Cycle       Energy        RMS Gradient
 ---------------------------------------
    1    -455.2534640605      7.24e-03   Normal BFGS step
    2    -455.2537152147      1.07e-02   Normal BFGS step
    3    -455.2563085139      1.94e-03   Normal BFGS step
    4    -455.2563222913      3.26e-03   Normal BFGS step
    5    -455.2563532958      1.39e-04   Normal BFGS step
    6    -455.2563542538      1.83e-04   Normal BFGS step
    7    -455.2563547356      1.07e-04   Normal BFGS step
    8    -455.2563547770      6.93e-05   Normal BFGS step
    9    -455.2563548010      1.57e-05   Normal BFGS step
   10    -455.2563548053      4.28e-06   Normal BFGS step
   11    -455.2563548058      3.73e-06   Normal BFGS step
   12    -455.2563548058      3.12e-06   Normal BFGS step
   13    -455.2563548059      2.83e-06   Normal BFGS step
   14    -455.2563548059      2.23e-06   Normal BFGS step
   15    -455.2563548059      1.09e-06   Normal BFGS step
   16    -455.2563548059      3.19e-07   Normal BFGS step
   17    -455.2563548059      1.94e-07   Normal BFGS step
   18    -455.2563548059      7.14e-08  Convergence criterion met
 ---------------------------------------
 SCF time:   CPU 763.55s  wall 97.00s 
<S^2> =          0.753842922
(3)  G-ENP(liq) elect-nuc-pol free energy of system     -455.256354806 a.u.
(4)  G-CDS(liq) cavity-dispersion-solvent structure 
     free energy                                                2.5042 kcal/mol
(6)  G-S(liq) free energy of system                     -455.252364105 a.u.
 SCF   energy in the final basis set =     -455.2523641048
 Total energy in the final basis set =     -455.2523641048
 
 --------------------------------------------------------------
 
                    Orbital Energies (a.u.)
 --------------------------------------------------------------
 
 Alpha MOs
 -- Occupied --
-19.4637 -19.4229 -19.3653 -19.3509 -19.3506 -10.4625 -10.4566  -1.3504
 -1.2159  -1.1872  -1.1424  -1.0155  -0.8574  -0.7462  -0.7024  -0.6772
 -0.6348  -0.6333  -0.6266  -0.5927  -0.5637  -0.5113  -0.5048  -0.4611
 -0.4544  -0.4252  -0.4170  -0.4032  -0.4031
 -- Virtual --
  0.0252   0.0412   0.0519   0.0564   0.0740   0.0951   0.1028   0.1233
  0.1289   0.1321   0.1442   0.1592   0.1651   0.1761   0.2075   0.2199
  0.2235   0.2365   0.2418   0.2507   0.2566   0.2711   0.2747   0.2836
  0.2880   0.2919   0.3001   0.3185   0.3239   0.3383   0.3408   0.3488
  0.3592   0.3612   0.3701   0.3825   0.3907   0.4036   0.4107   0.4334
  0.4408   0.4661   0.4840   0.4907   0.5555   0.5891   0.5983   0.6221
  0.6321   0.6528   0.6670   0.6920   0.6993   0.7078   0.7364   0.7808
  0.7956   0.8348   0.8665   0.8695   0.9058   0.9460   0.9618   1.0099
  1.0147   1.0540   1.0683   1.0970   1.1038   1.1205   1.1318   1.1496
  1.1535   1.1634   1.1729   1.1870   1.1969   1.2057   1.2194   1.2280
  1.2380   1.2425   1.2717   1.3107   1.3259   1.3527   1.3810   1.4185
  1.4463   1.4598   1.4706   1.5043   1.5290   1.5427   1.5647   1.5839
  1.6012   1.6061   1.6231   1.6553   1.6630   1.7112   1.7471   1.7724
  1.8044   1.8505   1.9143   1.9225   1.9354   1.9721   2.0543   2.0782
  2.1554   2.2133   2.2473   2.2682   2.3131   2.3269   2.3417   2.3560
  2.3833   2.4040   2.4355   2.4527   2.4856   2.5113   2.6399   2.6998
  2.7101   2.7835   2.8230   2.8636   2.9302   3.0107   3.1183   3.1830
  3.1929   3.2948   3.3118   3.3433   3.3666   3.4208   3.4488   3.4578
  3.5186   3.5560   3.5672   3.6055   3.6210   3.6595   3.6855   3.7463
  3.7727   3.8072   3.8324   3.8563   3.8590   3.8901   3.9214   4.0364
  4.0610   4.1024   4.1093   4.1789   4.2220   4.2626   4.2685   4.2871
  4.3175   4.3536   4.4163   4.4421   4.5296   4.5732   4.6460   4.6678
  4.7161   4.8339   4.8829   5.0207   5.0460   5.0773   5.0831   5.1504
  5.1727   5.1989   5.2087   5.2278   5.2364   5.2580   5.2750   5.2780
  5.2921   5.3180   5.3388   5.3517   5.3720   5.3867   5.4263   5.4610
  5.4752   5.5110   5.5580   5.5647   5.6092   5.6298   5.6512   5.6620
  5.6775   5.7404   5.7862   5.8457   6.0013   6.0562   6.0649   6.1188
  6.1922   6.3746   6.4667   6.5299   6.5910   6.6926   6.7262   6.8271
  6.8818   6.9459   7.0482   7.0522   7.1033   7.1440   7.1527   7.2077
  7.2343   7.2409   7.2722   7.2844   7.3395   7.3619   7.3750   7.3830
  7.4176   7.5014   7.5403   7.5841   7.7071   7.7556   7.7804   7.8240
  7.8402   7.8789   8.0501   8.1009  24.7023  24.8427  50.4144  50.5071
 50.5833  50.6032  50.6534
 
 Beta MOs
 -- Occupied --
-19.4537 -19.4038 -19.3651 -19.3509 -19.3505 -10.4629 -10.4566  -1.3249
 -1.2149  -1.1861  -1.1423  -0.9841  -0.8485  -0.7418  -0.6974  -0.6695
 -0.6309  -0.6192  -0.6125  -0.5562  -0.5454  -0.5105  -0.4896  -0.4560
 -0.4500  -0.4240  -0.4168  -0.3858
 -- Virtual --
 -0.0351   0.0256   0.0414   0.0521   0.0567   0.0744   0.0960   0.1035
  0.1244   0.1303   0.1331   0.1456   0.1594   0.1656   0.1790   0.2116
  0.2214   0.2260   0.2370   0.2433   0.2525   0.2647   0.2741   0.2755
  0.2860   0.2894   0.2924   0.3016   0.3188   0.3260   0.3411   0.3421
  0.3494   0.3601   0.3640   0.3706   0.3848   0.3923   0.4050   0.4119
  0.4336   0.4422   0.4671   0.4844   0.4913   0.5557   0.5896   0.5987
  0.6223   0.6329   0.6531   0.6673   0.6920   0.6995   0.7080   0.7371
  0.7816   0.7966   0.8364   0.8677   0.8703   0.9063   0.9466   0.9622
  1.0114   1.0162   1.0568   1.0711   1.1042   1.1216   1.1259   1.1341
  1.1549   1.1578   1.1684   1.1758   1.1953   1.2035   1.2169   1.2199
  1.2316   1.2414   1.2454   1.2741   1.3123   1.3276   1.3542   1.3869
  1.4220   1.4483   1.4623   1.4815   1.5068   1.5326   1.5477   1.5734
  1.5947   1.6059   1.6139   1.6363   1.6586   1.6689   1.7166   1.7603
  1.7752   1.8167   1.8559   1.9156   1.9249   1.9404   1.9748   2.0578
  2.0801   2.1614   2.2220   2.2536   2.2815   2.3199   2.3324   2.3443
  2.3584   2.3886   2.4053   2.4362   2.4550   2.4871   2.5123   2.6428
  2.7027   2.7153   2.7849   2.8240   2.8642   2.9303   3.0110   3.1193
  3.1836   3.1933   3.2955   3.3131   3.3432   3.3669   3.4216   3.4490
  3.4584   3.5189   3.5564   3.5670   3.6058   3.6207   3.6600   3.6858
  3.7468   3.7734   3.8079   3.8326   3.8564   3.8594   3.8902   3.9217
  4.0372   4.0618   4.1025   4.1096   4.1791   4.2225   4.2637   4.2693
  4.2873   4.3181   4.3543   4.4187   4.4424   4.5327   4.6041   4.6503
  4.6695   4.7353   4.8586   4.8938   5.0382   5.1234   5.1294   5.1392
  5.1801   5.1995   5.2088   5.2242   5.2387   5.2636   5.2663   5.2787
  5.2806   5.2973   5.3236   5.3443   5.3599   5.3846   5.3931   5.4301
  5.4673   5.4814   5.5173   5.5593   5.5705   5.6203   5.6320   5.6567
  5.6637   5.6813   5.7507   5.7975   5.8462   6.0045   6.0572   6.0686
  6.1198   6.1946   6.3870   6.5095   6.5346   6.6024   6.7040   6.7280
  6.9066   6.9609   7.0028   7.0536   7.0615   7.1299   7.1518   7.1717
  7.2256   7.2389   7.2484   7.2747   7.2879   7.3474   7.3651   7.3813
  7.4131   7.4442   7.5128   7.5478   7.5853   7.7090   7.7563   7.7869
  7.8250   7.8477   7.8800   8.0606   8.1218  24.7021  24.8426  50.4274
 50.5154  50.5837  50.6034  50.6540
 --------------------------------------------------------------
 
          Ground-State Mulliken Net Atomic Charges

     Atom                 Charge (a.u.)    Spin (a.u.)
  --------------------------------------------------------
      1 C                    -0.000577      -0.002393
      2 C                    -0.101703      -0.000928
      3 O                    -0.442972      -0.000044
      4 O                    -0.440291       0.002308
      5 O                    -0.407895       0.002570
      6 H                     0.342784      -0.000455
      7 H                     0.347889       0.000178
      8 H                     0.281215       0.005482
      9 H                     0.262089       0.000408
     10 O                     0.020580       0.306611
     11 O                    -0.219927       0.685840
     12 H                     0.358808       0.000423
  --------------------------------------------------------
  Sum of atomic charges =     0.000000
  Sum of spin   charges =     1.000000

 -----------------------------------------------------------------
                    Cartesian Multipole Moments
 -----------------------------------------------------------------
    Charge (ESU x 10^10)
                 0.0000
    Dipole Moment (Debye)
         X      -3.4923      Y      -3.6698      Z       1.9357
       Tot       5.4232
    Quadrupole Moments (Debye-Ang)
        XX     -36.4019     XY       0.7014     YY     -50.4449
        XZ      15.8841     YZ       7.4055     ZZ     -51.0598
    Octopole Moments (Debye-Ang^2)
       XXX    -127.2778    XXY     -20.1039    XYY     -75.8737
       YYY    -112.5829    XXZ      93.0597    XYZ      -5.6342
       YYZ     100.1432    XZZ    -116.0945    YZZ     -45.4325
       ZZZ     311.6834
    Hexadecapole Moments (Debye-Ang^3)
      XXXX    -467.7603   XXXY    -121.9039   XXYY    -228.5869
      XYYY    -190.8107   YYYY    -614.6971   XXXZ     284.2605
      XXYZ      14.8380   XYYZ     136.4997   YYYZ     145.5758
      XXZZ    -379.8726   XYZZ     -38.8347   YYZZ    -338.5863
      XZZZ     551.4996   YZZZ     158.1717   ZZZZ   -1545.4415
 -----------------------------------------------------------------
 Calculating analytic gradient of the SCF energy
 Gradient of CDS energy
            1           2           3           4           5           6
    1   0.0040046   0.0002031  -0.0006061   0.0005871  -0.0042042  -0.0001040
    2  -0.0001547  -0.0017247   0.0027081  -0.0008795   0.0001697  -0.0005156
    3  -0.0026150  -0.0020622  -0.0002328   0.0024717   0.0026733   0.0000427
            7           8           9          10          11          12
    1  -0.0003065   0.0000582  -0.0000989   0.0000945  -0.0001072   0.0004793
    2   0.0001181   0.0000373   0.0001280   0.0000731   0.0000658  -0.0000256
    3  -0.0004125   0.0001568   0.0000438  -0.0000631   0.0000041  -0.0000068
 Gradient of SCF Energy
            1           2           3           4           5           6
    1  -0.0050587   0.0130615   0.0217646   0.0229754  -0.0123856  -0.0188060
    2   0.0023983  -0.0002137   0.0099025   0.0078924  -0.0036715  -0.0086279
    3  -0.0056101  -0.0056337  -0.0012417   0.0023220  -0.0129930  -0.0008285
            7           8           9          10          11          12
    1  -0.0187217   0.0017051  -0.0129179   0.0004690  -0.0012414   0.0091556
    2  -0.0070065  -0.0027699  -0.0006256  -0.0002501   0.0018280   0.0011441
    3  -0.0015334   0.0091133   0.0066878  -0.0006201   0.0002102   0.0101272
 Max gradient component =       2.298E-02
 RMS gradient           =       9.279E-03
 Computing fast CPCM-SWIG gradient
 Updating gradient with PCM contributions...
 -- total gradient after adding PCM contribution --
---------------------------------------------------
  Atom         X              Y              Z     
---------------------------------------------------
   1       0.001002       0.000131       0.000160
   2      -0.000301      -0.000142      -0.000083
   3      -0.000007       0.000032       0.000014
   4      -0.000003       0.000047      -0.000015
   5      -0.000318      -0.000005       0.000072
   6      -0.000024       0.000016       0.000019
   7       0.000015      -0.000036      -0.000022
   8      -0.000120       0.000022      -0.000106
   9      -0.000039      -0.000002      -0.000033
  10      -0.000220       0.000028      -0.000095
  11       0.000077      -0.000046       0.000013
  12      -0.000063      -0.000046       0.000076
---------------------------------------------------
 Number of fixed atoms: 0
 Gradient time:  CPU 104.14 s  wall 15.54 s
 ----------------------------------------------------------------
             Standard Nuclear Orientation (Angstroms)
    I     Atom           X                Y                Z
 ----------------------------------------------------------------
    1      C       1.6329595570     0.6298880287    -1.7529351582
    2      C       0.5047290790    -0.1586103868    -2.3877816017
    3      O       0.9026161608    -1.5070129138    -2.3517700138
    4      O       0.3279893345     0.3108408184    -3.7013313808
    5      O       2.7586284754     0.6116984442    -2.5505421791
    6      H       0.1186379270    -2.0574258864    -2.4581526708
    7      H      -0.5554424583     0.0622694345    -3.9954950444
    8      H       1.8278345278     0.2961245147    -0.7361703587
    9      H      -0.4063339914    -0.0138652228    -1.8063718799
   10      O       1.1172893180     2.0014340463    -1.6403479560
   11      O       1.9600216742     2.7539882533    -0.9917959567
   12      H       3.5300641960     0.8108456698    -2.0072477000
 ----------------------------------------------------------------
 Nuclear Repulsion Energy =         338.28809018 hartrees
 There are       29 alpha and       28 beta electrons
 Discretize the solute cavity surface with Lebedev spheres
	Using 110 Lebedev grid points for each H atom
	Using 194 Lebedev grid points for other atoms
	Atomic van der Waals radii will be scaled by 1.20
 Remove points where switching function is < 1.0e-08
 Keep 1027 surface tesserae and discard 881 interior tesserae
 Molecular Surface Area = 117.979 Angst**2

                       Distance Matrix (Angstroms)
             C (  1)   C (  2)   O (  3)   O (  4)   O (  5)   H (  6)
   C (  2)  1.515805
   O (  3)  2.336311  1.406343
   O (  4)  2.366640  1.406071  2.335830
   O (  5)  1.379724  2.387452  2.823691  2.706074
   H (  6)  3.164199  1.938948  0.963791  2.682910  3.755304
   H (  7)  3.184395  1.938426  2.700077  0.963728  3.656888  2.703870
   H (  8)  1.087743  2.164535  2.591813  3.322940  2.063470  3.380203
   H (  9)  2.139157  1.090424  2.059199  2.058042  3.310907  2.208292
   O ( 10)  1.469602  2.366364  3.586280  2.780063  2.335340  4.259161
   O ( 11)  2.279935  3.542581  4.596060  3.996759  2.767105  5.356361
   H ( 12)  1.922609  3.199579  3.520603  3.656940  0.964335  4.479746
             H (  7)   H (  8)   H (  9)   O ( 10)   O ( 11)
   H (  8)  4.044489
   H (  9)  2.195516  2.496584
   O ( 10)  3.479240  2.056816  2.531881
   O ( 11)  4.753432  2.474654  3.731513  1.302749
   H ( 12)  4.604873  2.185901  4.026876  2.715437  2.696661
 
 Requested basis set is 6-311++G(2df,2p)
 There are 86 shells and 288 basis functions
 A cutoff of  1.0D-12 yielded   3470 shell pairs
 There are     39062 function pairs (     49079 Cartesian)
 Smallest overlap matrix eigenvalue = 4.81E-05
 Guess MOs from SCF MO coefficient file

 -----------------------------------------------------------------------
  General SCF calculation program by
  Eric Jon Sundstrom, Paul Horn, Yuezhi Mao, Dmitri Zuev, Alec White,
  David Stuck, Shaama M.S., Shane Yost, Joonho Lee, David Small,
  Daniel Levine, Susi Lehtola, Hugh Burton, Evgeny Epifanovsky,
  Bang C. Huynh
 -----------------------------------------------------------------------
 Exchange:     0.1500 Hartree-Fock + 1.0000 wB97M-V + LR-HF
 Correlation:  1.0000 wB97M-V
 Using SG-2 standard quadrature grid
 Nonlocal Correlation:  VV10 with C = 0.0100 and b = 6.00 and scale = 1.00000
 Grid used for NLC:  SG-1 standard quadrature
 
 Citation of the SMD model:
 Marenich, A.V.; Cramer, C.J.; Truhlar, D.G.
 J. Phys. Chem. B 2009, 113, 6378-6396.
 iSolventCode=           1
 Solvent: water                                                           
 
 vradii
            1           2           3           4           5           6
    1   1.8500000   1.8500000   1.5200000   1.5200000   1.5200000   1.2000000
            7           8           9          10          11          12
    1   1.2000000   1.2000000   1.2000000   1.5200000   1.5200000   1.2000000
 -------------------------------------------------------
 OpenMP BLAS3 based DFT computing Module                
 Release: version 1.0, May 2013, Q-Chem Inc. Pittsburgh 
 -------------------------------------------------------
 A unrestricted SCF calculation will be
 performed using Roothaan-Hall, DIIS, GDM
 SCF converges when RMS gradient is below 1.0e-07
 ---------------------------------------
  Cycle       Energy         DIIS error
 ---------------------------------------
    1    -455.2081995200      3.87e-04  Roothaan Step
 ---------------------------------------
  Cycle       Energy         DIIS error
 ---------------------------------------
    1    -455.2451814056      4.37e-04  
    2    -455.2534236256      3.18e-04  Done DIIS. Switching to GDM
 ---------------------------------------
  Cycle       Energy        RMS Gradient
 ---------------------------------------
    1    -455.2534236256      7.40e-03   Normal BFGS step
    2    -455.2536652903      1.08e-02   Normal BFGS step
    3    -455.2562931033      1.96e-03   Normal BFGS step
    4    -455.2563067820      3.27e-03   Normal BFGS step
    5    -455.2563380895      1.58e-04   Normal BFGS step
    6    -455.2563390445      1.81e-04   Normal BFGS step
    7    -455.2563395238      1.05e-04   Normal BFGS step
    8    -455.2563395658      6.86e-05   Normal BFGS step
    9    -455.2563395921      3.31e-05   Normal BFGS step
   10    -455.2563395981      2.65e-05   Normal BFGS step
   11    -455.2563395996      2.26e-05   Normal BFGS step
   12    -455.2563396009      1.62e-05   Normal BFGS step
   13    -455.2563396021      7.14e-06   Normal BFGS step
   14    -455.2563396028      1.83e-06   Normal BFGS step
   15    -455.2563396029      8.06e-07   Normal BFGS step
   16    -455.2563396029      2.79e-07   Normal BFGS step
   17    -455.2563396029      1.49e-07   Normal BFGS step
   18    -455.2563396029      5.98e-08  Convergence criterion met
 ---------------------------------------
 SCF time:   CPU 765.52s  wall 97.00s 
<S^2> =          0.753840921
(3)  G-ENP(liq) elect-nuc-pol free energy of system     -455.256339603 a.u.
(4)  G-CDS(liq) cavity-dispersion-solvent structure 
     free energy                                                2.4947 kcal/mol
(6)  G-S(liq) free energy of system                     -455.252364051 a.u.
 SCF   energy in the final basis set =     -455.2523640512
 Total energy in the final basis set =     -455.2523640512
 
 --------------------------------------------------------------
 
                    Orbital Energies (a.u.)
 --------------------------------------------------------------
 
 Alpha MOs
 -- Occupied --
-19.4639 -19.4231 -19.3651 -19.3510 -19.3506 -10.4626 -10.4566  -1.3505
 -1.2158  -1.1867  -1.1424  -1.0158  -0.8577  -0.7462  -0.7022  -0.6773
 -0.6348  -0.6333  -0.6266  -0.5927  -0.5637  -0.5113  -0.5046  -0.4613
 -0.4543  -0.4252  -0.4170  -0.4033  -0.4032
 -- Virtual --
  0.0251   0.0412   0.0519   0.0564   0.0740   0.0951   0.1028   0.1233
  0.1288   0.1321   0.1442   0.1592   0.1651   0.1762   0.2075   0.2200
  0.2234   0.2365   0.2418   0.2506   0.2566   0.2712   0.2746   0.2835
  0.2879   0.2919   0.3001   0.3185   0.3240   0.3383   0.3408   0.3489
  0.3591   0.3612   0.3701   0.3826   0.3907   0.4036   0.4107   0.4335
  0.4405   0.4660   0.4841   0.4907   0.5555   0.5893   0.5985   0.6220
  0.6320   0.6527   0.6668   0.6920   0.6993   0.7079   0.7363   0.7810
  0.7956   0.8348   0.8664   0.8696   0.9058   0.9460   0.9619   1.0099
  1.0147   1.0541   1.0682   1.0968   1.1039   1.1205   1.1318   1.1496
  1.1535   1.1635   1.1729   1.1870   1.1969   1.2057   1.2194   1.2281
  1.2379   1.2425   1.2716   1.3108   1.3259   1.3527   1.3809   1.4184
  1.4466   1.4600   1.4706   1.5043   1.5289   1.5426   1.5646   1.5839
  1.6013   1.6061   1.6231   1.6556   1.6634   1.7111   1.7471   1.7723
  1.8042   1.8502   1.9142   1.9227   1.9356   1.9721   2.0546   2.0780
  2.1554   2.2132   2.2471   2.2680   2.3130   2.3266   2.3417   2.3561
  2.3835   2.4042   2.4356   2.4525   2.4854   2.5113   2.6399   2.7001
  2.7100   2.7838   2.8233   2.8638   2.9300   3.0114   3.1185   3.1831
  3.1927   3.2950   3.3112   3.3429   3.3664   3.4209   3.4484   3.4582
  3.5183   3.5568   3.5676   3.6054   3.6208   3.6593   3.6852   3.7461
  3.7728   3.8075   3.8323   3.8560   3.8588   3.8901   3.9211   4.0364
  4.0611   4.1034   4.1103   4.1795   4.2225   4.2633   4.2695   4.2871
  4.3178   4.3541   4.4156   4.4422   4.5300   4.5733   4.6462   4.6678
  4.7162   4.8342   4.8831   5.0213   5.0459   5.0772   5.0831   5.1503
  5.1727   5.1989   5.2088   5.2278   5.2365   5.2580   5.2748   5.2779
  5.2921   5.3180   5.3391   5.3519   5.3717   5.3867   5.4263   5.4608
  5.4752   5.5106   5.5580   5.5648   5.6083   5.6299   5.6512   5.6619
  5.6773   5.7400   5.7860   5.8455   6.0001   6.0562   6.0631   6.1174
  6.1919   6.3758   6.4667   6.5301   6.5913   6.6896   6.7265   6.8263
  6.8817   6.9458   7.0482   7.0522   7.1033   7.1442   7.1527   7.2079
  7.2343   7.2407   7.2721   7.2841   7.3393   7.3619   7.3747   7.3830
  7.4175   7.5012   7.5404   7.5838   7.7073   7.7555   7.7804   7.8240
  7.8403   7.8788   8.0503   8.1008  24.7003  24.8444  50.4143  50.5071
 50.5831  50.6031  50.6531
 
 Beta MOs
 -- Occupied --
-19.4538 -19.4040 -19.3649 -19.3510 -19.3505 -10.4629 -10.4566  -1.3250
 -1.2148  -1.1856  -1.1423  -0.9845  -0.8487  -0.7418  -0.6973  -0.6696
 -0.6308  -0.6193  -0.6125  -0.5562  -0.5454  -0.5106  -0.4895  -0.4562
 -0.4498  -0.4240  -0.4168  -0.3859
 -- Virtual --
 -0.0352   0.0255   0.0414   0.0521   0.0567   0.0744   0.0960   0.1036
  0.1243   0.1303   0.1331   0.1456   0.1594   0.1656   0.1790   0.2116
  0.2213   0.2259   0.2370   0.2433   0.2524   0.2647   0.2742   0.2754
  0.2860   0.2893   0.2924   0.3016   0.3188   0.3260   0.3411   0.3421
  0.3496   0.3600   0.3640   0.3705   0.3849   0.3923   0.4050   0.4119
  0.4337   0.4419   0.4670   0.4845   0.4913   0.5557   0.5897   0.5988
  0.6223   0.6328   0.6530   0.6671   0.6921   0.6995   0.7081   0.7370
  0.7819   0.7965   0.8364   0.8676   0.8703   0.9063   0.9466   0.9623
  1.0114   1.0162   1.0569   1.0710   1.1043   1.1215   1.1259   1.1341
  1.1548   1.1578   1.1685   1.1758   1.1953   1.2035   1.2169   1.2200
  1.2317   1.2414   1.2452   1.2740   1.3124   1.3276   1.3543   1.3867
  1.4219   1.4486   1.4625   1.4815   1.5068   1.5324   1.5476   1.5733
  1.5947   1.6058   1.6140   1.6363   1.6588   1.6693   1.7165   1.7604
  1.7751   1.8166   1.8556   1.9155   1.9250   1.9405   1.9747   2.0581
  2.0799   2.1614   2.2219   2.2534   2.2812   2.3198   2.3320   2.3442
  2.3585   2.3888   2.4055   2.4363   2.4548   2.4870   2.5123   2.6428
  2.7029   2.7153   2.7852   2.8243   2.8643   2.9301   3.0116   3.1195
  3.1836   3.1931   3.2957   3.3125   3.3428   3.3668   3.4217   3.4486
  3.4589   3.5187   3.5573   3.5675   3.6058   3.6205   3.6598   3.6855
  3.7466   3.7735   3.8082   3.8324   3.8561   3.8592   3.8903   3.9214
  4.0373   4.0619   4.1036   4.1105   4.1797   4.2231   4.2643   4.2703
  4.2873   4.3184   4.3548   4.4180   4.4425   4.5332   4.6042   4.6505
  4.6696   4.7355   4.8589   4.8940   5.0388   5.1233   5.1294   5.1391
  5.1800   5.1996   5.2088   5.2243   5.2386   5.2634   5.2664   5.2786
  5.2804   5.2972   5.3235   5.3446   5.3601   5.3843   5.3932   5.4302
  5.4671   5.4814   5.5170   5.5593   5.5704   5.6196   5.6320   5.6566
  5.6636   5.6809   5.7503   5.7975   5.8461   6.0034   6.0573   6.0667
  6.1184   6.1942   6.3882   6.5096   6.5348   6.6026   6.7008   6.7282
  6.9062   6.9609   7.0027   7.0535   7.0615   7.1299   7.1519   7.1716
  7.2257   7.2389   7.2483   7.2747   7.2876   7.3472   7.3651   7.3812
  7.4129   7.4441   7.5127   7.5479   7.5851   7.7092   7.7562   7.7869
  7.8250   7.8479   7.8800   8.0609   8.1217  24.7001  24.8443  50.4273
 50.5154  50.5835  50.6033  50.6537
 --------------------------------------------------------------
 
          Ground-State Mulliken Net Atomic Charges

     Atom                 Charge (a.u.)    Spin (a.u.)
  --------------------------------------------------------
      1 C                     0.000118      -0.002397
      2 C                    -0.101897      -0.000916
      3 O                    -0.442930      -0.000045
      4 O                    -0.440267       0.002308
      5 O                    -0.409000       0.002647
      6 H                     0.342837      -0.000454
      7 H                     0.347914       0.000177
      8 H                     0.281261       0.005521
      9 H                     0.262072       0.000405
     10 O                     0.020628       0.306357
     11 O                    -0.219490       0.685973
     12 H                     0.358756       0.000424
  --------------------------------------------------------
  Sum of atomic charges =     0.000000
  Sum of spin   charges =     1.000000

 -----------------------------------------------------------------
                    Cartesian Multipole Moments
 -----------------------------------------------------------------
    Charge (ESU x 10^10)
                 0.0000
    Dipole Moment (Debye)
         X      -3.5038      Y      -3.6663      Z       1.9409
       Tot       5.4300
    Quadrupole Moments (Debye-Ang)
        XX     -36.4446     XY       0.7031     YY     -50.4266
        XZ      15.9209     YZ       7.4087     ZZ     -51.0784
    Octopole Moments (Debye-Ang^2)
       XXX    -127.3949    XXY     -20.1096    XYY     -75.8431
       YYY    -112.5365    XXZ      93.1819    XYZ      -5.6183
       YYZ     100.1310    XZZ    -116.1925    YZZ     -45.4516
       ZZZ     311.7401
    Hexadecapole Moments (Debye-Ang^3)
      XXXX    -468.0591   XXXY    -121.9193   XXYY    -228.5264
      XYYY    -190.7042   YYYY    -614.4866   XXXZ     284.6085
      XXYZ      14.8936   XYYZ     136.4915   YYYZ     145.5672
      XXZZ    -380.1849   XYZZ     -38.8897   YYZZ    -338.5754
      XZZZ     551.7783   YZZZ     158.2444   ZZZZ   -1545.6005
 -----------------------------------------------------------------
 Calculating analytic gradient of the SCF energy
 Gradient of CDS energy
            1           2           3           4           5           6
    1   0.0040107   0.0002038  -0.0006049   0.0005884  -0.0042185  -0.0001040
    2  -0.0001546  -0.0017247   0.0027085  -0.0008792   0.0001707  -0.0005156
    3  -0.0026157  -0.0020630  -0.0002329   0.0024714   0.0026778   0.0000427
            7           8           9          10          11          12
    1  -0.0003065   0.0000600  -0.0000988   0.0000951  -0.0001067   0.0004813
    2   0.0001180   0.0000370   0.0001278   0.0000733   0.0000656  -0.0000269
    3  -0.0004125   0.0001569   0.0000438  -0.0000642   0.0000037  -0.0000080
 Gradient of SCF Energy
            1           2           3           4           5           6
    1  -0.0071541   0.0136803   0.0217464   0.0230135  -0.0116385  -0.0188139
    2   0.0020768   0.0000124   0.0098831   0.0078872  -0.0036068  -0.0086463
    3  -0.0058607  -0.0054439  -0.0012618   0.0023514  -0.0131629  -0.0008316
            7           8           9          10          11          12
    1  -0.0187382   0.0019704  -0.0128675   0.0007971  -0.0012588   0.0092633
    2  -0.0070062  -0.0027768  -0.0005747  -0.0003729   0.0019813   0.0011430
    3  -0.0015352   0.0093152   0.0067344  -0.0005305   0.0002217   0.0100041
 Max gradient component =       2.301E-02
 RMS gradient           =       9.329E-03
 Computing fast CPCM-SWIG gradient
 Updating gradient with PCM contributions...
 -- total gradient after adding PCM contribution --
---------------------------------------------------
  Atom         X              Y              Z     
---------------------------------------------------
   1      -0.001031      -0.000175      -0.000109
   2       0.000294       0.000091       0.000124
   3      -0.000045      -0.000001      -0.000005
   4       0.000014       0.000042       0.000012
   5       0.000390       0.000062      -0.000092
   6      -0.000020       0.000004       0.000016
   7       0.000012      -0.000034      -0.000023
   8       0.000123       0.000005       0.000097
   9       0.000023       0.000041      -0.000000
  10       0.000110      -0.000100      -0.000006
  11       0.000052       0.000112       0.000027
  12       0.000079      -0.000045      -0.000041
---------------------------------------------------
 Number of fixed atoms: 0
 Gradient time:  CPU 106.42 s  wall 15.77 s
 ----------------------------------------------------------------
             Standard Nuclear Orientation (Angstroms)
    I     Atom           X                Y                Z
 ----------------------------------------------------------------
    1      C       1.6339595570     0.6308880287    -1.7529351582
    2      C       0.5047290790    -0.1586103868    -2.3877816017
    3      O       0.9026161608    -1.5070129138    -2.3517700138
    4      O       0.3279893345     0.3108408184    -3.7013313808
    5      O       2.7586284754     0.6116984442    -2.5505421791
    6      H       0.1186379270    -2.0574258864    -2.4581526708
    7      H      -0.5554424583     0.0622694345    -3.9954950444
    8      H       1.8278345278     0.2961245147    -0.7361703587
    9      H      -0.4063339914    -0.0138652228    -1.8063718799
   10      O       1.1172893180     2.0014340463    -1.6403479560
   11      O       1.9600216742     2.7539882533    -0.9917959567
   12      H       3.5300641960     0.8108456698    -2.0072477000
 ----------------------------------------------------------------
 Nuclear Repulsion Energy =         338.29062503 hartrees
 There are       29 alpha and       28 beta electrons
 Discretize the solute cavity surface with Lebedev spheres
	Using 110 Lebedev grid points for each H atom
	Using 194 Lebedev grid points for other atoms
	Atomic van der Waals radii will be scaled by 1.20
 Remove points where switching function is < 1.0e-08
 Keep 1027 surface tesserae and discard 881 interior tesserae
 Molecular Surface Area = 117.973 Angst**2

                       Distance Matrix (Angstroms)
             C (  1)   C (  2)   O (  3)   O (  4)   O (  5)   H (  6)
   C (  2)  1.517069
   O (  3)  2.337539  1.406343
   O (  4)  2.367327  1.406071  2.335830
   O (  5)  1.378922  2.387452  2.823691  2.706074
   H (  6)  3.165527  1.938948  0.963791  2.682910  3.755304
   H (  7)  3.185260  1.938426  2.700077  0.963728  3.656888  2.703870
   H (  8)  1.087872  2.164535  2.591813  3.322940  2.063470  3.380203
   H (  9)  2.140411  1.090424  2.059199  2.058042  3.310907  2.208292
   O ( 10)  1.469020  2.366364  3.586280  2.780063  2.335340  4.259161
   O ( 11)  2.278860  3.542581  4.596060  3.996759  2.767105  5.356361
   H ( 12)  1.921529  3.199579  3.520603  3.656940  0.964335  4.479746
             H (  7)   H (  8)   H (  9)   O ( 10)   O ( 11)
   H (  8)  4.044489
   H (  9)  2.195516  2.496584
   O ( 10)  3.479240  2.056816  2.531881
   O ( 11)  4.753432  2.474654  3.731513  1.302749
   H ( 12)  4.604873  2.185901  4.026876  2.715437  2.696661
 
 Requested basis set is 6-311++G(2df,2p)
 There are 86 shells and 288 basis functions
 A cutoff of  1.0D-12 yielded   3470 shell pairs
 There are     39062 function pairs (     49079 Cartesian)
 Smallest overlap matrix eigenvalue = 4.82E-05
 Guess MOs from SCF MO coefficient file

 -----------------------------------------------------------------------
  General SCF calculation program by
  Eric Jon Sundstrom, Paul Horn, Yuezhi Mao, Dmitri Zuev, Alec White,
  David Stuck, Shaama M.S., Shane Yost, Joonho Lee, David Small,
  Daniel Levine, Susi Lehtola, Hugh Burton, Evgeny Epifanovsky,
  Bang C. Huynh
 -----------------------------------------------------------------------
 Exchange:     0.1500 Hartree-Fock + 1.0000 wB97M-V + LR-HF
 Correlation:  1.0000 wB97M-V
 Using SG-2 standard quadrature grid
 Nonlocal Correlation:  VV10 with C = 0.0100 and b = 6.00 and scale = 1.00000
 Grid used for NLC:  SG-1 standard quadrature
 
 Citation of the SMD model:
 Marenich, A.V.; Cramer, C.J.; Truhlar, D.G.
 J. Phys. Chem. B 2009, 113, 6378-6396.
 iSolventCode=           1
 Solvent: water                                                           
 
 vradii
            1           2           3           4           5           6
    1   1.8500000   1.8500000   1.5200000   1.5200000   1.5200000   1.2000000
            7           8           9          10          11          12
    1   1.2000000   1.2000000   1.2000000   1.5200000   1.5200000   1.2000000
 -------------------------------------------------------
 OpenMP BLAS3 based DFT computing Module                
 Release: version 1.0, May 2013, Q-Chem Inc. Pittsburgh 
 -------------------------------------------------------
 A unrestricted SCF calculation will be
 performed using Roothaan-Hall, DIIS, GDM
 SCF converges when RMS gradient is below 1.0e-07
 ---------------------------------------
  Cycle       Energy         DIIS error
 ---------------------------------------
    1    -455.2082099056      3.87e-04  Roothaan Step
 ---------------------------------------
  Cycle       Energy         DIIS error
 ---------------------------------------
    1    -455.2452032971      4.37e-04  
    2    -455.2534514050      3.17e-04  Done DIIS. Switching to GDM
 ---------------------------------------
  Cycle       Energy        RMS Gradient
 ---------------------------------------
    1    -455.2534514050      7.28e-03   Normal BFGS step
    2    -455.2536971007      1.08e-02   Normal BFGS step
    3    -455.2563006240      1.97e-03   Normal BFGS step
    4    -455.2563142741      3.27e-03   Normal BFGS step
    5    -455.2563456965      1.49e-04   Normal BFGS step
    6    -455.2563466485      1.79e-04   Normal BFGS step
    7    -455.2563471260      1.04e-04   Normal BFGS step
    8    -455.2563471654      6.77e-05   Normal BFGS step
    9    -455.2563471884      1.63e-05   Normal BFGS step
   10    -455.2563471926      2.91e-06   Normal BFGS step
   11    -455.2563471931      1.16e-06   Normal BFGS step
   12    -455.2563471931      8.32e-07   Normal BFGS step
   13    -455.2563471931      7.16e-07   Normal BFGS step
   14    -455.2563471931      6.42e-07   Normal BFGS step
   15    -455.2563471931      5.60e-07   Normal BFGS step
   16    -455.2563471931      3.53e-07   Normal BFGS step
   17    -455.2563471931      1.86e-07   Normal BFGS step
   18    -455.2563471931      9.29e-08  Convergence criterion met
 ---------------------------------------
 SCF time:   CPU 746.95s  wall 95.00s 
<S^2> =          0.753839403
(3)  G-ENP(liq) elect-nuc-pol free energy of system     -455.256347193 a.u.
(4)  G-CDS(liq) cavity-dispersion-solvent structure 
     free energy                                                2.4993 kcal/mol
(6)  G-S(liq) free energy of system                     -455.252364358 a.u.
 SCF   energy in the final basis set =     -455.2523643584
 Total energy in the final basis set =     -455.2523643584
 
 --------------------------------------------------------------
 
                    Orbital Energies (a.u.)
 --------------------------------------------------------------
 
 Alpha MOs
 -- Occupied --
-19.4639 -19.4231 -19.3651 -19.3510 -19.3505 -10.4625 -10.4566  -1.3507
 -1.2158  -1.1869  -1.1424  -1.0159  -0.8574  -0.7462  -0.7023  -0.6773
 -0.6349  -0.6334  -0.6267  -0.5927  -0.5637  -0.5112  -0.5047  -0.4611
 -0.4543  -0.4252  -0.4170  -0.4034  -0.4032
 -- Virtual --
  0.0252   0.0412   0.0519   0.0564   0.0740   0.0951   0.1028   0.1233
  0.1289   0.1321   0.1442   0.1592   0.1651   0.1762   0.2076   0.2200
  0.2235   0.2365   0.2418   0.2507   0.2566   0.2711   0.2747   0.2836
  0.2879   0.2919   0.3002   0.3185   0.3239   0.3383   0.3408   0.3489
  0.3592   0.3612   0.3701   0.3825   0.3907   0.4035   0.4108   0.4334
  0.4406   0.4660   0.4840   0.4907   0.5555   0.5893   0.5984   0.6221
  0.6320   0.6527   0.6670   0.6920   0.6993   0.7078   0.7363   0.7808
  0.7955   0.8347   0.8665   0.8695   0.9058   0.9460   0.9619   1.0099
  1.0147   1.0541   1.0682   1.0968   1.1039   1.1205   1.1318   1.1496
  1.1535   1.1634   1.1729   1.1870   1.1968   1.2057   1.2194   1.2281
  1.2380   1.2425   1.2716   1.3106   1.3259   1.3526   1.3808   1.4184
  1.4465   1.4599   1.4707   1.5043   1.5289   1.5426   1.5646   1.5838
  1.6012   1.6061   1.6231   1.6556   1.6632   1.7112   1.7470   1.7724
  1.8043   1.8502   1.9143   1.9226   1.9356   1.9720   2.0547   2.0781
  2.1556   2.2132   2.2473   2.2682   2.3131   2.3269   2.3419   2.3561
  2.3835   2.4043   2.4355   2.4527   2.4856   2.5114   2.6401   2.7001
  2.7100   2.7833   2.8232   2.8636   2.9300   3.0112   3.1183   3.1831
  3.1929   3.2948   3.3118   3.3432   3.3668   3.4211   3.4487   3.4581
  3.5183   3.5564   3.5675   3.6056   3.6210   3.6594   3.6851   3.7463
  3.7729   3.8076   3.8322   3.8560   3.8588   3.8901   3.9211   4.0364
  4.0609   4.1026   4.1093   4.1791   4.2222   4.2630   4.2686   4.2871
  4.3175   4.3538   4.4155   4.4417   4.5292   4.5732   4.6459   4.6676
  4.7161   4.8342   4.8831   5.0212   5.0459   5.0772   5.0832   5.1503
  5.1728   5.1989   5.2087   5.2278   5.2364   5.2581   5.2749   5.2779
  5.2920   5.3180   5.3388   5.3520   5.3719   5.3866   5.4264   5.4612
  5.4752   5.5106   5.5580   5.5646   5.6089   5.6299   5.6512   5.6619
  5.6773   5.7406   5.7865   5.8456   6.0013   6.0562   6.0645   6.1177
  6.1924   6.3766   6.4667   6.5299   6.5913   6.6911   6.7264   6.8267
  6.8818   6.9458   7.0482   7.0522   7.1034   7.1441   7.1529   7.2080
  7.2343   7.2408   7.2722   7.2842   7.3395   7.3620   7.3748   7.3831
  7.4177   7.5015   7.5404   7.5839   7.7072   7.7556   7.7804   7.8240
  7.8406   7.8789   8.0503   8.1010  24.7019  24.8428  50.4144  50.5071
 50.5832  50.6031  50.6533
 
 Beta MOs
 -- Occupied --
-19.4539 -19.4040 -19.3650 -19.3510 -19.3505 -10.4629 -10.4566  -1.3251
 -1.2148  -1.1858  -1.1423  -0.9845  -0.8485  -0.7418  -0.6973  -0.6696
 -0.6309  -0.6193  -0.6126  -0.5562  -0.5454  -0.5105  -0.4895  -0.4559
 -0.4499  -0.4240  -0.4168  -0.3860
 -- Virtual --
 -0.0352   0.0255   0.0414   0.0521   0.0567   0.0744   0.0960   0.1035
  0.1243   0.1304   0.1331   0.1456   0.1594   0.1656   0.1791   0.2117
  0.2214   0.2259   0.2370   0.2433   0.2525   0.2647   0.2741   0.2754
  0.2860   0.2893   0.2924   0.3017   0.3188   0.3260   0.3411   0.3421
  0.3496   0.3600   0.3640   0.3705   0.3848   0.3924   0.4050   0.4120
  0.4337   0.4420   0.4670   0.4844   0.4913   0.5557   0.5897   0.5988
  0.6223   0.6328   0.6531   0.6672   0.6920   0.6995   0.7080   0.7370
  0.7817   0.7964   0.8363   0.8677   0.8703   0.9063   0.9466   0.9623
  1.0114   1.0162   1.0569   1.0710   1.1042   1.1215   1.1259   1.1341
  1.1548   1.1579   1.1685   1.1757   1.1953   1.2034   1.2168   1.2200
  1.2316   1.2415   1.2453   1.2740   1.3122   1.3275   1.3542   1.3866
  1.4219   1.4485   1.4624   1.4816   1.5068   1.5325   1.5476   1.5733
  1.5946   1.6058   1.6140   1.6363   1.6589   1.6691   1.7166   1.7602
  1.7753   1.8166   1.8557   1.9156   1.9250   1.9405   1.9747   2.0581
  2.0800   2.1616   2.2219   2.2536   2.2815   2.3199   2.3324   2.3444
  2.3585   2.3888   2.4055   2.4362   2.4550   2.4871   2.5124   2.6430
  2.7029   2.7153   2.7848   2.8241   2.8641   2.9301   3.0115   3.1194
  3.1836   3.1932   3.2955   3.3131   3.3431   3.3671   3.4219   3.4489
  3.4587   3.5186   3.5569   3.5674   3.6059   3.6208   3.6599   3.6854
  3.7469   3.7736   3.8083   3.8323   3.8561   3.8592   3.8903   3.9214
  4.0373   4.0618   4.1027   4.1095   4.1792   4.2227   4.2641   4.2693
  4.2873   4.3181   4.3544   4.4179   4.4420   4.5323   4.6041   4.6502
  4.6693   4.7354   4.8589   4.8940   5.0388   5.1233   5.1294   5.1393
  5.1800   5.1995   5.2088   5.2243   5.2386   5.2635   5.2663   5.2787
  5.2805   5.2972   5.3235   5.3443   5.3601   5.3844   5.3931   5.4302
  5.4674   5.4815   5.5170   5.5593   5.5704   5.6200   5.6321   5.6568
  5.6636   5.6810   5.7508   5.7980   5.8462   6.0045   6.0571   6.0682
  6.1187   6.1948   6.3890   6.5095   6.5346   6.6027   6.7025   6.7281
  6.9065   6.9609   7.0027   7.0535   7.0615   7.1300   7.1519   7.1718
  7.2257   7.2389   7.2485   7.2748   7.2877   7.3474   7.3652   7.3812
  7.4131   7.4442   7.5128   7.5479   7.5851   7.7091   7.7562   7.7869
  7.8250   7.8481   7.8801   8.0608   8.1219  24.7017  24.8427  50.4273
 50.5154  50.5836  50.6034  50.6539
 --------------------------------------------------------------
 
          Ground-State Mulliken Net Atomic Charges

     Atom                 Charge (a.u.)    Spin (a.u.)
  --------------------------------------------------------
      1 C                    -0.000394      -0.002341
      2 C                    -0.101717      -0.000940
      3 O                    -0.442993      -0.000041
      4 O                    -0.440298       0.002307
      5 O                    -0.408549       0.002636
      6 H                     0.342822      -0.000455
      7 H                     0.347894       0.000177
      8 H                     0.281075       0.005523
      9 H                     0.262006       0.000409
     10 O                     0.020787       0.306176
     11 O                    -0.219411       0.686126
     12 H                     0.358778       0.000423
  --------------------------------------------------------
  Sum of atomic charges =     0.000000
  Sum of spin   charges =     1.000000

 -----------------------------------------------------------------
                    Cartesian Multipole Moments
 -----------------------------------------------------------------
    Charge (ESU x 10^10)
                 0.0000
    Dipole Moment (Debye)
         X      -3.4983      Y      -3.6619      Z       1.9396
       Tot       5.4231
    Quadrupole Moments (Debye-Ang)
        XX     -36.4275     XY       0.7114     YY     -50.4203
        XZ      15.9049     YZ       7.3988     ZZ     -51.0757
    Octopole Moments (Debye-Ang^2)
       XXX    -127.3523    XXY     -20.0960    XYY     -75.8342
       YYY    -112.5298    XXZ      93.1352    XYZ      -5.6364
       YYZ     100.1175    XZZ    -116.1526    YZZ     -45.4334
       ZZZ     311.7409
    Hexadecapole Moments (Debye-Ang^3)
      XXXX    -467.9727   XXXY    -121.9118   XXYY    -228.5160
      XYYY    -190.7064   YYYY    -614.4960   XXXZ     284.4837
      XXYZ      14.8640   XYYZ     136.4694   YYYZ     145.5410
      XXZZ    -380.0730   XYZZ     -38.8575   YYZZ    -338.5543
      XZZZ     551.6705   YZZZ     158.2134   ZZZZ   -1545.6478
 -----------------------------------------------------------------
 Calculating analytic gradient of the SCF energy
 Gradient of CDS energy
            1           2           3           4           5           6
    1   0.0040086   0.0002034  -0.0006053   0.0005877  -0.0042125  -0.0001040
    2  -0.0001571  -0.0017249   0.0027085  -0.0008794   0.0001735  -0.0005156
    3  -0.0026167  -0.0020624  -0.0002328   0.0024715   0.0026766   0.0000427
            7           8           9          10          11          12
    1  -0.0003065   0.0000593  -0.0000988   0.0000949  -0.0001070   0.0004803
    2   0.0001180   0.0000364   0.0001279   0.0000733   0.0000657  -0.0000264
    3  -0.0004125   0.0001570   0.0000437  -0.0000637   0.0000039  -0.0000073
 Gradient of SCF Energy
            1           2           3           4           5           6
    1  -0.0059466   0.0132531   0.0217059   0.0230110  -0.0120662  -0.0188025
    2   0.0030122  -0.0002914   0.0098190   0.0078953  -0.0037583  -0.0086428
    3  -0.0058289  -0.0056094  -0.0012724   0.0023506  -0.0130587  -0.0008331
            7           8           9          10          11          12
    1  -0.0187275   0.0018591  -0.0128784   0.0006724  -0.0012729   0.0091925
    2  -0.0070020  -0.0029102  -0.0005882  -0.0004967   0.0018174   0.0011456
    3  -0.0015252   0.0093486   0.0067116  -0.0005470   0.0001816   0.0100822
 Max gradient component =       2.301E-02
 RMS gradient           =       9.306E-03
 Computing fast CPCM-SWIG gradient
 Updating gradient with PCM contributions...
 -- total gradient after adding PCM contribution --
---------------------------------------------------
  Atom         X              Y              Z     
---------------------------------------------------
   1       0.000138       0.000742      -0.000074
   2      -0.000105      -0.000214      -0.000060
   3      -0.000073      -0.000057      -0.000016
   4       0.000025       0.000055       0.000018
   5      -0.000025      -0.000086       0.000009
   6      -0.000018       0.000001       0.000015
   7       0.000011      -0.000034      -0.000016
   8       0.000027      -0.000119       0.000141
   9      -0.000001       0.000029      -0.000012
  10      -0.000014      -0.000217      -0.000020
  11       0.000038      -0.000052      -0.000018
  12      -0.000005      -0.000049       0.000035
---------------------------------------------------
 Number of fixed atoms: 0
 Gradient time:  CPU 109.68 s  wall 16.09 s
 ----------------------------------------------------------------
             Standard Nuclear Orientation (Angstroms)
    I     Atom           X                Y                Z
 ----------------------------------------------------------------
    1      C       1.6339595570     0.6288880287    -1.7529351582
    2      C       0.5047290790    -0.1586103868    -2.3877816017
    3      O       0.9026161608    -1.5070129138    -2.3517700138
    4      O       0.3279893345     0.3108408184    -3.7013313808
    5      O       2.7586284754     0.6116984442    -2.5505421791
    6      H       0.1186379270    -2.0574258864    -2.4581526708
    7      H      -0.5554424583     0.0622694345    -3.9954950444
    8      H       1.8278345278     0.2961245147    -0.7361703587
    9      H      -0.4063339914    -0.0138652228    -1.8063718799
   10      O       1.1172893180     2.0014340463    -1.6403479560
   11      O       1.9600216742     2.7539882533    -0.9917959567
   12      H       3.5300641960     0.8108456698    -2.0072477000
 ----------------------------------------------------------------
 Nuclear Repulsion Energy =         338.28083101 hartrees
 There are       29 alpha and       28 beta electrons
 Discretize the solute cavity surface with Lebedev spheres
	Using 110 Lebedev grid points for each H atom
	Using 194 Lebedev grid points for other atoms
	Atomic van der Waals radii will be scaled by 1.20
 Remove points where switching function is < 1.0e-08
 Keep 1027 surface tesserae and discard 881 interior tesserae
 Molecular Surface Area = 117.977 Angst**2

                       Distance Matrix (Angstroms)
             C (  1)   C (  2)   O (  3)   O (  4)   O (  5)   H (  6)
   C (  2)  1.516029
   O (  3)  2.335710  1.406343
   O (  4)  2.367057  1.406071  2.335830
   O (  5)  1.378895  2.387452  2.823691  2.706074
   H (  6)  3.163829  1.938948  0.963791  2.682910  3.755304
   H (  7)  3.184904  1.938426  2.700077  0.963728  3.656888  2.703870
   H (  8)  1.087258  2.164535  2.591813  3.322940  2.063470  3.380203
   H (  9)  2.139810  1.090424  2.059199  2.058042  3.310907  2.208292
   O ( 10)  1.470886  2.366364  3.586280  2.780063  2.335340  4.259161
   O ( 11)  2.280724  3.542581  4.596060  3.996759  2.767105  5.356361
   H ( 12)  1.921717  3.199579  3.520603  3.656940  0.964335  4.479746
             H (  7)   H (  8)   H (  9)   O ( 10)   O ( 11)
   H (  8)  4.044489
   H (  9)  2.195516  2.496584
   O ( 10)  3.479240  2.056816  2.531881
   O ( 11)  4.753432  2.474654  3.731513  1.302749
   H ( 12)  4.604873  2.185901  4.026876  2.715437  2.696661
 
 Requested basis set is 6-311++G(2df,2p)
 There are 86 shells and 288 basis functions
 A cutoff of  1.0D-12 yielded   3470 shell pairs
 There are     39062 function pairs (     49079 Cartesian)
 Smallest overlap matrix eigenvalue = 4.81E-05
 Guess MOs from SCF MO coefficient file

 -----------------------------------------------------------------------
  General SCF calculation program by
  Eric Jon Sundstrom, Paul Horn, Yuezhi Mao, Dmitri Zuev, Alec White,
  David Stuck, Shaama M.S., Shane Yost, Joonho Lee, David Small,
  Daniel Levine, Susi Lehtola, Hugh Burton, Evgeny Epifanovsky,
  Bang C. Huynh
 -----------------------------------------------------------------------
 Exchange:     0.1500 Hartree-Fock + 1.0000 wB97M-V + LR-HF
 Correlation:  1.0000 wB97M-V
 Using SG-2 standard quadrature grid
 Nonlocal Correlation:  VV10 with C = 0.0100 and b = 6.00 and scale = 1.00000
 Grid used for NLC:  SG-1 standard quadrature
 
 Citation of the SMD model:
 Marenich, A.V.; Cramer, C.J.; Truhlar, D.G.
 J. Phys. Chem. B 2009, 113, 6378-6396.
 iSolventCode=           1
 Solvent: water                                                           
 
 vradii
            1           2           3           4           5           6
    1   1.8500000   1.8500000   1.5200000   1.5200000   1.5200000   1.2000000
            7           8           9          10          11          12
    1   1.2000000   1.2000000   1.2000000   1.5200000   1.5200000   1.2000000
 -------------------------------------------------------
 OpenMP BLAS3 based DFT computing Module                
 Release: version 1.0, May 2013, Q-Chem Inc. Pittsburgh 
 -------------------------------------------------------
 A unrestricted SCF calculation will be
 performed using Roothaan-Hall, DIIS, GDM
 SCF converges when RMS gradient is below 1.0e-07
 ---------------------------------------
  Cycle       Energy         DIIS error
 ---------------------------------------
    1    -455.2082197295      3.87e-04  Roothaan Step
 ---------------------------------------
  Cycle       Energy         DIIS error
 ---------------------------------------
    1    -455.2451948921      4.37e-04  
    2    -455.2534491225      3.17e-04  Done DIIS. Switching to GDM
 ---------------------------------------
  Cycle       Energy        RMS Gradient
 ---------------------------------------
    1    -455.2534491225      7.31e-03   Normal BFGS step
    2    -455.2537058341      1.05e-02   Normal BFGS step
[...]

Order 1, Length 36
    Atom      X          Y          Z
     1    3.099005556049840e-02   9.100103792757221e-03   1.198858162908302e-02
     2    4.014418469067985e-03  -1.547390602314810e-03  -3.565244676090047e-03
     3   -2.389202228226016e-04   2.260107447754911e-04   1.966544023980432e-05
     4   -5.186719825183731e-04  -2.675229127726823e-04   3.540567264226955e-04
     5   -2.444520776310835e-01  -6.673611497523109e-02  -2.049838075020867e-01
     6   -5.420932118017396e-05  -5.418561067647514e-05   6.287474186105548e-06
     7   -1.653440378091660e-04   2.079559543345739e-05   1.449262329828998e-04
     8    9.005610194354119e-04   3.341563874024487e-04   6.906452735073935e-04
     9    9.741265669510570e-04   7.219466721706060e-04   5.959416078947664e-04
    10    1.183798441403267e-03  -1.584175589767353e-03  -2.157116614317224e-04
    11   -1.331991364138789e-04   8.632344089646519e-05  -4.623922821059691e-04
    12    2.074994103722757e-01   5.970012628737903e-02   1.954269656962484e-01




 # Finishing finite difference calculation for IDERIV #
 ######################################################
 ######################################################
 Requested basis set is 6-311++G(2df,2p)
 There are 86 shells and 288 basis functions
 **********************************************************************
 **                                                                  **
 **                       VIBRATIONAL ANALYSIS                       **
 **                       --------------------                       **
 **                                                                  **
 **        VIBRATIONAL FREQUENCIES (CM**-1) AND NORMAL MODES         **
 **     FORCE CONSTANTS (mDYN/ANGSTROM) AND REDUCED MASSES (AMU)     **
 **                  INFRARED INTENSITIES (KM/MOL)                   **
 **                                                                  **
 **********************************************************************
 

 Mode:                 1                      2                      3
 Frequency:        74.29                  94.03                 193.36
 Force Cnst:      0.0303                 0.0465                 0.0375
 Red. Mass:       9.3058                 8.9310                 1.7024
 IR Active:          YES                    YES                    YES
 IR Intens:        5.173                  6.261                 80.361
 Raman Active:       YES                    YES                    YES
               X      Y      Z        X      Y      Z        X      Y      Z
 C          0.073  0.086 -0.165   -0.001 -0.030 -0.020    0.087 -0.041  0.006
 C          0.009  0.065 -0.021   -0.006  0.024 -0.077    0.041  0.005  0.030
 O         -0.106  0.037  0.247   -0.191 -0.025  0.182   -0.078 -0.026  0.019
 O          0.043 -0.181 -0.113    0.261 -0.145 -0.172    0.050  0.028  0.035
 O          0.010  0.029 -0.266   -0.098  0.278 -0.152    0.060 -0.006 -0.036
 H         -0.150  0.081  0.340   -0.225  0.066 -0.040   -0.097  0.052 -0.250
 H          0.023 -0.174 -0.061    0.240  0.009 -0.240   -0.263  0.812  0.323
 H          0.153  0.129 -0.168    0.148 -0.256 -0.122    0.135 -0.016  0.005
 H          0.023  0.254 -0.046   -0.079  0.226 -0.239    0.062  0.093  0.038
 O          0.143  0.101 -0.184   -0.138 -0.103  0.388   -0.010 -0.071 -0.020
 O         -0.158 -0.119  0.474    0.170 -0.016 -0.121   -0.113  0.043 -0.029
 H          0.057  0.050 -0.339   -0.053  0.204 -0.191    0.077 -0.003 -0.061
 TransDip   0.019  0.059 -0.039   -0.002  0.023 -0.077   -0.043  0.284  0.009

 Mode:                 4                      5                      6
 Frequency:       212.21                 263.66                 279.86
 Force Cnst:      0.0524                 0.0596                 0.1176
 Red. Mass:       1.9742                 1.4547                 2.5492
 IR Active:          YES                    YES                    YES
 IR Intens:       88.457                207.074                 48.587
 Raman Active:       YES                    YES                    YES
               X      Y      Z        X      Y      Z        X      Y      Z
 C         -0.076  0.030  0.002    0.005  0.004 -0.026   -0.076  0.005  0.042
 C         -0.034  0.004 -0.042    0.012 -0.009 -0.044   -0.017 -0.019  0.016
 O          0.107  0.045  0.051   -0.020 -0.021 -0.046    0.106  0.013 -0.011
 O         -0.055 -0.116 -0.083   -0.063 -0.048 -0.049    0.157  0.070  0.021
 O         -0.045 -0.004  0.047    0.073  0.071  0.069   -0.175 -0.120 -0.093
 H          0.236 -0.029 -0.527   -0.136 -0.028  0.870    0.081 -0.088  0.724
 H         -0.364  0.606  0.247   -0.223  0.292  0.149    0.036  0.504  0.026
 H         -0.124  0.018  0.007   -0.053 -0.024 -0.023   -0.008  0.056  0.044
 H         -0.067 -0.023 -0.089    0.043  0.003 -0.003   -0.088 -0.116 -0.083
 O          0.010  0.055  0.007   -0.004  0.003  0.006   -0.020  0.029  0.003
 O          0.090 -0.044  0.025    0.023 -0.022 -0.000    0.006  0.001  0.006
 H         -0.066  0.021  0.068    0.013  0.089  0.147   -0.093 -0.073 -0.229
 TransDip  -0.142  0.247 -0.098   -0.145  0.116  0.422   -0.084  0.087  0.187

 Mode:                 7                      8                      9
 Frequency:       323.84                 374.96                 397.09
 Force Cnst:      0.0841                 0.3587                 0.4992
 Red. Mass:       1.3609                 4.3302                 5.3739
 IR Active:          YES                    YES                    YES
 IR Intens:      167.663                 43.054                 14.145
 Raman Active:       YES                    YES                    YES
               X      Y      Z        X      Y      Z        X      Y      Z
 C         -0.023  0.007  0.019    0.062 -0.020  0.027    0.032 -0.048 -0.069
 C          0.008 -0.034  0.024    0.014  0.013 -0.047   -0.004  0.158 -0.074
 O         -0.035 -0.048 -0.014   -0.023 -0.003 -0.103    0.122  0.227  0.211
 O          0.037  0.022  0.042   -0.056 -0.129 -0.093   -0.093  0.145 -0.081
 O         -0.020  0.032  0.024    0.010 -0.232 -0.018    0.099 -0.151  0.005
 H         -0.050 -0.011 -0.099   -0.067  0.035  0.021    0.225  0.073  0.267
 H          0.040  0.046  0.011   -0.093 -0.148  0.029   -0.010 -0.125 -0.110
 H         -0.026  0.084  0.047    0.030 -0.071  0.023   -0.048 -0.178 -0.093
 H          0.007 -0.030  0.022    0.028  0.029 -0.032    0.021  0.221 -0.050
 O          0.004  0.021 -0.072    0.061  0.049  0.183   -0.083 -0.207  0.051
 O          0.038 -0.072 -0.003   -0.039  0.279  0.061   -0.074 -0.139 -0.076
 H         -0.152  0.954 -0.120   -0.060  0.803 -0.286   -0.049  0.664 -0.074
 TransDip  -0.105  0.390 -0.096    0.023  0.208 -0.018   -0.004  0.108 -0.054

 Mode:                10                     11                     12
 Frequency:       573.62                 597.84                 742.75
 Force Cnst:      1.3856                 1.6975                 1.3801
 Red. Mass:       7.1475                 8.0610                 4.2459
 IR Active:          YES                    YES                    YES
 IR Intens:       66.512                 21.110                 64.885
 Raman Active:       YES                    YES                    YES
               X      Y      Z        X      Y      Z        X      Y      Z
 C         -0.057 -0.090 -0.153   -0.029 -0.225  0.217    0.084  0.031  0.200
 C         -0.031 -0.231 -0.212   -0.163  0.006 -0.035    0.341  0.048 -0.107
 O          0.036 -0.295  0.269    0.039  0.083  0.018   -0.017 -0.089  0.054
 O         -0.095  0.304 -0.056   -0.032  0.002 -0.072   -0.098  0.072 -0.132
 O          0.061  0.010 -0.004   -0.182  0.228  0.043   -0.189 -0.006  0.047
 H          0.131 -0.374 -0.066    0.173 -0.127  0.136   -0.264  0.272 -0.015
 H          0.007  0.220 -0.295    0.002 -0.017 -0.164   -0.168 -0.263  0.342
 H         -0.139 -0.154 -0.161   -0.025 -0.518  0.131    0.016  0.123  0.248
 H         -0.058 -0.313 -0.240   -0.241 -0.048 -0.146    0.365  0.122 -0.096
 O          0.043  0.105  0.048    0.404 -0.265 -0.119   -0.016  0.005 -0.035
 O          0.028  0.153  0.056   -0.072  0.152 -0.003   -0.002 -0.047 -0.014
 H         -0.058  0.047  0.156   -0.116  0.149 -0.026    0.105 -0.169 -0.323
 TransDip  -0.022 -0.160 -0.206   -0.032 -0.132  0.057    0.243  0.039  0.076

 Mode:                13                     14                     15
 Frequency:       913.61                 933.14                1121.78
 Force Cnst:      2.5002                 1.6031                 2.2339
 Red. Mass:       5.0840                 3.1248                 3.0129
 IR Active:          YES                    YES                    YES
 IR Intens:      190.980                 86.639                185.274
 Raman Active:       YES                    YES                    YES
               X      Y      Z        X      Y      Z        X      Y      Z
 C         -0.084  0.466  0.162    0.174 -0.131  0.230    0.222  0.078 -0.189
 C         -0.089 -0.049  0.011   -0.160 -0.041  0.018   -0.066  0.003  0.063
 O         -0.013 -0.099  0.001   -0.002  0.023  0.002    0.003 -0.040 -0.009
 O         -0.031  0.027 -0.071   -0.036  0.018 -0.097   -0.013  0.005 -0.050
 O          0.106 -0.033 -0.054    0.075  0.016 -0.032   -0.167 -0.006  0.157
 H         -0.015 -0.097 -0.016    0.219 -0.297  0.050    0.181 -0.296  0.003
 H         -0.012  0.074 -0.171    0.000  0.038 -0.233    0.065  0.193 -0.438
 H          0.153  0.521  0.141    0.406  0.256  0.313    0.371  0.394 -0.115
 H         -0.288 -0.323 -0.237   -0.267 -0.066 -0.145    0.135  0.226  0.324
 O          0.082 -0.198  0.040   -0.102  0.124 -0.031    0.032 -0.034  0.027
 O         -0.016 -0.020 -0.017    0.013 -0.047 -0.005   -0.018 -0.018 -0.012
 H          0.174 -0.019 -0.158    0.300 -0.013 -0.338   -0.014 -0.019 -0.073
 TransDip  -0.140  0.389  0.158    0.138 -0.264 -0.005    0.330 -0.039 -0.282

 Mode:                16                     17                     18
 Frequency:      1197.80                1223.19                1231.74
 Force Cnst:      0.9701                 0.9526                 2.1605
 Red. Mass:       1.1476                 1.0806                 2.4169
 IR Active:          YES                    YES                    YES
 IR Intens:      202.562                 56.772                196.837
 Raman Active:       YES                    YES                    YES
               X      Y      Z        X      Y      Z        X      Y      Z
 C         -0.005 -0.029 -0.023    0.006 -0.025  0.011   -0.082 -0.016  0.066
 C          0.011 -0.032  0.052    0.008 -0.020  0.035   -0.024  0.118  0.189
 O         -0.009  0.022 -0.001    0.036  0.011  0.013    0.050 -0.132 -0.016
 O          0.014  0.031 -0.055   -0.027 -0.011 -0.023   -0.003  0.036 -0.145
 O         -0.011 -0.008 -0.017   -0.000 -0.002 -0.008    0.041 -0.005 -0.068
 H          0.009 -0.003  0.006   -0.385  0.606 -0.024    0.048 -0.143 -0.010
 H         -0.086 -0.201  0.418    0.063  0.205 -0.464   -0.016  0.029 -0.124
 H          0.488  0.291 -0.017    0.167  0.021 -0.005   -0.111 -0.228  0.008
 H         -0.152 -0.099 -0.197    0.016 -0.375  0.132    0.266  0.513  0.568
 O          0.005 -0.008  0.003   -0.002  0.007 -0.002   -0.003  0.015 -0.005
 O          0.003  0.008  0.004   -0.001 -0.002 -0.001   -0.004 -0.003 -0.003
 H         -0.368  0.031  0.485   -0.104  0.014  0.138   -0.209  0.021  0.292
 TransDip  -0.086 -0.202  0.399   -0.112  0.206 -0.057   -0.175  0.157  0.383

 Mode:                19                     20                     21
 Frequency:      1266.54                1291.15                1306.06
 Force Cnst:      5.2624                 2.7128                 1.8881
 Red. Mass:       5.5679                 2.7619                 1.8787
 IR Active:          YES                    YES                    YES
 IR Intens:       86.071                143.094                177.219
 Raman Active:       YES                    YES                    YES
               X      Y      Z        X      Y      Z        X      Y      Z
 C         -0.047  0.004  0.024    0.081  0.023 -0.037    0.003  0.004 -0.075
 C          0.106 -0.209  0.036   -0.109  0.175  0.025   -0.016 -0.100  0.167
 O         -0.080  0.154  0.001    0.074 -0.130 -0.001   -0.016  0.048  0.003
 O         -0.015  0.012 -0.054    0.017  0.004  0.010    0.034  0.054 -0.125
 O          0.002  0.000 -0.011   -0.022 -0.000  0.051    0.004  0.012  0.043
 H          0.255 -0.305  0.008   -0.245  0.307 -0.004   -0.060  0.115 -0.017
 H          0.036  0.130 -0.300   -0.047 -0.136  0.309   -0.095 -0.178  0.419
 H         -0.022  0.114  0.056    0.159 -0.429 -0.205   -0.345 -0.191 -0.072
 H          0.417  0.041  0.471   -0.396 -0.048 -0.375   -0.069 -0.469  0.178
 O         -0.211 -0.208 -0.162   -0.123 -0.083 -0.097    0.022  0.019  0.017
 O          0.217  0.198  0.166    0.100  0.079  0.075   -0.019 -0.013 -0.013
 H         -0.011 -0.024  0.013    0.129  0.013 -0.175    0.326 -0.013 -0.417
 TransDip   0.154 -0.191  0.167    0.067  0.377 -0.022    0.159 -0.311  0.244

 Mode:                22                     23                     24
 Frequency:      1342.84                1421.01                1439.76
 Force Cnst:      1.3050                 1.6206                 1.7277
 Red. Mass:       1.2283                 1.3621                 1.4146
 IR Active:          YES                    YES                    YES
 IR Intens:       15.101                 21.289                 46.721
 Raman Active:       YES                    YES                    YES
               X      Y      Z        X      Y      Z        X      Y      Z
 C         -0.015 -0.085 -0.045   -0.072  0.002 -0.016   -0.122 -0.028  0.001
 C         -0.039  0.026  0.003    0.019 -0.133  0.064   -0.068  0.025 -0.105
 O          0.037 -0.028 -0.001    0.032  0.018 -0.013    0.015 -0.010  0.010
 O          0.006  0.004 -0.001   -0.021  0.012 -0.003    0.034  0.002  0.006
 O          0.012  0.019 -0.012    0.010  0.002  0.029    0.019  0.003  0.038
 H         -0.140  0.214 -0.004   -0.140  0.250  0.004   -0.062  0.097 -0.008
 H         -0.011 -0.046  0.086    0.010  0.028 -0.099   -0.024 -0.103  0.247
 H         -0.417  0.766  0.308    0.272 -0.093 -0.116    0.594  0.135 -0.094
 H         -0.033  0.187 -0.025   -0.121  0.746 -0.362    0.302 -0.040  0.514
 O          0.003 -0.044  0.013    0.012  0.011  0.004    0.011 -0.000  0.001
 O          0.016  0.024  0.015   -0.007 -0.002 -0.004   -0.002  0.003 -0.000
 H          0.080 -0.018 -0.095    0.176 -0.009 -0.215    0.241 -0.014 -0.289
 TransDip  -0.075  0.035 -0.093    0.013 -0.130  0.069   -0.130  0.113 -0.135

 Mode:                25                     26                     27
 Frequency:      1537.12                3096.64                3136.03
 Force Cnst:      2.9822                 6.1459                 6.3060
 Red. Mass:       2.1422                 1.0878                 1.0883
 IR Active:          YES                    YES                    YES
 IR Intens:        7.934                 32.114                 15.494
 Raman Active:       YES                    YES                    YES
               X      Y      Z        X      Y      Z        X      Y      Z
 C         -0.151 -0.089 -0.060   -0.001  0.003 -0.005   -0.017  0.024 -0.080
 C          0.155  0.153  0.115   -0.072  0.009  0.044    0.006  0.001 -0.003
 O         -0.039 -0.021 -0.007    0.001  0.000  0.000   -0.000 -0.000  0.000
 O         -0.038 -0.018 -0.006    0.001  0.000 -0.000    0.000  0.000  0.001
 O          0.023  0.010  0.031    0.001  0.000 -0.000    0.001  0.000  0.001
 H          0.208 -0.360  0.008   -0.006  0.001 -0.003    0.001 -0.001  0.001
 H          0.042  0.148 -0.359   -0.004 -0.006  0.002    0.000  0.000  0.001
 H          0.296  0.216 -0.066    0.012 -0.026  0.070    0.187 -0.299  0.929
 H         -0.194 -0.360 -0.354    0.839 -0.121 -0.518   -0.065  0.006  0.037
 O          0.012 -0.008  0.003   -0.000  0.000 -0.000   -0.000  0.000 -0.000
 O          0.002  0.012  0.004    0.000 -0.000 -0.000    0.000  0.000  0.000
 H          0.242 -0.008 -0.290    0.000 -0.000 -0.001    0.000 -0.004 -0.006
 TransDip   0.072  0.039 -0.038   -0.106  0.069  0.130    0.053  0.051 -0.102

 Mode:                28                     29                     30
 Frequency:      3820.29                3826.28                3828.05
 Force Cnst:      9.1710                 9.2036                 9.2128
 Red. Mass:       1.0665                 1.0670                 1.0671
 IR Active:          YES                    YES                    YES
 IR Intens:      211.020                 91.937                198.640
 Raman Active:       YES                    YES                    YES
               X      Y      Z        X      Y      Z        X      Y      Z
 C         -0.001  0.000 -0.001    0.000 -0.000  0.000    0.000  0.000  0.000
 C          0.000 -0.000 -0.000   -0.001 -0.000  0.001   -0.002  0.000  0.001
 O         -0.001 -0.001 -0.000    0.013  0.009  0.002   -0.048 -0.036 -0.006
 O         -0.004 -0.001 -0.001   -0.055 -0.015 -0.020   -0.014 -0.003 -0.005
 O         -0.051 -0.012 -0.034    0.003  0.001  0.002    0.002  0.001  0.001
 H          0.018  0.013  0.002   -0.200 -0.143 -0.027    0.780  0.561  0.103
 H          0.064  0.018  0.022    0.884  0.241  0.303    0.225  0.061  0.078
 H          0.006 -0.001  0.002    0.000  0.000  0.001   -0.000  0.001 -0.000
 H          0.002  0.001  0.000    0.005 -0.002  0.002    0.005  0.004 -0.001
 O          0.000 -0.000 -0.000   -0.000  0.000  0.000    0.000  0.000  0.000
 O          0.000  0.000 -0.000   -0.000 -0.000  0.000    0.000  0.000  0.000
 H          0.804  0.200  0.551   -0.050 -0.012 -0.035   -0.032 -0.008 -0.022
 TransDip   0.429  0.065  0.167    0.248 -0.029  0.179    0.326  0.305  0.068

 STANDARD THERMODYNAMIC QUANTITIES AT   298.15 K  AND     1.00 ATM

   This Molecule has  0 Imaginary Frequencies
   Zero point vibrational energy:       54.410 kcal/mol

   Atom    1 Element C  Has Mass   12.00000
   Atom    2 Element C  Has Mass   12.00000
   Atom    3 Element O  Has Mass   15.99491
   Atom    4 Element O  Has Mass   15.99491
   Atom    5 Element O  Has Mass   15.99491
   Atom    6 Element H  Has Mass    1.00783
   Atom    7 Element H  Has Mass    1.00783
   Atom    8 Element H  Has Mass    1.00783
   Atom    9 Element H  Has Mass    1.00783
   Atom   10 Element O  Has Mass   15.99491
   Atom   11 Element O  Has Mass   15.99491
   Atom   12 Element H  Has Mass    1.00783
   Molecular Mass:   109.013700 amu
   Principal axes and moments of inertia in amu*Bohr^2:
                             1           2           3
    Eigenvalues --      366.81118  1015.55869  1109.47109
          X               0.34150     0.84364    -0.41431
          Y               0.84501    -0.46859    -0.25765
          Z               0.41150     0.26211     0.87291
   Rotational Symmetry Number is   1
   The Molecule is an Asymmetric Top
   Translational Enthalpy:        0.889 kcal/mol
   Rotational Enthalpy:           0.889 kcal/mol
   Vibrational Enthalpy:         57.710 kcal/mol
   gas constant (RT):             0.592 kcal/mol
   Translational Entropy:        39.975  cal/mol.K
   Rotational Entropy:           27.515  cal/mol.K
   Vibrational Entropy:          20.114  cal/mol.K

   Total Enthalpy:               60.080 kcal/mol
   Total Entropy:                87.605  cal/mol.K
 Total job time:  8032.53s(wall), 62053.26s(cpu) 
 Mon Oct  2 20:44:50 2023

        *************************************************************
        *                                                           *
        *  Thank you very much for using Q-Chem.  Have a nice day.  *
        *                                                           *
        *************************************************************


