
Running Job 1 of 1 Q_in.in
qchem Q_in.in_39263.0 /scratch/ari.fischer/qChem1854152.hpc-mn1/qchem39263/ 0
/usr/local/qchem-5.4.1/exe/qcprog.exe_s Q_in.in_39263.0 /scratch/ari.fischer/qChem1854152.hpc-mn1/qchem39263/
                  Welcome to Q-Chem
     A Quantum Leap Into The Future Of Chemistry


 Q-Chem 5.4, Q-Chem, Inc., Pleasanton, CA (2021)

 License issued to: Nanyang Technological University (site)

 E. Epifanovsky,  A. T. B. Gilbert,  Xintian Feng,  Joonho Lee,  Yuezhi Mao,  
 N. Mardirossian,  P. Pokhilko,  A. White,  M. Wormit,  M. P. Coons,  
 A. L. Dempwolff,  Zhengting Gan,  D. Hait,  P. R. Horn,  L. D. Jacobson,  
 I. Kaliman,  J. Kussmann,  A. W. Lange,  Ka Un Lao,  D. S. Levine,  Jie Liu,  
 S. C. McKenzie,  A. F. Morrison,  K. Nanda,  F. Plasser,  D. R. Rehn,  
 M. L. Vidal,  Zhi-Qiang You,  Ying Zhu,  B. Alam,  B. Albrecht,  
 A. Aldossary,  E. Alguire,  J. H. Andersen,  D. Barton,  K. Begam,  A. Behn,  
 Y. A. Bernard,  E. J. Berquist,  H. Burton,  A. Carreras,  K. Carter-Fenk,  
 R. Chakraborty,  A. D. Chien,  K. D. Closser,  V. Cofer-Shabica,  
 S. Dasgupta,  Jia Deng,  M. de Wergifosse,  M. Diedenhofen,  Hainam Do,  
 S. Ehlert,  Po-Tung Fang,  S. Fatehi,  Qingguo Feng,  T. Friedhoff,  
 J. Gayvert,  Qinghui Ge,  G. Gidofalvi,  M. Goldey,  J. Gomes,  
 C. Gonzalez-Espinoza,  S. Gulania,  A. Gunina,  M. W. D. Hanson-Heine,  
 P. H. P. Harbach,  A. W. Hauser,  M. F. Herbst,  M. Hernandez Vera,  
 M. Hodecker,  Z. C. Holden,  S. Houck,  Xunkun Huang,  Kerwin Hui,  
 B. C. Huynh,  M. Ivanov,  Hyunjun Ji,  Hanjie Jiang,  B. Kaduk,  S. Kaehler,  
 K. Khistyaev,  Jaehoon Kim,  P. Klunzinger,  Z. Koczor-Benda,  
 Joong Hoon Koh,  D. Kosenkov,  L. Koulias,  T. Kowalczyk,  C. M. Krauter,  
 K. Kue,  A. Kunitsa,  T. Kus,  A. Landau,  K. V. Lawler,  D. Lefrancois,  
 S. Lehtola,  Rain Li,  Yi-Pei Li,  Jiashu Liang,  M. Liebenthal,  
 Hung-Hsuan Lin,  You-Sheng Lin,  Fenglai Liu,  Kuan-Yu Liu,  
 M. Loipersberger,  A. Luenser,  A. Manjanath,  P. Manohar,  E. Mansoor,  
 S. F. Manzer,  Shan-Ping Mao,  A. V. Marenich,  T. Markovich,  S. Mason,  
 S. A. Maurer,  P. F. McLaughlin,  M. F. S. J. Menger,  J.-M. Mewes,  
 S. A. Mewes,  P. Morgante,  J. W. Mullinax,  K. J. Oosterbaan,  G. Paran,  
 Alexander C. Paul,  Suranjan K. Paul,  F. Pavosevic,  Zheng Pei,  S. Prager,  
 E. I. Proynov,  E. Ramos,  B. Rana,  A. E. Rask,  A. Rettig,  R. M. Richard,  
 F. Rob,  E. Rossomme,  T. Scheele,  M. Scheurer,  M. Schneider,  
 N. Sergueev,  S. M. Sharada,  W. Skomorowski,  D. W. Small,  C. J. Stein,  
 Yu-Chuan Su,  E. J. Sundstrom,  Zhen Tao,  J. Thirman,  T. Tsuchimochi,  
 N. M. Tubman,  S. P. Veccham,  O. Vydrov,  J. Wenzel,  J. Witte,  A. Yamada,  
 Kun Yao,  S. Yeganeh,  S. R. Yost,  A. Zech,  Igor Ying Zhang,  Xing Zhang,  
 Yu Zhang,  D. Zuev,  A. Aspuru-Guzik,  A. T. Bell,  N. A. Besley,  
 K. B. Bravaya,  B. R. Brooks,  D. Casanova,  Jeng-Da Chai,  S. Coriani,  
 C. J. Cramer,  A. E. DePrince, III,  R. A. DiStasio Jr.,  A. Dreuw,  
 B. D. Dunietz,  T. R. Furlani,  W. A. Goddard III,  S. Grimme,  
 S. Hammes-Schiffer,  T. Head-Gordon,  W. J. Hehre,  Chao-Ping Hsu,  
 T.-C. Jagau,  Yousung Jung,  A. Klamt,  Jing Kong,  D. S. Lambrecht,  
 WanZhen Liang,  N. J. Mayhall,  C. W. McCurdy,  J. B. Neaton,  
 C. Ochsenfeld,  J. A. Parkhill,  R. Peverati,  V. A. Rassolov,  Yihan Shao,  
 L. V. Slipchenko,  T. Stauch,  R. P. Steele,  J. E. Subotnik,  
 A. J. W. Thom,  A. Tkatchenko,  D. G. Truhlar,  T. Van Voorhis,  
 T. A. Wesolowski,  K. B. Whaley,  H. L. Woodcock III,  P. M. Zimmerman,  
 S. Faraji,  P. M. W. Gill,  M. Head-Gordon,  J. M. Herbert,  A. I. Krylov

 Additional authors for Version 5.4.1: 
 S. Kotaru,  Shaozhi Li,  Xiangyuan Li,  F. Matz,  A. Molle,  Haisheng Ren,  
 Yingli Su,  Hung-Yi Tsai,  C. Utku,  Fang Wang

 Contributors to earlier versions of Q-Chem not listed above: 
 R. D. Adamson,  B. Austin,  R. Baer,  J. Baker,  G. J. O. Beran,  
 K. Brandhorst,  S. T. Brown,  E. F. C. Byrd,  A. K. Chakraborty,  
 G. K. L. Chan,  Chun-Min Chang,  Yunqing Chen,  C.-L. Cheng,  
 Siu Hung Chien,  D. M. Chipman,  D. L. Crittenden,  H. Dachsel,  
 R. J. Doerksen,  A. D. Dutoi,  R. G. Edgar,  J. Fosso-Tande,  
 L. Fusti-Molnar,  D. Ghosh,  A. Ghysels,  A. Golubeva-Zadorozhnaya,  
 J. Gonthier,  M. S. Gordon,  S. R. Gwaltney,  G. Hawkins,  J. E. Herr,  
 A. Heyden,  S. Hirata,  E. G. Hohenstein,  G. Kedziora,  F. J. Keil,  
 C. Kelley,  Jihan Kim,  R. A. King,  R. Z. Khaliullin,  P. P. Korambath,  
 W. Kurlancheek,  A. Laurent,  A. M. Lee,  M. S. Lee,  S. V. Levchenko,  
 Ching Yeh Lin,  D. Liotard,  E. Livshits,  R. C. Lochan,  I. Lotan,  
 L. A. Martinez-Martinez,  P. E. Maslen,  N. Nair,  D. P. O'Neill,  
 D. Neuhauser,  E. Neuscamman,  C. M. Oana,  R. Olivares-Amaya,  R. Olson,  
 T. M. Perrine,  B. Peters,  P. A. Pieniazek,  A. Prociuk,  Y. M. Rhee,  
 J. Ritchie,  M. A. Rohrdanz,  E. Rosta,  N. J. Russ,  H. F. Schaefer III,  
 M. W. Schmidt,  N. E. Schultz,  S. Sharma,  N. Shenvi,  C. D. Sherrill,  
 A. C. Simmonett,  A. Sodt,  T. Stein,  D. Stuck,  K. S. Thanthiriwatte,  
 V. Vanovschi,  L. Vogt,  Tao Wang,  A. Warshel,  M. A. Watson,  
 C. F. Williams,  Q. Wu,  X. Xu,  Jun Yang,  W. Zhang,  Yan Zhao

 Please cite Q-Chem as follows:
 Y. Shao et al., Mol. Phys. 113, 184-215 (2015)
 DOI: 10.1080/00268976.2014.952696

 Q-Chem 5.4.1 for Intel X86 EM64T Linux

 Parts of Q-Chem use Armadillo 9.800.1 (Horizon Scraper).
 http://arma.sourceforge.net/

 Q-Chem begins on Thu Dec  7 15:45:14 2023  

 Host: 
0

     Scratch files written to /scratch/ari.fischer/qChem1854152.hpc-mn1/qchem39263//
 Aug1521 |scratch|qcdevops|jenkins|workspace|build_RNUM 8249   
 Processing $rem in /usr/local/qchem-5.4.1/config/preferences:
 Processing $rem in /home/ari.fischer/.qchemrc:
 Symmetry turned off for PCM/SM12/SMD calculation

 Checking the input file for inconsistencies... 	...done.

--------------------------------------------------------------
User input:
--------------------------------------------------------------
$molecule
-1 1
O        -0.7700752962    1.0095248173   -0.0901959350
C        -0.3608196099   -0.2115914739    0.4922317158
O        -1.0496930004   -1.3042071768   -0.0673185286
C         1.1546408297   -0.3521732406    0.2396058149
O         1.8571576590    0.5647537115    0.7328913092
O         1.5662840877   -1.3426908188   -0.4048193267
H        -1.6025330528    1.2738191661    0.3164522571
H        -1.9354580049   -1.3186989432    0.3121775248
H        -0.5354792121   -0.1788818416    1.5697029686
$end

$rem
BASIS = def2-QZVP
JOB_TYPE = SP
METHOD = wB97M-V
SCF_ALGORITHM = DIIS_GDM
MAX_SCF_CYCLES = 400
SCF_CONVERGENCE = 7
THRESH = 12
Solvent_method = SMD
$end
--------------------------------------------------------------
 ----------------------------------------------------------------
             Standard Nuclear Orientation (Angstroms)
    I     Atom           X                Y                Z
 ----------------------------------------------------------------
    1      O      -0.7700752962     1.0095248173    -0.0901959350
    2      C      -0.3608196099    -0.2115914739     0.4922317158
    3      O      -1.0496930004    -1.3042071768    -0.0673185286
    4      C       1.1546408297    -0.3521732406     0.2396058149
    5      O       1.8571576590     0.5647537115     0.7328913092
    6      O       1.5662840877    -1.3426908188    -0.4048193267
    7      H      -1.6025330528     1.2738191661     0.3164522571
    8      H      -1.9354580049    -1.3186989432     0.3121775248
    9      H      -0.5354792121    -0.1788818416     1.5697029686
 ----------------------------------------------------------------
 Nuclear Repulsion Energy =         239.46429984 hartrees
 There are       24 alpha and       24 beta electrons
 Requested basis set is def2-QZVP
 There are 132 shells and 432 basis functions

 Total QAlloc Memory Limit 288000 MB
 Mega-Array Size       188 MB
 MEM_STATIC part       192 MB
 
 Citation of the SMD model:
 Marenich, A.V.; Cramer, C.J.; Truhlar, D.G.
 J. Phys. Chem. B 2009, 113, 6378-6396.
 iSolventCode=           1
 Solvent: water                                                           
 
 vradii
            1           2           3           4           5           6
    1   1.5200000   1.8500000   1.5200000   1.8500000   1.5200000   1.5200000
            7           8           9
    1   1.2000000   1.2000000   1.2000000
 Changing PCM_VDW_RADII to SMD_RADIUS
 Discretize the solute cavity surface with Lebedev spheres
	Using 110 Lebedev grid points for each H atom
	Using 194 Lebedev grid points for other atoms
	Atomic van der Waals radii will be scaled by 1.20
 Remove points where switching function is < 1.0e-08
 Keep 826 surface tesserae and discard 668 interior tesserae
 Molecular Surface Area = 99.736 Angst**2

                       Distance Matrix (Angstroms)
             O (  1)   C (  2)   O (  3)   C (  4)   O (  5)   O (  6)
   C (  2)  1.413449
   O (  3)  2.330679  1.407641
   C (  4)  2.380656  1.542791  2.420673
   O (  5)  2.788843  2.362213  3.547271  1.256032
   O (  6)  3.330237  2.407865  2.637939  1.251343  2.239941
   H (  7)  0.963431  1.944015  2.664420  3.201838  3.556073  4.172261
   H (  8)  2.634511  1.933285  0.963746  3.238541  4.255388  3.574473
   H (  9)  2.054899  1.092026  2.051978  2.157706  2.641583  3.109759
             H (  7)   H (  8)
   H (  8)  2.613811
   H (  9)  2.195355  2.200112
 
 A cutoff of  1.0D-12 yielded   7810 shell pairs
 There are     86160 function pairs (    133207 Cartesian)
 Smallest overlap matrix eigenvalue = 7.87E-05

 Scale SEOQF with 1.000000e-01/1.000000e-01/1.000000e-01

 Standard Electronic Orientation quadrupole field applied
 Nucleus-field energy     =     0.0000000047 hartrees
 Guess from superposition of atomic densities
 Warning:  Energy on first SCF cycle will be non-variational
 SAD guess density has 47.000000 electrons

 -----------------------------------------------------------------------
  General SCF calculation program by
  Eric Jon Sundstrom, Paul Horn, Yuezhi Mao, Dmitri Zuev, Alec White,
  David Stuck, Shaama M.S., Shane Yost, Joonho Lee, David Small,
  Daniel Levine, Susi Lehtola, Hugh Burton, Evgeny Epifanovsky,
  Bang C. Huynh
 -----------------------------------------------------------------------
 Exchange:     0.1500 Hartree-Fock + 1.0000 wB97M-V + LR-HF
 Correlation:  1.0000 wB97M-V
 Using SG-2 standard quadrature grid
 Nonlocal Correlation:  VV10 with C = 0.0100 and b = 6.00 and scale = 1.00000
 Grid used for NLC:  SG-1 standard quadrature
 
 Citation of the SMD model:
 Marenich, A.V.; Cramer, C.J.; Truhlar, D.G.
 J. Phys. Chem. B 2009, 113, 6378-6396.
 iSolventCode=           1
 Solvent: water                                                           
 
 vradii
            1           2           3           4           5           6
    1   1.5200000   1.8500000   1.5200000   1.8500000   1.5200000   1.5200000
            7           8           9
    1   1.2000000   1.2000000   1.2000000
 using 4 threads for integral computing
 -------------------------------------------------------
 OpenMP Integral computing Module                
 Release: version 1.0, May 2013, Q-Chem Inc. Pittsburgh 
 -------------------------------------------------------
 -------------------------------------------------------
 OpenMP BLAS3 based DFT computing Module                
 Release: version 1.0, May 2013, Q-Chem Inc. Pittsburgh 
 -------------------------------------------------------
 A restricted SCF calculation will be
 performed using DIIS, GDM
 SCF converges when RMS gradient is below 1.0e-07
 ---------------------------------------
  Cycle       Energy         DIIS error
 ---------------------------------------
    1    -379.8887747366      1.83e-02  
    2    -378.9438494933      3.59e-03  Done DIIS. Switching to GDM
 ---------------------------------------
  Cycle       Energy        RMS Gradient
 ---------------------------------------
    1    -378.9438494933      1.07e-01   Descent step
    2    -379.1576177410      1.87e-02   Normal BFGS step
    3    -379.1674553059      8.00e-03   Normal BFGS step
    4    -379.1681821521      2.48e-03   Normal BFGS step
    5    -379.1683809853      6.26e-04   Normal BFGS step
    6    -379.1683948764      3.20e-04   Normal BFGS step
    7    -379.1683981085      6.93e-05   Normal BFGS step
    8    -379.1683981916      5.80e-05   Normal BFGS step
    9    -379.1683982176      2.61e-05   Normal BFGS step
   10    -379.1683982243      3.17e-06   Normal BFGS step
   11    -379.1683982247      1.46e-06   Normal BFGS step
   12    -379.1683982247      5.85e-07   Normal BFGS step
   13    -379.1683982247      2.48e-07   Normal BFGS step
   14    -379.1683982247      9.64e-08  Convergence criterion met
 ---------------------------------------
 SCF time:   CPU 2533.88s  wall 684.00s 
(3)  G-ENP(liq) elect-nuc-pol free energy of system     -379.168398225 a.u.
(4)  G-CDS(liq) cavity-dispersion-solvent structure 
     free energy                                                4.1889 kcal/mol
(6)  G-S(liq) free energy of system                     -379.161722850 a.u.
 SCF   energy in the final basis set =     -379.1617228496
 Total energy in the final basis set =     -379.1617228496
 
 --------------------------------------------------------------
 
                    Orbital Energies (a.u.)
 --------------------------------------------------------------
 
 Alpha MOs
 -- Occupied --
-19.3369 -19.3356 -19.2818 -19.2792 -10.4368 -10.4364  -1.1979  -1.1596
 -1.1280  -1.0754  -0.8115  -0.6450  -0.6361  -0.6313  -0.5742  -0.5274
 -0.5082  -0.4965  -0.4871  -0.4119  -0.4075  -0.3686  -0.3583  -0.3557
 -- Virtual --
  0.0729   0.1175   0.1252   0.1389   0.1499   0.1922   0.1985   0.2141
  0.2480   0.2591   0.2752   0.2936   0.2994   0.3287   0.3451   0.3629
  0.3755   0.3843   0.3983   0.4209   0.4251   0.4306   0.4331   0.4596
  0.4640   0.4879   0.4998   0.5086   0.5189   0.5362   0.5713   0.6073
  0.6223   0.6635   0.6908   0.7219   0.7276   0.7655   0.7850   0.7918
  0.7998   0.8291   0.8439   0.8594   0.8775   0.8971   0.9281   0.9568
  0.9668   0.9773   0.9967   1.0136   1.0615   1.0957   1.1090   1.1226
  1.1370   1.1772   1.1912   1.2054   1.2410   1.2735   1.3019   1.3243
  1.3827   1.4136   1.4231   1.4466   1.4561   1.4627   1.4765   1.4846
  1.5023   1.5123   1.5230   1.5354   1.5638   1.5678   1.5929   1.6224
  1.6536   1.6794   1.7186   1.7591   1.7705   1.7943   1.8287   1.8576
  1.8616   1.8975   1.9265   1.9491   1.9711   1.9858   2.0085   2.0379
  2.0612   2.0748   2.1142   2.1618   2.1783   2.1848   2.2114   2.2228
  2.2502   2.2859   2.2973   2.3139   2.3238   2.3369   2.3477   2.3841
  2.4266   2.4338   2.4643   2.4997   2.5141   2.5214   2.5593   2.5814
  2.6390   2.6528   2.6677   2.6826   2.7248   2.7346   2.7734   2.7996
  2.8422   2.8601   2.8802   2.8979   2.9232   2.9345   2.9837   3.0363
  3.0389   3.0881   3.1338   3.1492   3.2005   3.2372   3.2414   3.2862
  3.3031   3.3287   3.3733   3.4091   3.4437   3.4762   3.5009   3.5672
  3.5797   3.6225   3.6603   3.7283   3.8153   3.8526   3.8682   3.8800
  3.9090   3.9255   3.9489   3.9629   4.0090   4.0263   4.0430   4.0671
  4.1094   4.1357   4.1685   4.1915   4.2146   4.2374   4.2602   4.2699
  4.2867   4.2978   4.3509   4.3732   4.4074   4.4186   4.4632   4.4951
  4.5000   4.5301   4.5586   4.5911   4.6211   4.6383   4.6594   4.6753
  4.7198   4.7480   4.7645   4.7803   4.8351   4.8518   4.9181   4.9505
  5.0299   5.1341   5.1580   5.2006   5.2183   5.2296   5.2770   5.3143
  5.3564   5.4064   5.4571   5.4759   5.5508   5.5947   5.6534   5.6679
  5.6735   5.7105   5.7385   5.7934   5.8137   5.8491   5.8839   5.9069
  5.9189   5.9594   5.9689   6.0203   6.0422   6.1270   6.1542   6.1717
  6.1887   6.2361   6.2969   6.3135   6.3650   6.3809   6.4029   6.4418
  6.4967   6.5147   6.5665   6.6219   6.6751   6.7083   6.7346   6.7976
  6.8238   6.8581   6.8777   6.9366   6.9697   7.0012   7.0522   7.0832
  7.1214   7.1474   7.2053   7.2715   7.3082   7.3908   7.3996   7.4566
  7.4741   7.4891   7.5133   7.5407   7.5833   7.5884   7.6139   7.6972
  7.7097   7.7767   7.8105   7.8619   7.8712   7.9099   7.9652   8.0207
  8.0917   8.1245   8.2378   8.2538   8.3197   8.3482   8.4009   8.4759
  8.5119   8.5773   8.6774   8.6888   8.7200   8.7421   8.7510   8.8600
  8.8692   8.9684   9.0097   9.0199   9.0276   9.0285   9.0294   9.0561
  9.0747   9.1639   9.2551   9.3025   9.3641   9.3731   9.3786   9.4767
  9.5310   9.5458   9.5733   9.6536   9.6643   9.7921   9.8420   9.8633
  9.8941   9.9638  10.1021  10.1629  10.2335  10.2771  10.3466  10.4029
 10.4170  10.4230  10.4683  10.5041  10.5547  10.7707  10.7815  10.8617
 10.9260  11.0363  11.0481  11.1489  11.1832  11.1996  11.2078  11.3132
 11.3327  11.4536  11.4946  11.5130  11.5257  11.5936  11.6153  11.6336
 11.7364  11.7589  11.8271  11.8767  11.8823  11.9184  11.9306  11.9946
 12.0246  12.0321  12.0684  12.1461  12.1658  12.2273  12.2646  12.3039
 12.3399  12.3862  12.3905  12.4768  12.4934  12.6071  12.6730  12.7475
 12.8138  12.8170  13.1354  13.1670  13.2181  13.2348  13.3250  13.6797
 13.9596  13.9736  14.1570  14.1827  14.2322  14.2513  14.2869  14.4600
 14.4971  14.6122  16.7349  16.7381  28.5128  28.8164  48.3278  48.4515
 48.6639  48.7486 149.2705 149.6236 255.7348 255.8665 256.0973 256.1967
 --------------------------------------------------------------
 
          Ground-State Mulliken Net Atomic Charges

     Atom                 Charge (a.u.)
  ----------------------------------------
      1 O                    -0.510347
      2 C                     0.237924
      3 O                    -0.514205
      4 C                     0.311057
      5 O                    -0.628450
      6 O                    -0.626432
      7 H                     0.323966
      8 H                     0.321664
      9 H                     0.084824
  ----------------------------------------
  Sum of atomic charges =    -1.000000

 -----------------------------------------------------------------
                    Cartesian Multipole Moments
 -----------------------------------------------------------------
    Charge (ESU x 10^10)
                -4.8032
    Dipole Moment (Debye)
         X     -12.0510      Y       2.2628      Z       2.5857
       Tot      12.5312
    Quadrupole Moments (Debye-Ang)
        XX     -47.0831     XY       1.7521     YY     -47.1286
        XZ      -5.9893     YZ      -4.5400     ZZ     -37.8028
    Octopole Moments (Debye-Ang^2)
       XXX     -99.0032    XXY      12.7291    XYY     -30.5412
       YYY      41.9769    XXZ      -4.9632    XYZ      -6.3899
       YYZ      -1.0658    XZZ     -19.0988    YZZ       8.8748
       ZZZ     -16.8833
    Hexadecapole Moments (Debye-Ang^3)
      XXXX    -425.6551   XXXY      25.5852   XXYY    -108.5543
      XYYY      22.5895   YYYY    -252.9004   XXXZ     -36.2574
      XXYZ     -17.8227   XYYZ      -7.0393   YYYZ     -20.8942
      XXZZ     -86.2557   XYZZ       3.2357   YYZZ     -54.8686
      XZZZ     -20.1888   YZZZ     -18.3281   ZZZZ     -82.6969
 -----------------------------------------------------------------
 Total job time:  686.35s(wall), 2537.15s(cpu) 
 Thu Dec  7 15:56:40 2023

        *************************************************************
        *                                                           *
        *  Thank you very much for using Q-Chem.  Have a nice day.  *
        *                                                           *
        *************************************************************


