
Running Job 1 of 1 Q_in.in
qchem Q_in.in_359229.0 /scratch/ari.fischer/qChem1912881.hpc-mn1/qchem359229/ 0
/usr/local/qchem-5.4.1/exe/qcprog.exe_s Q_in.in_359229.0 /scratch/ari.fischer/qChem1912881.hpc-mn1/qchem359229/
                  Welcome to Q-Chem
     A Quantum Leap Into The Future Of Chemistry


 Q-Chem 5.4, Q-Chem, Inc., Pleasanton, CA (2021)

 License issued to: Nanyang Technological University (site)

 E. Epifanovsky,  A. T. B. Gilbert,  Xintian Feng,  Joonho Lee,  Yuezhi Mao,  
 N. Mardirossian,  P. Pokhilko,  A. White,  M. Wormit,  M. P. Coons,  
 A. L. Dempwolff,  Zhengting Gan,  D. Hait,  P. R. Horn,  L. D. Jacobson,  
 I. Kaliman,  J. Kussmann,  A. W. Lange,  Ka Un Lao,  D. S. Levine,  Jie Liu,  
 S. C. McKenzie,  A. F. Morrison,  K. Nanda,  F. Plasser,  D. R. Rehn,  
 M. L. Vidal,  Zhi-Qiang You,  Ying Zhu,  B. Alam,  B. Albrecht,  
 A. Aldossary,  E. Alguire,  J. H. Andersen,  D. Barton,  K. Begam,  A. Behn,  
 Y. A. Bernard,  E. J. Berquist,  H. Burton,  A. Carreras,  K. Carter-Fenk,  
 R. Chakraborty,  A. D. Chien,  K. D. Closser,  V. Cofer-Shabica,  
 S. Dasgupta,  Jia Deng,  M. de Wergifosse,  M. Diedenhofen,  Hainam Do,  
 S. Ehlert,  Po-Tung Fang,  S. Fatehi,  Qingguo Feng,  T. Friedhoff,  
 J. Gayvert,  Qinghui Ge,  G. Gidofalvi,  M. Goldey,  J. Gomes,  
 C. Gonzalez-Espinoza,  S. Gulania,  A. Gunina,  M. W. D. Hanson-Heine,  
 P. H. P. Harbach,  A. W. Hauser,  M. F. Herbst,  M. Hernandez Vera,  
 M. Hodecker,  Z. C. Holden,  S. Houck,  Xunkun Huang,  Kerwin Hui,  
 B. C. Huynh,  M. Ivanov,  Hyunjun Ji,  Hanjie Jiang,  B. Kaduk,  S. Kaehler,  
 K. Khistyaev,  Jaehoon Kim,  P. Klunzinger,  Z. Koczor-Benda,  
 Joong Hoon Koh,  D. Kosenkov,  L. Koulias,  T. Kowalczyk,  C. M. Krauter,  
 K. Kue,  A. Kunitsa,  T. Kus,  A. Landau,  K. V. Lawler,  D. Lefrancois,  
 S. Lehtola,  Rain Li,  Yi-Pei Li,  Jiashu Liang,  M. Liebenthal,  
 Hung-Hsuan Lin,  You-Sheng Lin,  Fenglai Liu,  Kuan-Yu Liu,  
 M. Loipersberger,  A. Luenser,  A. Manjanath,  P. Manohar,  E. Mansoor,  
 S. F. Manzer,  Shan-Ping Mao,  A. V. Marenich,  T. Markovich,  S. Mason,  
 S. A. Maurer,  P. F. McLaughlin,  M. F. S. J. Menger,  J.-M. Mewes,  
 S. A. Mewes,  P. Morgante,  J. W. Mullinax,  K. J. Oosterbaan,  G. Paran,  
 Alexander C. Paul,  Suranjan K. Paul,  F. Pavosevic,  Zheng Pei,  S. Prager,  
 E. I. Proynov,  E. Ramos,  B. Rana,  A. E. Rask,  A. Rettig,  R. M. Richard,  
 F. Rob,  E. Rossomme,  T. Scheele,  M. Scheurer,  M. Schneider,  
 N. Sergueev,  S. M. Sharada,  W. Skomorowski,  D. W. Small,  C. J. Stein,  
 Yu-Chuan Su,  E. J. Sundstrom,  Zhen Tao,  J. Thirman,  T. Tsuchimochi,  
 N. M. Tubman,  S. P. Veccham,  O. Vydrov,  J. Wenzel,  J. Witte,  A. Yamada,  
 Kun Yao,  S. Yeganeh,  S. R. Yost,  A. Zech,  Igor Ying Zhang,  Xing Zhang,  
 Yu Zhang,  D. Zuev,  A. Aspuru-Guzik,  A. T. Bell,  N. A. Besley,  
 K. B. Bravaya,  B. R. Brooks,  D. Casanova,  Jeng-Da Chai,  S. Coriani,  
 C. J. Cramer,  A. E. DePrince, III,  R. A. DiStasio Jr.,  A. Dreuw,  
 B. D. Dunietz,  T. R. Furlani,  W. A. Goddard III,  S. Grimme,  
 S. Hammes-Schiffer,  T. Head-Gordon,  W. J. Hehre,  Chao-Ping Hsu,  
 T.-C. Jagau,  Yousung Jung,  A. Klamt,  Jing Kong,  D. S. Lambrecht,  
 WanZhen Liang,  N. J. Mayhall,  C. W. McCurdy,  J. B. Neaton,  
 C. Ochsenfeld,  J. A. Parkhill,  R. Peverati,  V. A. Rassolov,  Yihan Shao,  
 L. V. Slipchenko,  T. Stauch,  R. P. Steele,  J. E. Subotnik,  
 A. J. W. Thom,  A. Tkatchenko,  D. G. Truhlar,  T. Van Voorhis,  
 T. A. Wesolowski,  K. B. Whaley,  H. L. Woodcock III,  P. M. Zimmerman,  
 S. Faraji,  P. M. W. Gill,  M. Head-Gordon,  J. M. Herbert,  A. I. Krylov

 Additional authors for Version 5.4.1: 
 S. Kotaru,  Shaozhi Li,  Xiangyuan Li,  F. Matz,  A. Molle,  Haisheng Ren,  
 Yingli Su,  Hung-Yi Tsai,  C. Utku,  Fang Wang

 Contributors to earlier versions of Q-Chem not listed above: 
 R. D. Adamson,  B. Austin,  R. Baer,  J. Baker,  G. J. O. Beran,  
 K. Brandhorst,  S. T. Brown,  E. F. C. Byrd,  A. K. Chakraborty,  
 G. K. L. Chan,  Chun-Min Chang,  Yunqing Chen,  C.-L. Cheng,  
 Siu Hung Chien,  D. M. Chipman,  D. L. Crittenden,  H. Dachsel,  
 R. J. Doerksen,  A. D. Dutoi,  R. G. Edgar,  J. Fosso-Tande,  
 L. Fusti-Molnar,  D. Ghosh,  A. Ghysels,  A. Golubeva-Zadorozhnaya,  
 J. Gonthier,  M. S. Gordon,  S. R. Gwaltney,  G. Hawkins,  J. E. Herr,  
 A. Heyden,  S. Hirata,  E. G. Hohenstein,  G. Kedziora,  F. J. Keil,  
 C. Kelley,  Jihan Kim,  R. A. King,  R. Z. Khaliullin,  P. P. Korambath,  
 W. Kurlancheek,  A. Laurent,  A. M. Lee,  M. S. Lee,  S. V. Levchenko,  
 Ching Yeh Lin,  D. Liotard,  E. Livshits,  R. C. Lochan,  I. Lotan,  
 L. A. Martinez-Martinez,  P. E. Maslen,  N. Nair,  D. P. O'Neill,  
 D. Neuhauser,  E. Neuscamman,  C. M. Oana,  R. Olivares-Amaya,  R. Olson,  
 T. M. Perrine,  B. Peters,  P. A. Pieniazek,  A. Prociuk,  Y. M. Rhee,  
 J. Ritchie,  M. A. Rohrdanz,  E. Rosta,  N. J. Russ,  H. F. Schaefer III,  
 M. W. Schmidt,  N. E. Schultz,  S. Sharma,  N. Shenvi,  C. D. Sherrill,  
 A. C. Simmonett,  A. Sodt,  T. Stein,  D. Stuck,  K. S. Thanthiriwatte,  
 V. Vanovschi,  L. Vogt,  Tao Wang,  A. Warshel,  M. A. Watson,  
 C. F. Williams,  Q. Wu,  X. Xu,  Jun Yang,  W. Zhang,  Yan Zhao

 Please cite Q-Chem as follows:
 Y. Shao et al., Mol. Phys. 113, 184-215 (2015)
 DOI: 10.1080/00268976.2014.952696

 Q-Chem 5.4.1 for Intel X86 EM64T Linux

 Parts of Q-Chem use Armadillo 9.800.1 (Horizon Scraper).
 http://arma.sourceforge.net/

 Q-Chem begins on Mon Feb  5 12:38:31 2024  

 Host: 
0

     Scratch files written to /scratch/ari.fischer/qChem1912881.hpc-mn1/qchem359229//
 Aug1521 |scratch|qcdevops|jenkins|workspace|build_RNUM 8249   
 Processing $rem in /usr/local/qchem-5.4.1/config/preferences:
 Processing $rem in /home/ari.fischer/.qchemrc:
 Symmetry turned off for PCM/SM12/SMD calculation

 Checking the input file for inconsistencies... 	...done.

--------------------------------------------------------------
User input:
--------------------------------------------------------------
$molecule
0 1
C         1.8235784383   -0.0637334893    0.0002473030
O         2.3417852248    1.1510612460    0.0007760691
O         2.4376891661   -1.0978774708    0.0006843887
C         0.2881145663   -0.0022133723   -0.0008982110
O        -0.3258508336    1.0319556106   -0.0015152341
O        -0.2300177268   -1.2169567043   -0.0008235433
H         3.3109425424    1.0843720479    0.0015034206
H        -1.1991530757   -1.1507164572   -0.0014270296
$end

$rem
BASIS = 6-31G(d)
JOB_TYPE = SP
METHOD = wB97M-V
SCF_ALGORITHM = DIIS_GDM
MAX_SCF_CYCLES = 400
SCF_CONVERGENCE = 7
THRESH = 12
Solvent_method = SMD
$end
--------------------------------------------------------------
 ----------------------------------------------------------------
             Standard Nuclear Orientation (Angstroms)
    I     Atom           X                Y                Z
 ----------------------------------------------------------------
    1      C       1.8235784383    -0.0637334893     0.0002473030
    2      O       2.3417852248     1.1510612460     0.0007760691
    3      O       2.4376891661    -1.0978774708     0.0006843887
    4      C       0.2881145663    -0.0022133723    -0.0008982110
    5      O      -0.3258508336     1.0319556106    -0.0015152341
    6      O      -0.2300177268    -1.2169567043    -0.0008235433
    7      H       3.3109425424     1.0843720479     0.0015034206
    8      H      -1.1991530757    -1.1507164572    -0.0014270296
 ----------------------------------------------------------------
 Nuclear Repulsion Energy =         232.69010695 hartrees
 There are       23 alpha and       23 beta electrons
 Requested basis set is 6-31G(d)
 There are 28 shells and 94 basis functions

 Total QAlloc Memory Limit 288000 MB
 Mega-Array Size       188 MB
 MEM_STATIC part       192 MB
 
 Citation of the SMD model:
 Marenich, A.V.; Cramer, C.J.; Truhlar, D.G.
 J. Phys. Chem. B 2009, 113, 6378-6396.
 iSolventCode=           1
 Solvent: water                                                           
 
 vradii
            1           2           3           4           5           6
    1   1.8500000   1.5200000   1.5200000   1.8500000   1.5200000   1.5200000
            7           8
    1   1.2000000   1.2000000
 Changing PCM_VDW_RADII to SMD_RADIUS
 Discretize the solute cavity surface with Lebedev spheres
	Using 110 Lebedev grid points for each H atom
	Using 194 Lebedev grid points for other atoms
	Atomic van der Waals radii will be scaled by 1.20
 Remove points where switching function is < 1.0e-08
 Keep 774 surface tesserae and discard 610 interior tesserae
 Molecular Surface Area = 95.717 Angst**2

                       Distance Matrix (Angstroms)
             C (  1)   O (  2)   O (  3)   C (  4)   O (  5)   O (  6)
   O (  2)  1.320706
   O (  3)  1.202741  2.250983
   C (  4)  1.536696  2.355336  2.412707
   O (  5)  2.412589  2.670295  3.489032  1.202688
   O (  6)  2.355246  3.495952  2.670364  1.320630  2.250953
   H (  7)  1.878936  0.971449  2.350486  3.212190  3.637172  4.223094
   H (  8)  3.212233  4.223320  3.637227  1.879102  2.350896  0.971397
             H (  7)
   H (  8)  5.033547
 
 A cutoff of  1.0D-12 yielded    383 shell pairs
 There are      4572 function pairs
 Smallest overlap matrix eigenvalue = 1.72E-03

 Scale SEOQF with 1.000000e-01/1.000000e+00/1.000000e+00

 Standard Electronic Orientation quadrupole field applied
 Nucleus-field energy     =     0.0000000353 hartrees
 Guess from superposition of atomic densities
 Warning:  Energy on first SCF cycle will be non-variational
 SAD guess density has 46.000000 electrons

 -----------------------------------------------------------------------
  General SCF calculation program by
  Eric Jon Sundstrom, Paul Horn, Yuezhi Mao, Dmitri Zuev, Alec White,
  David Stuck, Shaama M.S., Shane Yost, Joonho Lee, David Small,
  Daniel Levine, Susi Lehtola, Hugh Burton, Evgeny Epifanovsky,
  Bang C. Huynh
 -----------------------------------------------------------------------
 Exchange:     0.1500 Hartree-Fock + 1.0000 wB97M-V + LR-HF
 Correlation:  1.0000 wB97M-V
 Using SG-2 standard quadrature grid
 Nonlocal Correlation:  VV10 with C = 0.0100 and b = 6.00 and scale = 1.00000
 Grid used for NLC:  SG-1 standard quadrature
 
 Citation of the SMD model:
 Marenich, A.V.; Cramer, C.J.; Truhlar, D.G.
 J. Phys. Chem. B 2009, 113, 6378-6396.
 iSolventCode=           1
 Solvent: water                                                           
 
 vradii
            1           2           3           4           5           6
    1   1.8500000   1.5200000   1.5200000   1.8500000   1.5200000   1.5200000
            7           8
    1   1.2000000   1.2000000
 using 4 threads for integral computing
 -------------------------------------------------------
 OpenMP Integral computing Module                
 Release: version 1.0, May 2013, Q-Chem Inc. Pittsburgh 
 -------------------------------------------------------
 -------------------------------------------------------
 OpenMP BLAS3 based DFT computing Module                
 Release: version 1.0, May 2013, Q-Chem Inc. Pittsburgh 
 -------------------------------------------------------
 A restricted SCF calculation will be
 performed using DIIS, GDM
 SCF converges when RMS gradient is below 1.0e-07
 ---------------------------------------
  Cycle       Energy         DIIS error
 ---------------------------------------
    1    -379.4818839725      8.52e-02  
    2    -378.0314632267      1.53e-02  
    3    -377.9796508578      1.85e-02  
    4    -378.2358335623      1.21e-03  Done DIIS. Switching to GDM
 ---------------------------------------
  Cycle       Energy        RMS Gradient
 ---------------------------------------
    1    -378.2358335623      1.97e-02   Normal BFGS step
    2    -378.2360044334      1.54e-02   Normal BFGS step
    3    -378.2372486149      1.97e-03   Normal BFGS step
    4    -378.2372622187      1.01e-03   Normal BFGS step
    5    -378.2372709461      2.65e-04   Normal BFGS step
    6    -378.2372713066      8.63e-05   Normal BFGS step
    7    -378.2372713417      1.75e-05   Normal BFGS step
    8    -378.2372713441      5.44e-06   Normal BFGS step
    9    -378.2372713442      6.77e-07   Normal BFGS step
   10    -378.2372713442      1.98e-07   Normal BFGS step
   11    -378.2372713442      1.48e-07   Normal BFGS step
   12    -378.2372713442      4.61e-08  Convergence criterion met
 ---------------------------------------
 SCF time:   CPU 57.33s  wall 15.00s 
(3)  G-ENP(liq) elect-nuc-pol free energy of system     -378.237271344 a.u.
(4)  G-CDS(liq) cavity-dispersion-solvent structure 
     free energy                                                5.8506 kcal/mol
(6)  G-S(liq) free energy of system                     -378.227947750 a.u.
 SCF   energy in the final basis set =     -378.2279477500
 Total energy in the final basis set =     -378.2279477500
 
 --------------------------------------------------------------
 
                    Orbital Energies (a.u.)
 --------------------------------------------------------------
 
 Alpha MOs
 -- Occupied --
-19.4141 -19.4141 -19.3676 -19.3676 -10.5168 -10.5167  -1.2707  -1.2455
 -1.1783  -1.1617  -0.8430  -0.7451  -0.6446  -0.6199  -0.6141  -0.6048
 -0.5491  -0.5454  -0.5075  -0.4482  -0.4433  -0.4366  -0.3811
 -- Virtual --
  0.0304   0.1757   0.1858   0.1924   0.3252   0.3414   0.3694   0.4308
  0.5315   0.6006   0.6467   0.7021   0.7192   0.7227   0.7508   0.8022
  0.8712   0.8885   0.9053   0.9816   0.9867   0.9965   1.0384   1.0464
  1.0649   1.0901   1.1319   1.1806   1.2101   1.2692   1.3490   1.3888
  1.4536   1.5201   1.5400   1.6674   1.6745   1.7337   1.7601   1.8287
  1.8567   1.8598   1.9147   1.9164   1.9361   1.9785   2.0335   2.0536
  2.0901   2.1899   2.2901   2.3555   2.4452   2.4643   2.5353   2.6628
  2.7020   2.7791   2.8081   2.8861   2.9249   3.0162   3.0694   3.2088
  3.3271   3.8089   4.0826   4.1335   4.1578   4.6736   4.8481
 --------------------------------------------------------------
 
          Ground-State Mulliken Net Atomic Charges

     Atom                 Charge (a.u.)
  ----------------------------------------
      1 C                     0.577820
      2 O                    -0.573204
      3 O                    -0.491236
      4 C                     0.577832
      5 O                    -0.491196
      6 O                    -0.573168
      7 H                     0.486567
      8 H                     0.486585
  ----------------------------------------
  Sum of atomic charges =     0.000000

 -----------------------------------------------------------------
                    Cartesian Multipole Moments
 -----------------------------------------------------------------
    Charge (ESU x 10^10)
                 0.0000
    Dipole Moment (Debye)
         X      -0.0010      Y      -0.0012      Z       0.0007
       Tot       0.0017
    Quadrupole Moments (Debye-Ang)
        XX     -22.4138     XY      11.0571     YY     -39.2924
        XZ       0.0055     YZ       0.0086     ZZ     -31.2371
    Octopole Moments (Debye-Ang^2)
       XXX     -71.0001    XXY      24.0842    XYY     -42.2236
       YYY       3.8815    XXZ       0.0228    XYZ       0.0066
       YYZ       0.0104    XZZ     -32.9835    YZZ       1.0296
       ZZZ       0.0225
    Hexadecapole Moments (Debye-Ang^3)
      XXXX    -371.5953   XXXY      97.7095   XXYY    -121.6101
      XYYY      10.0432   YYYY    -209.9567   XXXZ       0.0073
      XXYZ       0.0507   XYYZ      -0.0185   YYYZ       0.0130
      XXZZ     -90.6621   XYZZ      -1.5358   YYZZ     -37.4707
      XZZZ      -0.0790   YZZZ       0.0029   ZZZZ     -23.3189
 -----------------------------------------------------------------
 Total job time:  16.01s(wall), 58.82s(cpu) 
 Mon Feb  5 12:38:47 2024

        *************************************************************
        *                                                           *
        *  Thank you very much for using Q-Chem.  Have a nice day.  *
        *                                                           *
        *************************************************************


