
Running Job 1 of 2 Q_in.in
qchem Q_in.in_81446.0 /scratch/ari.fischer/qChem1937728.hpc-mn1/qchem81446/ 0
/usr/local/qchem-5.4.1/exe/qcprog.exe_s Q_in.in_81446.0 /scratch/ari.fischer/qChem1937728.hpc-mn1/qchem81446/
                  Welcome to Q-Chem
     A Quantum Leap Into The Future Of Chemistry


 Q-Chem 5.4, Q-Chem, Inc., Pleasanton, CA (2021)

 License issued to: Nanyang Technological University (site)

 E. Epifanovsky,  A. T. B. Gilbert,  Xintian Feng,  Joonho Lee,  Yuezhi Mao,  
 N. Mardirossian,  P. Pokhilko,  A. White,  M. Wormit,  M. P. Coons,  
 A. L. Dempwolff,  Zhengting Gan,  D. Hait,  P. R. Horn,  L. D. Jacobson,  
 I. Kaliman,  J. Kussmann,  A. W. Lange,  Ka Un Lao,  D. S. Levine,  Jie Liu,  
 S. C. McKenzie,  A. F. Morrison,  K. Nanda,  F. Plasser,  D. R. Rehn,  
 M. L. Vidal,  Zhi-Qiang You,  Ying Zhu,  B. Alam,  B. Albrecht,  
 A. Aldossary,  E. Alguire,  J. H. Andersen,  D. Barton,  K. Begam,  A. Behn,  
 Y. A. Bernard,  E. J. Berquist,  H. Burton,  A. Carreras,  K. Carter-Fenk,  
 R. Chakraborty,  A. D. Chien,  K. D. Closser,  V. Cofer-Shabica,  
 S. Dasgupta,  Jia Deng,  M. de Wergifosse,  M. Diedenhofen,  Hainam Do,  
 S. Ehlert,  Po-Tung Fang,  S. Fatehi,  Qingguo Feng,  T. Friedhoff,  
 J. Gayvert,  Qinghui Ge,  G. Gidofalvi,  M. Goldey,  J. Gomes,  
 C. Gonzalez-Espinoza,  S. Gulania,  A. Gunina,  M. W. D. Hanson-Heine,  
 P. H. P. Harbach,  A. W. Hauser,  M. F. Herbst,  M. Hernandez Vera,  
 M. Hodecker,  Z. C. Holden,  S. Houck,  Xunkun Huang,  Kerwin Hui,  
 B. C. Huynh,  M. Ivanov,  Hyunjun Ji,  Hanjie Jiang,  B. Kaduk,  S. Kaehler,  
 K. Khistyaev,  Jaehoon Kim,  P. Klunzinger,  Z. Koczor-Benda,  
 Joong Hoon Koh,  D. Kosenkov,  L. Koulias,  T. Kowalczyk,  C. M. Krauter,  
 K. Kue,  A. Kunitsa,  T. Kus,  A. Landau,  K. V. Lawler,  D. Lefrancois,  
 S. Lehtola,  Rain Li,  Yi-Pei Li,  Jiashu Liang,  M. Liebenthal,  
 Hung-Hsuan Lin,  You-Sheng Lin,  Fenglai Liu,  Kuan-Yu Liu,  
 M. Loipersberger,  A. Luenser,  A. Manjanath,  P. Manohar,  E. Mansoor,  
 S. F. Manzer,  Shan-Ping Mao,  A. V. Marenich,  T. Markovich,  S. Mason,  
 S. A. Maurer,  P. F. McLaughlin,  M. F. S. J. Menger,  J.-M. Mewes,  
 S. A. Mewes,  P. Morgante,  J. W. Mullinax,  K. J. Oosterbaan,  G. Paran,  
 Alexander C. Paul,  Suranjan K. Paul,  F. Pavosevic,  Zheng Pei,  S. Prager,  
 E. I. Proynov,  E. Ramos,  B. Rana,  A. E. Rask,  A. Rettig,  R. M. Richard,  
 F. Rob,  E. Rossomme,  T. Scheele,  M. Scheurer,  M. Schneider,  
 N. Sergueev,  S. M. Sharada,  W. Skomorowski,  D. W. Small,  C. J. Stein,  
 Yu-Chuan Su,  E. J. Sundstrom,  Zhen Tao,  J. Thirman,  T. Tsuchimochi,  
 N. M. Tubman,  S. P. Veccham,  O. Vydrov,  J. Wenzel,  J. Witte,  A. Yamada,  
 Kun Yao,  S. Yeganeh,  S. R. Yost,  A. Zech,  Igor Ying Zhang,  Xing Zhang,  
 Yu Zhang,  D. Zuev,  A. Aspuru-Guzik,  A. T. Bell,  N. A. Besley,  
 K. B. Bravaya,  B. R. Brooks,  D. Casanova,  Jeng-Da Chai,  S. Coriani,  
 C. J. Cramer,  A. E. DePrince, III,  R. A. DiStasio Jr.,  A. Dreuw,  
 B. D. Dunietz,  T. R. Furlani,  W. A. Goddard III,  S. Grimme,  
 S. Hammes-Schiffer,  T. Head-Gordon,  W. J. Hehre,  Chao-Ping Hsu,  
 T.-C. Jagau,  Yousung Jung,  A. Klamt,  Jing Kong,  D. S. Lambrecht,  
 WanZhen Liang,  N. J. Mayhall,  C. W. McCurdy,  J. B. Neaton,  
 C. Ochsenfeld,  J. A. Parkhill,  R. Peverati,  V. A. Rassolov,  Yihan Shao,  
 L. V. Slipchenko,  T. Stauch,  R. P. Steele,  J. E. Subotnik,  
 A. J. W. Thom,  A. Tkatchenko,  D. G. Truhlar,  T. Van Voorhis,  
 T. A. Wesolowski,  K. B. Whaley,  H. L. Woodcock III,  P. M. Zimmerman,  
 S. Faraji,  P. M. W. Gill,  M. Head-Gordon,  J. M. Herbert,  A. I. Krylov

 Additional authors for Version 5.4.1: 
 S. Kotaru,  Shaozhi Li,  Xiangyuan Li,  F. Matz,  A. Molle,  Haisheng Ren,  
 Yingli Su,  Hung-Yi Tsai,  C. Utku,  Fang Wang

 Contributors to earlier versions of Q-Chem not listed above: 
 R. D. Adamson,  B. Austin,  R. Baer,  J. Baker,  G. J. O. Beran,  
 K. Brandhorst,  S. T. Brown,  E. F. C. Byrd,  A. K. Chakraborty,  
 G. K. L. Chan,  Chun-Min Chang,  Yunqing Chen,  C.-L. Cheng,  
 Siu Hung Chien,  D. M. Chipman,  D. L. Crittenden,  H. Dachsel,  
 R. J. Doerksen,  A. D. Dutoi,  R. G. Edgar,  J. Fosso-Tande,  
 L. Fusti-Molnar,  D. Ghosh,  A. Ghysels,  A. Golubeva-Zadorozhnaya,  
 J. Gonthier,  M. S. Gordon,  S. R. Gwaltney,  G. Hawkins,  J. E. Herr,  
 A. Heyden,  S. Hirata,  E. G. Hohenstein,  G. Kedziora,  F. J. Keil,  
 C. Kelley,  Jihan Kim,  R. A. King,  R. Z. Khaliullin,  P. P. Korambath,  
 W. Kurlancheek,  A. Laurent,  A. M. Lee,  M. S. Lee,  S. V. Levchenko,  
 Ching Yeh Lin,  D. Liotard,  E. Livshits,  R. C. Lochan,  I. Lotan,  
 L. A. Martinez-Martinez,  P. E. Maslen,  N. Nair,  D. P. O'Neill,  
 D. Neuhauser,  E. Neuscamman,  C. M. Oana,  R. Olivares-Amaya,  R. Olson,  
 T. M. Perrine,  B. Peters,  P. A. Pieniazek,  A. Prociuk,  Y. M. Rhee,  
 J. Ritchie,  M. A. Rohrdanz,  E. Rosta,  N. J. Russ,  H. F. Schaefer III,  
 M. W. Schmidt,  N. E. Schultz,  S. Sharma,  N. Shenvi,  C. D. Sherrill,  
 A. C. Simmonett,  A. Sodt,  T. Stein,  D. Stuck,  K. S. Thanthiriwatte,  
 V. Vanovschi,  L. Vogt,  Tao Wang,  A. Warshel,  M. A. Watson,  
 C. F. Williams,  Q. Wu,  X. Xu,  Jun Yang,  W. Zhang,  Yan Zhao

 Please cite Q-Chem as follows:
 Y. Shao et al., Mol. Phys. 113, 184-215 (2015)
 DOI: 10.1080/00268976.2014.952696

 Q-Chem 5.4.1 for Intel X86 EM64T Linux

 Parts of Q-Chem use Armadillo 9.800.1 (Horizon Scraper).
 http://arma.sourceforge.net/

 Q-Chem begins on Tue Feb 13 13:17:32 2024  

 Host: 
0

     Scratch files written to /scratch/ari.fischer/qChem1937728.hpc-mn1/qchem81446//
 Aug1521 |scratch|qcdevops|jenkins|workspace|build_RNUM 8249   
 Processing $rem in /usr/local/qchem-5.4.1/config/preferences:
 Processing $rem in /home/ari.fischer/.qchemrc:
 Symmetry turned off for PCM/SM12/SMD calculation


!!********************************************.
!!******************Warning*******************.
!!Desired Analytical derivatives not available.
!!Finite difference job might take a long time.
!!********************************************.
!!********************************************.


 2-order derivative to be evaluated numerically with 1-order analytical derivatives

 Checking the input file for inconsistencies... 	...done.

--------------------------------------------------------------
User input:
--------------------------------------------------------------
$molecule
0 2
C    0.5695365    0.0119302    0.6700025
O    1.4789047   -0.2444354    1.4529370
H   -1.5874792   -0.0042416   -0.8607254
C   -0.5883876   -0.8391455    0.5767346
O   -0.5918968   -1.9098741    1.3586141
O   -1.6065447   -0.7618225   -0.2626694
O    0.6742482    1.1189624   -0.0988121
H   -0.1018850    1.3272415   -0.6326109
O   -1.5183944    0.8592389    2.0550453
O   -2.5615200    1.1545408    1.5113734
H   -1.4004994   -2.4225411    1.2079938
$end

$rem
BASIS = 6-311++G(2df,2p)
GUI = 2
JOB_TYPE = Frequency
METHOD = wB97M-V
SOLVENT_METHOD = SMD
SCF_ALGORITHM = DIIS_GDM
MAX_SCF_CYCLES = 400
SCF_CONVERGENCE = 7
THRESH = 12
$end

--------------------------------------------------------------
 ----------------------------------------------------------------
             Standard Nuclear Orientation (Angstroms)
    I     Atom           X                Y                Z
 ----------------------------------------------------------------
    1      C       0.5695365000     0.0119302000     0.6700025000
    2      O       1.4789047000    -0.2444354000     1.4529370000
    3      H      -1.5874792000    -0.0042416000    -0.8607254000
    4      C      -0.5883876000    -0.8391455000     0.5767346000
    5      O      -0.5918968000    -1.9098741000     1.3586141000
    6      O      -1.6065447000    -0.7618225000    -0.2626694000
    7      O       0.6742482000     1.1189624000    -0.0988121000
    8      H      -0.1018850000     1.3272415000    -0.6326109000
    9      O      -1.5183944000     0.8592389000     2.0550453000
   10      O      -2.5615200000     1.1545408000     1.5113734000
   11      H      -1.4004994000    -2.4225411000     1.2079938000
 ----------------------------------------------------------------
 Nuclear Repulsion Energy =         396.67566266 hartrees
 There are       32 alpha and       31 beta electrons
 Requested basis set is 6-311++G(2df,2p)
 There are 82 shells and 302 basis functions

 Total QAlloc Memory Limit 288000 MB
 Mega-Array Size       188 MB
 MEM_STATIC part       192 MB
 
 Citation of the SMD model:
 Marenich, A.V.; Cramer, C.J.; Truhlar, D.G.
 J. Phys. Chem. B 2009, 113, 6378-6396.
 iSolventCode=           1
 Solvent: water                                                           
 
 vradii
            1           2           3           4           5           6
    1   1.8500000   1.5200000   1.2000000   1.8500000   1.5200000   1.5200000
            7           8           9          10          11
    1   1.5200000   1.2000000   1.5200000   1.5200000   1.2000000
 Changing PCM_VDW_RADII to SMD_RADIUS
 Discretize the solute cavity surface with Lebedev spheres
	Using 110 Lebedev grid points for each H atom
	Using 194 Lebedev grid points for other atoms
	Atomic van der Waals radii will be scaled by 1.20
 Remove points where switching function is < 1.0e-08
 Keep 1071 surface tesserae and discard 811 interior tesserae
 Molecular Surface Area = 125.489 Angst**2

                       Distance Matrix (Angstroms)
             C (  1)   O (  2)   H (  3)   C (  4)   O (  5)   O (  6)
   O (  2)  1.227053
   H (  3)  2.645015  3.848823
   C (  4)  1.440075  2.322737  1.939469
   O (  5)  2.348711  2.659098  3.089998  1.325823
   O (  6)  2.490763  3.568052  0.965382  1.321825  2.230716
   O (  7)  1.351873  2.216811  2.637709  2.425860  3.591805  2.960780
   H (  8)  1.969176  3.052634  2.007953  2.528326  3.831972  2.600970
   O (  9)  2.644944  3.250297  3.041725  2.436150  3.001900  2.829737
   O ( 10)  3.437583  4.276164  2.813962  2.956617  3.646010  2.780585
   H ( 11)  3.177598  3.618717  3.187904  1.888162  0.969202  2.227845
             O (  7)   H (  8)   O (  9)   O ( 10)
   H (  8)  0.964730
   O (  9)  3.084516  3.073926
   O ( 10)  3.614438  3.267461  1.212804
   H ( 11)  4.307501  4.374368  3.391383  3.772999
 
 A cutoff of  1.0D-12 yielded   3093 shell pairs
 There are     42402 function pairs (     54239 Cartesian)
 Smallest overlap matrix eigenvalue = 2.90E-05
 Guess from superposition of atomic densities
 Warning:  Energy on first SCF cycle will be non-variational
 SAD guess density has 63.000000 electrons

 -----------------------------------------------------------------------
  General SCF calculation program by
  Eric Jon Sundstrom, Paul Horn, Yuezhi Mao, Dmitri Zuev, Alec White,
  David Stuck, Shaama M.S., Shane Yost, Joonho Lee, David Small,
  Daniel Levine, Susi Lehtola, Hugh Burton, Evgeny Epifanovsky,
  Bang C. Huynh
 -----------------------------------------------------------------------
 Exchange:     0.1500 Hartree-Fock + 1.0000 wB97M-V + LR-HF
 Correlation:  1.0000 wB97M-V
 Using SG-2 standard quadrature grid
 Nonlocal Correlation:  VV10 with C = 0.0100 and b = 6.00 and scale = 1.00000
 Grid used for NLC:  SG-1 standard quadrature
 using 16 threads for integral computing
 -------------------------------------------------------
 OpenMP Integral computing Module                
 Release: version 1.0, May 2013, Q-Chem Inc. Pittsburgh 
 -------------------------------------------------------
 
 Citation of the SMD model:
 Marenich, A.V.; Cramer, C.J.; Truhlar, D.G.
 J. Phys. Chem. B 2009, 113, 6378-6396.
 iSolventCode=           1
 Solvent: water                                                           
 
 vradii
            1           2           3           4           5           6
    1   1.8500000   1.5200000   1.2000000   1.8500000   1.5200000   1.5200000
            7           8           9          10          11
    1   1.5200000   1.2000000   1.5200000   1.5200000   1.2000000
 -------------------------------------------------------
 OpenMP BLAS3 based DFT computing Module                
 Release: version 1.0, May 2013, Q-Chem Inc. Pittsburgh 
 -------------------------------------------------------
 A unrestricted SCF calculation will be
 performed using DIIS, GDM
 SCF converges when RMS gradient is below 1.0e-07
 ---------------------------------------
  Cycle       Energy         DIIS error
 ---------------------------------------
    1    -530.6028631251      1.49e-02  
    2    -529.0436007653      2.42e-03  Done DIIS. Switching to GDM
 ---------------------------------------
  Cycle       Energy        RMS Gradient
 ---------------------------------------
    1    -529.0436007653      1.98e-01   Descent step
    2    -529.2372471052      3.95e-02   Normal BFGS step
    3    -529.2632236791      1.25e-02   Normal BFGS step
    4    -529.2649126621      2.38e-02   Normal BFGS step
    5    -529.2660369441      1.63e-02   Normal BFGS step
    6    -529.2667041373      1.94e-02   Dog-leg BFGS step
    7    -529.2654819468      5.56e-02  Line search: overstep
    8    -529.2689177841      3.14e-02   Normal BFGS step
    9    -529.2667771491      7.37e-02  Line search: overstep
   10    -529.2698835895      3.47e-02   Normal BFGS step
   11    -529.2718594724      3.43e-02   Normal BFGS step
   12    -529.2754829621      3.85e-02   Normal BFGS step
   13    -529.2771319885      9.87e-03   Normal BFGS step
   14    -529.2775960931      4.54e-03   Normal BFGS step
   15    -529.2777248882      3.17e-03   Normal BFGS step
   16    -529.2777545846      1.62e-03   Normal BFGS step
   17    -529.2777649961      7.13e-04   Normal BFGS step
   18    -529.2777670820      4.54e-04   Normal BFGS step
   19    -529.2777675874      2.25e-04   Normal BFGS step
   20    -529.2777677755      1.15e-04   Normal BFGS step
   21    -529.2777678383      5.77e-05   Normal BFGS step
   22    -529.2777678565      2.43e-05   Normal BFGS step
   23    -529.2777678605      8.65e-06   Normal BFGS step
   24    -529.2777678614      4.43e-06   Normal BFGS step
   25    -529.2777678616      2.53e-06   Normal BFGS step
   26    -529.2777678617      9.78e-07   Normal BFGS step
   27    -529.2777678617      3.68e-07   Normal BFGS step
   28    -529.2777678617      1.14e-07   Normal BFGS step
   29    -529.2777678617      7.96e-08  Convergence criterion met
 ---------------------------------------
 SCF time:   CPU 1252.95s  wall 84.00s 
<S^2> =          1.503136040
(3)  G-ENP(liq) elect-nuc-pol free energy of system     -529.277767862 a.u.
(4)  G-CDS(liq) cavity-dispersion-solvent structure 
     free energy                                                4.4971 kcal/mol
(6)  G-S(liq) free energy of system                     -529.270601317 a.u.
 SCF   energy in the final basis set =     -529.2706013175
 Total energy in the final basis set =     -529.2706013175
 
 --------------------------------------------------------------
 
                    Orbital Energies (a.u.)
 --------------------------------------------------------------
 
 Alpha MOs
 -- Occupied --
-19.4761 -19.4651 -19.4051 -19.3942 -19.3841 -19.3235 -10.4948 -10.4915
 -1.4128  -1.2747  -1.2329  -1.1973  -1.1483  -0.9498  -0.8544  -0.7563
 -0.7428  -0.6837  -0.6656  -0.6581  -0.6484  -0.5847  -0.5813  -0.5511
 -0.5356  -0.5342  -0.5083  -0.4670  -0.4274  -0.4073  -0.3986  -0.3922
 -- Virtual --
  0.0015   0.0293   0.0444   0.0589   0.0778   0.0877   0.1058   0.1085
  0.1206   0.1340   0.1504   0.1584   0.1635   0.1793   0.1830   0.2081
  0.2188   0.2412   0.2458   0.2569   0.2647   0.2865   0.2908   0.2973
  0.3072   0.3124   0.3137   0.3165   0.3279   0.3352   0.3374   0.3420
  0.3552   0.3586   0.3702   0.3715   0.3837   0.4028   0.4092   0.4259
  0.4351   0.4411   0.4837   0.5132   0.5393   0.5888   0.6142   0.6295
  0.6597   0.6676   0.6930   0.7110   0.7246   0.7451   0.7566   0.7894
  0.8215   0.8270   0.8456   0.8748   0.8869   0.9058   0.9160   0.9475
  0.9960   1.0351   1.0474   1.0679   1.0833   1.0878   1.1020   1.1277
  1.1360   1.1393   1.1550   1.1673   1.1795   1.1949   1.2074   1.2300
  1.2383   1.2442   1.2537   1.2718   1.2867   1.3406   1.3689   1.4060
  1.4150   1.4377   1.4414   1.5077   1.5263   1.5361   1.5392   1.5578
  1.5956   1.6124   1.6426   1.6838   1.6944   1.7435   1.7529   1.7647
  1.8000   1.8078   1.8423   1.8868   1.9308   1.9689   1.9948   2.0099
  2.0734   2.1108   2.2144   2.2366   2.3058   2.3153   2.3482   2.3602
  2.3707   2.4285   2.4470   2.4664   2.4832   2.5439   2.5884   2.6244
  2.6527   2.6948   2.7650   2.8368   2.8607   2.8925   2.9320   2.9416
  2.9703   3.1662   3.1958   3.2557   3.2960   3.3017   3.3328   3.3575
  3.3954   3.4228   3.4387   3.4548   3.5451   3.5710   3.6035   3.6529
  3.6780   3.7113   3.7351   3.7787   3.7990   3.8040   3.8724   3.9084
  3.9936   4.1114   4.1414   4.1851   4.2489   4.2863   4.3044   4.3424
  4.3690   4.3768   4.5608   4.5811   4.6025   4.6146   4.6167   4.9320
  4.9335   4.9520   4.9887   5.0135   5.0488   5.1046   5.1227   5.1357
  5.1433   5.1537   5.1677   5.1835   5.1880   5.2036   5.2081   5.2228
  5.2284   5.2416   5.2518   5.2827   5.3067   5.3209   5.3290   5.3391
  5.3584   5.4066   5.4626   5.5112   5.5244   5.5369   5.5864   5.6696
  5.6807   5.7389   5.7405   5.7643   5.7771   5.8651   5.9045   5.9787
  6.0444   6.1360   6.1533   6.3797   6.4540   6.5667   6.6888   6.7559
  6.7891   6.8001   6.8205   6.8705   6.9069   6.9393   6.9525   6.9673
  6.9875   6.9953   7.0089   7.0380   7.0778   7.0911   7.1405   7.2211
  7.2375   7.2705   7.2871   7.3176   7.3270   7.3567   7.3891   7.4069
  7.4169   7.4539   7.4758   7.5089   7.5597   7.6803   7.7350   7.7947
  7.8030   7.8863   7.9093   7.9949   8.1124   8.1355  24.9271  25.2158
 50.4518  50.5159  50.5482  50.6140  50.6578  50.7540
 
 Beta MOs
 -- Occupied --
-19.4480 -19.4377 -19.4074 -19.3969 -19.3848 -19.3276 -10.5017 -10.4924
 -1.3612  -1.2811  -1.2362  -1.2029  -1.1539  -0.8812  -0.8604  -0.7612
 -0.7453  -0.6870  -0.6389  -0.5998  -0.5898  -0.5648  -0.5544  -0.5541
 -0.5395  -0.5378  -0.5115  -0.4851  -0.4459  -0.4117  -0.2725
 -- Virtual --
 -0.0171  -0.0083   0.0297   0.0448   0.0594   0.0785   0.0887   0.1069
  0.1083   0.1219   0.1343   0.1426   0.1519   0.1616   0.1646   0.1844
  0.2079   0.2200   0.2438   0.2483   0.2570   0.2682   0.2869   0.2910
  0.2970   0.3072   0.3131   0.3159   0.3199   0.3258   0.3324   0.3382
  0.3416   0.3557   0.3592   0.3703   0.3796   0.3938   0.4033   0.4099
  0.4320   0.4381   0.4406   0.4815   0.5141   0.5359   0.5880   0.6139
  0.6250   0.6537   0.6627   0.6888   0.7059   0.7187   0.7364   0.7531
  0.7874   0.8204   0.8264   0.8457   0.8726   0.8869   0.9025   0.9135
  0.9459   0.9977   1.0365   1.0518   1.0746   1.0885   1.0969   1.1081
  1.1311   1.1414   1.1484   1.1589   1.1731   1.1822   1.2083   1.2135
  1.2299   1.2402   1.2429   1.2663   1.2758   1.2920   1.3464   1.3739
  1.4146   1.4280   1.4459   1.4553   1.5142   1.5434   1.5463   1.5596
  1.5642   1.5972   1.6266   1.6468   1.6838   1.6976   1.7455   1.7523
  1.7890   1.8040   1.8053   1.8462   1.8939   1.9332   1.9735   1.9919
  2.0123   2.0689   2.1146   2.2116   2.2352   2.3067   2.3340   2.3525
  2.3750   2.3893   2.4322   2.4443   2.4633   2.4846   2.5422   2.5842
  2.6385   2.6479   2.6877   2.7400   2.8253   2.8368   2.8829   2.9143
  2.9315   2.9331   3.1530   3.1799   3.2398   3.2792   3.2896   3.3126
  3.3441   3.3804   3.4036   3.4229   3.4404   3.5221   3.5534   3.5836
  3.6422   3.6690   3.6991   3.7295   3.7747   3.7767   3.7989   3.8634
  3.9030   3.9879   4.1084   4.1356   4.1817   4.2424   4.2633   4.2808
  4.3381   4.3653   4.3723   4.5693   4.6158   4.6442   4.6602   4.6632
  4.9599   4.9832   5.0051   5.0135   5.0826   5.1053   5.1153   5.1335
  5.1539   5.1661   5.1839   5.1918   5.1996   5.2161   5.2199   5.2250
  5.2445   5.2499   5.2529   5.2747   5.2927   5.3081   5.3201   5.3321
  5.3588   5.3765   5.4058   5.4572   5.5085   5.5204   5.5294   5.5803
  5.6621   5.6753   5.7567   5.7698   5.7937   5.7964   5.8574   5.8973
  5.9677   6.0410   6.1337   6.1437   6.3685   6.4511   6.5621   6.7865
  6.8454   6.8599   6.8636   6.8780   6.9296   6.9401   6.9724   6.9785
  6.9938   7.0032   7.0200   7.0286   7.0599   7.1149   7.1317   7.1444
  7.2169   7.2367   7.2653   7.2796   7.3183   7.3237   7.3794   7.3951
  7.4061   7.4206   7.4691   7.4878   7.5068   7.5551   7.6754   7.7320
  7.7888   7.7993   7.8830   7.9058   7.9915   8.1459   8.1758  24.9235
 25.2122  50.4733  50.5332  50.5500  50.6135  50.6563  50.7512
 --------------------------------------------------------------
 
          Ground-State Mulliken Net Atomic Charges

     Atom                 Charge (a.u.)    Spin (a.u.)
  --------------------------------------------------------
      1 C                     0.272660      -0.086936
      2 O                    -0.520003      -0.145982
      3 H                     0.357548       0.002227
      4 C                     0.198983      -0.425998
      5 O                    -0.315912      -0.077704
      6 O                    -0.297526      -0.067886
      7 O                    -0.346583      -0.024520
      8 H                     0.336749       0.001206
      9 O                    -0.021177       0.913982
     10 O                    -0.040077       0.910389
     11 H                     0.375339       0.001222
  --------------------------------------------------------
  Sum of atomic charges =     0.000000
  Sum of spin   charges =     1.000000

 -----------------------------------------------------------------
                    Cartesian Multipole Moments
 -----------------------------------------------------------------
    Charge (ESU x 10^10)
                 0.0000
    Dipole Moment (Debye)
         X      -6.5042      Y      -0.6486      Z      -5.7944
       Tot       8.7350
    Quadrupole Moments (Debye-Ang)
        XX     -51.0595     XY       3.6293     YY     -40.4714
        XZ      -3.7161     YZ      -3.3399     ZZ     -50.4089
    Octopole Moments (Debye-Ang^2)
       XXX      59.8055    XXY      -6.0714    XYY       6.7051
       YYY      -3.5501    XXZ     -51.7134    XYZ      12.5812
       YYZ     -38.2395    XZZ      10.8861    YZZ       6.1177
       ZZZ    -136.3577
    Hexadecapole Moments (Debye-Ang^3)
      XXXX    -585.2832   XXXY      29.3603   XXYY    -132.7930
      XYYY      46.9049   YYYY    -283.2840   XXXZ      74.3222
      XXYZ     -16.4763   XYYZ       9.6166   YYYZ     -17.7835
      XXZZ    -171.5236   XYZZ      15.8102   YYZZ    -123.5947
      XZZZ      70.8232   YZZZ       6.3258   ZZZZ    -445.7732
 -----------------------------------------------------------------
 Calculating analytic gradient of the SCF energy
 Gradient of CDS energy
            1           2           3           4           5           6
    1   0.0024330  -0.0012081  -0.0001888  -0.0022836   0.0000413   0.0019715
    2   0.0036158   0.0004140   0.0000054  -0.0029945   0.0027745  -0.0000994
    3  -0.0014971  -0.0010376  -0.0002893  -0.0000197  -0.0018118   0.0018565
            7           8           9          10          11
    1  -0.0003688   0.0000285  -0.0001730  -0.0000266  -0.0002254
    2  -0.0037724   0.0002937   0.0000642   0.0000354  -0.0003365
    3   0.0028080  -0.0002323  -0.0000199   0.0001474   0.0000959
 Gradient of SCF Energy
            1           2           3           4           5           6
    1   0.0023289  -0.0011207  -0.0033500   0.0002256   0.0203971  -0.0026070
    2  -0.0000785   0.0006807   0.0250589  -0.0061830   0.0099826  -0.0201790
    3   0.0010887  -0.0009539  -0.0225275   0.0024450   0.0067866   0.0175304
            7           8           9          10          11
    1   0.0266034  -0.0238866   0.0052706  -0.0058546  -0.0180067
    2  -0.0043584   0.0062767  -0.0011694   0.0010982  -0.0111288
    3   0.0182171  -0.0186711   0.0027597  -0.0023146  -0.0043605
 Max gradient component =       2.660E-02
 RMS gradient           =       1.236E-02
 Computing fast CPCM-SWIG gradient
 Updating gradient with PCM contributions...
 -- total gradient after adding PCM contribution --
---------------------------------------------------
  Atom         X              Y              Z     
---------------------------------------------------
   1      -0.000061      -0.000022      -0.000024
   2       0.000022       0.000025       0.000021
   3       0.000008      -0.000017      -0.000000
   4       0.000038       0.000013      -0.000059
   5       0.000065      -0.000034       0.000114
   6      -0.000037      -0.000012      -0.000001
   7      -0.000000       0.000021      -0.000021
   8      -0.000013      -0.000005      -0.000005
   9      -0.000116       0.000048       0.000001
  10       0.000099      -0.000069       0.000023
  11      -0.000005       0.000052      -0.000049
---------------------------------------------------
 Number of fixed atoms: 0
 Gradient time:  CPU 107.60 s  wall 9.26 s
 ######################################################
 ######################################################
 # Starting finite difference calculation for IDERIV  #
 Finite diff step size:  1.88973e-03 a.u.
 ----------------------------------------------------------------
             Standard Nuclear Orientation (Angstroms)
    I     Atom           X                Y                Z
 ----------------------------------------------------------------
    1      C       0.5705365000     0.0119302000     0.6700025000
    2      O       1.4789047000    -0.2444354000     1.4529370000
    3      H      -1.5874792000    -0.0042416000    -0.8607254000
    4      C      -0.5883876000    -0.8391455000     0.5767346000
    5      O      -0.5918968000    -1.9098741000     1.3586141000
    6      O      -1.6065447000    -0.7618225000    -0.2626694000
    7      O       0.6742482000     1.1189624000    -0.0988121000
    8      H      -0.1018850000     1.3272415000    -0.6326109000
    9      O      -1.5183944000     0.8592389000     2.0550453000
   10      O      -2.5615200000     1.1545408000     1.5113734000
   11      H      -1.4004994000    -2.4225411000     1.2079938000
 ----------------------------------------------------------------
 Nuclear Repulsion Energy =         396.67033723 hartrees
 There are       32 alpha and       31 beta electrons
 Discretize the solute cavity surface with Lebedev spheres
	Using 110 Lebedev grid points for each H atom
	Using 194 Lebedev grid points for other atoms
	Atomic van der Waals radii will be scaled by 1.20
 Remove points where switching function is < 1.0e-08
 Keep 1071 surface tesserae and discard 811 interior tesserae
 Molecular Surface Area = 125.493 Angst**2

                       Distance Matrix (Angstroms)
             C (  1)   O (  2)   H (  3)   C (  4)   O (  5)   O (  6)
   O (  2)  1.226313
   H (  3)  2.645831  3.848823
   C (  4)  1.440880  2.322737  1.939469
   O (  5)  2.349206  2.659098  3.089998  1.325823
   O (  6)  2.491637  3.568052  0.965382  1.321825  2.230716
   O (  7)  1.351796  2.216811  2.637709  2.425860  3.591805  2.960780
   H (  8)  1.969517  3.052634  2.007953  2.528326  3.831972  2.600970
   O (  9)  2.645734  3.250297  3.041725  2.436150  3.001900  2.829737
   O ( 10)  3.438494  4.276164  2.813962  2.956617  3.646010  2.780585
   H ( 11)  3.178218  3.618717  3.187904  1.888162  0.969202  2.227845
             O (  7)   H (  8)   O (  9)   O ( 10)
   H (  8)  0.964730
   O (  9)  3.084516  3.073926
   O ( 10)  3.614438  3.267461  1.212804
   H ( 11)  4.307501  4.374368  3.391383  3.772999
 
 Requested basis set is 6-311++G(2df,2p)
 There are 82 shells and 302 basis functions
 A cutoff of  1.0D-12 yielded   3093 shell pairs
 There are     42402 function pairs (     54239 Cartesian)
 Smallest overlap matrix eigenvalue = 2.91E-05
 Guess MOs from SCF MO coefficient file

 -----------------------------------------------------------------------
  General SCF calculation program by
  Eric Jon Sundstrom, Paul Horn, Yuezhi Mao, Dmitri Zuev, Alec White,
  David Stuck, Shaama M.S., Shane Yost, Joonho Lee, David Small,
  Daniel Levine, Susi Lehtola, Hugh Burton, Evgeny Epifanovsky,
  Bang C. Huynh
 -----------------------------------------------------------------------
 Exchange:     0.1500 Hartree-Fock + 1.0000 wB97M-V + LR-HF
 Correlation:  1.0000 wB97M-V
 Using SG-2 standard quadrature grid
 Nonlocal Correlation:  VV10 with C = 0.0100 and b = 6.00 and scale = 1.00000
 Grid used for NLC:  SG-1 standard quadrature
 
 Citation of the SMD model:
 Marenich, A.V.; Cramer, C.J.; Truhlar, D.G.
 J. Phys. Chem. B 2009, 113, 6378-6396.
 iSolventCode=           1
 Solvent: water                                                           
 
 vradii
            1           2           3           4           5           6
    1   1.8500000   1.5200000   1.2000000   1.8500000   1.5200000   1.5200000
            7           8           9          10          11
    1   1.5200000   1.2000000   1.5200000   1.5200000   1.2000000
 -------------------------------------------------------
 OpenMP BLAS3 based DFT computing Module                
 Release: version 1.0, May 2013, Q-Chem Inc. Pittsburgh 
 -------------------------------------------------------
 A unrestricted SCF calculation will be
 performed using Roothaan-Hall, DIIS, GDM
 SCF converges when RMS gradient is below 1.0e-07
 ---------------------------------------
  Cycle       Energy         DIIS error
 ---------------------------------------
    1    -529.2141817002      4.32e-04  Roothaan Step
 ---------------------------------------
  Cycle       Energy         DIIS error
 ---------------------------------------
    1    -529.2584692988      5.46e-04  
    2    -529.2674970235      5.83e-04  Done DIIS. Switching to GDM
 ---------------------------------------
  Cycle       Energy        RMS Gradient
 ---------------------------------------
    1    -529.2674970235      2.84e-02   Normal BFGS step
    2    -529.2625765727      4.65e-02  Line search: overstep
    3    -529.2772631378      7.59e-03   Normal BFGS step
    4    -529.2776655382      4.08e-03   Normal BFGS step
    5    -529.2777384748      1.95e-03   Normal BFGS step
    6    -529.2777649374      6.43e-04   Normal BFGS step
    7    -529.2777688296      5.99e-04   Normal BFGS step
    8    -529.2777709108      2.85e-04   Normal BFGS step
    9    -529.2777713146      6.91e-05   Normal BFGS step
   10    -529.2777714278      9.87e-05   Normal BFGS step
   11    -529.2777714495      7.28e-05   Normal BFGS step
   12    -529.2777714622      3.99e-05   Normal BFGS step
   13    -529.2777714679      2.05e-05   Normal BFGS step
   14    -529.2777714696      8.66e-06   Normal BFGS step
   15    -529.2777714701      5.05e-06   Normal BFGS step
   16    -529.2777714702      2.16e-06   Normal BFGS step
   17    -529.2777714702      1.07e-06   Normal BFGS step
   18    -529.2777714703      6.94e-07   Normal BFGS step
   19    -529.2777714703      4.59e-07   Normal BFGS step
   20    -529.2777714703      2.31e-07   Normal BFGS step
   21    -529.2777714702      1.10e-07   Normal BFGS step
   22    -529.2777714702      3.66e-08  Convergence criterion met
 ---------------------------------------
 SCF time:   CPU 982.25s  wall 66.00s 
<S^2> =          1.501854096
(3)  G-ENP(liq) elect-nuc-pol free energy of system     -529.277771470 a.u.
(4)  G-CDS(liq) cavity-dispersion-solvent structure 
     free energy                                                4.5000 kcal/mol
(6)  G-S(liq) free energy of system                     -529.270600340 a.u.
 SCF   energy in the final basis set =     -529.2706003401
 Total energy in the final basis set =     -529.2706003401
 
 --------------------------------------------------------------
 
                    Orbital Energies (a.u.)
 --------------------------------------------------------------
 
 Alpha MOs
 -- Occupied --
-19.4760 -19.4649 -19.4051 -19.3942 -19.3841 -19.3237 -10.4948 -10.4916
 -1.4126  -1.2747  -1.2331  -1.1973  -1.1486  -0.9497  -0.8542  -0.7563
 -0.7429  -0.6837  -0.6655  -0.6579  -0.6483  -0.5848  -0.5813  -0.5511
 -0.5357  -0.5342  -0.5083  -0.4670  -0.4276  -0.4074  -0.3984  -0.3921
 -- Virtual --
  0.0016   0.0293   0.0444   0.0589   0.0778   0.0877   0.1058   0.1084
  0.1206   0.1340   0.1504   0.1584   0.1635   0.1792   0.1830   0.2081
  0.2188   0.2412   0.2458   0.2570   0.2647   0.2865   0.2908   0.2973
  0.3072   0.3124   0.3137   0.3165   0.3278   0.3352   0.3374   0.3420
  0.3552   0.3586   0.3702   0.3715   0.3838   0.4028   0.4092   0.4260
  0.4350   0.4411   0.4837   0.5131   0.5392   0.5888   0.6142   0.6295
  0.6598   0.6675   0.6931   0.7109   0.7246   0.7452   0.7566   0.7892
  0.8216   0.8270   0.8455   0.8748   0.8870   0.9059   0.9160   0.9475
  0.9960   1.0351   1.0473   1.0679   1.0832   1.0878   1.1020   1.1277
  1.1361   1.1393   1.1550   1.1673   1.1795   1.1950   1.2074   1.2299
  1.2382   1.2441   1.2536   1.2717   1.2867   1.3405   1.3688   1.4060
  1.4151   1.4377   1.4414   1.5077   1.5264   1.5361   1.5393   1.5577
  1.5956   1.6123   1.6426   1.6837   1.6944   1.7435   1.7529   1.7647
  1.7999   1.8079   1.8423   1.8867   1.9308   1.9690   1.9949   2.0098
  2.0735   2.1108   2.2143   2.2367   2.3060   2.3154   2.3483   2.3603
  2.3708   2.4285   2.4469   2.4664   2.4831   2.5438   2.5884   2.6245
  2.6525   2.6945   2.7650   2.8366   2.8610   2.8927   2.9320   2.9414
  2.9704   3.1664   3.1957   3.2556   3.2961   3.3015   3.3327   3.3575
  3.3955   3.4231   3.4386   3.4551   3.5446   3.5713   3.6031   3.6527
  3.6779   3.7110   3.7353   3.7788   3.7989   3.8040   3.8722   3.9083
  3.9937   4.1116   4.1412   4.1849   4.2485   4.2856   4.3031   4.3423
  4.3692   4.3765   4.5608   4.5808   4.6026   4.6147   4.6168   4.9321
  4.9336   4.9520   4.9881   5.0135   5.0490   5.1047   5.1227   5.1358
  5.1433   5.1537   5.1678   5.1836   5.1881   5.2036   5.2081   5.2228
  5.2283   5.2416   5.2518   5.2827   5.3067   5.3209   5.3291   5.3392
  5.3583   5.4066   5.4625   5.5111   5.5249   5.5371   5.5864   5.6695
  5.6807   5.7390   5.7407   5.7642   5.7770   5.8651   5.9053   5.9789
  6.0443   6.1359   6.1534   6.3816   6.4551   6.5673   6.6888   6.7560
  6.7892   6.8003   6.8201   6.8706   6.9070   6.9393   6.9525   6.9673
  6.9875   6.9954   7.0089   7.0380   7.0779   7.0910   7.1412   7.2212
  7.2376   7.2704   7.2871   7.3176   7.3272   7.3569   7.3896   7.4069
  7.4170   7.4540   7.4757   7.5088   7.5596   7.6804   7.7350   7.7946
  7.8033   7.8864   7.9094   7.9946   8.1125   8.1357  24.9276  25.2152
 50.4519  50.5161  50.5483  50.6140  50.6577  50.7547
 
 Beta MOs
 -- Occupied --
-19.4479 -19.4375 -19.4074 -19.3969 -19.3848 -19.3277 -10.5017 -10.4925
 -1.3610  -1.2811  -1.2364  -1.2029  -1.1543  -0.8811  -0.8603  -0.7611
 -0.7454  -0.6870  -0.6389  -0.5997  -0.5900  -0.5648  -0.5544  -0.5541
 -0.5395  -0.5378  -0.5115  -0.4851  -0.4460  -0.4118  -0.2723
 -- Virtual --
 -0.0171  -0.0082   0.0297   0.0448   0.0594   0.0785   0.0887   0.1068
  0.1083   0.1219   0.1343   0.1426   0.1519   0.1616   0.1646   0.1844
  0.2080   0.2200   0.2438   0.2483   0.2570   0.2682   0.2870   0.2910
  0.2970   0.3072   0.3131   0.3159   0.3199   0.3257   0.3324   0.3382
  0.3416   0.3557   0.3592   0.3703   0.3796   0.3939   0.4033   0.4099
  0.4320   0.4381   0.4407   0.4814   0.5140   0.5357   0.5880   0.6139
  0.6250   0.6538   0.6627   0.6889   0.7059   0.7187   0.7365   0.7531
  0.7872   0.8205   0.8264   0.8456   0.8726   0.8870   0.9026   0.9135
  0.9460   0.9977   1.0364   1.0518   1.0745   1.0885   1.0969   1.1082
  1.1310   1.1414   1.1484   1.1589   1.1731   1.1821   1.2082   1.2135
  1.2298   1.2402   1.2429   1.2662   1.2757   1.2920   1.3463   1.3739
  1.4146   1.4279   1.4460   1.4554   1.5141   1.5434   1.5463   1.5596
  1.5641   1.5971   1.6266   1.6468   1.6837   1.6976   1.7455   1.7523
  1.7890   1.8040   1.8052   1.8461   1.8937   1.9332   1.9736   1.9920
  2.0122   2.0689   2.1147   2.2116   2.2353   2.3069   2.3341   2.3526
  2.3751   2.3894   2.4322   2.4441   2.4633   2.4845   2.5420   2.5843
  2.6386   2.6478   2.6875   2.7401   2.8251   2.8371   2.8831   2.9142
  2.9316   2.9329   3.1532   3.1799   3.2397   3.2793   3.2893   3.3124
  3.3441   3.3805   3.4038   3.4228   3.4407   3.5216   3.5535   3.5833
  3.6420   3.6689   3.6987   3.7296   3.7746   3.7767   3.7989   3.8633
  3.9029   3.9880   4.1085   4.1355   4.1814   4.2421   4.2619   4.2804
  4.3380   4.3655   4.3721   4.5688   4.6159   4.6443   4.6603   4.6634
  4.9591   4.9832   5.0052   5.0135   5.0826   5.1054   5.1154   5.1334
  5.1539   5.1662   5.1839   5.1918   5.1997   5.2161   5.2199   5.2250
  5.2445   5.2499   5.2530   5.2748   5.2927   5.3081   5.3201   5.3321
  5.3588   5.3765   5.4058   5.4572   5.5083   5.5209   5.5296   5.5803
  5.6621   5.6753   5.7566   5.7698   5.7938   5.7965   5.8574   5.8980
  5.9679   6.0410   6.1336   6.1439   6.3704   6.4522   6.5627   6.7861
  6.8452   6.8600   6.8637   6.8781   6.9295   6.9402   6.9724   6.9785
  6.9938   7.0032   7.0200   7.0287   7.0600   7.1149   7.1322   7.1447
  7.2171   7.2368   7.2652   7.2796   7.3184   7.3238   7.3799   7.3953
  7.4062   7.4207   7.4690   7.4878   7.5067   7.5550   7.6755   7.7320
  7.7888   7.7995   7.8831   7.9058   7.9913   8.1460   8.1759  24.9239
 25.2116  50.4734  50.5333  50.5501  50.6135  50.6563  50.7518
 --------------------------------------------------------------
 
          Ground-State Mulliken Net Atomic Charges

     Atom                 Charge (a.u.)    Spin (a.u.)
  --------------------------------------------------------
      1 C                     0.273067      -0.086569
      2 O                    -0.519116      -0.145353
      3 H                     0.357532       0.002224
      4 C                     0.198620      -0.426219
      5 O                    -0.315871      -0.077660
      6 O                    -0.297503      -0.067777
      7 O                    -0.346594      -0.024429
      8 H                     0.336823       0.001202
      9 O                    -0.021599       0.913577
     10 O                    -0.040711       0.909781
     11 H                     0.375352       0.001222
  --------------------------------------------------------
  Sum of atomic charges =     0.000000
  Sum of spin   charges =     1.000000

 -----------------------------------------------------------------
                    Cartesian Multipole Moments
 -----------------------------------------------------------------
    Charge (ESU x 10^10)
                 0.0000
    Dipole Moment (Debye)
         X      -6.4848      Y      -0.6539      Z      -5.7966
       Tot       8.7224
    Quadrupole Moments (Debye-Ang)
        XX     -51.0713     XY       3.6381     YY     -40.4769
        XZ      -3.6882     YZ      -3.3497     ZZ     -50.4144
    Octopole Moments (Debye-Ang^2)
       XXX      59.8969    XXY      -6.1049    XYY       6.7241
       YYY      -3.5614    XXZ     -51.7379    XYZ      12.5989
       YYZ     -38.2500    XZZ      10.9358    YZZ       6.0973
       ZZZ    -136.3727
    Hexadecapole Moments (Debye-Ang^3)
      XXXX    -585.4783   XXXY      29.4391   XXYY    -132.8396
      XYYY      46.9265   YYYY    -283.3161   XXXZ      74.4636
      XXYZ     -16.5290   XYYZ       9.6560   YYYZ     -17.8070
      XXZZ    -171.5835   XYZZ      15.8453   YYZZ    -123.6176
      XZZZ      70.9364   YZZZ       6.2743   ZZZZ    -445.8160
 -----------------------------------------------------------------
 Calculating analytic gradient of the SCF energy
 Gradient of CDS energy
            1           2           3           4           5           6
    1   0.0024206  -0.0011983  -0.0001889  -0.0022841   0.0000411   0.0019714
    2   0.0036153   0.0004115   0.0000054  -0.0029948   0.0027745  -0.0000994
    3  -0.0015022  -0.0010301  -0.0002893  -0.0000198  -0.0018119   0.0018565
            7           8           9          10          11
    1  -0.0003654   0.0000285  -0.0001731  -0.0000266  -0.0002254
    2  -0.0037691   0.0002936   0.0000642   0.0000354  -0.0003365
    3   0.0028056  -0.0002323  -0.0000199   0.0001474   0.0000959
 Gradient of SCF Energy
            1           2           3           4           5           6
    1   0.0034801  -0.0017625  -0.0033384  -0.0000083   0.0203709  -0.0026495
    2   0.0000100   0.0007819   0.0250448  -0.0064038   0.0099950  -0.0201760
    3   0.0015672  -0.0013703  -0.0225268   0.0023445   0.0067979   0.0175288
            7           8           9          10          11
    1   0.0263959  -0.0238685   0.0050396  -0.0056639  -0.0179954
    2  -0.0044491   0.0063409  -0.0010656   0.0010494  -0.0111275
    3   0.0182197  -0.0187067   0.0027096  -0.0021989  -0.0043650
 Max gradient component =       2.640E-02
 RMS gradient           =       1.236E-02
 Computing fast CPCM-SWIG gradient
 Updating gradient with PCM contributions...
 -- total gradient after adding PCM contribution --
---------------------------------------------------
  Atom         X              Y              Z     
---------------------------------------------------
   1       0.001095       0.000067       0.000455
   2      -0.000622       0.000123      -0.000395
   3       0.000007      -0.000018      -0.000002
   4      -0.000201      -0.000200      -0.000145
   5       0.000054      -0.000025       0.000124
   6      -0.000071      -0.000023       0.000000
   7      -0.000195      -0.000067      -0.000026
   8      -0.000001       0.000056      -0.000034
   9      -0.000310       0.000140      -0.000033
  10       0.000250      -0.000106       0.000109
  11      -0.000006       0.000054      -0.000054
---------------------------------------------------
 Number of fixed atoms: 0
 Gradient time:  CPU 107.36 s  wall 9.26 s
 ----------------------------------------------------------------
             Standard Nuclear Orientation (Angstroms)
    I     Atom           X                Y                Z
 ----------------------------------------------------------------
    1      C       0.5685365000     0.0119302000     0.6700025000
    2      O       1.4789047000    -0.2444354000     1.4529370000
    3      H      -1.5874792000    -0.0042416000    -0.8607254000
    4      C      -0.5883876000    -0.8391455000     0.5767346000
    5      O      -0.5918968000    -1.9098741000     1.3586141000
    6      O      -1.6065447000    -0.7618225000    -0.2626694000
    7      O       0.6742482000     1.1189624000    -0.0988121000
    8      H      -0.1018850000     1.3272415000    -0.6326109000
    9      O      -1.5183944000     0.8592389000     2.0550453000
   10      O      -2.5615200000     1.1545408000     1.5113734000
   11      H      -1.4004994000    -2.4225411000     1.2079938000
 ----------------------------------------------------------------
 Nuclear Repulsion Energy =         396.68099652 hartrees
 There are       32 alpha and       31 beta electrons
 Discretize the solute cavity surface with Lebedev spheres
	Using 110 Lebedev grid points for each H atom
	Using 194 Lebedev grid points for other atoms
	Atomic van der Waals radii will be scaled by 1.20
 Remove points where switching function is < 1.0e-08
 Keep 1071 surface tesserae and discard 811 interior tesserae
 Molecular Surface Area = 125.485 Angst**2

                       Distance Matrix (Angstroms)
             C (  1)   O (  2)   H (  3)   C (  4)   O (  5)   O (  6)
   O (  2)  1.227795
   H (  3)  2.644200  3.848823
   C (  4)  1.439271  2.322737  1.939469
   O (  5)  2.348217  2.659098  3.089998  1.325823
   O (  6)  2.489889  3.568052  0.965382  1.321825  2.230716
   O (  7)  1.351951  2.216811  2.637709  2.425860  3.591805  2.960780
   H (  8)  1.968835  3.052634  2.007953  2.528326  3.831972  2.600970
   O (  9)  2.644155  3.250297  3.041725  2.436150  3.001900  2.829737
   O ( 10)  3.436672  4.276164  2.813962  2.956617  3.646010  2.780585
   H ( 11)  3.176978  3.618717  3.187904  1.888162  0.969202  2.227845
             O (  7)   H (  8)   O (  9)   O ( 10)
   H (  8)  0.964730
   O (  9)  3.084516  3.073926
   O ( 10)  3.614438  3.267461  1.212804
   H ( 11)  4.307501  4.374368  3.391383  3.772999
 
 Requested basis set is 6-311++G(2df,2p)
 There are 82 shells and 302 basis functions
 A cutoff of  1.0D-12 yielded   3093 shell pairs
 There are     42402 function pairs (     54239 Cartesian)
 Smallest overlap matrix eigenvalue = 2.89E-05
 Guess MOs from SCF MO coefficient file

 -----------------------------------------------------------------------
  General SCF calculation program by
  Eric Jon Sundstrom, Paul Horn, Yuezhi Mao, Dmitri Zuev, Alec White,
  David Stuck, Shaama M.S., Shane Yost, Joonho Lee, David Small,
  Daniel Levine, Susi Lehtola, Hugh Burton, Evgeny Epifanovsky,
  Bang C. Huynh
 -----------------------------------------------------------------------
 Exchange:     0.1500 Hartree-Fock + 1.0000 wB97M-V + LR-HF
 Correlation:  1.0000 wB97M-V
 Using SG-2 standard quadrature grid
 Nonlocal Correlation:  VV10 with C = 0.0100 and b = 6.00 and scale = 1.00000
 Grid used for NLC:  SG-1 standard quadrature
 
 Citation of the SMD model:
 Marenich, A.V.; Cramer, C.J.; Truhlar, D.G.
 J. Phys. Chem. B 2009, 113, 6378-6396.
 iSolventCode=           1
 Solvent: water                                                           
 
 vradii
            1           2           3           4           5           6
    1   1.8500000   1.5200000   1.2000000   1.8500000   1.5200000   1.5200000
            7           8           9          10          11
    1   1.5200000   1.2000000   1.5200000   1.5200000   1.2000000
 -------------------------------------------------------
 OpenMP BLAS3 based DFT computing Module                
 Release: version 1.0, May 2013, Q-Chem Inc. Pittsburgh 
 -------------------------------------------------------
 A unrestricted SCF calculation will be
 performed using Roothaan-Hall, DIIS, GDM
 SCF converges when RMS gradient is below 1.0e-07
 ---------------------------------------
  Cycle       Energy         DIIS error
 ---------------------------------------
    1    -529.2141452151      4.31e-04  Roothaan Step
 ---------------------------------------
  Cycle       Energy         DIIS error
 ---------------------------------------
    1    -529.2583036082      5.49e-04  
    2    -529.2672821809      5.89e-04  Done DIIS. Switching to GDM
 ---------------------------------------
  Cycle       Energy        RMS Gradient
 ---------------------------------------
    1    -529.2672821809      2.88e-02   Normal BFGS step
    2    -529.2622065184      4.73e-02  Line search: overstep
    3    -529.2772464522      7.60e-03   Normal BFGS step
    4    -529.2776536340      4.21e-03   Normal BFGS step
    5    -529.2777283789      1.93e-03   Normal BFGS step
    6    -529.2777550726      6.63e-04   Normal BFGS step
    7    -529.2777591381      6.10e-04   Normal BFGS step
    8    -529.2777613352      3.91e-04   Normal BFGS step
    9    -529.2777618101      1.25e-04   Normal BFGS step
   10    -529.2777619582      1.45e-04   Normal BFGS step
   11    -529.2777620042      1.01e-04   Normal BFGS step
   12    -529.2777620329      4.22e-05   Normal BFGS step
   13    -529.2777620419      2.45e-05   Normal BFGS step
   14    -529.2777620445      8.57e-06   Normal BFGS step
   15    -529.2777620451      5.12e-06   Normal BFGS step
   16    -529.2777620452      2.28e-06   Normal BFGS step
   17    -529.2777620453      1.19e-06   Normal BFGS step
   18    -529.2777620453      7.53e-07   Normal BFGS step
   19    -529.2777620453      4.99e-07   Normal BFGS step
   20    -529.2777620453      2.37e-07   Normal BFGS step
   21    -529.2777620453      1.17e-07   Normal BFGS step
   22    -529.2777620452      3.66e-08  Convergence criterion met
 ---------------------------------------
 SCF time:   CPU 979.90s  wall 66.00s 
<S^2> =          1.504406595
(3)  G-ENP(liq) elect-nuc-pol free energy of system     -529.277762045 a.u.
(4)  G-CDS(liq) cavity-dispersion-solvent structure 
     free energy                                                4.4942 kcal/mol
(6)  G-S(liq) free energy of system                     -529.270600110 a.u.
 SCF   energy in the final basis set =     -529.2706001105
 Total energy in the final basis set =     -529.2706001105
 
 --------------------------------------------------------------
 
                    Orbital Energies (a.u.)
 --------------------------------------------------------------
 
 Alpha MOs
 -- Occupied --
-19.4763 -19.4653 -19.4051 -19.3942 -19.3841 -19.3234 -10.4948 -10.4914
 -1.4129  -1.2747  -1.2328  -1.1973  -1.1479  -0.9500  -0.8546  -0.7563
 -0.7427  -0.6838  -0.6658  -0.6582  -0.6485  -0.5845  -0.5813  -0.5510
 -0.5355  -0.5341  -0.5083  -0.4670  -0.4272  -0.4072  -0.3987  -0.3924
 -- Virtual --
  0.0013   0.0293   0.0444   0.0589   0.0778   0.0878   0.1058   0.1085
  0.1206   0.1340   0.1503   0.1584   0.1635   0.1793   0.1831   0.2080
  0.2188   0.2412   0.2458   0.2569   0.2647   0.2865   0.2908   0.2973
  0.3072   0.3124   0.3136   0.3165   0.3279   0.3352   0.3375   0.3420
  0.3553   0.3586   0.3702   0.3715   0.3837   0.4028   0.4092   0.4259
  0.4351   0.4411   0.4838   0.5132   0.5395   0.5888   0.6142   0.6295
  0.6596   0.6676   0.6930   0.7110   0.7246   0.7449   0.7566   0.7896
  0.8214   0.8270   0.8457   0.8748   0.8868   0.9057   0.9161   0.9474
  0.9960   1.0352   1.0474   1.0679   1.0834   1.0877   1.1019   1.1278
  1.1360   1.1394   1.1551   1.1673   1.1796   1.1949   1.2075   1.2300
  1.2383   1.2442   1.2537   1.2719   1.2867   1.3406   1.3689   1.4061
  1.4149   1.4377   1.4414   1.5078   1.5263   1.5361   1.5392   1.5579
  1.5955   1.6124   1.6426   1.6839   1.6943   1.7436   1.7528   1.7646
  1.8001   1.8078   1.8424   1.8869   1.9307   1.9689   1.9948   2.0099
  2.0734   2.1108   2.2144   2.2365   2.3057   2.3152   2.3481   2.3602
  2.3706   2.4286   2.4472   2.4664   2.4832   2.5441   2.5884   2.6244
  2.6528   2.6950   2.7650   2.8369   2.8604   2.8924   2.9321   2.9418
  2.9702   3.1661   3.1958   3.2559   3.2959   3.3020   3.3329   3.3576
  3.3952   3.4225   3.4387   3.4545   3.5456   3.5708   3.6039   3.6530
  3.6780   3.7117   3.7350   3.7787   3.7991   3.8041   3.8726   3.9086
  3.9936   4.1112   4.1416   4.1853   4.2492   4.2869   4.3057   4.3426
  4.3688   4.3771   4.5608   4.5814   4.6025   4.6145   4.6166   4.9319
  4.9333   4.9519   4.9892   5.0136   5.0487   5.1046   5.1226   5.1357
  5.1433   5.1537   5.1676   5.1835   5.1880   5.2037   5.2081   5.2228
  5.2285   5.2415   5.2518   5.2827   5.3067   5.3209   5.3290   5.3391
  5.3585   5.4066   5.4626   5.5113   5.5239   5.5368   5.5864   5.6696
  5.6806   5.7387   5.7404   5.7645   5.7771   5.8651   5.9037   5.9785
  6.0444   6.1361   6.1532   6.3778   6.4529   6.5661   6.6887   6.7557
  6.7890   6.8000   6.8210   6.8705   6.9069   6.9393   6.9525   6.9672
  6.9874   6.9952   7.0089   7.0380   7.0777   7.0912   7.1398   7.2209
  7.2375   7.2705   7.2871   7.3176   7.3267   7.3565   7.3886   7.4069
  7.4168   7.4538   7.4759   7.5091   7.5598   7.6802   7.7350   7.7948
  7.8027   7.8863   7.9093   7.9951   8.1122   8.1354  24.9267  25.2164
 50.4516  50.5157  50.5481  50.6139  50.6578  50.7534
 
 Beta MOs
 -- Occupied --
-19.4482 -19.4379 -19.4074 -19.3969 -19.3848 -19.3275 -10.5017 -10.4923
 -1.3613  -1.2811  -1.2361  -1.2029  -1.1536  -0.8814  -0.8606  -0.7612
 -0.7452  -0.6871  -0.6390  -0.5999  -0.5897  -0.5648  -0.5544  -0.5541
 -0.5395  -0.5377  -0.5116  -0.4852  -0.4458  -0.4116  -0.2726
 -- Virtual --
 -0.0171  -0.0084   0.0297   0.0448   0.0594   0.0785   0.0887   0.1069
  0.1083   0.1219   0.1343   0.1426   0.1518   0.1616   0.1647   0.1844
  0.2078   0.2200   0.2438   0.2483   0.2570   0.2682   0.2869   0.2910
  0.2971   0.3071   0.3131   0.3158   0.3199   0.3259   0.3324   0.3382
  0.3416   0.3557   0.3591   0.3703   0.3796   0.3938   0.4033   0.4099
  0.4320   0.4381   0.4406   0.4816   0.5141   0.5360   0.5880   0.6138
  0.6249   0.6536   0.6627   0.6888   0.7059   0.7187   0.7362   0.7531
  0.7876   0.8203   0.8264   0.8458   0.8726   0.8869   0.9024   0.9135
  0.9459   0.9978   1.0366   1.0519   1.0746   1.0886   1.0968   1.1080
  1.1311   1.1414   1.1483   1.1589   1.1731   1.1822   1.2083   1.2134
  1.2299   1.2403   1.2430   1.2664   1.2758   1.2920   1.3464   1.3740
  1.4145   1.4282   1.4458   1.4553   1.5143   1.5434   1.5464   1.5595
  1.5642   1.5972   1.6266   1.6468   1.6839   1.6975   1.7456   1.7522
  1.7890   1.8040   1.8053   1.8463   1.8941   1.9331   1.9735   1.9918
  2.0124   2.0688   2.1146   2.2116   2.2352   2.3066   2.3340   2.3525
  2.3749   2.3893   2.4322   2.4444   2.4633   2.4846   2.5423   2.5842
  2.6384   2.6481   2.6880   2.7399   2.8256   2.8365   2.8826   2.9143
  2.9313   2.9333   3.1528   3.1798   3.2400   3.2790   3.2899   3.3127
  3.3441   3.3802   3.4033   3.4230   3.4401   3.5226   3.5532   3.5838
  3.6424   3.6691   3.6995   3.7294   3.7747   3.7767   3.7990   3.8636
  3.9032   3.9879   4.1082   4.1358   4.1819   4.2427   4.2647   4.2813
  4.3382   4.3650   4.3726   4.5698   4.6157   4.6441   4.6601   4.6631
  4.9607   4.9831   5.0050   5.0135   5.0825   5.1052   5.1153   5.1335
  5.1539   5.1661   5.1839   5.1919   5.1996   5.2161   5.2199   5.2249
  5.2444   5.2498   5.2528   5.2747   5.2927   5.3081   5.3201   5.3321
  5.3588   5.3764   5.4058   5.4573   5.5086   5.5198   5.5292   5.5803
  5.6621   5.6752   5.7568   5.7699   5.7936   5.7963   5.8574   5.8965
  5.9675   6.0411   6.1338   6.1436   6.3666   6.4500   6.5615   6.7869
  6.8456   6.8598   6.8635   6.8780   6.9296   6.9399   6.9724   6.9784
  6.9938   7.0031   7.0200   7.0285   7.0598   7.1149   7.1312   7.1442
  7.2168   7.2366   7.2653   7.2795   7.3182   7.3236   7.3788   7.3950
  7.4060   7.4205   7.4692   7.4877   7.5069   7.5552   7.6753   7.7319
  7.7888   7.7991   7.8830   7.9057   7.9917   8.1458   8.1757  24.9230
 25.2127  50.4731  50.5331  50.5499  50.6134  50.6564  50.7505
 --------------------------------------------------------------
 
          Ground-State Mulliken Net Atomic Charges

     Atom                 Charge (a.u.)    Spin (a.u.)
  --------------------------------------------------------
      1 C                     0.272254      -0.087302
      2 O                    -0.520886      -0.146610
      3 H                     0.357564       0.002229
      4 C                     0.199347      -0.425770
      5 O                    -0.315952      -0.077747
      6 O                    -0.297548      -0.067994
      7 O                    -0.346571      -0.024612
      8 H                     0.336675       0.001209
      9 O                    -0.020760       0.914382
     10 O                    -0.039449       0.910992
     11 H                     0.375327       0.001222
  --------------------------------------------------------
  Sum of atomic charges =     0.000000
  Sum of spin   charges =     1.000000

 -----------------------------------------------------------------
                    Cartesian Multipole Moments
 -----------------------------------------------------------------
    Charge (ESU x 10^10)
                 0.0000
    Dipole Moment (Debye)
         X      -6.5236      Y      -0.6433      Z      -5.7922
       Tot       8.7476
    Quadrupole Moments (Debye-Ang)
        XX     -51.0478     XY       3.6207     YY     -40.4659
        XZ      -3.7438     YZ      -3.3302     ZZ     -50.4035
    Octopole Moments (Debye-Ang^2)
       XXX      59.7147    XXY      -6.0381    XYY       6.6861
       YYY      -3.5389    XXZ     -51.6892    XYZ      12.5638
       YYZ     -38.2292    XZZ      10.8367    YZZ       6.1379
       ZZZ    -136.3429
    Hexadecapole Moments (Debye-Ang^3)
      XXXX    -585.0895   XXXY      29.2823   XXYY    -132.7467
      XYYY      46.8836   YYYY    -283.2519   XXXZ      74.1820
      XXYZ     -16.4239   XYYZ       9.5774   YYYZ     -17.7604
      XXZZ    -171.4644   XYZZ      15.7755   YYZZ    -123.5718
      XZZZ      70.7107   YZZZ       6.3768   ZZZZ    -445.7311
 -----------------------------------------------------------------
 Calculating analytic gradient of the SCF energy
 Gradient of CDS energy
            1           2           3           4           5           6
    1   0.0024454  -0.0012181  -0.0001888  -0.0022830   0.0000415   0.0019715
    2   0.0036163   0.0004165   0.0000054  -0.0029942   0.0027745  -0.0000995
    3  -0.0014919  -0.0010452  -0.0002893  -0.0000196  -0.0018118   0.0018565
            7           8           9          10          11
    1  -0.0003722   0.0000286  -0.0001730  -0.0000266  -0.0002254
    2  -0.0037758   0.0002937   0.0000642   0.0000353  -0.0003365
    3   0.0028104  -0.0002324  -0.0000199   0.0001474   0.0000959
 Gradient of SCF Energy
            1           2           3           4           5           6
    1   0.0011776  -0.0004812  -0.0033615   0.0004628   0.0204232  -0.0025652
    2  -0.0001704   0.0005804   0.0250729  -0.0059602   0.0099698  -0.0201816
    3   0.0006129  -0.0005403  -0.0225282   0.0025455   0.0067758   0.0175316
            7           8           9          10          11
    1   0.0268108  -0.0239046   0.0054998  -0.0060436  -0.0180181
    2  -0.0042673   0.0062125  -0.0012724   0.0011465  -0.0111302
    3   0.0182142  -0.0186354   0.0028092  -0.0024294  -0.0043559
 Max gradient component =       2.681E-02
 RMS gradient           =       1.237E-02
 Computing fast CPCM-SWIG gradient
 Updating gradient with PCM contributions...
 -- total gradient after adding PCM contribution --
---------------------------------------------------
  Atom         X              Y              Z     
---------------------------------------------------
   1      -0.001217      -0.000114      -0.000499
   2       0.000664      -0.000072       0.000435
   3       0.000010      -0.000016       0.000002
   4       0.000280       0.000227       0.000027
   5       0.000075      -0.000043       0.000104
   6      -0.000004      -0.000001      -0.000002
   7       0.000195       0.000108      -0.000017
   8      -0.000025      -0.000066       0.000025
   9       0.000076      -0.000042       0.000034
  10      -0.000050      -0.000032      -0.000063
  11      -0.000004       0.000051      -0.000045
---------------------------------------------------
 Number of fixed atoms: 0
 Gradient time:  CPU 108.01 s  wall 9.30 s
 ----------------------------------------------------------------
             Standard Nuclear Orientation (Angstroms)
    I     Atom           X                Y                Z
 ----------------------------------------------------------------
    1      C       0.5695365000     0.0129302000     0.6700025000
    2      O       1.4789047000    -0.2444354000     1.4529370000
    3      H      -1.5874792000    -0.0042416000    -0.8607254000
    4      C      -0.5883876000    -0.8391455000     0.5767346000
    5      O      -0.5918968000    -1.9098741000     1.3586141000
    6      O      -1.6065447000    -0.7618225000    -0.2626694000
    7      O       0.6742482000     1.1189624000    -0.0988121000
    8      H      -0.1018850000     1.3272415000    -0.6326109000
    9      O      -1.5183944000     0.8592389000     2.0550453000
   10      O      -2.5615200000     1.1545408000     1.5113734000
   11      H      -1.4004994000    -2.4225411000     1.2079938000
 ----------------------------------------------------------------
 Nuclear Repulsion Energy =         396.67523098 hartrees
 There are       32 alpha and       31 beta electrons
 Discretize the solute cavity surface with Lebedev spheres
	Using 110 Lebedev grid points for each H atom
	Using 194 Lebedev grid points for other atoms
	Atomic van der Waals radii will be scaled by 1.20
 Remove points where switching function is < 1.0e-08
 Keep 1071 surface tesserae and discard 811 interior tesserae
 Molecular Surface Area = 125.489 Angst**2

                       Distance Matrix (Angstroms)
             C (  1)   O (  2)   H (  3)   C (  4)   O (  5)   O (  6)
   O (  2)  1.227263
   H (  3)  2.645022  3.848823
   C (  4)  1.440667  2.322737  1.939469
   O (  5)  2.349530  2.659098  3.089998  1.325823
   O (  6)  2.491074  3.568052  0.965382  1.321825  2.230716
   O (  7)  1.351054  2.216811  2.637709  2.425860  3.591805  2.960780
   H (  8)  1.968508  3.052634  2.007953  2.528326  3.831972  2.600970
   O (  9)  2.644624  3.250297  3.041725  2.436150  3.001900  2.829737
   O ( 10)  3.437251  4.276164  2.813962  2.956617  3.646010  2.780585
   H ( 11)  3.178364  3.618717  3.187904  1.888162  0.969202  2.227845
             O (  7)   H (  8)   O (  9)   O ( 10)
   H (  8)  0.964730
   O (  9)  3.084516  3.073926
   O ( 10)  3.614438  3.267461  1.212804
   H ( 11)  4.307501  4.374368  3.391383  3.772999
 
 Requested basis set is 6-311++G(2df,2p)
 There are 82 shells and 302 basis functions
 A cutoff of  1.0D-12 yielded   3093 shell pairs
 There are     42402 function pairs (     54239 Cartesian)
 Smallest overlap matrix eigenvalue = 2.91E-05
 Guess MOs from SCF MO coefficient file

 -----------------------------------------------------------------------
  General SCF calculation program by
  Eric Jon Sundstrom, Paul Horn, Yuezhi Mao, Dmitri Zuev, Alec White,
  David Stuck, Shaama M.S., Shane Yost, Joonho Lee, David Small,
  Daniel Levine, Susi Lehtola, Hugh Burton, Evgeny Epifanovsky,
  Bang C. Huynh
 -----------------------------------------------------------------------
 Exchange:     0.1500 Hartree-Fock + 1.0000 wB97M-V + LR-HF
 Correlation:  1.0000 wB97M-V
 Using SG-2 standard quadrature grid
 Nonlocal Correlation:  VV10 with C = 0.0100 and b = 6.00 and scale = 1.00000
 Grid used for NLC:  SG-1 standard quadrature
 
 Citation of the SMD model:
 Marenich, A.V.; Cramer, C.J.; Truhlar, D.G.
 J. Phys. Chem. B 2009, 113, 6378-6396.
 iSolventCode=           1
 Solvent: water                                                           
 
 vradii
            1           2           3           4           5           6
    1   1.8500000   1.5200000   1.2000000   1.8500000   1.5200000   1.5200000
            7           8           9          10          11
    1   1.5200000   1.2000000   1.5200000   1.5200000   1.2000000
 -------------------------------------------------------
 OpenMP BLAS3 based DFT computing Module                
 Release: version 1.0, May 2013, Q-Chem Inc. Pittsburgh 
 -------------------------------------------------------
 A unrestricted SCF calculation will be
 performed using Roothaan-Hall, DIIS, GDM
 SCF converges when RMS gradient is below 1.0e-07
 ---------------------------------------
  Cycle       Energy         DIIS error
 ---------------------------------------
    1    -529.2140868343      4.32e-04  Roothaan Step
 ---------------------------------------
  Cycle       Energy         DIIS error
 ---------------------------------------
    1    -529.2584090770      5.47e-04  
    2    -529.2674406627      5.85e-04  Done DIIS. Switching to GDM
 ---------------------------------------
  Cycle       Energy        RMS Gradient
 ---------------------------------------
    1    -529.2674406627      2.86e-02   Normal BFGS step
    2    -529.2624656469      4.69e-02  Line search: overstep
    3    -529.2772632070      7.65e-03   Normal BFGS step
    4    -529.2776674637      4.09e-03   Normal BFGS step
    5    -529.2777408334      1.96e-03   Normal BFGS step
    6    -529.2777673703      6.46e-04   Normal BFGS step
    7    -529.2777712889      5.99e-04   Normal BFGS step
    8    -529.2777733756      2.82e-04   Normal BFGS step
    9    -529.2777737761      7.12e-05   Normal BFGS step
   10    -529.2777738861      8.96e-05   Normal BFGS step
   11    -529.2777739052      6.62e-05   Normal BFGS step
   12    -529.2777739156      3.79e-05   Normal BFGS step
   13    -529.2777739205      1.92e-05   Normal BFGS step
   14    -529.2777739220      8.43e-06   Normal BFGS step
   15    -529.2777739225      4.98e-06   Normal BFGS step
   16    -529.2777739226      2.15e-06   Normal BFGS step
   17    -529.2777739227      1.08e-06   Normal BFGS step
   18    -529.2777739227      6.97e-07   Normal BFGS step
   19    -529.2777739227      4.60e-07   Normal BFGS step
   20    -529.2777739227      2.32e-07   Normal BFGS step
   21    -529.2777739227      1.09e-07   Normal BFGS step
   22    -529.2777739227      3.61e-08  Convergence criterion met
 ---------------------------------------
 SCF time:   CPU 984.54s  wall 66.00s 
<S^2> =          1.502153154
(3)  G-ENP(liq) elect-nuc-pol free energy of system     -529.277773923 a.u.
(4)  G-CDS(liq) cavity-dispersion-solvent structure 
     free energy                                                4.5013 kcal/mol
(6)  G-S(liq) free energy of system                     -529.270600576 a.u.
 SCF   energy in the final basis set =     -529.2706005763
 Total energy in the final basis set =     -529.2706005763
 
 --------------------------------------------------------------
 
                    Orbital Energies (a.u.)
 --------------------------------------------------------------
 
 Alpha MOs
 -- Occupied --
-19.4760 -19.4649 -19.4051 -19.3942 -19.3842 -19.3235 -10.4948 -10.4916
 -1.4127  -1.2747  -1.2332  -1.1973  -1.1483  -0.9497  -0.8543  -0.7563
 -0.7430  -0.6838  -0.6655  -0.6580  -0.6483  -0.5847  -0.5813  -0.5512
 -0.5357  -0.5342  -0.5083  -0.4671  -0.4274  -0.4072  -0.3985  -0.3921
 -- Virtual --
  0.0016   0.0293   0.0444   0.0589   0.0778   0.0877   0.1058   0.1085
  0.1206   0.1340   0.1503   0.1584   0.1635   0.1791   0.1830   0.2081
  0.2188   0.2412   0.2458   0.2569   0.2647   0.2866   0.2909   0.2973
  0.3072   0.3124   0.3137   0.3165   0.3279   0.3352   0.3374   0.3420
  0.3552   0.3586   0.3702   0.3715   0.3838   0.4028   0.4092   0.4259
  0.4351   0.4411   0.4837   0.5131   0.5392   0.5887   0.6142   0.6295
  0.6597   0.6676   0.6929   0.7110   0.7247   0.7450   0.7566   0.7893
  0.8215   0.8270   0.8456   0.8748   0.8868   0.9056   0.9160   0.9475
  0.9960   1.0351   1.0474   1.0679   1.0833   1.0878   1.1019   1.1277
  1.1360   1.1393   1.1550   1.1673   1.1796   1.1949   1.2074   1.2300
  1.2384   1.2442   1.2537   1.2718   1.2867   1.3406   1.3689   1.4059
  1.4150   1.4376   1.4414   1.5077   1.5264   1.5362   1.5392   1.5578
  1.5954   1.6124   1.6424   1.6839   1.6943   1.7435   1.7529   1.7648
  1.8000   1.8078   1.8424   1.8868   1.9305   1.9688   1.9948   2.0101
  2.0734   2.1108   2.2143   2.2366   2.3060   2.3154   2.3483   2.3602
  2.3708   2.4286   2.4469   2.4663   2.4832   2.5439   2.5883   2.6245
  2.6527   2.6947   2.7646   2.8365   2.8606   2.8925   2.9321   2.9420
  2.9702   3.1662   3.1957   3.2562   3.2960   3.3017   3.3330   3.3577
  3.3955   3.4226   3.4387   3.4550   3.5449   3.5708   3.6033   3.6531
  3.6781   3.7109   3.7349   3.7787   3.7988   3.8039   3.8721   3.9085
  3.9939   4.1115   4.1410   4.1849   4.2487   4.2859   4.3033   4.3423
  4.3690   4.3767   4.5608   4.5805   4.6026   4.6147   4.6168   4.9321
  4.9336   4.9520   4.9885   5.0135   5.0489   5.1046   5.1228   5.1358
  5.1433   5.1538   5.1678   5.1836   5.1880   5.2036   5.2081   5.2228
  5.2284   5.2416   5.2518   5.2826   5.3066   5.3209   5.3291   5.3392
  5.3584   5.4067   5.4623   5.5113   5.5245   5.5369   5.5864   5.6694
  5.6806   5.7390   5.7406   5.7647   5.7772   5.8649   5.9050   5.9786
  6.0441   6.1360   6.1542   6.3790   6.4548   6.5665   6.6889   6.7560
  6.7892   6.8003   6.8207   6.8707   6.9070   6.9393   6.9525   6.9672
  6.9875   6.9953   7.0089   7.0380   7.0779   7.0912   7.1404   7.2212
  7.2376   7.2705   7.2871   7.3178   7.3270   7.3569   7.3896   7.4069
  7.4169   7.4539   7.4759   7.5088   7.5594   7.6804   7.7351   7.7946
  7.8030   7.8863   7.9095   7.9949   8.1125   8.1357  24.9273  25.2153
 50.4519  50.5160  50.5483  50.6139  50.6579  50.7536
 
 Beta MOs
 -- Occupied --
-19.4479 -19.4376 -19.4074 -19.3969 -19.3850 -19.3276 -10.5018 -10.4925
 -1.3611  -1.2811  -1.2365  -1.2029  -1.1540  -0.8811  -0.8603  -0.7612
 -0.7455  -0.6871  -0.6389  -0.5998  -0.5898  -0.5648  -0.5544  -0.5541
 -0.5395  -0.5378  -0.5115  -0.4851  -0.4459  -0.4117  -0.2723
 -- Virtual --
 -0.0171  -0.0083   0.0297   0.0448   0.0594   0.0785   0.0887   0.1069
  0.1083   0.1219   0.1343   0.1425   0.1518   0.1616   0.1646   0.1844
  0.2080   0.2200   0.2438   0.2483   0.2570   0.2682   0.2870   0.2910
  0.2970   0.3072   0.3131   0.3159   0.3199   0.3257   0.3324   0.3382
  0.3416   0.3557   0.3591   0.3703   0.3796   0.3939   0.4033   0.4099
  0.4320   0.4381   0.4407   0.4815   0.5141   0.5357   0.5880   0.6138
  0.6250   0.6538   0.6627   0.6887   0.7059   0.7187   0.7363   0.7531
  0.7873   0.8203   0.8264   0.8457   0.8726   0.8869   0.9022   0.9135
  0.9460   0.9978   1.0365   1.0518   1.0745   1.0885   1.0969   1.1080
  1.1310   1.1414   1.1484   1.1589   1.1731   1.1822   1.2083   1.2134
  1.2299   1.2403   1.2430   1.2664   1.2758   1.2920   1.3464   1.3739
  1.4145   1.4280   1.4459   1.4554   1.5142   1.5434   1.5464   1.5596
  1.5642   1.5969   1.6266   1.6466   1.6840   1.6975   1.7455   1.7524
  1.7890   1.8041   1.8052   1.8462   1.8940   1.9329   1.9734   1.9919
  2.0125   2.0689   2.1147   2.2116   2.2353   2.3069   2.3341   2.3526
  2.3750   2.3895   2.4323   2.4441   2.4632   2.4846   2.5422   2.5841
  2.6385   2.6480   2.6877   2.7396   2.8251   2.8367   2.8829   2.9143
  2.9313   2.9334   3.1530   3.1798   3.2403   3.2791   3.2896   3.3128
  3.3443   3.3804   3.4034   3.4229   3.4407   3.5219   3.5530   3.5835
  3.6424   3.6692   3.6986   3.7292   3.7746   3.7765   3.7988   3.8632
  3.9031   3.9882   4.1085   4.1352   4.1814   4.2422   4.2623   4.2803
  4.3380   4.3653   4.3722   4.5686   4.6159   4.6443   4.6603   4.6633
  4.9597   4.9832   5.0052   5.0135   5.0826   5.1053   5.1154   5.1335
  5.1539   5.1662   5.1839   5.1919   5.1996   5.2161   5.2200   5.2250
  5.2446   5.2499   5.2530   5.2747   5.2927   5.3080   5.3201   5.3321
  5.3588   5.3765   5.4059   5.4569   5.5086   5.5204   5.5294   5.5803
  5.6619   5.6752   5.7571   5.7700   5.7938   5.7965   5.8572   5.8978
  5.9676   6.0408   6.1338   6.1446   6.3678   6.4519   6.5620   6.7867
  6.8455   6.8600   6.8637   6.8781   6.9295   6.9400   6.9724   6.9785
  6.9938   7.0031   7.0200   7.0287   7.0599   7.1151   7.1318   7.1444
  7.2171   7.2368   7.2653   7.2795   7.3184   7.3237   7.3798   7.3953
  7.4061   7.4206   7.4691   7.4878   7.5068   7.5548   7.6756   7.7320
  7.7888   7.7993   7.8830   7.9059   7.9915   8.1460   8.1759  24.9236
 25.2117  50.4734  50.5333  50.5501  50.6134  50.6565  50.7508
 --------------------------------------------------------------
 
          Ground-State Mulliken Net Atomic Charges

     Atom                 Charge (a.u.)    Spin (a.u.)
  --------------------------------------------------------
      1 C                     0.272312      -0.086680
      2 O                    -0.520161      -0.145631
      3 H                     0.357529       0.002227
      4 C                     0.199319      -0.425989
      5 O                    -0.315961      -0.077611
      6 O                    -0.297442      -0.067802
      7 O                    -0.345871      -0.024535
      8 H                     0.336895       0.001206
      9 O                    -0.021453       0.913650
     10 O                    -0.040526       0.909947
     11 H                     0.375359       0.001218
  --------------------------------------------------------
  Sum of atomic charges =     0.000000
  Sum of spin   charges =     1.000000

 -----------------------------------------------------------------
                    Cartesian Multipole Moments
 -----------------------------------------------------------------
    Charge (ESU x 10^10)
                 0.0000
    Dipole Moment (Debye)
         X      -6.4966      Y      -0.6459      Z      -5.8026
       Tot       8.7346
    Quadrupole Moments (Debye-Ang)
        XX     -51.0786     XY       3.6420     YY     -40.4677
        XZ      -3.7078     YZ      -3.3467     ZZ     -50.4220
    Octopole Moments (Debye-Ang^2)
       XXX      59.8548    XXY      -6.0935    XYY       6.7197
       YYY      -3.5620    XXZ     -51.7499    XYZ      12.5961
       YYZ     -38.2487    XZZ      10.9077    YZZ       6.1016
       ZZZ    -136.3992
    Hexadecapole Moments (Debye-Ang^3)
      XXXX    -585.4593   XXXY      29.4202   XXYY    -132.8202
      XYYY      46.9309   YYYY    -283.2663   XXXZ      74.3884
      XXYZ     -16.5195   XYYZ       9.6357   YYYZ     -17.8156
      XXZZ    -171.5915   XYZZ      15.8387   YYZZ    -123.6086
      XZZZ      70.8687   YZZZ       6.2764   ZZZZ    -445.8708
 -----------------------------------------------------------------
 Calculating analytic gradient of the SCF energy
 Gradient of CDS energy
            1           2           3           4           5           6
    1   0.0024325  -0.0012107  -0.0001889  -0.0022835   0.0000413   0.0019715
    2   0.0035833   0.0004154   0.0000054  -0.0029950   0.0027745  -0.0000994
    3  -0.0014750  -0.0010395  -0.0002893  -0.0000198  -0.0018118   0.0018565
            7           8           9          10          11
    1  -0.0003649   0.0000280  -0.0001734  -0.0000266  -0.0002254
    2  -0.0037397   0.0002927   0.0000640   0.0000354  -0.0003365
    3   0.0027870  -0.0002316  -0.0000198   0.0001474   0.0000959
 Gradient of SCF Energy
            1           2           3           4           5           6
    1   0.0024353  -0.0009813  -0.0033393   0.0000955   0.0203367  -0.0026083
    2   0.0007338   0.0004989   0.0250695  -0.0064635   0.0099233  -0.0201717
    3   0.0007558  -0.0007970  -0.0225345   0.0024186   0.0068118   0.0175307
            7           8           9          10          11
    1   0.0265648  -0.0238987   0.0051152  -0.0057200  -0.0179999
    2  -0.0046942   0.0062782  -0.0011109   0.0010678  -0.0111312
    3   0.0183875  -0.0186957   0.0027105  -0.0022308  -0.0043569
 Max gradient component =       2.656E-02
 RMS gradient           =       1.237E-02
 Computing fast CPCM-SWIG gradient
 Updating gradient with PCM contributions...
 -- total gradient after adding PCM contribution --
---------------------------------------------------
  Atom         X              Y              Z     
---------------------------------------------------
   1       0.000029       0.000807      -0.000357
   2       0.000164      -0.000166       0.000168
   3       0.000012      -0.000013       0.000001
   4      -0.000080      -0.000269      -0.000073
   5       0.000007      -0.000095       0.000138
   6      -0.000034       0.000003      -0.000009
   7      -0.000046      -0.000301       0.000126
   8      -0.000011      -0.000022       0.000001
   9      -0.000250       0.000102      -0.000041
  10       0.000212      -0.000095       0.000090
  11      -0.000003       0.000050      -0.000044
---------------------------------------------------
 Number of fixed atoms: 0
 Gradient time:  CPU 108.36 s  wall 9.38 s
 ----------------------------------------------------------------
             Standard Nuclear Orientation (Angstroms)
    I     Atom           X                Y                Z
 ----------------------------------------------------------------
    1      C       0.5695365000     0.0109302000     0.6700025000
    2      O       1.4789047000    -0.2444354000     1.4529370000
    3      H      -1.5874792000    -0.0042416000    -0.8607254000
    4      C      -0.5883876000    -0.8391455000     0.5767346000
    5      O      -0.5918968000    -1.9098741000     1.3586141000
    6      O      -1.6065447000    -0.7618225000    -0.2626694000
    7      O       0.6742482000     1.1189624000    -0.0988121000
    8      H      -0.1018850000     1.3272415000    -0.6326109000
    9      O      -1.5183944000     0.8592389000     2.0550453000
   10      O      -2.5615200000     1.1545408000     1.5113734000
   11      H      -1.4004994000    -2.4225411000     1.2079938000
 ----------------------------------------------------------------
 Nuclear Repulsion Energy =         396.67609258 hartrees
 There are       32 alpha and       31 beta electrons
 Discretize the solute cavity surface with Lebedev spheres
	Using 110 Lebedev grid points for each H atom
	Using 194 Lebedev grid points for other atoms
	Atomic van der Waals radii will be scaled by 1.20
 Remove points where switching function is < 1.0e-08
 Keep 1071 surface tesserae and discard 811 interior tesserae
 Molecular Surface Area = 125.489 Angst**2

                       Distance Matrix (Angstroms)
             C (  1)   O (  2)   H (  3)   C (  4)   O (  5)   O (  6)
   O (  2)  1.226845
   H (  3)  2.645009  3.848823
   C (  4)  1.439485  2.322737  1.939469
   O (  5)  2.347893  2.659098  3.089998  1.325823
   O (  6)  2.490452  3.568052  0.965382  1.321825  2.230716
   O (  7)  1.352692  2.216811  2.637709  2.425860  3.591805  2.960780
   H (  8)  1.969844  3.052634  2.007953  2.528326  3.831972  2.600970
   O (  9)  2.645265  3.250297  3.041725  2.436150  3.001900  2.829737
   O ( 10)  3.437916  4.276164  2.813962  2.956617  3.646010  2.780585
   H ( 11)  3.176832  3.618717  3.187904  1.888162  0.969202  2.227845
             O (  7)   H (  8)   O (  9)   O ( 10)
   H (  8)  0.964730
   O (  9)  3.084516  3.073926
   O ( 10)  3.614438  3.267461  1.212804
   H ( 11)  4.307501  4.374368  3.391383  3.772999
 
 Requested basis set is 6-311++G(2df,2p)
 There are 82 shells and 302 basis functions
 A cutoff of  1.0D-12 yielded   3093 shell pairs
 There are     42402 function pairs (     54239 Cartesian)
 Smallest overlap matrix eigenvalue = 2.90E-05
 Guess MOs from SCF MO coefficient file

 -----------------------------------------------------------------------
  General SCF calculation program by
  Eric Jon Sundstrom, Paul Horn, Yuezhi Mao, Dmitri Zuev, Alec White,
  David Stuck, Shaama M.S., Shane Yost, Joonho Lee, David Small,
  Daniel Levine, Susi Lehtola, Hugh Burton, Evgeny Epifanovsky,
  Bang C. Huynh
 -----------------------------------------------------------------------
 Exchange:     0.1500 Hartree-Fock + 1.0000 wB97M-V + LR-HF
 Correlation:  1.0000 wB97M-V
 Using SG-2 standard quadrature grid
 Nonlocal Correlation:  VV10 with C = 0.0100 and b = 6.00 and scale = 1.00000
 Grid used for NLC:  SG-1 standard quadrature
 
 Citation of the SMD model:
 Marenich, A.V.; Cramer, C.J.; Truhlar, D.G.
 J. Phys. Chem. B 2009, 113, 6378-6396.
 iSolventCode=           1
 Solvent: water                                                           
 
 vradii
            1           2           3           4           5           6
    1   1.8500000   1.5200000   1.2000000   1.8500000   1.5200000   1.5200000
            7           8           9          10          11
    1   1.5200000   1.2000000   1.5200000   1.5200000   1.2000000
 -------------------------------------------------------
 OpenMP BLAS3 based DFT computing Module                
 Release: version 1.0, May 2013, Q-Chem Inc. Pittsburgh 
 -------------------------------------------------------
 A unrestricted SCF calculation will be
 performed using Roothaan-Hall, DIIS, GDM
 SCF converges when RMS gradient is below 1.0e-07
 ---------------------------------------
  Cycle       Energy         DIIS error
 ---------------------------------------
    1    -529.2141139932      4.32e-04  Roothaan Step
 ---------------------------------------
  Cycle       Energy         DIIS error
 ---------------------------------------
    1    -529.2583905093      5.48e-04  
    2    -529.2674039929      5.86e-04  Done DIIS. Switching to GDM
 ---------------------------------------
  Cycle       Energy        RMS Gradient
 ---------------------------------------
    1    -529.2674039929      2.84e-02   Normal BFGS step
    2    -529.2624325183      4.66e-02  Line search: overstep
[...]
    2   0.0033459   0.0004079   0.0000087  -0.0029262   0.0026750  -0.0000661
    3  -0.0014219  -0.0009634  -0.0002849  -0.0001003  -0.0016600   0.0018007
            7           8           9          10          11
    1  -0.0003423   0.0000238  -0.0001694  -0.0000232  -0.0002178
    2  -0.0034890   0.0002861   0.0000598   0.0000376  -0.0003396
    3   0.0026436  -0.0002263  -0.0000263   0.0001483   0.0000904
 Gradient of SCF Energy
            1           2           3           4           5           6
    1  -0.0048308   0.0024147  -0.0020806   0.0122986   0.0195443  -0.0078045
    2  -0.0058331   0.0010642   0.0237052  -0.0047997   0.0068514  -0.0188427
    3  -0.0017109   0.0025259  -0.0238971  -0.0013565   0.0094842   0.0148800
            7           8           9          10          11
    1   0.0267326  -0.0236114  -0.0103976   0.0057599  -0.0180252
    2  -0.0017077   0.0062640   0.0074459  -0.0015544  -0.0125931
    3   0.0177327  -0.0197623   0.0007481   0.0062200  -0.0048640
 Max gradient component =       2.673E-02
 RMS gradient           =       1.268E-02
 Computing fast CPCM-SWIG gradient
 Updating gradient with PCM contributions...
 -- total gradient after adding PCM contribution --
---------------------------------------------------
  Atom         X              Y              Z     
---------------------------------------------------
   1      -0.007097      -0.005214      -0.001878
   2       0.003589      -0.000135       0.002395
   3       0.000349      -0.000510       0.000136
   4       0.010635       0.002491      -0.003304
   5      -0.000561      -0.004088       0.002119
   6      -0.003546       0.000093      -0.002709
   7       0.000401       0.001972      -0.001255
   8       0.000032      -0.000372       0.000138
   9      -0.012331       0.007477      -0.000750
  10       0.008292      -0.001917       0.005298
  11       0.000238       0.000202      -0.000190
---------------------------------------------------
 Number of fixed atoms: 0
 Gradient time:  CPU 108.07 s  wall 9.17 s
rPathMan2.  file_steps = 952
 IRC --- Status = 2.  Assess steepest descent step
 IRC --- Previous SD length =   0.150000
 IRC --- Point 1 E =     -529.270601 |G| =   0.000262 G.D1 =  -0.000088
 IRC --- Point 2 E =     -529.271358 |G| =   0.024222 G.D1 =  -0.013044
 IRC --- Angle(G1/G2) =   57.42 Deg.  Curvature =  -0.0864
 IRC --- Corrector step required
 IRC --- equal length displacement: B_eq =   0.144109
 IRC --- chosen bisector length  : B_len =   0.072054
 ----------------------------------------------------------------
             Standard Nuclear Orientation (Angstroms)
    I     Atom           X                Y                Z
 ----------------------------------------------------------------
    1      C       0.5805305147     0.0264680668     0.6760414778
    2      O       1.4698207398    -0.2437420841     1.4485047306
    3      H      -1.5898478282    -0.0015841992    -0.8599315236
    4      C      -0.6193225400    -0.8327381595     0.5948070934
    5      O      -0.5927742900    -1.8984438871     1.3559450947
    6      O      -1.6014341997    -0.7600750707    -0.2568088104
    7      O       0.6734571530     1.1163030686    -0.0955104224
    8      H      -0.1014061566     1.3291005962    -0.6326402455
    9      O      -1.4834078155     0.8262201408     2.0403028327
   10      O      -2.5690903039     1.1509288412     1.4970055486
   11      H      -1.4004427526    -2.4225838753     1.2101669928
 ----------------------------------------------------------------
 Nuclear Repulsion Energy =         397.90430697 hartrees
 There are       32 alpha and       31 beta electrons
 Discretize the solute cavity surface with Lebedev spheres
	Using 110 Lebedev grid points for each H atom
	Using 194 Lebedev grid points for other atoms
	Atomic van der Waals radii will be scaled by 1.20
 Remove points where switching function is < 1.0e-08
 Keep 1062 surface tesserae and discard 820 interior tesserae
 Molecular Surface Area = 124.947 Angst**2

                       Distance Matrix (Angstroms)
             C (  1)   O (  2)   H (  3)   C (  4)   O (  5)   O (  6)
   O (  2)  1.208532
   H (  3)  2.659049  3.840454
   C (  4)  1.477999  2.332431  1.936234
   O (  5)  2.354612  2.645922  3.082587  1.309872
   O (  6)  2.499966  3.550676  0.969123  1.301950  2.216812
   O (  7)  1.338532  2.206332  2.637529  2.438561  3.577536  2.953294
   H (  8)  1.968384  3.045284  2.009438  2.539372  3.822690  2.599228
   O (  9)  2.600126  3.196342  3.017938  2.363947  2.947095  2.794098
   O ( 10)  3.443618  4.273203  2.800420  2.924122  3.636536  2.768422
   H ( 11)  3.194902  3.611450  3.190991  1.875214  0.973808  2.226286
             O (  7)   H (  8)   O (  9)   O ( 10)
   H (  8)  0.966542
   O (  9)  3.049248  3.050810
   O ( 10)  3.612675  3.264445  1.256708
   H ( 11)  4.304599  4.377050  3.354212  3.770677
 
 Applying Cartesian multipole field
    Component          Value
    ---------          -----
     (2,0,0)        1.00000E-11
     (0,2,0)        2.00000E-11
     (0,0,2)       -3.00000E-11
 Nucleus-field energy     =    -0.0000000002 hartrees
 Requested basis set is 6-311++G(2df,2p)
 There are 82 shells and 302 basis functions
 A cutoff of  1.0D-12 yielded   3100 shell pairs
 There are     42459 function pairs (     54305 Cartesian)
 Smallest overlap matrix eigenvalue = 3.25E-05
 Guess MOs from SCF MO coefficient file

 -----------------------------------------------------------------------
  General SCF calculation program by
  Eric Jon Sundstrom, Paul Horn, Yuezhi Mao, Dmitri Zuev, Alec White,
  David Stuck, Shaama M.S., Shane Yost, Joonho Lee, David Small,
  Daniel Levine, Susi Lehtola, Hugh Burton, Evgeny Epifanovsky,
  Bang C. Huynh
 -----------------------------------------------------------------------
 Exchange:     0.1500 Hartree-Fock + 1.0000 wB97M-V + LR-HF
 Correlation:  1.0000 wB97M-V
 Using SG-2 standard quadrature grid
 Nonlocal Correlation:  VV10 with C = 0.0100 and b = 6.00 and scale = 1.00000
 Grid used for NLC:  SG-1 standard quadrature
 
 Citation of the SMD model:
 Marenich, A.V.; Cramer, C.J.; Truhlar, D.G.
 J. Phys. Chem. B 2009, 113, 6378-6396.
 iSolventCode=           1
 Solvent: water                                                           
 
 vradii
            1           2           3           4           5           6
    1   1.8500000   1.5200000   1.2000000   1.8500000   1.5200000   1.5200000
            7           8           9          10          11
    1   1.5200000   1.2000000   1.5200000   1.5200000   1.2000000
 -------------------------------------------------------
 OpenMP BLAS3 based DFT computing Module                
 Release: version 1.0, May 2013, Q-Chem Inc. Pittsburgh 
 -------------------------------------------------------
 A unrestricted SCF calculation will be
 performed using Roothaan-Hall, DIIS, GDM
 SCF converges when RMS gradient is below 1.0e-07
 ---------------------------------------
  Cycle       Energy         DIIS error
 ---------------------------------------
    1    -529.2119775648      4.58e-04  Roothaan Step
 ---------------------------------------
  Cycle       Energy         DIIS error
 ---------------------------------------
    1    -529.2599218411      5.14e-04  
    2    -529.2695323746      5.25e-04  Done DIIS. Switching to GDM
 ---------------------------------------
  Cycle       Energy        RMS Gradient
 ---------------------------------------
    1    -529.2695323746      2.60e-02   Normal BFGS step
    2    -529.2661544059      4.56e-02  Line search: overstep
    3    -529.2775981128      1.34e-02   Normal BFGS step
    4    -529.2782174846      1.39e-02   Normal BFGS step
    5    -529.2786055984      8.81e-03   Normal BFGS step
    6    -529.2789007569      7.84e-03   Normal BFGS step
    7    -529.2793636899      5.71e-03   Normal BFGS step
    8    -529.2796383377      6.31e-03   Normal BFGS step
    9    -529.2797450988      2.99e-03   Normal BFGS step
   10    -529.2797714428      1.18e-03   Normal BFGS step
   11    -529.2797799972      4.45e-04   Normal BFGS step
   12    -529.2797811666      2.36e-04   Normal BFGS step
   13    -529.2797815652      1.47e-04   Normal BFGS step
   14    -529.2797816570      1.37e-04   Normal BFGS step
   15    -529.2797816940      1.18e-04   Normal BFGS step
   16    -529.2797817297      8.96e-05   Normal BFGS step
   17    -529.2797817711      4.72e-05   Normal BFGS step
   18    -529.2797817899      2.46e-05   Normal BFGS step
   19    -529.2797817951      1.13e-05   Normal BFGS step
   20    -529.2797817959      5.88e-06   Normal BFGS step
   21    -529.2797817960      2.24e-06   Normal BFGS step
   22    -529.2797817960      8.00e-07   Normal BFGS step
   23    -529.2797817961      3.88e-07   Normal BFGS step
   24    -529.2797817961      1.44e-07   Normal BFGS step
   25    -529.2797817961      1.21e-07   Normal BFGS step
   26    -529.2797817961      3.50e-08  Convergence criterion met
 ---------------------------------------
 SCF time:   CPU 1162.66s  wall 78.00s 
<S^2> =          0.903109301
(3)  G-ENP(liq) elect-nuc-pol free energy of system     -529.279781796 a.u.
(4)  G-CDS(liq) cavity-dispersion-solvent structure 
     free energy                                                4.7175 kcal/mol
(6)  G-S(liq) free energy of system                     -529.272263977 a.u.
 SCF   energy in the final basis set =     -529.2722639766
 Total energy in the final basis set =     -529.2722639766
 
 --------------------------------------------------------------
 
                    Orbital Energies (a.u.)
 --------------------------------------------------------------
 
 Alpha MOs
 -- Occupied --
-19.4330 -19.4213 -19.4105 -19.4010 -19.3925 -19.3503 -10.5498 -10.5218
 -1.3208  -1.3060  -1.2586  -1.2271  -1.1771  -0.9073  -0.8744  -0.7842
 -0.7651  -0.7080  -0.6439  -0.6080  -0.5966  -0.5838  -0.5736  -0.5665
 -0.5563  -0.5522  -0.5230  -0.4905  -0.4504  -0.4280  -0.3577  -0.3350
 -- Virtual --
 -0.0157   0.0282   0.0436   0.0582   0.0774   0.0874   0.1044   0.1068
  0.1203   0.1325   0.1481   0.1505   0.1584   0.1617   0.1837   0.2057
  0.2191   0.2426   0.2472   0.2536   0.2656   0.2808   0.2883   0.2925
  0.3039   0.3103   0.3133   0.3142   0.3179   0.3303   0.3372   0.3391
  0.3522   0.3560   0.3680   0.3692   0.3825   0.4014   0.4044   0.4243
  0.4328   0.4369   0.4729   0.5070   0.5264   0.5794   0.6051   0.6141
  0.6469   0.6535   0.6825   0.7002   0.7138   0.7389   0.7489   0.7785
  0.8128   0.8219   0.8405   0.8665   0.8799   0.8962   0.9038   0.9509
  0.9935   1.0291   1.0543   1.0692   1.0823   1.0926   1.1022   1.1221
  1.1409   1.1548   1.1599   1.1684   1.1756   1.1990   1.2090   1.2231
  1.2355   1.2423   1.2598   1.2693   1.2879   1.3390   1.3657   1.4046
  1.4152   1.4470   1.4526   1.5037   1.5348   1.5499   1.5645   1.5746
  1.5900   1.6232   1.6390   1.6721   1.6908   1.7284   1.7418   1.7715
  1.7961   1.7991   1.8387   1.8915   1.9332   1.9735   1.9989   2.0136
  2.0635   2.1184   2.2006   2.2355   2.2926   2.3025   2.3415   2.3528
  2.3627   2.4234   2.4288   2.4539   2.4750   2.5323   2.5717   2.6351
  2.6557   2.6758   2.7367   2.8127   2.8449   2.8733   2.9062   2.9196
  2.9402   3.1503   3.1725   3.2282   3.2672   3.2881   3.3055   3.3364
  3.3767   3.4063   3.4133   3.4498   3.4906   3.5307   3.5796   3.6298
  3.6637   3.6798   3.7143   3.7645   3.7786   3.7894   3.8499   3.8945
  3.9724   4.0963   4.1140   4.1563   4.1832   4.2215   4.2572   4.3261
  4.3542   4.3616   4.5282   4.5897   4.6399   4.6957   4.7012   4.9189
  4.9446   5.0152   5.0214   5.0627   5.0888   5.1122   5.1204   5.1420
  5.1634   5.1716   5.1776   5.1904   5.1962   5.2051   5.2165   5.2219
  5.2333   5.2413   5.2596   5.2776   5.2882   5.3021   5.3102   5.3260
  5.3432   5.3999   5.4434   5.4985   5.5175   5.5252   5.5590   5.6504
  5.6695   5.7045   5.7064   5.7431   5.7619   5.8499   5.9419   6.0041
  6.0376   6.1353   6.1762   6.4077   6.5048   6.6046   6.6773   6.7034
  6.7497   6.8115   6.8380   6.9190   6.9265   6.9390   6.9579   6.9844
  6.9960   7.0011   7.0208   7.0896   7.1052   7.1190   7.1378   7.2037
  7.2317   7.2551   7.2743   7.3099   7.3232   7.3815   7.3895   7.4044
  7.4096   7.4586   7.4933   7.5023   7.5400   7.6711   7.7156   7.7773
  7.8022   7.8781   7.8889   7.9736   8.0489   8.0990  24.9520  25.1751
 50.4774  50.4977  50.5380  50.5987  50.6472  50.7490
 
 Beta MOs
 -- Occupied --
-19.4337 -19.4225 -19.4012 -19.3909 -19.3734 -19.3516 -10.5522 -10.5219
 -1.3117  -1.2804  -1.2596  -1.2293  -1.1788  -0.8882  -0.8446  -0.7860
 -0.7659  -0.7097  -0.6462  -0.6096  -0.5766  -0.5729  -0.5583  -0.5532
 -0.5275  -0.5232  -0.4989  -0.4930  -0.4559  -0.4296  -0.2770
 -- Virtual --
 -0.0262   0.0136   0.0290   0.0440   0.0586   0.0780   0.0882   0.1057
  0.1066   0.1212   0.1326   0.1397   0.1499   0.1605   0.1631   0.1855
  0.2063   0.2212   0.2448   0.2494   0.2552   0.2695   0.2813   0.2881
  0.2923   0.3047   0.3101   0.3131   0.3195   0.3198   0.3313   0.3387
  0.3396   0.3540   0.3576   0.3683   0.3782   0.3880   0.4019   0.4062
  0.4286   0.4346   0.4382   0.4721   0.5075   0.5268   0.5793   0.6047
  0.6130   0.6445   0.6522   0.6815   0.6987   0.7121   0.7369   0.7476
  0.7783   0.8129   0.8219   0.8411   0.8660   0.8805   0.8950   0.9038
  0.9513   0.9957   1.0291   1.0557   1.0711   1.0868   1.0947   1.1085
  1.1222   1.1491   1.1604   1.1693   1.1730   1.1803   1.2032   1.2182
  1.2314   1.2364   1.2457   1.2670   1.2735   1.2957   1.3443   1.3711
  1.4072   1.4153   1.4552   1.4697   1.5110   1.5349   1.5568   1.5748
  1.5926   1.5935   1.6374   1.6440   1.6735   1.6969   1.7298   1.7436
  1.7933   1.7983   1.8020   1.8422   1.8952   1.9385   1.9774   2.0008
  2.0189   2.0618   2.1237   2.1996   2.2366   2.3059   2.3085   2.3426
  2.3632   2.3778   2.4256   2.4297   2.4541   2.4766   2.5321   2.5704
  2.6330   2.6614   2.6759   2.7323   2.8066   2.8376   2.8704   2.9029
  2.9133   2.9261   3.1460   3.1679   3.2227   3.2625   3.2816   3.2993
  3.3311   3.3710   3.3999   3.4066   3.4451   3.4821   3.5231   3.5743
  3.6261   3.6609   3.6761   3.7126   3.7606   3.7726   3.7876   3.8475
  3.8923   3.9700   4.0948   4.1115   4.1546   4.1734   4.2191   4.2518
  4.3245   4.3530   4.3601   4.5261   4.6322   4.6601   4.7286   4.7349
  4.9132   4.9610   5.0593   5.0698   5.0852   5.1152   5.1250   5.1384
  5.1581   5.1703   5.1752   5.1881   5.1982   5.2129   5.2250   5.2400
  5.2526   5.2584   5.2694   5.2752   5.2901   5.3003   5.3138   5.3242
  5.3431   5.3623   5.4018   5.4419   5.4977   5.5161   5.5231   5.5564
  5.6480   5.6681   5.7364   5.7422   5.7477   5.7603   5.8472   5.9396
  6.0001   6.0361   6.1345   6.1729   6.4043   6.5042   6.6031   6.7318
  6.7334   6.7820   6.8687   6.9143   6.9160   6.9424   6.9580   6.9859
  7.0037   7.0095   7.0200   7.0640   7.1263   7.1360   7.1457   7.1608
  7.2035   7.2356   7.2544   7.2738   7.3115   7.3226   7.3822   7.3907
  7.4049   7.4439   7.4655   7.4938   7.5184   7.5435   7.6693   7.7149
  7.7757   7.8007   7.8770   7.8875   7.9727   8.0653   8.1307  24.9507
 25.1742  50.4917  50.5108  50.5392  50.5988  50.6469  50.7481
 --------------------------------------------------------------
 
          Ground-State Mulliken Net Atomic Charges

     Atom                 Charge (a.u.)    Spin (a.u.)
  --------------------------------------------------------
      1 C                     0.320422      -0.015430
      2 O                    -0.429003      -0.047766
      3 H                     0.370613       0.000854
      4 C                     0.286231      -0.159231
      5 O                    -0.247577      -0.037305
      6 O                    -0.230280      -0.026409
      7 O                    -0.307049      -0.007770
      8 H                     0.345296       0.000397
      9 O                    -0.209566       0.639775
     10 O                    -0.287083       0.652019
     11 H                     0.387997       0.000866
  --------------------------------------------------------
  Sum of atomic charges =     0.000000
  Sum of spin   charges =     1.000000

 -----------------------------------------------------------------
                    Cartesian Multipole Moments
 -----------------------------------------------------------------
    Charge (ESU x 10^10)
                 0.0000
    Dipole Moment (Debye)
         X      -2.4929      Y      -3.8928      Z      -8.0741
       Tot       9.3038
    Quadrupole Moments (Debye-Ang)
        XX     -57.8352     XY       9.4225     YY     -40.0630
        XZ       4.1493     YZ      -8.5018     ZZ     -54.9807
    Octopole Moments (Debye-Ang^2)
       XXX      89.2122    XXY     -20.2678    XYY      12.9700
       YYY     -14.6328    XXZ     -66.6698    XYZ      21.2115
       YYZ     -41.2096    XZZ      26.7686    YZZ      -4.9035
       ZZZ    -150.5161
    Hexadecapole Moments (Debye-Ang^3)
      XXXX    -655.3863   XXXY      65.7595   XXYY    -146.4752
      XYYY      63.8731   YYYY    -272.1868   XXXZ     125.1139
      XXYZ     -38.3154   XYYZ      21.5310   YYYZ     -34.5251
      XXZZ    -200.0928   XYZZ      34.3986   YYZZ    -129.0480
      XZZZ     108.7809   YZZZ     -18.1340   ZZZZ    -480.8575
 -----------------------------------------------------------------
 Calculating analytic gradient of the SCF energy
 Gradient of CDS energy
            1           2           3           4           5           6
    1   0.0021592  -0.0009898  -0.0001762  -0.0018194  -0.0000280   0.0015234
    2   0.0031484   0.0003750   0.0000141  -0.0026122   0.0023358  -0.0000839
    3  -0.0013710  -0.0008454  -0.0002739  -0.0000576  -0.0014615   0.0015418
            7           8           9          10          11
    1  -0.0002798   0.0000213  -0.0001717  -0.0000240  -0.0002149
    2  -0.0032329   0.0002802   0.0000636   0.0000442  -0.0003322
    3   0.0024697  -0.0002212  -0.0000237   0.0001521   0.0000906
 Gradient of SCF Energy
            1           2           3           4           5           6
    1  -0.0081764   0.0027445  -0.0012171   0.0327774   0.0209660  -0.0182256
    2  -0.0193937   0.0046427   0.0237169  -0.0028095   0.0010643  -0.0163060
    3  -0.0029197   0.0043377  -0.0283407  -0.0088426   0.0184348   0.0108592
            7           8           9          10          11
    1   0.0264221  -0.0235751  -0.0230769   0.0123059  -0.0209448
    2   0.0032578   0.0064629   0.0171782  -0.0025926  -0.0152209
    3   0.0178667  -0.0225378   0.0050293   0.0131298  -0.0070166
 Max gradient component =       3.278E-02
 RMS gradient           =       1.611E-02
 Computing fast CPCM-SWIG gradient
 Updating gradient with PCM contributions...
 -- total gradient after adding PCM contribution --
---------------------------------------------------
  Atom         X              Y              Z     
---------------------------------------------------
   1      -0.009901      -0.016352      -0.000608
   2       0.003050       0.002480       0.001815
   3       0.000454       0.000413      -0.000965
   4       0.025828       0.005583      -0.010111
   5       0.000810      -0.010817       0.009014
   6      -0.010263       0.000491      -0.006486
   7       0.000772       0.005194      -0.002368
   8      -0.000604      -0.000137      -0.000402
   9      -0.023280       0.015980       0.002837
  10       0.014247      -0.003594       0.008579
  11      -0.001114       0.000759      -0.001306
---------------------------------------------------
 Number of fixed atoms: 0
 Gradient time:  CPU 108.03 s  wall 9.23 s
rPathMan2.  file_steps = 952
 IRC --- Status = 3.  Assess initial corrector step
 IRC --- bisector search: b =  0.000000 E =     -529.271358 G.B =  -0.011635
 IRC --- bisector search: b =  0.072054 E =     -529.272264 G.B =  -0.019193
 IRC --- performed gradient/energy interpolation

 Q-Chem fatal error:

 IRC --- Failed line search

