
Running Job 1 of 1 Q_in.in
qchem Q_in.in_58192.0 /scratch/ari.fischer/qChem1385480.hpc-mn1/qchem58192/ 0
/usr/local/qchem-5.4.1/exe/qcprog.exe_s Q_in.in_58192.0 /scratch/ari.fischer/qChem1385480.hpc-mn1/qchem58192/
                  Welcome to Q-Chem
     A Quantum Leap Into The Future Of Chemistry


 Q-Chem 5.4, Q-Chem, Inc., Pleasanton, CA (2021)

 License issued to: Nanyang Technological University (site)

 E. Epifanovsky,  A. T. B. Gilbert,  Xintian Feng,  Joonho Lee,  Yuezhi Mao,  
 N. Mardirossian,  P. Pokhilko,  A. White,  M. Wormit,  M. P. Coons,  
 A. L. Dempwolff,  Zhengting Gan,  D. Hait,  P. R. Horn,  L. D. Jacobson,  
 I. Kaliman,  J. Kussmann,  A. W. Lange,  Ka Un Lao,  D. S. Levine,  Jie Liu,  
 S. C. McKenzie,  A. F. Morrison,  K. Nanda,  F. Plasser,  D. R. Rehn,  
 M. L. Vidal,  Zhi-Qiang You,  Ying Zhu,  B. Alam,  B. Albrecht,  
 A. Aldossary,  E. Alguire,  J. H. Andersen,  D. Barton,  K. Begam,  A. Behn,  
 Y. A. Bernard,  E. J. Berquist,  H. Burton,  A. Carreras,  K. Carter-Fenk,  
 R. Chakraborty,  A. D. Chien,  K. D. Closser,  V. Cofer-Shabica,  
 S. Dasgupta,  Jia Deng,  M. de Wergifosse,  M. Diedenhofen,  Hainam Do,  
 S. Ehlert,  Po-Tung Fang,  S. Fatehi,  Qingguo Feng,  T. Friedhoff,  
 J. Gayvert,  Qinghui Ge,  G. Gidofalvi,  M. Goldey,  J. Gomes,  
 C. Gonzalez-Espinoza,  S. Gulania,  A. Gunina,  M. W. D. Hanson-Heine,  
 P. H. P. Harbach,  A. W. Hauser,  M. F. Herbst,  M. Hernandez Vera,  
 M. Hodecker,  Z. C. Holden,  S. Houck,  Xunkun Huang,  Kerwin Hui,  
 B. C. Huynh,  M. Ivanov,  Hyunjun Ji,  Hanjie Jiang,  B. Kaduk,  S. Kaehler,  
 K. Khistyaev,  Jaehoon Kim,  P. Klunzinger,  Z. Koczor-Benda,  
 Joong Hoon Koh,  D. Kosenkov,  L. Koulias,  T. Kowalczyk,  C. M. Krauter,  
 K. Kue,  A. Kunitsa,  T. Kus,  A. Landau,  K. V. Lawler,  D. Lefrancois,  
 S. Lehtola,  Rain Li,  Yi-Pei Li,  Jiashu Liang,  M. Liebenthal,  
 Hung-Hsuan Lin,  You-Sheng Lin,  Fenglai Liu,  Kuan-Yu Liu,  
 M. Loipersberger,  A. Luenser,  A. Manjanath,  P. Manohar,  E. Mansoor,  
 S. F. Manzer,  Shan-Ping Mao,  A. V. Marenich,  T. Markovich,  S. Mason,  
 S. A. Maurer,  P. F. McLaughlin,  M. F. S. J. Menger,  J.-M. Mewes,  
 S. A. Mewes,  P. Morgante,  J. W. Mullinax,  K. J. Oosterbaan,  G. Paran,  
 Alexander C. Paul,  Suranjan K. Paul,  F. Pavosevic,  Zheng Pei,  S. Prager,  
 E. I. Proynov,  E. Ramos,  B. Rana,  A. E. Rask,  A. Rettig,  R. M. Richard,  
 F. Rob,  E. Rossomme,  T. Scheele,  M. Scheurer,  M. Schneider,  
 N. Sergueev,  S. M. Sharada,  W. Skomorowski,  D. W. Small,  C. J. Stein,  
 Yu-Chuan Su,  E. J. Sundstrom,  Zhen Tao,  J. Thirman,  T. Tsuchimochi,  
 N. M. Tubman,  S. P. Veccham,  O. Vydrov,  J. Wenzel,  J. Witte,  A. Yamada,  
 Kun Yao,  S. Yeganeh,  S. R. Yost,  A. Zech,  Igor Ying Zhang,  Xing Zhang,  
 Yu Zhang,  D. Zuev,  A. Aspuru-Guzik,  A. T. Bell,  N. A. Besley,  
 K. B. Bravaya,  B. R. Brooks,  D. Casanova,  Jeng-Da Chai,  S. Coriani,  
 C. J. Cramer,  A. E. DePrince, III,  R. A. DiStasio Jr.,  A. Dreuw,  
 B. D. Dunietz,  T. R. Furlani,  W. A. Goddard III,  S. Grimme,  
 S. Hammes-Schiffer,  T. Head-Gordon,  W. J. Hehre,  Chao-Ping Hsu,  
 T.-C. Jagau,  Yousung Jung,  A. Klamt,  Jing Kong,  D. S. Lambrecht,  
 WanZhen Liang,  N. J. Mayhall,  C. W. McCurdy,  J. B. Neaton,  
 C. Ochsenfeld,  J. A. Parkhill,  R. Peverati,  V. A. Rassolov,  Yihan Shao,  
 L. V. Slipchenko,  T. Stauch,  R. P. Steele,  J. E. Subotnik,  
 A. J. W. Thom,  A. Tkatchenko,  D. G. Truhlar,  T. Van Voorhis,  
 T. A. Wesolowski,  K. B. Whaley,  H. L. Woodcock III,  P. M. Zimmerman,  
 S. Faraji,  P. M. W. Gill,  M. Head-Gordon,  J. M. Herbert,  A. I. Krylov

 Additional authors for Version 5.4.1: 
 S. Kotaru,  Shaozhi Li,  Xiangyuan Li,  F. Matz,  A. Molle,  Haisheng Ren,  
 Yingli Su,  Hung-Yi Tsai,  C. Utku,  Fang Wang

 Contributors to earlier versions of Q-Chem not listed above: 
 R. D. Adamson,  B. Austin,  R. Baer,  J. Baker,  G. J. O. Beran,  
 K. Brandhorst,  S. T. Brown,  E. F. C. Byrd,  A. K. Chakraborty,  
 G. K. L. Chan,  Chun-Min Chang,  Yunqing Chen,  C.-L. Cheng,  
 Siu Hung Chien,  D. M. Chipman,  D. L. Crittenden,  H. Dachsel,  
 R. J. Doerksen,  A. D. Dutoi,  R. G. Edgar,  J. Fosso-Tande,  
 L. Fusti-Molnar,  D. Ghosh,  A. Ghysels,  A. Golubeva-Zadorozhnaya,  
 J. Gonthier,  M. S. Gordon,  S. R. Gwaltney,  G. Hawkins,  J. E. Herr,  
 A. Heyden,  S. Hirata,  E. G. Hohenstein,  G. Kedziora,  F. J. Keil,  
 C. Kelley,  Jihan Kim,  R. A. King,  R. Z. Khaliullin,  P. P. Korambath,  
 W. Kurlancheek,  A. Laurent,  A. M. Lee,  M. S. Lee,  S. V. Levchenko,  
 Ching Yeh Lin,  D. Liotard,  E. Livshits,  R. C. Lochan,  I. Lotan,  
 L. A. Martinez-Martinez,  P. E. Maslen,  N. Nair,  D. P. O'Neill,  
 D. Neuhauser,  E. Neuscamman,  C. M. Oana,  R. Olivares-Amaya,  R. Olson,  
 T. M. Perrine,  B. Peters,  P. A. Pieniazek,  A. Prociuk,  Y. M. Rhee,  
 J. Ritchie,  M. A. Rohrdanz,  E. Rosta,  N. J. Russ,  H. F. Schaefer III,  
 M. W. Schmidt,  N. E. Schultz,  S. Sharma,  N. Shenvi,  C. D. Sherrill,  
 A. C. Simmonett,  A. Sodt,  T. Stein,  D. Stuck,  K. S. Thanthiriwatte,  
 V. Vanovschi,  L. Vogt,  Tao Wang,  A. Warshel,  M. A. Watson,  
 C. F. Williams,  Q. Wu,  X. Xu,  Jun Yang,  W. Zhang,  Yan Zhao

 Please cite Q-Chem as follows:
 Y. Shao et al., Mol. Phys. 113, 184-215 (2015)
 DOI: 10.1080/00268976.2014.952696

 Q-Chem 5.4.1 for Intel X86 EM64T Linux

 Parts of Q-Chem use Armadillo 9.800.1 (Horizon Scraper).
 http://arma.sourceforge.net/

 Q-Chem begins on Thu Dec 29 14:44:29 2022  

 Host: 
0

     Scratch files written to /scratch/ari.fischer/qChem1385480.hpc-mn1/qchem58192//
 Aug1521 |scratch|qcdevops|jenkins|workspace|build_RNUM 8249   
 Processing $rem in /usr/local/qchem-5.4.1/config/preferences:
 Processing $rem in /home/ari.fischer/.qchemrc:
 Symmetry turned off for PCM/SM12/SMD calculation

 Checking the input file for inconsistencies... 	...done.

--------------------------------------------------------------
User input:
--------------------------------------------------------------
$molecule
0 2
O        -1.7014812471    1.7821469863    0.6681267320
H        -0.9867546242    2.4008541552    0.4228582893
$end

$rem
BASIS = 6-311++G(2df,2p)
GUI = 2
JOB_TYPE = Optimization
METHOD = wB97M-V
SCF_ALGORITHM = DIIS_GDM
MAX_SCF_CYCLES = 400
GEOM_OPT_MAX_CYCLES = 150
SCF_CONVERGENCE = 7
THRESH = 12
UNRESTRICTED = 1
Solvent_method = SMD
$end
--------------------------------------------------------------
 ----------------------------------------------------------------
             Standard Nuclear Orientation (Angstroms)
    I     Atom           X                Y                Z
 ----------------------------------------------------------------
    1      O      -1.7014812471     1.7821469863     0.6681267320
    2      H      -0.9867546242     2.4008541552     0.4228582893
 ----------------------------------------------------------------
 Nuclear Repulsion Energy =           4.33475837 hartrees
 There are        5 alpha and        4 beta electrons
 Requested basis set is 6-311++G(2df,2p)
 There are 14 shells and 44 basis functions

 Total QAlloc Memory Limit 288000 MB
 Mega-Array Size       188 MB
 MEM_STATIC part       192 MB
 
 Citation of the SMD model:
 Marenich, A.V.; Cramer, C.J.; Truhlar, D.G.
 J. Phys. Chem. B 2009, 113, 6378-6396.
 iSolventCode=           1
 Solvent: water                                                           
 
 vradii
            1           2
    1   1.5200000   1.2000000
 Changing PCM_VDW_RADII to SMD_RADIUS
 Discretize the solute cavity surface with Lebedev spheres
	Using 110 Lebedev grid points for each H atom
	Using 194 Lebedev grid points for other atoms
	Atomic van der Waals radii will be scaled by 1.20
 Remove points where switching function is < 1.0e-08
 Keep 245 surface tesserae and discard 59 interior tesserae
 Molecular Surface Area = 32.786 Angst**2
 A cutoff of  1.0D-12 yielded    105 shell pairs
 There are      1061 function pairs (      1330 Cartesian)
 Smallest overlap matrix eigenvalue = 4.33E-03

 Scale SEOQF with 1.000000e-01/1.000000e-01/1.000000e-01

 Standard Electronic Orientation quadrupole field applied
 Nucleus-field energy     =     0.0000000027 hartrees
 Guess from superposition of atomic densities
 Warning:  Energy on first SCF cycle will be non-variational
 SAD guess density has 9.000000 electrons

 -----------------------------------------------------------------------
  General SCF calculation program by
  Eric Jon Sundstrom, Paul Horn, Yuezhi Mao, Dmitri Zuev, Alec White,
  David Stuck, Shaama M.S., Shane Yost, Joonho Lee, David Small,
  Daniel Levine, Susi Lehtola, Hugh Burton, Evgeny Epifanovsky,
  Bang C. Huynh
 -----------------------------------------------------------------------
 Exchange:     0.1500 Hartree-Fock + 1.0000 wB97M-V + LR-HF
 Correlation:  1.0000 wB97M-V
 Using SG-2 standard quadrature grid
 Nonlocal Correlation:  VV10 with C = 0.0100 and b = 6.00 and scale = 1.00000
 Grid used for NLC:  SG-1 standard quadrature
 
 Citation of the SMD model:
 Marenich, A.V.; Cramer, C.J.; Truhlar, D.G.
 J. Phys. Chem. B 2009, 113, 6378-6396.
 iSolventCode=           1
 Solvent: water                                                           
 
 vradii
            1           2
    1   1.5200000   1.2000000
 using 8 threads for integral computing
 -------------------------------------------------------
 OpenMP Integral computing Module                
 Release: version 1.0, May 2013, Q-Chem Inc. Pittsburgh 
 -------------------------------------------------------
 -------------------------------------------------------
 OpenMP BLAS3 based DFT computing Module                
 Release: version 1.0, May 2013, Q-Chem Inc. Pittsburgh 
 -------------------------------------------------------
 A unrestricted SCF calculation will be
 performed using DIIS, GDM
 SCF converges when RMS gradient is below 1.0e-07
 ---------------------------------------
  Cycle       Energy         DIIS error
 ---------------------------------------
    1     -75.5114339016      2.19e-02  
    2     -75.7346593820      3.40e-03  Done DIIS. Switching to GDM
 ---------------------------------------
  Cycle       Energy        RMS Gradient
 ---------------------------------------
    1     -75.7346593820      4.81e-02   Normal BFGS step
    2     -75.7424910331      2.94e-02   Normal BFGS step
    3     -75.7447986074      6.09e-03   Normal BFGS step
    4     -75.7449356112      1.65e-03   Normal BFGS step
    5     -75.7449473233      3.94e-04   Normal BFGS step
    6     -75.7449482942      1.04e-04   Normal BFGS step
    7     -75.7449483436      3.48e-05   Normal BFGS step
    8     -75.7449483493      9.55e-06   Normal BFGS step
    9     -75.7449483496      9.55e-06   Normal BFGS step
   10     -75.7449483498      9.55e-06   Normal BFGS step
   11     -75.7449483501      9.54e-06   Normal BFGS step
   12     -75.7449483511      1.06e-05   Normal BFGS step
   13     -75.7449483532      1.99e-05   Normal BFGS step
   14     -75.7449483580      4.04e-05   Normal BFGS step
   15     -75.7449483685      7.28e-05   Normal BFGS step
   16     -75.7449483905      1.18e-04   Normal BFGS step
   17     -75.7449484342      1.68e-04   Normal BFGS step
   18     -75.7449485154      2.06e-04   Normal BFGS step
   19     -75.7449486480      2.02e-04   Normal BFGS step
   20     -75.7449487786      1.74e-04   Normal BFGS step
   21     -75.7449488998      5.59e-05   Normal BFGS step
   22     -75.7449489334      5.97e-05   Normal BFGS step
   23     -75.7449489461      1.86e-05   Normal BFGS step
   24     -75.7449489484      1.01e-05   Normal BFGS step
   25     -75.7449489490      6.05e-06   Normal BFGS step
   26     -75.7449489493      2.54e-06   Normal BFGS step
   27     -75.7449489494      8.98e-07   Normal BFGS step
   28     -75.7449489494      4.34e-07   Normal BFGS step
   29     -75.7449489494      4.55e-08  Convergence criterion met
 ---------------------------------------
 SCF time:   CPU 62.09s  wall 8.00s 
<S^2> =          0.752768069
(3)  G-ENP(liq) elect-nuc-pol free energy of system      -75.744948949 a.u.
(4)  G-CDS(liq) cavity-dispersion-solvent structure 
     free energy                                                0.7399 kcal/mol
(6)  G-S(liq) free energy of system                      -75.743769812 a.u.
 SCF   energy in the final basis set =      -75.7437698117
 Total energy in the final basis set =      -75.7437698117
 
 --------------------------------------------------------------
 
                    Orbital Energies (a.u.)
 --------------------------------------------------------------
 
 Alpha MOs
 -- Occupied --
-19.4037  -1.1424  -0.5910  -0.5208  -0.4653
 -- Virtual --
  0.0348   0.1859   0.1956   0.1998   0.2196   0.2708   0.5886   0.7863
  0.7928   0.9411   1.0538   1.0791   1.3530   1.4298   1.5294   1.5308
  1.8286   1.8611   2.2530   2.6678   3.6731   3.6849   4.1546   4.9690
  5.0344   5.0539   5.0595   5.0762   5.0830   5.2737   5.5539   5.5978
  6.7219   6.7236   6.8940   6.9553   7.1119   7.4448  50.3177
 
 Beta MOs
 -- Occupied --
-19.3791  -1.0709  -0.5611  -0.4329
 -- Virtual --
 -0.0715   0.0361   0.1893   0.2055   0.2140   0.2266   0.2699   0.5971
  0.7942   0.7989   0.9479   1.0919   1.1135   1.3767   1.4579   1.5848
  1.5906   1.8756   1.8792   2.2652   2.6896   3.6949   3.6969   4.1675
  5.0809   5.1078   5.1181   5.1234   5.1560   5.1620   5.3167   5.6185
  5.6241   6.8403   6.8554   6.9917   7.0140   7.1587   7.5100  50.3347
 --------------------------------------------------------------
 
          Ground-State Mulliken Net Atomic Charges

     Atom                 Charge (a.u.)    Spin (a.u.)
  --------------------------------------------------------
      1 O                    -0.340523       1.013932
      2 H                     0.340523      -0.013932
  --------------------------------------------------------
  Sum of atomic charges =    -0.000000
  Sum of spin   charges =     1.000000

 -----------------------------------------------------------------
                    Cartesian Multipole Moments
 -----------------------------------------------------------------
    Charge (ESU x 10^10)
                -0.0000
    Dipole Moment (Debye)
         X       1.5701      Y       1.3592      Z      -0.5388
       Tot       2.1455
    Quadrupole Moments (Debye-Ang)
        XX     -10.7551     XY       1.8763     YY      -1.0041
        XZ       1.7313     YZ      -0.3414     ZZ      -6.2595
    Octopole Moments (Debye-Ang^2)
       XXX      41.4132    XXY     -19.4154    XYY      12.0672
       YYY     -18.3804    XXZ      -8.1521    XYZ       2.7110
       YYZ      -3.5487    XZZ      10.9221    YZZ     -11.0344
       ZZZ     -11.6393
    Hexadecapole Moments (Debye-Ang^3)
      XXXX    -132.2142   XXXY      76.9264   XXYY     -55.1566
      XYYY      56.0109   YYYY     -87.6871   XXXZ      29.4009
      XXYZ     -14.8283   XYYZ      11.2390   YYYZ     -18.7732
      XXZZ     -23.5569   XYZZ      19.5921   YYZZ     -24.0859
      XZZZ      20.0072   YZZZ     -20.7566   ZZZZ     -19.4736
 -----------------------------------------------------------------
 Calculating analytic gradient of the SCF energy
 Gradient of CDS energy
            1           2
    1  -0.0003294   0.0003294
    2  -0.0002852   0.0002852
    3   0.0001130  -0.0001130
 Gradient of SCF Energy
            1           2
    1  -0.0140275   0.0140275
    2  -0.0121321   0.0121321
    3   0.0048307  -0.0048307
 Max gradient component =       1.403E-02
 RMS gradient           =       1.106E-02
 Computing fast CPCM-SWIG gradient
 Updating gradient with PCM contributions...
 -- total gradient after adding PCM contribution --
---------------------------------------------------
  Atom         X              Y              Z     
---------------------------------------------------
   1      -0.001720      -0.001526       0.000634
   2       0.001720       0.001526      -0.000634
---------------------------------------------------
 Number of fixed atoms: 0
 Gradient time:  CPU 5.67 s  wall 1.37 s
 Geometry Optimization Parameters
   NAtoms,    NIC,     NZ,  NCons,   NDum,   NFix, NCnnct, MaxDiis
        2       5       0       0       0       0       0       0


** GEOMETRY OPTIMIZATION IN DELOCALIZED INTERNAL COORDINATES **
   Searching for a Minimum

   Optimization Cycle:   1

                       Coordinates (Angstroms)
     ATOM                X               Y               Z
      1  O        -1.7014812471    1.7821469863    0.6681267320
      2  H        -0.9867546242    2.4008541552    0.4228582893
   Point Group: c1    Number of degrees of freedom:     1


   Energy is    -75.743769812


 Attempting to generate delocalized internal coordinates

  ***ERROR*** Wrong Number of Internal Coordinates
              Should be:   0  Found:   1
**WARNING** Problems with Internal Coordinates
  Switching to Cartesian Coordinates

 Translations and Rotations Projected Out of Hessian

  1 Hessian modes will be used to form the next step
  Hessian Eigenvalues:
     1.000000

 Minimum search - taking simple RFO step
 Searching for Lamda that Minimizes Along All modes
 Value Taken    Lamda =  -0.00001138
 Step Taken.  Stepsize is  0.003373

                             Maximum     Tolerance    Cnvgd?
         Gradient           0.001720      0.000300      NO
         Displacement       0.001746      0.001200      NO
         Energy change     *********      0.000001      NO

 ----------------------------------------------------------------
             Standard Nuclear Orientation (Angstroms)
    I     Atom           X                Y                Z
 ----------------------------------------------------------------
    1      O      -1.7005575682     1.7829465742     0.6678097587
    2      H      -0.9876783031     2.4000545673     0.4231752626
 ----------------------------------------------------------------
 Nuclear Repulsion Energy =           4.34599147 hartrees
 There are        5 alpha and        4 beta electrons
 Discretize the solute cavity surface with Lebedev spheres
	Using 110 Lebedev grid points for each H atom
	Using 194 Lebedev grid points for other atoms
	Atomic van der Waals radii will be scaled by 1.20
 Remove points where switching function is < 1.0e-08
 Keep 245 surface tesserae and discard 59 interior tesserae
 Molecular Surface Area = 32.768 Angst**2
 Applying Cartesian multipole field
    Component          Value
    ---------          -----
     (2,0,0)        1.00000E-11
     (0,2,0)        2.00000E-11
     (0,0,2)       -3.00000E-11
 Nucleus-field energy     =     0.0000000027 hartrees
 Requested basis set is 6-311++G(2df,2p)
 There are 14 shells and 44 basis functions
 A cutoff of  1.0D-12 yielded    105 shell pairs
 There are      1061 function pairs (      1330 Cartesian)
 Smallest overlap matrix eigenvalue = 4.27E-03
 Guess MOs from SCF MO coefficient file

 -----------------------------------------------------------------------
  General SCF calculation program by
  Eric Jon Sundstrom, Paul Horn, Yuezhi Mao, Dmitri Zuev, Alec White,
  David Stuck, Shaama M.S., Shane Yost, Joonho Lee, David Small,
  Daniel Levine, Susi Lehtola, Hugh Burton, Evgeny Epifanovsky,
  Bang C. Huynh
 -----------------------------------------------------------------------
 Exchange:     0.1500 Hartree-Fock + 1.0000 wB97M-V + LR-HF
 Correlation:  1.0000 wB97M-V
 Using SG-2 standard quadrature grid
 Nonlocal Correlation:  VV10 with C = 0.0100 and b = 6.00 and scale = 1.00000
 Grid used for NLC:  SG-1 standard quadrature
 
 Citation of the SMD model:
 Marenich, A.V.; Cramer, C.J.; Truhlar, D.G.
 J. Phys. Chem. B 2009, 113, 6378-6396.
 iSolventCode=           1
 Solvent: water                                                           
 
 vradii
            1           2
    1   1.5200000   1.2000000
 -------------------------------------------------------
 OpenMP BLAS3 based DFT computing Module                
 Release: version 1.0, May 2013, Q-Chem Inc. Pittsburgh 
 -------------------------------------------------------
 A unrestricted SCF calculation will be
 performed using Roothaan-Hall, DIIS, GDM
 SCF converges when RMS gradient is below 1.0e-07
 ---------------------------------------
  Cycle       Energy         DIIS error
 ---------------------------------------
    1     -75.7333703835      1.02e-03  Roothaan Step
 ---------------------------------------
  Cycle       Energy         DIIS error
 ---------------------------------------
    1     -75.7433091191      1.04e-03  
    2     -75.7446820516      5.99e-04  Done DIIS. Switching to GDM
 ---------------------------------------
  Cycle       Energy        RMS Gradient
 ---------------------------------------
    1     -75.7446820516      9.02e-03   Normal BFGS step
    2     -75.7448149292      6.02e-03   Normal BFGS step
    3     -75.7449499859      9.40e-04   Normal BFGS step
    4     -75.7449523900      2.36e-04   Normal BFGS step
    5     -75.7449525702      1.97e-05   Normal BFGS step
    6     -75.7449525721      6.63e-06   Normal BFGS step
    7     -75.7449525722      1.27e-06   Normal BFGS step
    8     -75.7449525722      5.51e-07   Normal BFGS step
    9     -75.7449525722      8.43e-08  Convergence criterion met
 ---------------------------------------
 SCF time:   CPU 23.81s  wall 3.00s 
<S^2> =          0.752758664
(3)  G-ENP(liq) elect-nuc-pol free energy of system      -75.744952572 a.u.
(4)  G-CDS(liq) cavity-dispersion-solvent structure 
     free energy                                                0.7386 kcal/mol
(6)  G-S(liq) free energy of system                      -75.743775585 a.u.
 SCF   energy in the final basis set =      -75.7437755847
 Total energy in the final basis set =      -75.7437755847
 
 --------------------------------------------------------------
 
                    Orbital Energies (a.u.)
 --------------------------------------------------------------
 
 Alpha MOs
 -- Occupied --
-19.4036  -1.1430  -0.5915  -0.5209  -0.4654
 -- Virtual --
  0.0348   0.1858   0.1956   0.1998   0.2203   0.2707   0.5901   0.7869
  0.7934   0.9400   1.0537   1.0790   1.3529   1.4320   1.5293   1.5307
  1.8299   1.8624   2.2514   2.6706   3.6732   3.6851   4.1603   4.9690
  5.0344   5.0537   5.0592   5.0761   5.0830   5.2761   5.5594   5.6033
  6.7218   6.7235   6.8948   6.9562   7.1248   7.4438  50.3197
 
 Beta MOs
 -- Occupied --
-19.3790  -1.0716  -0.5615  -0.4330
 -- Virtual --
 -0.0716   0.0361   0.1892   0.2055   0.2140   0.2272   0.2698   0.5987
  0.7948   0.7994   0.9468   1.0918   1.1134   1.3769   1.4597   1.5847
  1.5905   1.8769   1.8804   2.2637   2.6924   3.6952   3.6972   4.1733
  5.0810   5.1078   5.1178   5.1232   5.1559   5.1619   5.3191   5.6240
  5.6296   6.8403   6.8554   6.9925   7.0148   7.1717   7.5092  50.3368
 --------------------------------------------------------------
 
          Ground-State Mulliken Net Atomic Charges

     Atom                 Charge (a.u.)    Spin (a.u.)
  --------------------------------------------------------
      1 O                    -0.339749       1.013699
      2 H                     0.339749      -0.013699
  --------------------------------------------------------
  Sum of atomic charges =     0.000000
  Sum of spin   charges =     1.000000

 -----------------------------------------------------------------
                    Cartesian Multipole Moments
 -----------------------------------------------------------------
    Charge (ESU x 10^10)
                 0.0000
    Dipole Moment (Debye)
         X       1.5676      Y       1.3570      Z      -0.5379
       Tot       2.1420
    Quadrupole Moments (Debye-Ang)
        XX     -10.7466     XY       1.8729     YY      -1.0112
        XZ       1.7291     YZ      -0.3404     ZZ      -6.2561
    Octopole Moments (Debye-Ang^2)
       XXX      41.3762    XXY     -19.4034    XYY      12.0554
       YYY     -18.4104    XXZ      -8.1443    XYZ       2.7075
       YYZ      -3.5451    XZZ      10.9128    YZZ     -11.0311
       ZZZ     -11.6303
    Hexadecapole Moments (Debye-Ang^3)
      XXXX    -132.0524   XXXY      76.8782   XXYY     -55.1170
      XYYY      55.9889   YYYY     -87.8074   XXXZ      29.3652
      XXYZ     -14.8172   XYYZ      11.2250   YYYZ     -18.7671
      XXZZ     -23.5291   XYZZ      19.5815   YYZZ     -24.0793
      XZZZ      19.9839   YZZZ     -20.7472   ZZZZ     -19.4534
 -----------------------------------------------------------------
 Calculating analytic gradient of the SCF energy
 Gradient of CDS energy
            1           2
    1  -0.0003303   0.0003303
    2  -0.0002860   0.0002860
    3   0.0001134  -0.0001134
 Gradient of SCF Energy
            1           2
    1  -0.0122919   0.0122919
    2  -0.0106293   0.0106293
    3   0.0042349  -0.0042349
 Max gradient component =       1.229E-02
 RMS gradient           =       9.695E-03
 Computing fast CPCM-SWIG gradient
 Updating gradient with PCM contributions...
 -- total gradient after adding PCM contribution --
---------------------------------------------------
  Atom         X              Y              Z     
---------------------------------------------------
   1       0.000004      -0.000033       0.000041
   2      -0.000004       0.000033      -0.000041
---------------------------------------------------
 Number of fixed atoms: 0
 Gradient time:  CPU 5.08 s  wall 0.65 s
 Geometry Optimization Parameters
   NAtoms,    NIC,     NZ,  NCons,   NDum,   NFix, NCnnct, MaxDiis
        2       5       0       0       0       0       0       0

 Cartesian Hessian Update
 Hessian updated using BFGS update


** GEOMETRY OPTIMIZATION IN CARTESIAN COORDINATES **
   Searching for a Minimum

   Optimization Cycle:   2

                       Coordinates (Angstroms)
     ATOM                X               Y               Z
      1  O        -1.7005575682    1.7829465742    0.6678097587
      2  H        -0.9876783031    2.4000545673    0.4231752626
   Point Group: c1    Number of degrees of freedom:     1


   Energy is    -75.743775585


 Translations and Rotations Projected Out of Hessian

  1 Hessian modes will be used to form the next step
  Hessian Eigenvalues:
     0.988058

 Minimum search - taking simple RFO step
 Searching for Lamda that Minimizes Along All modes
 Value Taken    Lamda =  -0.00000000
 Step Taken.  Stepsize is  0.000041

                             Maximum     Tolerance    Cnvgd?
         Gradient           0.000041      0.000300     YES
         Displacement       0.000021      0.001200     YES
         Energy change     -0.000006      0.000001      NO


                       Distance Matrix (Angstroms)
             O (  1)
   H (  2)  0.974097
 
 Final energy is   -75.7437755847500     


 ******************************
 **  OPTIMIZATION CONVERGED  **
 ******************************

                       Coordinates (Angstroms)
     ATOM                X               Y               Z
      1  O        -1.7005575682    1.7829465742    0.6678097587
      2  H        -0.9876783031    2.4000545673    0.4231752626

Z-matrix Print:
$molecule
0 2
O 
H  1 0.974097
$end

 
 --------------------------------------------------------------
 
                    Orbital Energies (a.u.)
 --------------------------------------------------------------
 
 Alpha MOs
 -- Occupied --
-19.4036  -1.1430  -0.5915  -0.5209  -0.4654
 -- Virtual --
  0.0348   0.1858   0.1956   0.1998   0.2203   0.2707   0.5901   0.7869
  0.7934   0.9400   1.0537   1.0790   1.3529   1.4320   1.5293   1.5307
  1.8299   1.8624   2.2514   2.6706   3.6732   3.6851   4.1603   4.9690
  5.0344   5.0537   5.0592   5.0761   5.0830   5.2761   5.5594   5.6033
  6.7218   6.7235   6.8948   6.9562   7.1248   7.4438  50.3197
 
 Beta MOs
 -- Occupied --
-19.3790  -1.0716  -0.5615  -0.4330
 -- Virtual --
 -0.0716   0.0361   0.1892   0.2055   0.2140   0.2272   0.2698   0.5987
  0.7948   0.7994   0.9468   1.0918   1.1134   1.3769   1.4597   1.5847
  1.5905   1.8769   1.8804   2.2637   2.6924   3.6952   3.6972   4.1733
  5.0810   5.1078   5.1178   5.1232   5.1559   5.1619   5.3191   5.6240
  5.6296   6.8403   6.8554   6.9925   7.0148   7.1717   7.5092  50.3368
 --------------------------------------------------------------
 
          Ground-State Mulliken Net Atomic Charges

     Atom                 Charge (a.u.)    Spin (a.u.)
  --------------------------------------------------------
      1 O                    -0.339749       1.013699
      2 H                     0.339749      -0.013699
  --------------------------------------------------------
  Sum of atomic charges =     0.000000
  Sum of spin   charges =     1.000000

 -----------------------------------------------------------------
                    Cartesian Multipole Moments
 -----------------------------------------------------------------
    Charge (ESU x 10^10)
                 0.0000
    Dipole Moment (Debye)
         X       1.5676      Y       1.3570      Z      -0.5379
       Tot       2.1420
    Quadrupole Moments (Debye-Ang)
        XX     -10.7466     XY       1.8729     YY      -1.0112
        XZ       1.7291     YZ      -0.3404     ZZ      -6.2561
    Octopole Moments (Debye-Ang^2)
       XXX      41.3762    XXY     -19.4034    XYY      12.0554
       YYY     -18.4104    XXZ      -8.1443    XYZ       2.7075
       YYZ      -3.5451    XZZ      10.9128    YZZ     -11.0311
       ZZZ     -11.6303
    Hexadecapole Moments (Debye-Ang^3)
      XXXX    -132.0524   XXXY      76.8782   XXYY     -55.1170
      XYYY      55.9889   YYYY     -87.8074   XXXZ      29.3652
      XXYZ     -14.8172   XYYZ      11.2250   YYYZ     -18.7671
      XXZZ     -23.5291   XYZZ      19.5815   YYZZ     -24.0793
      XZZZ      19.9839   YZZZ     -20.7472   ZZZZ     -19.4534
 -----------------------------------------------------------------
 Total job time:  14.50s(wall), 102.36s(cpu) 
 Thu Dec 29 14:44:43 2022

        *************************************************************
        *                                                           *
        *  Thank you very much for using Q-Chem.  Have a nice day.  *
        *                                                           *
        *************************************************************


