
Running Job 1 of 1 Q_in.in
qchem Q_in.in_21039.0 /scratch/ari.fischer/qChem1630572.hpc-mn1/qchem21039/ 0
/usr/local/qchem-5.4.1/exe/qcprog.exe_s Q_in.in_21039.0 /scratch/ari.fischer/qChem1630572.hpc-mn1/qchem21039/
                  Welcome to Q-Chem
     A Quantum Leap Into The Future Of Chemistry


 Q-Chem 5.4, Q-Chem, Inc., Pleasanton, CA (2021)

 License issued to: Nanyang Technological University (site)

 E. Epifanovsky,  A. T. B. Gilbert,  Xintian Feng,  Joonho Lee,  Yuezhi Mao,  
 N. Mardirossian,  P. Pokhilko,  A. White,  M. Wormit,  M. P. Coons,  
 A. L. Dempwolff,  Zhengting Gan,  D. Hait,  P. R. Horn,  L. D. Jacobson,  
 I. Kaliman,  J. Kussmann,  A. W. Lange,  Ka Un Lao,  D. S. Levine,  Jie Liu,  
 S. C. McKenzie,  A. F. Morrison,  K. Nanda,  F. Plasser,  D. R. Rehn,  
 M. L. Vidal,  Zhi-Qiang You,  Ying Zhu,  B. Alam,  B. Albrecht,  
 A. Aldossary,  E. Alguire,  J. H. Andersen,  D. Barton,  K. Begam,  A. Behn,  
 Y. A. Bernard,  E. J. Berquist,  H. Burton,  A. Carreras,  K. Carter-Fenk,  
 R. Chakraborty,  A. D. Chien,  K. D. Closser,  V. Cofer-Shabica,  
 S. Dasgupta,  Jia Deng,  M. de Wergifosse,  M. Diedenhofen,  Hainam Do,  
 S. Ehlert,  Po-Tung Fang,  S. Fatehi,  Qingguo Feng,  T. Friedhoff,  
 J. Gayvert,  Qinghui Ge,  G. Gidofalvi,  M. Goldey,  J. Gomes,  
 C. Gonzalez-Espinoza,  S. Gulania,  A. Gunina,  M. W. D. Hanson-Heine,  
 P. H. P. Harbach,  A. W. Hauser,  M. F. Herbst,  M. Hernandez Vera,  
 M. Hodecker,  Z. C. Holden,  S. Houck,  Xunkun Huang,  Kerwin Hui,  
 B. C. Huynh,  M. Ivanov,  Hyunjun Ji,  Hanjie Jiang,  B. Kaduk,  S. Kaehler,  
 K. Khistyaev,  Jaehoon Kim,  P. Klunzinger,  Z. Koczor-Benda,  
 Joong Hoon Koh,  D. Kosenkov,  L. Koulias,  T. Kowalczyk,  C. M. Krauter,  
 K. Kue,  A. Kunitsa,  T. Kus,  A. Landau,  K. V. Lawler,  D. Lefrancois,  
 S. Lehtola,  Rain Li,  Yi-Pei Li,  Jiashu Liang,  M. Liebenthal,  
 Hung-Hsuan Lin,  You-Sheng Lin,  Fenglai Liu,  Kuan-Yu Liu,  
 M. Loipersberger,  A. Luenser,  A. Manjanath,  P. Manohar,  E. Mansoor,  
 S. F. Manzer,  Shan-Ping Mao,  A. V. Marenich,  T. Markovich,  S. Mason,  
 S. A. Maurer,  P. F. McLaughlin,  M. F. S. J. Menger,  J.-M. Mewes,  
 S. A. Mewes,  P. Morgante,  J. W. Mullinax,  K. J. Oosterbaan,  G. Paran,  
 Alexander C. Paul,  Suranjan K. Paul,  F. Pavosevic,  Zheng Pei,  S. Prager,  
 E. I. Proynov,  E. Ramos,  B. Rana,  A. E. Rask,  A. Rettig,  R. M. Richard,  
 F. Rob,  E. Rossomme,  T. Scheele,  M. Scheurer,  M. Schneider,  
 N. Sergueev,  S. M. Sharada,  W. Skomorowski,  D. W. Small,  C. J. Stein,  
 Yu-Chuan Su,  E. J. Sundstrom,  Zhen Tao,  J. Thirman,  T. Tsuchimochi,  
 N. M. Tubman,  S. P. Veccham,  O. Vydrov,  J. Wenzel,  J. Witte,  A. Yamada,  
 Kun Yao,  S. Yeganeh,  S. R. Yost,  A. Zech,  Igor Ying Zhang,  Xing Zhang,  
 Yu Zhang,  D. Zuev,  A. Aspuru-Guzik,  A. T. Bell,  N. A. Besley,  
 K. B. Bravaya,  B. R. Brooks,  D. Casanova,  Jeng-Da Chai,  S. Coriani,  
 C. J. Cramer,  A. E. DePrince, III,  R. A. DiStasio Jr.,  A. Dreuw,  
 B. D. Dunietz,  T. R. Furlani,  W. A. Goddard III,  S. Grimme,  
 S. Hammes-Schiffer,  T. Head-Gordon,  W. J. Hehre,  Chao-Ping Hsu,  
 T.-C. Jagau,  Yousung Jung,  A. Klamt,  Jing Kong,  D. S. Lambrecht,  
 WanZhen Liang,  N. J. Mayhall,  C. W. McCurdy,  J. B. Neaton,  
 C. Ochsenfeld,  J. A. Parkhill,  R. Peverati,  V. A. Rassolov,  Yihan Shao,  
 L. V. Slipchenko,  T. Stauch,  R. P. Steele,  J. E. Subotnik,  
 A. J. W. Thom,  A. Tkatchenko,  D. G. Truhlar,  T. Van Voorhis,  
 T. A. Wesolowski,  K. B. Whaley,  H. L. Woodcock III,  P. M. Zimmerman,  
 S. Faraji,  P. M. W. Gill,  M. Head-Gordon,  J. M. Herbert,  A. I. Krylov

 Additional authors for Version 5.4.1: 
 S. Kotaru,  Shaozhi Li,  Xiangyuan Li,  F. Matz,  A. Molle,  Haisheng Ren,  
 Yingli Su,  Hung-Yi Tsai,  C. Utku,  Fang Wang

 Contributors to earlier versions of Q-Chem not listed above: 
 R. D. Adamson,  B. Austin,  R. Baer,  J. Baker,  G. J. O. Beran,  
 K. Brandhorst,  S. T. Brown,  E. F. C. Byrd,  A. K. Chakraborty,  
 G. K. L. Chan,  Chun-Min Chang,  Yunqing Chen,  C.-L. Cheng,  
 Siu Hung Chien,  D. M. Chipman,  D. L. Crittenden,  H. Dachsel,  
 R. J. Doerksen,  A. D. Dutoi,  R. G. Edgar,  J. Fosso-Tande,  
 L. Fusti-Molnar,  D. Ghosh,  A. Ghysels,  A. Golubeva-Zadorozhnaya,  
 J. Gonthier,  M. S. Gordon,  S. R. Gwaltney,  G. Hawkins,  J. E. Herr,  
 A. Heyden,  S. Hirata,  E. G. Hohenstein,  G. Kedziora,  F. J. Keil,  
 C. Kelley,  Jihan Kim,  R. A. King,  R. Z. Khaliullin,  P. P. Korambath,  
 W. Kurlancheek,  A. Laurent,  A. M. Lee,  M. S. Lee,  S. V. Levchenko,  
 Ching Yeh Lin,  D. Liotard,  E. Livshits,  R. C. Lochan,  I. Lotan,  
 L. A. Martinez-Martinez,  P. E. Maslen,  N. Nair,  D. P. O'Neill,  
 D. Neuhauser,  E. Neuscamman,  C. M. Oana,  R. Olivares-Amaya,  R. Olson,  
 T. M. Perrine,  B. Peters,  P. A. Pieniazek,  A. Prociuk,  Y. M. Rhee,  
 J. Ritchie,  M. A. Rohrdanz,  E. Rosta,  N. J. Russ,  H. F. Schaefer III,  
 M. W. Schmidt,  N. E. Schultz,  S. Sharma,  N. Shenvi,  C. D. Sherrill,  
 A. C. Simmonett,  A. Sodt,  T. Stein,  D. Stuck,  K. S. Thanthiriwatte,  
 V. Vanovschi,  L. Vogt,  Tao Wang,  A. Warshel,  M. A. Watson,  
 C. F. Williams,  Q. Wu,  X. Xu,  Jun Yang,  W. Zhang,  Yan Zhao

 Please cite Q-Chem as follows:
 Y. Shao et al., Mol. Phys. 113, 184-215 (2015)
 DOI: 10.1080/00268976.2014.952696

 Q-Chem 5.4.1 for Intel X86 EM64T Linux

 Parts of Q-Chem use Armadillo 9.800.1 (Horizon Scraper).
 http://arma.sourceforge.net/

 Q-Chem begins on Tue Jul 18 16:34:17 2023  

 Host: 
0

     Scratch files written to /scratch/ari.fischer/qChem1630572.hpc-mn1/qchem21039//
 Aug1521 |scratch|qcdevops|jenkins|workspace|build_RNUM 8249   
 Processing $rem in /usr/local/qchem-5.4.1/config/preferences:
 Processing $rem in /home/ari.fischer/.qchemrc:
 Symmetry turned off for PCM/SM12/SMD calculation


!!********************************************.
!!******************Warning*******************.
!!Desired Analytical derivatives not available.
!!Finite difference job might take a long time.
!!********************************************.
!!********************************************.


 2-order derivative to be evaluated numerically with 1-order analytical derivatives

 Checking the input file for inconsistencies... 	...done.

--------------------------------------------------------------
User input:
--------------------------------------------------------------
$molecule
0 2
C         1.2493107492   -0.2580111835   -0.4827676067
O         1.9927263652   -1.0207482297   -1.3997807103
C        -0.2039918526   -0.1362529214   -0.9850292355
O        -0.8203761918   -1.3466401861   -1.1420558953
O        -0.3701545085    0.5308123875   -2.1673602266
O         1.8554532490    0.9904942472   -0.3409456695
H         1.2313554315   -0.7229438323    0.5045136637
H         1.7537334588   -1.9508348883   -1.3055062591
H        -0.6279629345   -1.9130827278   -0.3823516654
H        -0.0435766098    1.4370472864   -2.0862653481
H         2.0512743827    1.3479332522   -1.2177311999
O        -0.8696052731    0.6266991803    0.1145034208
O        -2.1349861661    0.8026474159   -0.1281945683
$end

$rem
BASIS = 6-311++G(2df,2p)
GUI = 2
JOB_TYPE = Frequency
METHOD = wB97M-V
SOLVENT_METHOD = SMD
SCF_ALGORITHM = DIIS_GDM
MAX_SCF_CYCLES = 400
SCF_CONVERGENCE = 7
THRESH = 12
UNRESTRICTED = 1
SYMMETRY_IGNORE = 1
$end
--------------------------------------------------------------
 ----------------------------------------------------------------
             Standard Nuclear Orientation (Angstroms)
    I     Atom           X                Y                Z
 ----------------------------------------------------------------
    1      C       1.2493107492    -0.2580111835    -0.4827676067
    2      O       1.9927263652    -1.0207482297    -1.3997807103
    3      C      -0.2039918526    -0.1362529214    -0.9850292355
    4      O      -0.8203761918    -1.3466401861    -1.1420558953
    5      O      -0.3701545085     0.5308123875    -2.1673602266
    6      O       1.8554532490     0.9904942472    -0.3409456695
    7      H       1.2313554315    -0.7229438323     0.5045136637
    8      H       1.7537334588    -1.9508348883    -1.3055062591
    9      H      -0.6279629345    -1.9130827278    -0.3823516654
   10      H      -0.0435766098     1.4370472864    -2.0862653481
   11      H       2.0512743827     1.3479332522    -1.2177311999
   12      O      -0.8696052731     0.6266991803     0.1145034208
   13      O      -2.1349861661     0.8026474159    -0.1281945683
 ----------------------------------------------------------------
 Nuclear Repulsion Energy =         437.28240381 hartrees
 There are       33 alpha and       32 beta electrons
 Requested basis set is 6-311++G(2df,2p)
 There are 94 shells and 322 basis functions

 Total QAlloc Memory Limit 288000 MB
 Mega-Array Size       188 MB
 MEM_STATIC part       192 MB
 
 Citation of the SMD model:
 Marenich, A.V.; Cramer, C.J.; Truhlar, D.G.
 J. Phys. Chem. B 2009, 113, 6378-6396.
 iSolventCode=           1
 Solvent: water                                                           
 
 vradii
            1           2           3           4           5           6
    1   1.8500000   1.5200000   1.8500000   1.5200000   1.5200000   1.5200000
            7           8           9          10          11          12
    1   1.2000000   1.2000000   1.2000000   1.2000000   1.2000000   1.5200000
           13
    1   1.5200000
 Changing PCM_VDW_RADII to SMD_RADIUS
 Discretize the solute cavity surface with Lebedev spheres
	Using 110 Lebedev grid points for each H atom
	Using 194 Lebedev grid points for other atoms
	Atomic van der Waals radii will be scaled by 1.20
 Remove points where switching function is < 1.0e-08
 Keep 1117 surface tesserae and discard 985 interior tesserae
 Molecular Surface Area = 127.268 Angst**2

                       Distance Matrix (Angstroms)
             C (  1)   O (  2)   C (  3)   O (  4)   O (  5)   O (  6)
   O (  2)  1.405471
   C (  3)  1.542459  2.404147
   O (  4)  2.429687  2.843620  1.367342
   O (  5)  2.466326  2.929117  1.367660  2.186041
   O (  6)  1.395094  2.277075  2.434280  3.641983  2.915549
   H (  7)  1.091425  2.072368  2.150155  2.703663  3.357923  2.010017
   H (  8)  1.948588  0.964918  2.688513  2.649115  3.378204  3.097118
   H (  9)  2.504696  2.949480  1.923563  0.966970  3.037325  3.820972
   H ( 10)  2.667581  3.264743  1.927103  3.040373  0.966691  2.617607
   H ( 11)  1.939684  2.376388  2.709831  3.938633  2.726316  0.966882
   O ( 12)  2.372604  3.633192  1.494694  2.339964  2.337851  2.786705
   O ( 13)  3.564293  4.688253  2.311804  2.715797  2.710484  4.000519
             H (  7)   H (  8)   H (  9)   H ( 10)   H ( 11)   O ( 12)
   H (  8)  2.248726
   H (  9)  2.379081  2.554627
   H ( 10)  3.605988  3.913777  3.803709
   H ( 11)  2.815480  3.313323  4.302371  2.269514
   O ( 12)  2.527386  3.942336  2.599182  2.486437  3.290375
   O ( 13)  3.749667  4.908143  3.116233  2.934365  4.359955  1.300403

 
 A cutoff of  1.0D-12 yielded   4135 shell pairs
 There are     48817 function pairs (     61629 Cartesian)
 Smallest overlap matrix eigenvalue = 3.64E-05
 Guess from superposition of atomic densities
 Warning:  Energy on first SCF cycle will be non-variational
 SAD guess density has 65.000000 electrons

 -----------------------------------------------------------------------
  General SCF calculation program by
  Eric Jon Sundstrom, Paul Horn, Yuezhi Mao, Dmitri Zuev, Alec White,
  David Stuck, Shaama M.S., Shane Yost, Joonho Lee, David Small,
  Daniel Levine, Susi Lehtola, Hugh Burton, Evgeny Epifanovsky,
  Bang C. Huynh
 -----------------------------------------------------------------------
 Exchange:     0.1500 Hartree-Fock + 1.0000 wB97M-V + LR-HF
 Correlation:  1.0000 wB97M-V
 Using SG-2 standard quadrature grid
 Nonlocal Correlation:  VV10 with C = 0.0100 and b = 6.00 and scale = 1.00000
 Grid used for NLC:  SG-1 standard quadrature
 using 8 threads for integral computing
 -------------------------------------------------------
 OpenMP Integral computing Module                
 Release: version 1.0, May 2013, Q-Chem Inc. Pittsburgh 
 -------------------------------------------------------
 
 Citation of the SMD model:
 Marenich, A.V.; Cramer, C.J.; Truhlar, D.G.
 J. Phys. Chem. B 2009, 113, 6378-6396.
 iSolventCode=           1
 Solvent: water                                                           
 
 vradii
            1           2           3           4           5           6
    1   1.8500000   1.5200000   1.8500000   1.5200000   1.5200000   1.5200000
            7           8           9          10          11          12
    1   1.2000000   1.2000000   1.2000000   1.2000000   1.2000000   1.5200000
           13
    1   1.5200000
 -------------------------------------------------------
 OpenMP BLAS3 based DFT computing Module                
 Release: version 1.0, May 2013, Q-Chem Inc. Pittsburgh 
 -------------------------------------------------------
 A unrestricted SCF calculation will be
 performed using DIIS, GDM
 SCF converges when RMS gradient is below 1.0e-07
 ---------------------------------------
  Cycle       Energy         DIIS error
 ---------------------------------------
    1    -531.8530444701      1.39e-02  
    2    -530.3111895599      2.20e-03  Done DIIS. Switching to GDM
 ---------------------------------------
  Cycle       Energy        RMS Gradient
 ---------------------------------------
    1    -530.3111895599      1.05e-01   Descent step
    2    -530.4794447566      1.97e-02   Normal BFGS step
    3    -530.5009841260      3.08e-02   Normal BFGS step
    4    -530.5029533920      1.35e-02   Normal BFGS step
    5    -530.5048396425      4.03e-03   Normal BFGS step
    6    -530.5049742117      3.65e-03   Normal BFGS step
    7    -530.5050419918      1.76e-03   Normal BFGS step
    8    -530.5050518777      1.61e-04   Normal BFGS step
    9    -530.5050531699      1.11e-04   Normal BFGS step
   10    -530.5050533850      5.51e-05   Normal BFGS step
   11    -530.5050534382      5.35e-05   Normal BFGS step
   12    -530.5050534479      4.71e-05   Normal BFGS step
   13    -530.5050534555      3.82e-05   Normal BFGS step
   14    -530.5050534621      2.32e-05   Normal BFGS step
   15    -530.5050534663      8.83e-06   Normal BFGS step
   16    -530.5050534682      3.88e-06   Normal BFGS step
   17    -530.5050534685      1.47e-06   Normal BFGS step
   18    -530.5050534686      4.94e-07   Normal BFGS step
   19    -530.5050534686      1.81e-07   Normal BFGS step
   20    -530.5050534686      9.89e-08  Convergence criterion met
 ---------------------------------------
 SCF time:   CPU 1118.66s  wall 142.00s 
<S^2> =          0.753791864
(3)  G-ENP(liq) elect-nuc-pol free energy of system     -530.505053469 a.u.
(4)  G-CDS(liq) cavity-dispersion-solvent structure 
     free energy                                                2.8745 kcal/mol
(6)  G-S(liq) free energy of system                     -530.500472608 a.u.
 SCF   energy in the final basis set =     -530.5004726081
 Total energy in the final basis set =     -530.5004726081
 
 --------------------------------------------------------------
 
                    Orbital Energies (a.u.)
 --------------------------------------------------------------
 
 Alpha MOs
 -- Occupied --
-19.4611 -19.4240 -19.3730 -19.3721 -19.3584 -19.3546 -10.5220 -10.4628
 -1.3538  -1.2459  -1.2095  -1.1737  -1.1456  -1.0079  -0.8423  -0.7820
 -0.7071  -0.6831  -0.6659  -0.6585  -0.6133  -0.6051  -0.5955  -0.5392
 -0.5271  -0.5066  -0.4897  -0.4742  -0.4540  -0.4346  -0.4160  -0.4038
 -0.3861
 -- Virtual --
  0.0267   0.0404   0.0538   0.0590   0.0744   0.0959   0.1008   0.1058
  0.1223   0.1343   0.1427   0.1527   0.1630   0.1719   0.1968   0.2074
  0.2179   0.2269   0.2337   0.2440   0.2513   0.2638   0.2724   0.2758
  0.2839   0.2973   0.3050   0.3058   0.3097   0.3233   0.3260   0.3325
  0.3422   0.3532   0.3564   0.3639   0.3676   0.3768   0.3846   0.3860
  0.4047   0.4067   0.4245   0.4304   0.4346   0.4501   0.4699   0.4713
  0.5217   0.5843   0.5958   0.6048   0.6284   0.6458   0.6619   0.7037
  0.7088   0.7154   0.7346   0.7585   0.7890   0.8123   0.8388   0.8553
  0.8941   0.9118   0.9466   0.9665   0.9804   1.0133   1.0463   1.0614
  1.0664   1.0866   1.0984   1.1092   1.1245   1.1382   1.1400   1.1518
  1.1688   1.1719   1.1883   1.2060   1.2125   1.2275   1.2404   1.2454
  1.2779   1.2877   1.2987   1.3124   1.3357   1.3898   1.3987   1.4075
  1.4597   1.4734   1.4931   1.5133   1.5241   1.5454   1.5596   1.5830
  1.5910   1.6110   1.6141   1.6368   1.6602   1.6891   1.6904   1.7546
  1.7652   1.8283   1.8768   1.9030   1.9102   1.9372   1.9490   1.9780
  2.0442   2.0732   2.1165   2.1556   2.1981   2.2362   2.2524   2.2840
  2.2999   2.3314   2.3573   2.3699   2.4007   2.4172   2.4190   2.4692
  2.5043   2.5225   2.5305   2.5932   2.7052   2.7503   2.7761   2.8406
  2.9012   2.9701   3.0588   3.1024   3.1495   3.2171   3.2674   3.3142
  3.3610   3.3644   3.4076   3.4479   3.4711   3.5036   3.5431   3.5998
  3.6312   3.6447   3.6664   3.6774   3.7312   3.7348   3.7823   3.8234
  3.8314   3.8464   3.8577   3.8834   3.9026   3.9367   3.9572   4.0446
  4.0808   4.1303   4.1944   4.2021   4.2466   4.2601   4.2664   4.2998
  4.3215   4.4091   4.4119   4.4479   4.5322   4.5755   4.7063   4.7463
  4.7911   4.8821   5.0039   5.0265   5.0664   5.0826   5.1334   5.1492
  5.2007   5.2070   5.2196   5.2321   5.2341   5.2467   5.2468   5.2709
  5.2755   5.2870   5.3155   5.3273   5.3400   5.3509   5.3686   5.4007
  5.4280   5.4502   5.4692   5.5055   5.5345   5.5537   5.5906   5.6197
  5.6313   5.6422   5.6683   5.6905   5.7079   5.7327   5.8036   5.8999
  5.9697   6.0042   6.0107   6.0623   6.1257   6.1468   6.1905   6.2193
  6.4790   6.5425   6.5800   6.6347   6.7810   6.8035   6.8645   6.9207
  6.9446   7.0259   7.0536   7.0840   7.1032   7.1366   7.1493   7.1797
  7.2302   7.2568   7.2822   7.3054   7.3205   7.3277   7.3519   7.3604
  7.3825   7.4107   7.4354   7.4474   7.5105   7.5987   7.6264   7.6956
  7.7032   7.7245   7.7794   7.8497   7.8515   7.8684   7.8977   8.0926
  8.1597  24.7637  24.8830  50.4219  50.5422  50.5792  50.5875  50.6380
 50.6827
 
 Beta MOs
 -- Occupied --
-19.4514 -19.4046 -19.3728 -19.3720 -19.3583 -19.3546 -10.5224 -10.4629
 -1.3302  -1.2420  -1.2091  -1.1733  -1.1455  -0.9746  -0.8359  -0.7810
 -0.6980  -0.6816  -0.6620  -0.6476  -0.6003  -0.5849  -0.5613  -0.5278
 -0.5178  -0.5037  -0.4889  -0.4720  -0.4483  -0.4320  -0.4053  -0.3770
 -- Virtual --
 -0.0341   0.0268   0.0406   0.0540   0.0592   0.0746   0.0969   0.1015
  0.1067   0.1227   0.1348   0.1430   0.1536   0.1638   0.1788   0.1987
  0.2092   0.2187   0.2291   0.2343   0.2459   0.2543   0.2650   0.2757
  0.2795   0.2874   0.2974   0.3067   0.3087   0.3110   0.3245   0.3277
  0.3338   0.3434   0.3545   0.3573   0.3648   0.3693   0.3777   0.3852
  0.3874   0.4050   0.4085   0.4257   0.4320   0.4352   0.4513   0.4708
  0.4723   0.5222   0.5847   0.5959   0.6051   0.6287   0.6464   0.6620
  0.7037   0.7090   0.7159   0.7355   0.7589   0.7900   0.8130   0.8390
  0.8564   0.8943   0.9143   0.9479   0.9672   0.9819   1.0141   1.0468
  1.0660   1.0762   1.0902   1.1001   1.1106   1.1291   1.1388   1.1440
  1.1561   1.1725   1.1837   1.1916   1.2161   1.2230   1.2342   1.2417
  1.2526   1.2786   1.2912   1.2997   1.3136   1.3373   1.3903   1.4059
  1.4109   1.4619   1.4762   1.4958   1.5148   1.5273   1.5470   1.5683
  1.5911   1.6040   1.6147   1.6250   1.6416   1.6648   1.6922   1.6982
  1.7685   1.7772   1.8398   1.8805   1.9052   1.9145   1.9384   1.9516
  1.9808   2.0463   2.0757   2.1176   2.1585   2.2039   2.2414   2.2561
  2.2960   2.3058   2.3391   2.3587   2.3718   2.4028   2.4193   2.4222
  2.4721   2.5051   2.5246   2.5331   2.5946   2.7065   2.7583   2.7770
  2.8414   2.9016   2.9710   3.0594   3.1031   3.1501   3.2172   3.2680
  3.3143   3.3612   3.3648   3.4081   3.4485   3.4712   3.5043   3.5432
  3.6001   3.6309   3.6445   3.6674   3.6772   3.7315   3.7354   3.7826
  3.8240   3.8314   3.8470   3.8579   3.8836   3.9028   3.9367   3.9579
  4.0450   4.0807   4.1311   4.1945   4.2023   4.2468   4.2603   4.2664
  4.3000   4.3218   4.4094   4.4122   4.4483   4.5344   4.6100   4.7261
  4.7477   4.8159   4.8927   5.0205   5.0811   5.1227   5.1294   5.1685
  5.1767   5.2057   5.2242   5.2343   5.2429   5.2520   5.2578   5.2686
  5.2739   5.2821   5.2888   5.3193   5.3307   5.3446   5.3582   5.3733
  5.4080   5.4345   5.4535   5.4742   5.5143   5.5394   5.5579   5.5987
  5.6262   5.6417   5.6505   5.6698   5.6921   5.7154   5.7343   5.8074
  5.9009   5.9711   6.0044   6.0126   6.0656   6.1266   6.1489   6.1966
  6.2243   6.5191   6.5504   6.5908   6.6420   6.7856   6.8609   6.9424
  6.9533   6.9955   7.0354   7.0673   7.0888   7.1065   7.1526   7.1662
  7.2082   7.2350   7.2622   7.2854   7.3059   7.3232   7.3287   7.3576
  7.3681   7.3914   7.4169   7.4465   7.4782   7.5174   7.6110   7.6271
  7.6989   7.7050   7.7253   7.7865   7.8509   7.8561   7.8700   7.9038
  8.1028   8.1766  24.7636  24.8828  50.4350  50.5487  50.5796  50.5888
 50.6390  50.6829
 --------------------------------------------------------------
 
          Ground-State Mulliken Net Atomic Charges

     Atom                 Charge (a.u.)    Spin (a.u.)
  --------------------------------------------------------
      1 C                     0.033877       0.000279
      2 O                    -0.438444      -0.000915
      3 C                     0.158797      -0.001135
      4 O                    -0.429182       0.003415
      5 O                    -0.425976       0.003604
      6 O                    -0.430175       0.003842
      7 H                     0.316202       0.000427
      8 H                     0.342394      -0.000073
      9 H                     0.360413      -0.000082
     10 H                     0.359020      -0.000125
     11 H                     0.347316      -0.000629
     12 O                     0.036707       0.295127
     13 O                    -0.230948       0.696264
  --------------------------------------------------------
  Sum of atomic charges =     0.000000
  Sum of spin   charges =     1.000000

 -----------------------------------------------------------------
                    Cartesian Multipole Moments
 -----------------------------------------------------------------
    Charge (ESU x 10^10)
                 0.0000
    Dipole Moment (Debye)
         X       3.0334      Y      -2.2677      Z       0.7828
       Tot       3.8674
    Quadrupole Moments (Debye-Ang)
        XX     -58.2379     XY       0.7274     YY     -34.2772
        XZ      -4.2762     YZ      -8.4100     ZZ     -51.2640
    Octopole Moments (Debye-Ang^2)
       XXX     -19.5281    XXY      -3.2070    XYY       5.3125
       YYY     -15.1241    XXZ      43.3770    XYZ      -3.5637
       YYZ      22.7637    XZZ       1.4599    YZZ      14.7255
       ZZZ     130.3676
    Hexadecapole Moments (Debye-Ang^3)
      XXXX    -657.0701   XXXY      48.5016   XXYY    -125.7801
      XYYY      18.7122   YYYY    -182.9898   XXXZ      37.1578
      XXYZ     -26.7605   XYYZ      -9.7985   YYYZ     -35.7233
      XXZZ    -171.1593   XYZZ      18.1581   YYZZ     -80.9955
      XZZZ      27.3968   YZZZ     -55.7483   ZZZZ    -421.7261
 -----------------------------------------------------------------
 Calculating analytic gradient of the SCF energy
 Gradient of CDS energy
            1           2           3           4           5           6
    1   0.0039871  -0.0016540  -0.0026034   0.0019688   0.0004923  -0.0022036
    2   0.0025709   0.0017219  -0.0017144   0.0041223  -0.0024208  -0.0042046
    3  -0.0009969   0.0017250  -0.0045977   0.0004305   0.0040726  -0.0004926
            7           8           9          10          11          12
    1  -0.0002161   0.0002793  -0.0002383  -0.0001157   0.0003624  -0.0000525
    2   0.0000130  -0.0003977  -0.0003344   0.0003328   0.0002939   0.0000061
    3   0.0001320  -0.0001664   0.0002035  -0.0002284  -0.0001059  -0.0000285
           13
    1  -0.0000063
    2   0.0000111
    3   0.0000528
 Gradient of SCF Energy
            1           2           3           4           5           6
    1   0.0031814   0.0058652   0.0045181  -0.0116024  -0.0115941  -0.0005368
    2   0.0087170   0.0178360   0.0021241   0.0173743  -0.0208999  -0.0067016
    3  -0.0154036  -0.0051930   0.0046108  -0.0220236  -0.0035563   0.0200954
            7           8           9          10          11          12
    1  -0.0020957  -0.0059815   0.0098385   0.0085542   0.0007601  -0.0009186
    2  -0.0105485  -0.0191187  -0.0147760   0.0171613   0.0083235   0.0022156
    3   0.0114998   0.0054415   0.0186922   0.0005568  -0.0149507   0.0030331
           13
    1   0.0000116
    2  -0.0017072
    3  -0.0028024
 Max gradient component =       2.202E-02
 RMS gradient           =       1.102E-02
 Computing fast CPCM-SWIG gradient
 Updating gradient with PCM contributions...
 -- total gradient after adding PCM contribution --
---------------------------------------------------
  Atom         X              Y              Z     
---------------------------------------------------
   1      -0.000014       0.000031      -0.000005
   2       0.000036      -0.000008       0.000017
   3      -0.000089      -0.000020       0.000044
   4       0.000011       0.000008       0.000021
   5       0.000081      -0.000059      -0.000041
   6       0.000009       0.000049       0.000001
   7       0.000004       0.000018       0.000021
   8       0.000014      -0.000035       0.000015
   9       0.000013       0.000007       0.000035
  10      -0.000066       0.000007      -0.000028
  11      -0.000012       0.000022      -0.000034
  12      -0.000047      -0.000001      -0.000048
  13       0.000061      -0.000020       0.000002
---------------------------------------------------
 Number of fixed atoms: 0
 Gradient time:  CPU 155.14 s  wall 23.22 s
 ######################################################
 ######################################################
 # Starting finite difference calculation for IDERIV  #
 Finite diff step size:  1.88973e-03 a.u.
 ----------------------------------------------------------------
             Standard Nuclear Orientation (Angstroms)
    I     Atom           X                Y                Z
 ----------------------------------------------------------------
    1      C       1.2503107492    -0.2580111835    -0.4827676067
    2      O       1.9927263652    -1.0207482297    -1.3997807103
    3      C      -0.2039918526    -0.1362529214    -0.9850292355
    4      O      -0.8203761918    -1.3466401861    -1.1420558953
    5      O      -0.3701545085     0.5308123875    -2.1673602266
    6      O       1.8554532490     0.9904942472    -0.3409456695
    7      H       1.2313554315    -0.7229438323     0.5045136637
    8      H       1.7537334588    -1.9508348883    -1.3055062591
    9      H      -0.6279629345    -1.9130827278    -0.3823516654
   10      H      -0.0435766098     1.4370472864    -2.0862653481
   11      H       2.0512743827     1.3479332522    -1.2177311999
   12      O      -0.8696052731     0.6266991803     0.1145034208
   13      O      -2.1349861661     0.8026474159    -0.1281945683
 ----------------------------------------------------------------
 Nuclear Repulsion Energy =         437.27492518 hartrees
 There are       33 alpha and       32 beta electrons
 Discretize the solute cavity surface with Lebedev spheres
	Using 110 Lebedev grid points for each H atom
	Using 194 Lebedev grid points for other atoms
	Atomic van der Waals radii will be scaled by 1.20
 Remove points where switching function is < 1.0e-08
 Keep 1117 surface tesserae and discard 985 interior tesserae
 Molecular Surface Area = 127.271 Angst**2

                       Distance Matrix (Angstroms)
             C (  1)   O (  2)   C (  3)   O (  4)   O (  5)   O (  6)
   O (  2)  1.404942
   C (  3)  1.543401  2.404147
   O (  4)  2.430539  2.843620  1.367342
   O (  5)  2.466982  2.929117  1.367660  2.186041
   O (  6)  1.394660  2.277075  2.434280  3.641983  2.915549
   H (  7)  1.091442  2.072368  2.150155  2.703663  3.357923  2.010017
   H (  8)  1.948329  0.964918  2.688513  2.649115  3.378204  3.097118
   H (  9)  2.505446  2.949480  1.923563  0.966970  3.037325  3.820972
   H ( 10)  2.668065  3.264743  1.927103  3.040373  0.966691  2.617607
   H ( 11)  1.939271  2.376388  2.709831  3.938633  2.726316  0.966882
   O ( 12)  2.373497  3.633192  1.494694  2.339964  2.337851  2.786705
   O ( 13)  3.565242  4.688253  2.311804  2.715797  2.710484  4.000519
             H (  7)   H (  8)   H (  9)   H ( 10)   H ( 11)   O ( 12)
   H (  8)  2.248726
   H (  9)  2.379081  2.554627
   H ( 10)  3.605988  3.913777  3.803709
   H ( 11)  2.815480  3.313323  4.302371  2.269514
   O ( 12)  2.527386  3.942336  2.599182  2.486437  3.290375
   O ( 13)  3.749667  4.908143  3.116233  2.934365  4.359955  1.300403

 
 Requested basis set is 6-311++G(2df,2p)
 There are 94 shells and 322 basis functions
 A cutoff of  1.0D-12 yielded   4135 shell pairs
 There are     48817 function pairs (     61629 Cartesian)
 Smallest overlap matrix eigenvalue = 3.65E-05
 Guess MOs from SCF MO coefficient file

 -----------------------------------------------------------------------
  General SCF calculation program by
  Eric Jon Sundstrom, Paul Horn, Yuezhi Mao, Dmitri Zuev, Alec White,
  David Stuck, Shaama M.S., Shane Yost, Joonho Lee, David Small,
  Daniel Levine, Susi Lehtola, Hugh Burton, Evgeny Epifanovsky,
  Bang C. Huynh
 -----------------------------------------------------------------------
 Exchange:     0.1500 Hartree-Fock + 1.0000 wB97M-V + LR-HF
 Correlation:  1.0000 wB97M-V
 Using SG-2 standard quadrature grid
 Nonlocal Correlation:  VV10 with C = 0.0100 and b = 6.00 and scale = 1.00000
 Grid used for NLC:  SG-1 standard quadrature
 
 Citation of the SMD model:
 Marenich, A.V.; Cramer, C.J.; Truhlar, D.G.
 J. Phys. Chem. B 2009, 113, 6378-6396.
 iSolventCode=           1
 Solvent: water                                                           
 
 vradii
            1           2           3           4           5           6
    1   1.8500000   1.5200000   1.8500000   1.5200000   1.5200000   1.5200000
            7           8           9          10          11          12
    1   1.2000000   1.2000000   1.2000000   1.2000000   1.2000000   1.5200000
           13
    1   1.5200000
 -------------------------------------------------------
 OpenMP BLAS3 based DFT computing Module                
 Release: version 1.0, May 2013, Q-Chem Inc. Pittsburgh 
 -------------------------------------------------------
 A unrestricted SCF calculation will be
 performed using Roothaan-Hall, DIIS, GDM
 SCF converges when RMS gradient is below 1.0e-07
 ---------------------------------------
  Cycle       Energy         DIIS error
 ---------------------------------------
    1    -530.4475125636      3.50e-04  Roothaan Step
 ---------------------------------------
  Cycle       Energy         DIIS error
 ---------------------------------------
    1    -530.4934915632      4.06e-04  
    2    -530.5006828418      3.55e-04  Done DIIS. Switching to GDM
 ---------------------------------------
  Cycle       Energy        RMS Gradient
 ---------------------------------------
    1    -530.5006828418      2.51e-02   Normal BFGS step
    2    -530.4987803791      4.12e-02  Line search: overstep
    3    -530.5047641201      4.44e-03   Normal BFGS step
    4    -530.5049844100      1.32e-03   Normal BFGS step
    5    -530.5050470691      1.16e-03   Normal BFGS step
    6    -530.5050583198      4.16e-04   Normal BFGS step
    7    -530.5050595565      2.50e-04   Normal BFGS step
    8    -530.5050600154      1.08e-04   Normal BFGS step
    9    -530.5050601512      2.06e-05   Normal BFGS step
   10    -530.5050601620      1.95e-05   Normal BFGS step
   11    -530.5050601652      1.78e-05   Normal BFGS step
   12    -530.5050601660      1.57e-05   Normal BFGS step
   13    -530.5050601670      1.11e-05   Normal BFGS step
   14    -530.5050601679      4.45e-06   Normal BFGS step
   15    -530.5050601682      1.33e-06   Normal BFGS step
   16    -530.5050601683      5.55e-07   Normal BFGS step
   17    -530.5050601683      2.09e-07   Normal BFGS step
   18    -530.5050601683      9.15e-08  Convergence criterion met
 ---------------------------------------
 SCF time:   CPU 1102.68s  wall 140.00s 
<S^2> =          0.753792029
(3)  G-ENP(liq) elect-nuc-pol free energy of system     -530.505060168 a.u.
(4)  G-CDS(liq) cavity-dispersion-solvent structure 
     free energy                                                2.8793 kcal/mol
(6)  G-S(liq) free energy of system                     -530.500471696 a.u.
 SCF   energy in the final basis set =     -530.5004716956
 Total energy in the final basis set =     -530.5004716956
 
 --------------------------------------------------------------
 
                    Orbital Energies (a.u.)
 --------------------------------------------------------------
 
 Alpha MOs
 -- Occupied --
-19.4611 -19.4239 -19.3730 -19.3721 -19.3584 -19.3546 -10.5219 -10.4628
 -1.3538  -1.2458  -1.2096  -1.1737  -1.1457  -1.0078  -0.8422  -0.7820
 -0.7071  -0.6831  -0.6660  -0.6585  -0.6133  -0.6051  -0.5955  -0.5392
 -0.5271  -0.5066  -0.4897  -0.4743  -0.4540  -0.4347  -0.4160  -0.4037
 -0.3859
 -- Virtual --
  0.0267   0.0404   0.0538   0.0590   0.0744   0.0959   0.1008   0.1058
  0.1223   0.1343   0.1428   0.1527   0.1630   0.1720   0.1968   0.2075
  0.2179   0.2269   0.2337   0.2440   0.2514   0.2638   0.2724   0.2758
  0.2839   0.2973   0.3051   0.3058   0.3096   0.3233   0.3259   0.3325
  0.3422   0.3531   0.3564   0.3639   0.3676   0.3768   0.3847   0.3860
  0.4047   0.4067   0.4245   0.4304   0.4346   0.4501   0.4699   0.4713
  0.5217   0.5844   0.5958   0.6048   0.6284   0.6458   0.6620   0.7037
  0.7088   0.7154   0.7347   0.7585   0.7890   0.8122   0.8388   0.8552
  0.8942   0.9118   0.9466   0.9665   0.9804   1.0132   1.0464   1.0614
  1.0664   1.0866   1.0985   1.1093   1.1245   1.1382   1.1400   1.1518
  1.1688   1.1718   1.1883   1.2060   1.2125   1.2275   1.2405   1.2454
  1.2779   1.2877   1.2987   1.3124   1.3358   1.3897   1.3986   1.4073
  1.4595   1.4734   1.4931   1.5133   1.5240   1.5454   1.5596   1.5828
  1.5910   1.6110   1.6139   1.6368   1.6601   1.6891   1.6904   1.7546
  1.7653   1.8283   1.8768   1.9030   1.9102   1.9374   1.9491   1.9780
  2.0442   2.0733   2.1164   2.1557   2.1982   2.2362   2.2524   2.2841
  2.3000   2.3314   2.3574   2.3700   2.4005   2.4172   2.4190   2.4692
  2.5044   2.5225   2.5303   2.5932   2.7052   2.7503   2.7762   2.8406
  2.9011   2.9702   3.0588   3.1022   3.1494   3.2173   3.2674   3.3147
  3.3609   3.3642   3.4079   3.4479   3.4716   3.5035   3.5428   3.5999
  3.6312   3.6447   3.6663   3.6776   3.7313   3.7349   3.7822   3.8235
  3.8312   3.8464   3.8577   3.8836   3.9028   3.9366   3.9571   4.0443
  4.0800   4.1296   4.1945   4.2017   4.2465   4.2600   4.2660   4.2998
  4.3214   4.4090   4.4117   4.4481   4.5316   4.5754   4.7063   4.7459
  4.7911   4.8821   5.0038   5.0265   5.0664   5.0826   5.1334   5.1492
  5.2007   5.2070   5.2196   5.2322   5.2341   5.2467   5.2468   5.2709
  5.2755   5.2870   5.3154   5.3272   5.3400   5.3509   5.3686   5.4007
  5.4280   5.4502   5.4691   5.5056   5.5344   5.5537   5.5906   5.6197
  5.6313   5.6422   5.6683   5.6907   5.7078   5.7330   5.8037   5.9005
  5.9699   6.0048   6.0110   6.0632   6.1257   6.1467   6.1904   6.2198
  6.4790   6.5431   6.5800   6.6348   6.7820   6.8036   6.8646   6.9207
  6.9446   7.0259   7.0536   7.0840   7.1032   7.1365   7.1493   7.1797
  7.2301   7.2569   7.2822   7.3056   7.3206   7.3278   7.3519   7.3605
  7.3824   7.4107   7.4354   7.4475   7.5106   7.5986   7.6266   7.6955
  7.7032   7.7246   7.7795   7.8497   7.8516   7.8685   7.8977   8.0926
  8.1596  24.7650  24.8821  50.4219  50.5423  50.5793  50.5876  50.6381
 50.6828
 
 Beta MOs
 -- Occupied --
-19.4514 -19.4046 -19.3728 -19.3719 -19.3583 -19.3546 -10.5223 -10.4628
 -1.3302  -1.2420  -1.2092  -1.1733  -1.1456  -0.9745  -0.8358  -0.7810
 -0.6979  -0.6816  -0.6621  -0.6475  -0.6003  -0.5849  -0.5613  -0.5278
 -0.5178  -0.5037  -0.4889  -0.4721  -0.4483  -0.4321  -0.4052  -0.3769
 -- Virtual --
 -0.0341   0.0268   0.0406   0.0540   0.0592   0.0746   0.0969   0.1015
  0.1067   0.1227   0.1347   0.1430   0.1536   0.1638   0.1789   0.1987
  0.2092   0.2188   0.2291   0.2343   0.2459   0.2543   0.2650   0.2757
  0.2795   0.2874   0.2974   0.3067   0.3087   0.3110   0.3245   0.3276
  0.3338   0.3434   0.3545   0.3573   0.3648   0.3692   0.3777   0.3853
  0.3873   0.4050   0.4086   0.4257   0.4320   0.4352   0.4513   0.4709
  0.4722   0.5222   0.5847   0.5959   0.6051   0.6287   0.6463   0.6620
  0.7037   0.7090   0.7159   0.7357   0.7589   0.7900   0.8129   0.8389
  0.8563   0.8944   0.9143   0.9480   0.9672   0.9819   1.0140   1.0468
  1.0660   1.0762   1.0902   1.1002   1.1107   1.1290   1.1388   1.1440
  1.1561   1.1725   1.1837   1.1916   1.2161   1.2230   1.2343   1.2418
  1.2525   1.2786   1.2912   1.2997   1.3136   1.3373   1.3902   1.4058
  1.4108   1.4617   1.4762   1.4957   1.5148   1.5273   1.5470   1.5684
  1.5909   1.6041   1.6146   1.6250   1.6415   1.6646   1.6922   1.6982
  1.7684   1.7772   1.8399   1.8805   1.9052   1.9146   1.9385   1.9516
  1.9807   2.0462   2.0758   2.1175   2.1586   2.2040   2.2414   2.2562
  2.2961   2.3059   2.3392   2.3587   2.3720   2.4027   2.4193   2.4222
  2.4721   2.5052   2.5246   2.5329   2.5946   2.7065   2.7583   2.7770
  2.8414   2.9016   2.9711   3.0595   3.1029   3.1500   3.2173   3.2681
  3.3148   3.3610   3.3645   3.4083   3.4485   3.4717   3.5041   3.5429
  3.6001   3.6309   3.6445   3.6673   3.6774   3.7316   3.7355   3.7826
  3.8241   3.8312   3.8470   3.8580   3.8838   3.9029   3.9367   3.9578
  4.0447   4.0800   4.1304   4.1946   4.2019   4.2468   4.2602   4.2661
  4.2999   4.3217   4.4094   4.4120   4.4486   4.5337   4.6100   4.7260
  4.7473   4.8159   4.8927   5.0205   5.0811   5.1227   5.1294   5.1685
  5.1767   5.2058   5.2243   5.2343   5.2430   5.2520   5.2578   5.2687
  5.2739   5.2821   5.2889   5.3192   5.3305   5.3446   5.3581   5.3734
  5.4080   5.4345   5.4535   5.4742   5.5144   5.5393   5.5580   5.5987
  5.6262   5.6416   5.6505   5.6698   5.6923   5.7154   5.7346   5.8074
  5.9016   5.9713   6.0050   6.0128   6.0666   6.1266   6.1488   6.1966
  6.2248   6.5194   6.5508   6.5908   6.6421   6.7866   6.8609   6.9424
  6.9533   6.9954   7.0354   7.0673   7.0888   7.1065   7.1525   7.1662
  7.2082   7.2350   7.2622   7.2855   7.3061   7.3233   7.3288   7.3576
  7.3681   7.3914   7.4169   7.4466   7.4782   7.5174   7.6109   7.6273
  7.6989   7.7050   7.7254   7.7866   7.8509   7.8561   7.8700   7.9038
  8.1028   8.1765  24.7649  24.8819  50.4350  50.5487  50.5797  50.5888
 50.6391  50.6830
 --------------------------------------------------------------
 
          Ground-State Mulliken Net Atomic Charges

     Atom                 Charge (a.u.)    Spin (a.u.)
  --------------------------------------------------------
      1 C                     0.033872       0.000274
      2 O                    -0.438224      -0.000913
      3 C                     0.158719      -0.001133
      4 O                    -0.429248       0.003415
      5 O                    -0.426054       0.003605
      6 O                    -0.429952       0.003843
      7 H                     0.316054       0.000426
      8 H                     0.342437      -0.000073
      9 H                     0.360403      -0.000081
     10 H                     0.359021      -0.000126
     11 H                     0.347310      -0.000629
     12 O                     0.036621       0.295165
     13 O                    -0.230958       0.696228
  --------------------------------------------------------
  Sum of atomic charges =     0.000000
  Sum of spin   charges =     1.000000

 -----------------------------------------------------------------
                    Cartesian Multipole Moments
 -----------------------------------------------------------------
    Charge (ESU x 10^10)
                 0.0000
    Dipole Moment (Debye)
         X       3.0390      Y      -2.2677      Z       0.7821
       Tot       3.8717
    Quadrupole Moments (Debye-Ang)
        XX     -58.2302     XY       0.7270     YY     -34.2755
        XZ      -4.2816     YZ      -8.4081     ZZ     -51.2647
    Octopole Moments (Debye-Ang^2)
       XXX     -19.5122    XXY      -3.2101    XYY       5.3163
       YYY     -15.1243    XXZ      43.3692    XYZ      -3.5601
       YYZ      22.7611    XZZ       1.4626    YZZ      14.7223
       ZZZ     130.3685
    Hexadecapole Moments (Debye-Ang^3)
      XXXX    -657.1072   XXXY      48.5021   XXYY    -125.7875
      XYYY      18.7113   YYYY    -182.9758   XXXZ      37.1446
      XXYZ     -26.7562   XYYZ      -9.8059   YYYZ     -35.7163
      XXZZ    -171.1665   XYZZ      18.1565   YYZZ     -80.9924
      XZZZ      27.3862   YZZZ     -55.7373   ZZZZ    -421.7345
 -----------------------------------------------------------------
 Calculating analytic gradient of the SCF energy
 Gradient of CDS energy
            1           2           3           4           5           6
    1   0.0040687  -0.0017156  -0.0026037   0.0019688   0.0004921  -0.0022211
    2   0.0025488   0.0017869  -0.0017143   0.0041223  -0.0024207  -0.0042472
    3  -0.0010701   0.0018034  -0.0045978   0.0004306   0.0040727  -0.0004972
            7           8           9          10          11          12
    1  -0.0002168   0.0002788  -0.0002383  -0.0001157   0.0003618  -0.0000526
    2   0.0000129  -0.0003975  -0.0003344   0.0003327   0.0002935   0.0000059
    3   0.0001314  -0.0001663   0.0002035  -0.0002285  -0.0001060  -0.0000285
           13
    1  -0.0000063
    2   0.0000111
    3   0.0000528
 Gradient of SCF Energy
            1           2           3           4           5           6
    1   0.0042159   0.0055476   0.0042077  -0.0116150  -0.0115919  -0.0007780
    2   0.0087698   0.0179932   0.0021403   0.0173710  -0.0209054  -0.0068980
    3  -0.0155248  -0.0049647   0.0045251  -0.0220280  -0.0035511   0.0201165
            7           8           9          10          11          12
    1  -0.0022226  -0.0059756   0.0098355   0.0085575   0.0007527  -0.0009576
    2  -0.0105388  -0.0191432  -0.0147771   0.0171617   0.0083048   0.0022317
    3   0.0114830   0.0054239   0.0186896   0.0005564  -0.0149632   0.0030426
           13
    1   0.0000236
    2  -0.0017100
    3  -0.0028053
 Max gradient component =       2.203E-02
 RMS gradient           =       1.103E-02
 Computing fast CPCM-SWIG gradient
 Updating gradient with PCM contributions...
 -- total gradient after adding PCM contribution --
---------------------------------------------------
  Atom         X              Y              Z     
---------------------------------------------------
   1       0.000979       0.000071      -0.000128
   2      -0.000265       0.000144       0.000240
   3      -0.000407       0.000004      -0.000045
   4      -0.000000       0.000006       0.000014
   5       0.000088      -0.000064      -0.000037
   6      -0.000214      -0.000140       0.000013
   7      -0.000104       0.000022       0.000011
   8       0.000018      -0.000049       0.000001
   9       0.000008       0.000002       0.000037
  10      -0.000066       0.000011      -0.000030
  11      -0.000024       0.000001      -0.000038
  12      -0.000085       0.000015      -0.000038
  13       0.000071      -0.000023       0.000001
---------------------------------------------------
 Number of fixed atoms: 0
 Gradient time:  CPU 157.03 s  wall 23.15 s
 ----------------------------------------------------------------
             Standard Nuclear Orientation (Angstroms)
    I     Atom           X                Y                Z
 ----------------------------------------------------------------
    1      C       1.2483107492    -0.2580111835    -0.4827676067
    2      O       1.9927263652    -1.0207482297    -1.3997807103
    3      C      -0.2039918526    -0.1362529214    -0.9850292355
    4      O      -0.8203761918    -1.3466401861    -1.1420558953
    5      O      -0.3701545085     0.5308123875    -2.1673602266
    6      O       1.8554532490     0.9904942472    -0.3409456695
    7      H       1.2313554315    -0.7229438323     0.5045136637
    8      H       1.7537334588    -1.9508348883    -1.3055062591
    9      H      -0.6279629345    -1.9130827278    -0.3823516654
   10      H      -0.0435766098     1.4370472864    -2.0862653481
   11      H       2.0512743827     1.3479332522    -1.2177311999
   12      O      -0.8696052731     0.6266991803     0.1145034208
   13      O      -2.1349861661     0.8026474159    -0.1281945683
 ----------------------------------------------------------------
 Nuclear Repulsion Energy =         437.28988884 hartrees
 There are       33 alpha and       32 beta electrons
 Discretize the solute cavity surface with Lebedev spheres
	Using 110 Lebedev grid points for each H atom
	Using 194 Lebedev grid points for other atoms
	Atomic van der Waals radii will be scaled by 1.20
 Remove points where switching function is < 1.0e-08
 Keep 1117 surface tesserae and discard 985 interior tesserae
 Molecular Surface Area = 127.266 Angst**2

                       Distance Matrix (Angstroms)
             C (  1)   O (  2)   C (  3)   O (  4)   O (  5)   O (  6)
   O (  2)  1.406000
   C (  3)  1.541517  2.404147
   O (  4)  2.428835  2.843620  1.367342
   O (  5)  2.465669  2.929117  1.367660  2.186041
   O (  6)  1.395529  2.277075  2.434280  3.641983  2.915549
   H (  7)  1.091409  2.072368  2.150155  2.703663  3.357923  2.010017
   H (  8)  1.948847  0.964918  2.688513  2.649115  3.378204  3.097118
   H (  9)  2.503947  2.949480  1.923563  0.966970  3.037325  3.820972
   H ( 10)  2.667096  3.264743  1.927103  3.040373  0.966691  2.617607
   H ( 11)  1.940098  2.376388  2.709831  3.938633  2.726316  0.966882
   O ( 12)  2.371711  3.633192  1.494694  2.339964  2.337851  2.786705
   O ( 13)  3.563343  4.688253  2.311804  2.715797  2.710484  4.000519
             H (  7)   H (  8)   H (  9)   H ( 10)   H ( 11)   O ( 12)
   H (  8)  2.248726
   H (  9)  2.379081  2.554627
   H ( 10)  3.605988  3.913777  3.803709
   H ( 11)  2.815480  3.313323  4.302371  2.269514
   O ( 12)  2.527386  3.942336  2.599182  2.486437  3.290375
   O ( 13)  3.749667  4.908143  3.116233  2.934365  4.359955  1.300403

 
 Requested basis set is 6-311++G(2df,2p)
 There are 94 shells and 322 basis functions
 A cutoff of  1.0D-12 yielded   4135 shell pairs
 There are     48817 function pairs (     61629 Cartesian)
 Smallest overlap matrix eigenvalue = 3.63E-05
 Guess MOs from SCF MO coefficient file

 -----------------------------------------------------------------------
  General SCF calculation program by
  Eric Jon Sundstrom, Paul Horn, Yuezhi Mao, Dmitri Zuev, Alec White,
  David Stuck, Shaama M.S., Shane Yost, Joonho Lee, David Small,
  Daniel Levine, Susi Lehtola, Hugh Burton, Evgeny Epifanovsky,
  Bang C. Huynh
 -----------------------------------------------------------------------
 Exchange:     0.1500 Hartree-Fock + 1.0000 wB97M-V + LR-HF
 Correlation:  1.0000 wB97M-V
 Using SG-2 standard quadrature grid
 Nonlocal Correlation:  VV10 with C = 0.0100 and b = 6.00 and scale = 1.00000
 Grid used for NLC:  SG-1 standard quadrature
 
 Citation of the SMD model:
 Marenich, A.V.; Cramer, C.J.; Truhlar, D.G.
 J. Phys. Chem. B 2009, 113, 6378-6396.
 iSolventCode=           1
 Solvent: water                                                           
 
 vradii
            1           2           3           4           5           6
    1   1.8500000   1.5200000   1.8500000   1.5200000   1.5200000   1.5200000
            7           8           9          10          11          12
    1   1.2000000   1.2000000   1.2000000   1.2000000   1.2000000   1.5200000
           13
    1   1.5200000
 -------------------------------------------------------
 OpenMP BLAS3 based DFT computing Module                
 Release: version 1.0, May 2013, Q-Chem Inc. Pittsburgh 
 -------------------------------------------------------
 A unrestricted SCF calculation will be
 performed using Roothaan-Hall, DIIS, GDM
 SCF converges when RMS gradient is below 1.0e-07
 ---------------------------------------
  Cycle       Energy         DIIS error
 ---------------------------------------
    1    -530.4474792962      3.50e-04  Roothaan Step
 ---------------------------------------
  Cycle       Energy         DIIS error
 ---------------------------------------
    1    -530.4934491076      4.07e-04  
    2    -530.5006340420      3.56e-04  Done DIIS. Switching to GDM
 ---------------------------------------
  Cycle       Energy        RMS Gradient
 ---------------------------------------
    1    -530.5006340420      2.51e-02   Normal BFGS step
    2    -530.4987188067      4.12e-02  Line search: overstep
    3    -530.5047490291      4.44e-03   Normal BFGS step
    4    -530.5049689029      1.32e-03   Normal BFGS step
    5    -530.5050319706      1.16e-03   Normal BFGS step
    6    -530.5050432031      4.15e-04   Normal BFGS step
    7    -530.5050444349      2.49e-04   Normal BFGS step
    8    -530.5050448904      1.07e-04   Normal BFGS step
    9    -530.5050450259      2.07e-05   Normal BFGS step
   10    -530.5050450367      1.96e-05   Normal BFGS step
   11    -530.5050450400      1.79e-05   Normal BFGS step
   12    -530.5050450408      1.58e-05   Normal BFGS step
   13    -530.5050450418      1.12e-05   Normal BFGS step
   14    -530.5050450427      4.46e-06   Normal BFGS step
   15    -530.5050450430      1.34e-06   Normal BFGS step
   16    -530.5050450431      5.54e-07   Normal BFGS step
   17    -530.5050450431      2.08e-07   Normal BFGS step
   18    -530.5050450431      9.08e-08  Convergence criterion met
 ---------------------------------------
 SCF time:   CPU 1091.17s  wall 139.00s 
<S^2> =          0.753791701
(3)  G-ENP(liq) elect-nuc-pol free energy of system     -530.505045043 a.u.
(4)  G-CDS(liq) cavity-dispersion-solvent structure 
     free energy                                                2.8699 kcal/mol
(6)  G-S(liq) free energy of system                     -530.500471638 a.u.
 SCF   energy in the final basis set =     -530.5004716382
 Total energy in the final basis set =     -530.5004716382
 
 --------------------------------------------------------------
 
                    Orbital Energies (a.u.)
 --------------------------------------------------------------
 
 Alpha MOs
 -- Occupied --
-19.4612 -19.4240 -19.3730 -19.3722 -19.3583 -19.3546 -10.5221 -10.4628
 -1.3538  -1.2459  -1.2093  -1.1737  -1.1454  -1.0079  -0.8425  -0.7820
 -0.7071  -0.6831  -0.6658  -0.6586  -0.6133  -0.6051  -0.5954  -0.5392
 -0.5271  -0.5065  -0.4897  -0.4742  -0.4541  -0.4345  -0.4161  -0.4038
 -0.3863
 -- Virtual --
  0.0267   0.0404   0.0538   0.0590   0.0744   0.0959   0.1008   0.1058
  0.1223   0.1343   0.1427   0.1527   0.1630   0.1719   0.1968   0.2074
  0.2178   0.2269   0.2337   0.2440   0.2513   0.2638   0.2723   0.2757
  0.2838   0.2973   0.3050   0.3058   0.3098   0.3233   0.3260   0.3325
  0.3421   0.3532   0.3564   0.3639   0.3676   0.3768   0.3846   0.3861
  0.4047   0.4066   0.4245   0.4303   0.4346   0.4501   0.4698   0.4714
  0.5217   0.5843   0.5958   0.6048   0.6284   0.6458   0.6619   0.7037
  0.7088   0.7154   0.7344   0.7585   0.7890   0.8124   0.8388   0.8554
  0.8941   0.9118   0.9465   0.9666   0.9803   1.0133   1.0463   1.0613
  1.0664   1.0865   1.0984   1.1091   1.1245   1.1383   1.1400   1.1518
  1.1688   1.1720   1.1883   1.2060   1.2125   1.2275   1.2403   1.2454
  1.2778   1.2877   1.2987   1.3125   1.3357   1.3900   1.3987   1.4077
  1.4599   1.4734   1.4932   1.5133   1.5241   1.5454   1.5595   1.5831
  1.5909   1.6110   1.6143   1.6369   1.6603   1.6892   1.6904   1.7547
  1.7652   1.8282   1.8769   1.9029   1.9103   1.9370   1.9490   1.9780
  2.0442   2.0731   2.1167   2.1554   2.1981   2.2362   2.2524   2.2840
  2.2998   2.3313   2.3573   2.3698   2.4008   2.4172   2.4190   2.4692
  2.5042   2.5226   2.5307   2.5932   2.7052   2.7503   2.7761   2.8407
  2.9013   2.9699   3.0587   3.1026   3.1496   3.2170   3.2673   3.3137
  3.3611   3.3647   3.4074   3.4478   3.4705   3.5037   3.5434   3.5998
  3.6313   3.6446   3.6665   3.6771   3.7312   3.7348   3.7823   3.8233
  3.8315   3.8464   3.8577   3.8833   3.9025   3.9367   3.9573   4.0448
  4.0815   4.1310   4.1943   4.2026   4.2467   4.2602   4.2667   4.2999
  4.3217   4.4091   4.4120   4.4477   4.5328   4.5756   4.7064   4.7468
  4.7911   4.8822   5.0039   5.0264   5.0664   5.0826   5.1335   5.1492
  5.2006   5.2070   5.2196   5.2320   5.2341   5.2466   5.2468   5.2709
  5.2756   5.2870   5.3155   5.3275   5.3401   5.3510   5.3686   5.4008
  5.4281   5.4503   5.4692   5.5055   5.5346   5.5536   5.5907   5.6196
  5.6314   5.6422   5.6682   5.6904   5.7079   5.7324   5.8036   5.8992
  5.9695   6.0035   6.0105   6.0613   6.1257   6.1469   6.1905   6.2187
  6.4789   6.5419   6.5800   6.6346   6.7799   6.8035   6.8645   6.9208
  6.9446   7.0259   7.0536   7.0840   7.1032   7.1366   7.1493   7.1797
  7.2302   7.2568   7.2821   7.3052   7.3205   7.3277   7.3519   7.3604
  7.3825   7.4107   7.4353   7.4473   7.5105   7.5988   7.6261   7.6957
  7.7032   7.7243   7.7793   7.8497   7.8514   7.8684   7.8977   8.0927
  8.1598  24.7625  24.8838  50.4219  50.5422  50.5791  50.5874  50.6379
 50.6826
 
 Beta MOs
 -- Occupied --
-19.4514 -19.4046 -19.3729 -19.3720 -19.3583 -19.3546 -10.5224 -10.4629
 -1.3302  -1.2420  -1.2090  -1.1733  -1.1453  -0.9747  -0.8361  -0.7810
 -0.6980  -0.6816  -0.6619  -0.6476  -0.6002  -0.5849  -0.5613  -0.5278
 -0.5178  -0.5036  -0.4889  -0.4720  -0.4484  -0.4319  -0.4054  -0.3771
 -- Virtual --
 -0.0341   0.0268   0.0406   0.0540   0.0592   0.0746   0.0969   0.1015
  0.1067   0.1227   0.1348   0.1430   0.1536   0.1638   0.1787   0.1986
  0.2091   0.2186   0.2291   0.2343   0.2459   0.2543   0.2650   0.2756
  0.2795   0.2874   0.2974   0.3067   0.3087   0.3111   0.3246   0.3278
  0.3337   0.3433   0.3545   0.3573   0.3648   0.3693   0.3777   0.3852
  0.3874   0.4050   0.4085   0.4257   0.4319   0.4352   0.4513   0.4708
  0.4723   0.5222   0.5847   0.5958   0.6051   0.6287   0.6464   0.6620
  0.7037   0.7090   0.7159   0.7354   0.7589   0.7901   0.8131   0.8390
  0.8564   0.8943   0.9143   0.9479   0.9673   0.9819   1.0141   1.0468
  1.0660   1.0761   1.0901   1.1001   1.1105   1.1291   1.1389   1.1440
  1.1561   1.1726   1.1837   1.1916   1.2161   1.2230   1.2342   1.2417
  1.2526   1.2785   1.2912   1.2997   1.3136   1.3373   1.3905   1.4060
  1.4110   1.4620   1.4762   1.4958   1.5148   1.5273   1.5470   1.5683
  1.5912   1.6040   1.6149   1.6250   1.6417   1.6649   1.6922   1.6983
  1.7685   1.7772   1.8397   1.8806   1.9052   1.9145   1.9382   1.9516
  1.9808   2.0463   2.0756   2.1178   2.1583   2.2038   2.2413   2.2561
  2.2960   2.3056   2.3391   2.3586   2.3717   2.4029   2.4192   2.4223
  2.4720   2.5050   2.5246   2.5333   2.5945   2.7065   2.7583   2.7770
  2.8414   2.9017   2.9708   3.0594   3.1033   3.1502   3.2171   3.2679
  3.3139   3.3613   3.3650   3.4078   3.4485   3.4706   3.5044   3.5436
  3.6000   3.6310   3.6445   3.6675   3.6770   3.7315   3.7354   3.7827
  3.8239   3.8315   3.8470   3.8579   3.8835   3.9026   3.9368   3.9581
  4.0452   4.0815   4.1318   4.1944   4.2028   4.2469   4.2604   4.2668
  4.3001   4.3220   4.4095   4.4123   4.4481   4.5350   4.6101   4.7262
  4.7481   4.8160   4.8928   5.0206   5.0812   5.1227   5.1294   5.1686
  5.1767   5.2056   5.2242   5.2342   5.2429   5.2520   5.2578   5.2686
  5.2739   5.2821   5.2888   5.3193   5.3309   5.3446   5.3583   5.3733
  5.4081   5.4345   5.4536   5.4743   5.5143   5.5395   5.5578   5.5987
  5.6262   5.6418   5.6505   5.6698   5.6920   5.7155   5.7340   5.8073
  5.9003   5.9709   6.0038   6.0123   6.0646   6.1266   6.1490   6.1966
  6.2237   6.5188   6.5500   6.5908   6.6418   6.7845   6.8609   6.9424
  6.9533   6.9955   7.0353   7.0673   7.0888   7.1065   7.1526   7.1661
  7.2082   7.2350   7.2621   7.2854   7.3057   7.3232   7.3287   7.3576
  7.3681   7.3915   7.4169   7.4464   7.4782   7.5173   7.6111   7.6269
  7.6990   7.7050   7.7252   7.7863   7.8508   7.8561   7.8699   7.9038
  8.1029   8.1767  24.7624  24.8836  50.4350  50.5487  50.5795  50.5887
 50.6389  50.6829
 --------------------------------------------------------------
 
          Ground-State Mulliken Net Atomic Charges

     Atom                 Charge (a.u.)    Spin (a.u.)
  --------------------------------------------------------
      1 C                     0.033881       0.000284
      2 O                    -0.438662      -0.000917
      3 C                     0.158876      -0.001136
      4 O                    -0.429116       0.003415
      5 O                    -0.425898       0.003602
      6 O                    -0.430398       0.003840
      7 H                     0.316350       0.000429
      8 H                     0.342350      -0.000073
      9 H                     0.360424      -0.000082
     10 H                     0.359019      -0.000124
     11 H                     0.347321      -0.000629
     12 O                     0.036792       0.295090
     13 O                    -0.230939       0.696301
  --------------------------------------------------------
  Sum of atomic charges =     0.000000
  Sum of spin   charges =     1.000000

 -----------------------------------------------------------------
                    Cartesian Multipole Moments
 -----------------------------------------------------------------
    Charge (ESU x 10^10)
                 0.0000
    Dipole Moment (Debye)
         X       3.0279      Y      -2.2676      Z       0.7835
       Tot       3.8632
    Quadrupole Moments (Debye-Ang)
        XX     -58.2455     XY       0.7279     YY     -34.2789
        XZ      -4.2707     YZ      -8.4119     ZZ     -51.2633
    Octopole Moments (Debye-Ang^2)
       XXX     -19.5440    XXY      -3.2039    XYY       5.3087
       YYY     -15.1238    XXZ      43.3848    XYZ      -3.5673
       YYZ      22.7664    XZZ       1.4572    YZZ      14.7286
       ZZZ     130.3668
    Hexadecapole Moments (Debye-Ang^3)
      XXXX    -657.0329   XXXY      48.5011   XXYY    -125.7728
      XYYY      18.7131   YYYY    -183.0039   XXXZ      37.1708
      XXYZ     -26.7649   XYYZ      -9.7911   YYYZ     -35.7303
      XXZZ    -171.1521   XYZZ      18.1597   YYZZ     -80.9985
      XZZZ      27.4074   YZZZ     -55.7593   ZZZZ    -421.7178
 -----------------------------------------------------------------
 Calculating analytic gradient of the SCF energy
 Gradient of CDS energy
            1           2           3           4           5           6
    1   0.0039031  -0.0015909  -0.0026031   0.0019688   0.0004924  -0.0021851
    2   0.0025923   0.0016555  -0.0017144   0.0041223  -0.0024209  -0.0041601
    3  -0.0009223   0.0016449  -0.0045976   0.0004305   0.0040726  -0.0004877
            7           8           9          10          11          12
    1  -0.0002153   0.0002797  -0.0002383  -0.0001156   0.0003629  -0.0000523
    2   0.0000131  -0.0003979  -0.0003344   0.0003328   0.0002943   0.0000063
    3   0.0001325  -0.0001665   0.0002035  -0.0002283  -0.0001058  -0.0000284
           13
    1  -0.0000063
    2   0.0000111
    3   0.0000528
 Gradient of SCF Energy
            1           2           3           4           5           6
    1   0.0021426   0.0061840   0.0048305  -0.0115898  -0.0115962  -0.0002946
    2   0.0086641   0.0176778   0.0021077   0.0173778  -0.0208944  -0.0065037
    3  -0.0152828  -0.0054223   0.0046971  -0.0220192  -0.0035615   0.0200745
            7           8           9          10          11          12
    1  -0.0019688  -0.0059875   0.0098414   0.0085508   0.0007675  -0.0008795
    2  -0.0105584  -0.0190942  -0.0147749   0.0171609   0.0083422   0.0021994
    3   0.0115171   0.0054591   0.0186949   0.0005573  -0.0149382   0.0030235
           13
    1  -0.0000003
    2  -0.0017044
    3  -0.0027995
 Max gradient component =       2.202E-02
 RMS gradient           =       1.100E-02
 Computing fast CPCM-SWIG gradient
 Updating gradient with PCM contributions...
 -- total gradient after adding PCM contribution --
---------------------------------------------------
  Atom         X              Y              Z     
---------------------------------------------------
   1      -0.001013      -0.000009       0.000117
   2       0.000339      -0.000161      -0.000206
   3       0.000231      -0.000043       0.000134
   4       0.000021       0.000011       0.000027
   5       0.000074      -0.000053      -0.000045
   6       0.000233       0.000239      -0.000010
   7       0.000112       0.000014       0.000032
   8       0.000010      -0.000022       0.000029
   9       0.000017       0.000012       0.000033
  10      -0.000065       0.000004      -0.000026
  11      -0.000000       0.000043      -0.000030
  12      -0.000009      -0.000017      -0.000058
  13       0.000050      -0.000018       0.000003
---------------------------------------------------
 Number of fixed atoms: 0
 Gradient time:  CPU 157.04 s  wall 23.29 s
 ----------------------------------------------------------------
             Standard Nuclear Orientation (Angstroms)
    I     Atom           X                Y                Z
 ----------------------------------------------------------------
    1      C       1.2493107492    -0.2570111835    -0.4827676067
    2      O       1.9927263652    -1.0207482297    -1.3997807103
    3      C      -0.2039918526    -0.1362529214    -0.9850292355
    4      O      -0.8203761918    -1.3466401861    -1.1420558953
    5      O      -0.3701545085     0.5308123875    -2.1673602266
    6      O       1.8554532490     0.9904942472    -0.3409456695
    7      H       1.2313554315    -0.7229438323     0.5045136637
    8      H       1.7537334588    -1.9508348883    -1.3055062591
    9      H      -0.6279629345    -1.9130827278    -0.3823516654
   10      H      -0.0435766098     1.4370472864    -2.0862653481
   11      H       2.0512743827     1.3479332522    -1.2177311999
   12      O      -0.8696052731     0.6266991803     0.1145034208
   13      O      -2.1349861661     0.8026474159    -0.1281945683
 ----------------------------------------------------------------
 Nuclear Repulsion Energy =         437.28820994 hartrees
 There are       33 alpha and       32 beta electrons
 Discretize the solute cavity surface with Lebedev spheres
	Using 110 Lebedev grid points for each H atom
	Using 194 Lebedev grid points for other atoms
	Atomic van der Waals radii will be scaled by 1.20
 Remove points where switching function is < 1.0e-08
 Keep 1117 surface tesserae and discard 985 interior tesserae
 Molecular Surface Area = 127.268 Angst**2

                       Distance Matrix (Angstroms)
             C (  1)   O (  2)   C (  3)   O (  4)   O (  5)   O (  6)
   O (  2)  1.406014
   C (  3)  1.542381  2.404147
   O (  4)  2.430135  2.843620  1.367342
   O (  5)  2.466006  2.929117  1.367660  2.186041
   O (  6)  1.394199  2.277075  2.434280  3.641983  2.915549
   H (  7)  1.091852  2.072368  2.150155  2.703663  3.357923  2.010017
   H (  8)  1.949456  0.964918  2.688513  2.649115  3.378204  3.097118
   H (  9)  2.505357  2.949480  1.923563  0.966970  3.037325  3.820972
   H ( 10)  2.666945  3.264743  1.927103  3.040373  0.966691  2.617607
   H ( 11)  1.938856  2.376388  2.709831  3.938633  2.726316  0.966882
   O ( 12)  2.372231  3.633192  1.494694  2.339964  2.337851  2.786705
   O ( 13)  3.563996  4.688253  2.311804  2.715797  2.710484  4.000519
             H (  7)   H (  8)   H (  9)   H ( 10)   H ( 11)   O ( 12)
   H (  8)  2.248726
   H (  9)  2.379081  2.554627
   H ( 10)  3.605988  3.913777  3.803709
   H ( 11)  2.815480  3.313323  4.302371  2.269514
   O ( 12)  2.527386  3.942336  2.599182  2.486437  3.290375
   O ( 13)  3.749667  4.908143  3.116233  2.934365  4.359955  1.300403

 
 Requested basis set is 6-311++G(2df,2p)
 There are 94 shells and 322 basis functions
 A cutoff of  1.0D-12 yielded   4135 shell pairs
 There are     48817 function pairs (     61629 Cartesian)
 Smallest overlap matrix eigenvalue = 3.64E-05
 Guess MOs from SCF MO coefficient file

 -----------------------------------------------------------------------
  General SCF calculation program by
  Eric Jon Sundstrom, Paul Horn, Yuezhi Mao, Dmitri Zuev, Alec White,
  David Stuck, Shaama M.S., Shane Yost, Joonho Lee, David Small,
  Daniel Levine, Susi Lehtola, Hugh Burton, Evgeny Epifanovsky,
  Bang C. Huynh
 -----------------------------------------------------------------------
 Exchange:     0.1500 Hartree-Fock + 1.0000 wB97M-V + LR-HF
 Correlation:  1.0000 wB97M-V
 Using SG-2 standard quadrature grid
 Nonlocal Correlation:  VV10 with C = 0.0100 and b = 6.00 and scale = 1.00000
 Grid used for NLC:  SG-1 standard quadrature
 
 Citation of the SMD model:
 Marenich, A.V.; Cramer, C.J.; Truhlar, D.G.
 J. Phys. Chem. B 2009, 113, 6378-6396.
 iSolventCode=           1
 Solvent: water                                                           
 
 vradii
            1           2           3           4           5           6
    1   1.8500000   1.5200000   1.8500000   1.5200000   1.5200000   1.5200000
            7           8           9          10          11          12
    1   1.2000000   1.2000000   1.2000000   1.2000000   1.2000000   1.5200000
           13
    1   1.5200000
 -------------------------------------------------------
 OpenMP BLAS3 based DFT computing Module                
 Release: version 1.0, May 2013, Q-Chem Inc. Pittsburgh 
 -------------------------------------------------------
 A unrestricted SCF calculation will be
 performed using Roothaan-Hall, DIIS, GDM
 SCF converges when RMS gradient is below 1.0e-07
 ---------------------------------------
  Cycle       Energy         DIIS error
 ---------------------------------------
    1    -530.4475086250      3.50e-04  Roothaan Step
 ---------------------------------------
  Cycle       Energy         DIIS error
 ---------------------------------------
    1    -530.4934924908      4.06e-04  
    2    -530.5006816252      3.55e-04  Done DIIS. Switching to GDM
 ---------------------------------------
  Cycle       Energy        RMS Gradient
 ---------------------------------------
    1    -530.5006816252      2.51e-02   Normal BFGS step
    2    -530.4987771384      4.12e-02  Line search: overstep
    3    -530.5047613612      4.44e-03   Normal BFGS step
    4    -530.5049816509      1.31e-03   Normal BFGS step
    5    -530.5050442273      1.16e-03   Normal BFGS step
    6    -530.5050554810      4.16e-04   Normal BFGS step
    7    -530.5050567162      2.50e-04   Normal BFGS step
    8    -530.5050571747      1.08e-04   Normal BFGS step
    9    -530.5050573104      2.12e-05   Normal BFGS step
   10    -530.5050573212      1.99e-05   Normal BFGS step
   11    -530.5050573245      1.82e-05   Normal BFGS step
   12    -530.5050573254      1.61e-05   Normal BFGS step
   13    -530.5050573264      1.13e-05   Normal BFGS step
   14    -530.5050573273      4.44e-06   Normal BFGS step
   15    -530.5050573276      1.35e-06   Normal BFGS step
   16    -530.5050573277      5.42e-07   Normal BFGS step
   17    -530.5050573277      2.13e-07   Normal BFGS step
   18    -530.5050573277      9.68e-08  Convergence criterion met
 ---------------------------------------
 SCF time:   CPU 1099.90s  wall 140.00s 
<S^2> =          0.753791875
(3)  G-ENP(liq) elect-nuc-pol free energy of system     -530.505057328 a.u.
(4)  G-CDS(liq) cavity-dispersion-solvent structure 
     free energy                                                2.8777 kcal/mol
(6)  G-S(liq) free energy of system                     -530.500471462 a.u.
 SCF   energy in the final basis set =     -530.5004714619
 Total energy in the final basis set =     -530.5004714619
 
 --------------------------------------------------------------
 
                    Orbital Energies (a.u.)
 --------------------------------------------------------------
 
 Alpha MOs
 -- Occupied --
-19.4611 -19.4239 -19.3730 -19.3721 -19.3585 -19.3545 -10.5220 -10.4628
 -1.3538  -1.2459  -1.2095  -1.1737  -1.1456  -1.0079  -0.8423  -0.7820
 -0.7071  -0.6832  -0.6658  -0.6586  -0.6133  -0.6051  -0.5955  -0.5392
 -0.5271  -0.5066  -0.4896  -0.4743  -0.4540  -0.4346  -0.4160  -0.4037
 -0.3861
 -- Virtual --
  0.0267   0.0404   0.0538   0.0590   0.0744   0.0959   0.1008   0.1058
  0.1223   0.1343   0.1428   0.1527   0.1630   0.1719   0.1968   0.2075
  0.2179   0.2269   0.2337   0.2440   0.2513   0.2638   0.2724   0.2759
  0.2839   0.2973   0.3050   0.3058   0.3098   0.3233   0.3260   0.3325
  0.3421   0.3531   0.3564   0.3639   0.3676   0.3769   0.3846   0.3860
  0.4047   0.4067   0.4245   0.4304   0.4346   0.4501   0.4698   0.4713
  0.5217   0.5844   0.5959   0.6048   0.6284   0.6457   0.6619   0.7037
  0.7088   0.7154   0.7346   0.7585   0.7890   0.8124   0.8387   0.8553
  0.8942   0.9118   0.9465   0.9666   0.9804   1.0132   1.0464   1.0614
  1.0663   1.0866   1.0984   1.1092   1.1245   1.1383   1.1400   1.1518
  1.1688   1.1718   1.1882   1.2060   1.2125   1.2276   1.2404   1.2455
  1.2779   1.2877   1.2986   1.3125   1.3358   1.3897   1.3987   1.4077
  1.4597   1.4734   1.4931   1.5132   1.5240   1.5454   1.5595   1.5831
  1.5910   1.6110   1.6140   1.6370   1.6601   1.6892   1.6904   1.7547
  1.7652   1.8283   1.8768   1.9030   1.9103   1.9372   1.9491   1.9779
  2.0442   2.0731   2.1164   2.1558   2.1982   2.2362   2.2525   2.2841
  2.2999   2.3314   2.3573   2.3700   2.4007   2.4172   2.4191   2.4694
  2.5043   2.5224   2.5307   2.5932   2.7053   2.7503   2.7762   2.8408
  2.9013   2.9704   3.0588   3.1022   3.1496   3.2173   3.2675   3.3141
  3.3612   3.3642   3.4078   3.4480   3.4710   3.5037   3.5433   3.5998
  3.6311   3.6449   3.6664   3.6773   3.7311   3.7349   3.7823   3.8233
  3.8315   3.8464   3.8574   3.8834   3.9024   3.9369   3.9571   4.0447
  4.0807   4.1303   4.1945   4.2020   4.2466   4.2602   4.2664   4.2999
  4.3216   4.4092   4.4119   4.4472   4.5318   4.5755   4.7063   4.7464
  4.7911   4.8822   5.0039   5.0265   5.0664   5.0826   5.1335   5.1492
  5.2006   5.2070   5.2196   5.2322   5.2341   5.2466   5.2468   5.2709
  5.2756   5.2870   5.3152   5.3275   5.3399   5.3509   5.3687   5.4007
  5.4280   5.4502   5.4693   5.5056   5.5343   5.5537   5.5908   5.6196
  5.6313   5.6422   5.6681   5.6904   5.7080   5.7330   5.8037   5.8991
  5.9697   6.0057   6.0105   6.0627   6.1259   6.1471   6.1904   6.2196
  6.4790   6.5424   6.5800   6.6347   6.7814   6.8036   6.8645   6.9207
  6.9446   7.0259   7.0536   7.0840   7.1033   7.1366   7.1493   7.1797
  7.2302   7.2568   7.2822   7.3053   7.3205   7.3277   7.3519   7.3605
  7.3826   7.4109   7.4354   7.4474   7.5106   7.5987   7.6267   7.6956
  7.7032   7.7245   7.7794   7.8497   7.8517   7.8685   7.8977   8.0926
  8.1598  24.7638  24.8831  50.4219  50.5423  50.5792  50.5875  50.6381
 50.6827
 
 Beta MOs
 -- Occupied --
-19.4514 -19.4046 -19.3729 -19.3720 -19.3584 -19.3545 -10.5223 -10.4629
 -1.3302  -1.2420  -1.2092  -1.1733  -1.1455  -0.9746  -0.8359  -0.7810
 -0.6980  -0.6816  -0.6619  -0.6476  -0.6003  -0.5849  -0.5613  -0.5278
 -0.5178  -0.5037  -0.4887  -0.4721  -0.4483  -0.4320  -0.4053  -0.3770
 -- Virtual --
 -0.0341   0.0268   0.0406   0.0540   0.0592   0.0746   0.0969   0.1015
  0.1067   0.1227   0.1348   0.1430   0.1536   0.1638   0.1788   0.1987
  0.2092   0.2187   0.2291   0.2343   0.2459   0.2543   0.2650   0.2758
  0.2795   0.2874   0.2973   0.3067   0.3087   0.3111   0.3246   0.3277
  0.3337   0.3433   0.3545   0.3573   0.3648   0.3693   0.3777   0.3852
  0.3874   0.4051   0.4086   0.4257   0.4320   0.4353   0.4514   0.4708
  0.4723   0.5222   0.5847   0.5960   0.6051   0.6287   0.6463   0.6620
  0.7037   0.7090   0.7159   0.7355   0.7589   0.7900   0.8131   0.8389
  0.8563   0.8944   0.9143   0.9479   0.9673   0.9819   1.0141   1.0469
  1.0660   1.0761   1.0902   1.1001   1.1105   1.1290   1.1389   1.1440
  1.1561   1.1725   1.1838   1.1915   1.2161   1.2230   1.2343   1.2416
  1.2526   1.2786   1.2912   1.2997   1.3137   1.3374   1.3902   1.4061
  1.4109   1.4618   1.4762   1.4958   1.5148   1.5273   1.5469   1.5682
  1.5912   1.6040   1.6147   1.6249   1.6417   1.6647   1.6922   1.6983
  1.7686   1.7772   1.8398   1.8806   1.9053   1.9146   1.9383   1.9516
  1.9807   2.0462   2.0756   2.1176   2.1587   2.2039   2.2414   2.2563
  2.2960   2.3058   2.3392   2.3586   2.3719   2.4029   2.4193   2.4223
  2.4723   2.5050   2.5245   2.5333   2.5945   2.7066   2.7583   2.7770
  2.8415   2.9018   2.9712   3.0595   3.1029   3.1502   3.2174   3.2681
  3.3143   3.3613   3.3645   3.4083   3.4486   3.4711   3.5044   3.5434
  3.6001   3.6308   3.6447   3.6673   3.6772   3.7314   3.7355   3.7827
  3.8239   3.8315   3.8470   3.8576   3.8836   3.9026   3.9370   3.9579
  4.0451   4.0806   4.1311   4.1947   4.2022   4.2468   4.2604   4.2664
  4.3000   4.3218   4.4095   4.4122   4.4476   4.5339   4.6101   4.7261
  4.7477   4.8160   4.8928   5.0205   5.0812   5.1227   5.1294   5.1686
  5.1767   5.2056   5.2242   5.2343   5.2428   5.2520   5.2578   5.2686
  5.2739   5.2821   5.2888   5.3190   5.3309   5.3444   5.3581   5.3734
  5.4080   5.4345   5.4535   5.4744   5.5143   5.5392   5.5580   5.5988
  5.6261   5.6417   5.6505   5.6696   5.6920   5.7155   5.7345   5.8074
  5.9002   5.9711   6.0060   6.0123   6.0660   6.1268   6.1492   6.1965
  6.2246   6.5191   6.5503   6.5908   6.6420   6.7861   6.8610   6.9424
  6.9533   6.9955   7.0354   7.0674   7.0888   7.1065   7.1526   7.1662
  7.2082   7.2350   7.2621   7.2854   7.3058   7.3232   7.3287   7.3577
  7.3681   7.3915   7.4171   7.4466   7.4782   7.5174   7.6110   7.6274
  7.6989   7.7050   7.7253   7.7865   7.8508   7.8563   7.8700   7.9039
  8.1028   8.1767  24.7637  24.8829  50.4351  50.5488  50.5797  50.5887
 50.6391  50.6829
 --------------------------------------------------------------
 
          Ground-State Mulliken Net Atomic Charges

     Atom                 Charge (a.u.)    Spin (a.u.)
  --------------------------------------------------------
      1 C                     0.033825       0.000289
      2 O                    -0.438899      -0.000915
      3 C                     0.158942      -0.001142
      4 O                    -0.429198       0.003419
      5 O                    -0.425968       0.003601
      6 O                    -0.429656       0.003841
      7 H                     0.316031       0.000427
      8 H                     0.342392      -0.000073
      9 H                     0.360419      -0.000082
     10 H                     0.359014      -0.000124
     11 H                     0.347366      -0.000631
     12 O                     0.036712       0.295122
     13 O                    -0.230980       0.696269
  --------------------------------------------------------
  Sum of atomic charges =    -0.000000
  Sum of spin   charges =     1.000000

 -----------------------------------------------------------------
                    Cartesian Multipole Moments
 -----------------------------------------------------------------
    Charge (ESU x 10^10)
                 0.0000
    Dipole Moment (Debye)
         X       3.0336      Y      -2.2609      Z       0.7847
       Tot       3.8640
    Quadrupole Moments (Debye-Ang)
        XX     -58.2379     XY       0.7418     YY     -34.2768
        XZ      -4.2717     YZ      -8.4144     ZZ     -51.2698
    Octopole Moments (Debye-Ang^2)
       XXX     -19.5274    XXY      -3.1842    XYY       5.3117
       YYY     -15.1234    XXZ      43.3882    XYZ      -3.5749
       YYZ      22.7670    XZZ       1.4500    YZZ      14.7295
       ZZZ     130.3815
    Hexadecapole Moments (Debye-Ang^3)
      XXXX    -657.0738   XXXY      48.5589   XXYY    -125.7774
      XYYY      18.7276   YYYY    -182.9721   XXXZ      37.1906
      XXYZ     -26.7803   XYYZ      -9.7901   YYYZ     -35.7259
      XXZZ    -171.1843   XYZZ      18.1747   YYZZ     -80.9996
      XZZZ      27.4213   YZZZ     -55.7553   ZZZZ    -421.7682
 -----------------------------------------------------------------
 Calculating analytic gradient of the SCF energy
 Gradient of CDS energy
            1           2           3           4           5           6
    1   0.0039628  -0.0015880  -0.0026033   0.0019688   0.0004924  -0.0022446
    2   0.0027253   0.0016552  -0.0017144   0.0041223  -0.0024209  -0.0042888
    3  -0.0009041   0.0016422  -0.0045977   0.0004305   0.0040726  -0.0005016
            7           8           9          10          11          12
    1  -0.0002160   0.0002797  -0.0002382  -0.0001157   0.0003615  -0.0000530
    2   0.0000115  -0.0003980  -0.0003344   0.0003326   0.0002926   0.0000058
    3   0.0001317  -0.0001661   0.0002035  -0.0002286  -0.0001065  -0.0000287
           13
    1  -0.0000063
    2   0.0000111
    3   0.0000528
 Gradient of SCF Energy
            1           2           3           4           5           6
    1   0.0032165   0.0059490   0.0045381  -0.0116668  -0.0115630  -0.0007357
    2   0.0099021   0.0175342   0.0020048   0.0173377  -0.0209238  -0.0071591
    3  -0.0154766  -0.0053093   0.0046515  -0.0220467  -0.0035295   0.0201339
            7           8           9          10          11          12
    1  -0.0020817  -0.0059320   0.0098281   0.0085633   0.0007492  -0.0008823
    2  -0.0107374  -0.0191444  -0.0147707   0.0171710   0.0082879   0.0022086
    3   0.0116769   0.0053885   0.0186870   0.0005636  -0.0149639   0.0030331
           13
    1   0.0000173
    2  -0.0017109
    3  -0.0028084
 Max gradient component =       2.205E-02
 RMS gradient           =       1.106E-02
 Computing fast CPCM-SWIG gradient
 Updating gradient with PCM contributions...
 -- total gradient after adding PCM contribution --
---------------------------------------------------
  Atom         X              Y              Z     
---------------------------------------------------
   1       0.000024       0.001181      -0.000083
   2       0.000124      -0.000280      -0.000101
   3      -0.000076      -0.000136       0.000074
   4      -0.000056      -0.000019      -0.000002
   5       0.000115      -0.000069      -0.000013
   6      -0.000181      -0.000388       0.000028
   7       0.000015      -0.000166       0.000218
   8       0.000062      -0.000080      -0.000038
   9       0.000008       0.000007       0.000031
  10      -0.000060       0.000007      -0.000024
  11      -0.000030      -0.000029      -0.000039
  12      -0.000010      -0.000005      -0.000049
  13       0.000066      -0.000024      -0.000004
---------------------------------------------------
 Number of fixed atoms: 0
 Gradient time:  CPU 158.41 s  wall 23.15 s
 ----------------------------------------------------------------
             Standard Nuclear Orientation (Angstroms)
    I     Atom           X                Y                Z
 ----------------------------------------------------------------
    1      C       1.2493107492    -0.2590111835    -0.4827676067
    2      O       1.9927263652    -1.0207482297    -1.3997807103
    3      C      -0.2039918526    -0.1362529214    -0.9850292355
    4      O      -0.8203761918    -1.3466401861    -1.1420558953
    5      O      -0.3701545085     0.5308123875    -2.1673602266
[...]
 Raman Active:       YES                    YES                    YES
               X      Y      Z        X      Y      Z        X      Y      Z
 C          0.009 -0.071 -0.033   -0.008 -0.047 -0.016   -0.009 -0.018 -0.013
 O          0.039  0.217 -0.251   -0.042  0.068 -0.142   -0.004 -0.017 -0.006
 C         -0.013 -0.093  0.033    0.012  0.078 -0.036   -0.000 -0.016 -0.027
 O         -0.013 -0.113  0.142   -0.103  0.121  0.171   -0.034  0.009 -0.031
 O         -0.054 -0.178 -0.007    0.099 -0.103 -0.168    0.008  0.002 -0.023
 O         -0.098 -0.053  0.259    0.074 -0.120  0.246   -0.072  0.016  0.012
 H          0.085 -0.314 -0.146   -0.061 -0.229 -0.102   -0.013 -0.029 -0.022
 H          0.238  0.156 -0.354    0.017  0.048 -0.194    0.694 -0.124  0.666
 H          0.076 -0.080  0.144   -0.054  0.174  0.198    0.106 -0.069 -0.125
 H         -0.141 -0.142 -0.047    0.052 -0.078 -0.257   -0.063  0.024  0.015
 H         -0.204  0.209  0.342   -0.034  0.122  0.320   -0.068  0.036  0.022
 O          0.027 -0.027  0.004    0.080  0.400 -0.227    0.039  0.010 -0.011
 O          0.098  0.287 -0.144   -0.106 -0.391  0.160    0.029  0.015  0.054
 TransDip   0.018 -0.008 -0.009   -0.009  0.051 -0.015    0.343 -0.115  0.232

 Mode:                 4                      5                      6
 Frequency:       189.66                 236.96                 266.39
 Force Cnst:      0.0954                 0.0389                 0.2127
 Red. Mass:       4.5021                 1.1768                 5.0862
 IR Active:          YES                    YES                    YES
 IR Intens:       56.695                412.790                 42.520
 Raman Active:       YES                    YES                    YES
               X      Y      Z        X      Y      Z        X      Y      Z
 C         -0.058 -0.019 -0.010    0.004 -0.005 -0.003    0.012 -0.070  0.050
 O          0.196  0.037  0.162   -0.011  0.042 -0.046   -0.016  0.046 -0.070
 C         -0.025 -0.056 -0.118    0.002 -0.005  0.014    0.020 -0.076  0.122
 O         -0.109 -0.012 -0.102   -0.031  0.010  0.023   -0.168  0.042  0.029
 O         -0.038 -0.061 -0.110    0.025  0.001  0.028    0.358 -0.013  0.091
 O         -0.187  0.042  0.019   -0.019  0.020 -0.019   -0.209  0.064 -0.147
 H         -0.173  0.024  0.013    0.024 -0.026 -0.013    0.232 -0.032  0.070
 H         -0.416  0.121 -0.522    0.172  0.009  0.083   -0.155  0.054 -0.320
 H         -0.246  0.020 -0.043   -0.171  0.072  0.104   -0.116 -0.107 -0.094
 H          0.283 -0.166 -0.221    0.647 -0.207 -0.153   -0.326  0.199  0.447
 H          0.177 -0.138  0.027    0.569 -0.309 -0.022   -0.325 -0.032 -0.212
 O          0.126 -0.001 -0.036   -0.028 -0.020  0.027    0.027  0.017  0.019
 O          0.098  0.061  0.210   -0.019 -0.017 -0.020    0.027 -0.051 -0.044
 TransDip  -0.038 -0.069 -0.228    0.595 -0.263 -0.008   -0.186 -0.060  0.073

 Mode:                 7                      8                      9
 Frequency:       322.42                 371.58                 379.97
 Force Cnst:      0.6568                 0.1136                 0.5933
 Red. Mass:      10.7232                 1.3960                 6.9746
 IR Active:          YES                    YES                    YES
 IR Intens:       24.576                300.828                 28.396
 Raman Active:       YES                    YES                    YES
               X      Y      Z        X      Y      Z        X      Y      Z
 C          0.095 -0.110 -0.091   -0.026 -0.032  0.009   -0.099  0.036  0.005
 O          0.394 -0.028  0.075   -0.023 -0.014 -0.001   -0.260 -0.091  0.002
 C         -0.002 -0.006  0.025    0.003 -0.014  0.004    0.051  0.059  0.006
 O         -0.318  0.147  0.161    0.070 -0.038  0.015    0.126  0.003  0.040
 O         -0.311  0.175  0.166   -0.014  0.037  0.038   -0.106  0.097  0.037
 O         -0.005 -0.071 -0.043   -0.071 -0.016 -0.009   -0.221  0.089  0.085
 H          0.035 -0.105 -0.086   -0.031 -0.038  0.009   -0.144  0.044  0.009
 H          0.363 -0.042 -0.124   -0.115 -0.004 -0.139   -0.410 -0.041  0.110
 H          0.232 -0.132 -0.188    0.756 -0.323 -0.371   -0.348  0.288  0.372
 H         -0.143  0.113  0.181    0.109 -0.008  0.061    0.158  0.009 -0.054
 H         -0.019 -0.039 -0.033    0.252 -0.215 -0.018   -0.007  0.074  0.128
 O          0.054  0.061  0.031    0.005  0.085 -0.031    0.259 -0.032 -0.031
 O          0.086 -0.184 -0.324   -0.011  0.016  0.007    0.285 -0.161 -0.175
 TransDip   0.124 -0.072 -0.068    0.444 -0.261 -0.209   -0.063  0.113  0.112

 Mode:                10                     11                     12
 Frequency:       434.96                 489.79                 531.57
 Force Cnst:      0.3238                 0.7341                 0.3697
 Red. Mass:       2.9053                 5.1936                 2.2207
 IR Active:          YES                    YES                    YES
 IR Intens:       58.692                 45.263                 30.221
 Raman Active:       YES                    YES                    YES
               X      Y      Z        X      Y      Z        X      Y      Z
 C          0.007 -0.105 -0.036   -0.007 -0.030 -0.170    0.091 -0.011 -0.015
 O          0.105 -0.044 -0.028    0.088 -0.163 -0.029    0.010 -0.101 -0.042
 C          0.008 -0.014  0.012    0.047  0.121 -0.118    0.056 -0.012  0.056
 O          0.174 -0.081 -0.024    0.069  0.110  0.243    0.015  0.058 -0.114
 O         -0.024  0.086  0.085    0.115  0.099 -0.160   -0.037 -0.096  0.058
 O         -0.115 -0.061 -0.040   -0.149 -0.009  0.030   -0.046  0.061  0.022
 H          0.018 -0.141 -0.053   -0.124 -0.061 -0.185    0.181  0.004 -0.010
 H          0.183 -0.064 -0.033   -0.125 -0.115 -0.065   -0.139 -0.063 -0.014
 H         -0.616  0.328  0.483    0.464  0.238  0.239   -0.035 -0.113 -0.231
 H         -0.108  0.105  0.219    0.261  0.056 -0.238    0.489 -0.257 -0.329
 H         -0.033 -0.121 -0.045   -0.249  0.286  0.131   -0.450  0.411  0.076
 O         -0.040  0.143 -0.040   -0.102 -0.156  0.109   -0.030  0.100  0.096
 O         -0.076  0.039  0.030   -0.065  0.024  0.031   -0.025 -0.003 -0.019
 TransDip  -0.194  0.013  0.149    0.095  0.137 -0.136    0.117 -0.023 -0.130

 Mode:                13                     14                     15
 Frequency:       589.66                 626.08                 731.89
 Force Cnst:      0.9006                 0.3971                 2.1368
 Red. Mass:       4.3962                 1.7196                 6.7704
 IR Active:          YES                    YES                    YES
 IR Intens:       11.769                  8.289                 16.915
 Raman Active:       YES                    YES                    YES
               X      Y      Z        X      Y      Z        X      Y      Z
 C         -0.101 -0.089  0.084    0.093  0.020 -0.035   -0.213  0.145 -0.267
 O         -0.002  0.117  0.033    0.009 -0.101 -0.044    0.020  0.011  0.043
 C          0.040  0.129  0.045    0.038 -0.005 -0.005   -0.088 -0.094 -0.123
 O          0.127  0.189 -0.064   -0.014  0.039 -0.024   -0.043 -0.225 -0.035
 O         -0.033 -0.148 -0.104   -0.020 -0.060 -0.024    0.126  0.009 -0.024
 O         -0.060 -0.149 -0.081   -0.026  0.105  0.075    0.078 -0.014  0.023
 H         -0.165 -0.148  0.059    0.108 -0.008 -0.048   -0.433  0.183 -0.252
 H          0.244  0.043 -0.108   -0.164 -0.051  0.035   -0.049  0.039  0.136
 H          0.022  0.117 -0.097   -0.086  0.006 -0.032   -0.032 -0.102  0.064
 H         -0.464  0.025 -0.298   -0.580  0.126  0.201   -0.016  0.037  0.298
 H          0.054 -0.513 -0.205    0.667 -0.222  0.093    0.227  0.276  0.175
 O         -0.006  0.033  0.219   -0.022  0.011  0.033   -0.004  0.215  0.345
 O          0.041 -0.042 -0.058   -0.022  0.005 -0.002    0.067 -0.062 -0.085
 TransDip  -0.064 -0.062 -0.064    0.077 -0.027  0.043   -0.082  0.062 -0.082

 Mode:                16                     17                     18
 Frequency:       830.54                 902.26                1096.29
 Force Cnst:      3.0277                 3.5362                 1.9608
 Red. Mass:       7.4498                 7.3726                 2.7691
 IR Active:          YES                    YES                    YES
 IR Intens:      163.384                216.717                378.164
 Raman Active:       YES                    YES                    YES
               X      Y      Z        X      Y      Z        X      Y      Z
 C          0.222 -0.115  0.328    0.093 -0.073  0.078   -0.017 -0.040  0.048
 O         -0.108  0.045 -0.024    0.079 -0.074 -0.044    0.008 -0.031 -0.028
 C          0.211 -0.199 -0.267   -0.351  0.273  0.368    0.057  0.223 -0.142
 O         -0.082 -0.137  0.043   -0.028 -0.230 -0.050   -0.086 -0.125 -0.043
 O         -0.080  0.195 -0.231    0.020  0.116 -0.258    0.036 -0.051  0.158
 O         -0.005  0.049 -0.010    0.000  0.069  0.020    0.019  0.070  0.018
 H          0.319 -0.061  0.353    0.430 -0.155  0.045   -0.245 -0.081  0.021
 H          0.003  0.008 -0.109    0.055 -0.070 -0.041    0.138 -0.077 -0.161
 H         -0.016  0.044  0.171    0.010 -0.186 -0.020    0.337  0.376  0.236
 H          0.070  0.132 -0.032    0.041  0.130 -0.434   -0.207  0.088 -0.540
 H         -0.303 -0.236 -0.196    0.019 -0.121 -0.056   -0.123 -0.234 -0.145
 O         -0.053  0.102  0.187    0.063  0.016  0.061   -0.004 -0.000  0.000
 O         -0.001 -0.011 -0.022    0.024 -0.023 -0.032    0.003 -0.004  0.002
 TransDip   0.315 -0.252 -0.068   -0.270  0.206  0.328    0.101  0.471 -0.394

 Mode:                19                     20                     21
 Frequency:      1109.36                1186.60                1217.88
 Force Cnst:      1.9470                 1.4625                 1.0494
 Red. Mass:       2.6852                 1.7629                 1.2008
 IR Active:          YES                    YES                    YES
 IR Intens:      288.035                 69.161                224.946
 Raman Active:       YES                    YES                    YES
               X      Y      Z        X      Y      Z        X      Y      Z
 C         -0.139 -0.124  0.068   -0.063 -0.021 -0.052    0.041 -0.025 -0.014
 O          0.013 -0.072 -0.034   -0.019 -0.010  0.014   -0.052  0.008  0.049
 C         -0.138 -0.089 -0.038    0.190  0.012  0.101    0.014  0.034  0.004
 O          0.058  0.084  0.011   -0.012 -0.041  0.036   -0.015 -0.014 -0.017
 O         -0.001 -0.013 -0.013   -0.007  0.044 -0.028   -0.005 -0.009 -0.004
 O          0.094  0.185  0.027    0.017  0.044  0.006   -0.027 -0.044 -0.031
 H         -0.228 -0.032  0.107   -0.414  0.021 -0.040    0.184  0.359  0.172
 H          0.496 -0.246 -0.575    0.242 -0.101 -0.272    0.383 -0.139 -0.422
 H          0.038  0.085  0.014   -0.401 -0.528 -0.241    0.098  0.145  0.077
 H          0.129 -0.089  0.324   -0.097  0.100 -0.318   -0.036  0.000  0.048
 H         -0.119 -0.039 -0.120    0.002 -0.025 -0.029    0.317  0.484  0.273
 O         -0.006  0.004  0.006    0.009 -0.010 -0.014    0.015 -0.002  0.004
 O          0.031 -0.008 -0.004   -0.041  0.013  0.006   -0.016  0.002 -0.003
 TransDip  -0.210 -0.498 -0.060    0.012 -0.245 -0.103    0.403  0.238 -0.108

 Mode:                22                     23                     24
 Frequency:      1252.30                1275.16                1352.64
 Force Cnst:      2.6900                 5.4565                 1.5264
 Red. Mass:       2.9113                 5.6956                 1.4160
 IR Active:          YES                    YES                    YES
 IR Intens:      115.075                 72.619                120.256
 Raman Active:       YES                    YES                    YES
               X      Y      Z        X      Y      Z        X      Y      Z
 C         -0.044  0.199  0.144   -0.021  0.129  0.106    0.079 -0.033  0.027
 O          0.090 -0.087 -0.144    0.062 -0.051 -0.107   -0.004  0.012 -0.009
 C         -0.007 -0.005  0.013   -0.016 -0.016 -0.021    0.036  0.134  0.004
 O          0.001 -0.003  0.008   -0.004  0.009 -0.010   -0.016 -0.029 -0.005
 O          0.004  0.009 -0.001   -0.006 -0.015 -0.008   -0.023 -0.044 -0.034
 O         -0.043 -0.091  0.010   -0.021 -0.044  0.018   -0.010  0.002 -0.026
 H         -0.262  0.745  0.401   -0.407  0.502  0.281   -0.567 -0.110 -0.008
 H          0.102 -0.090 -0.084   -0.022 -0.022  0.042   -0.061  0.033  0.067
 H         -0.102 -0.119 -0.055    0.079  0.105  0.042   -0.032 -0.068 -0.035
 H         -0.021  0.024 -0.085    0.111 -0.079  0.264    0.213 -0.179  0.721
 H         -0.003 -0.100  0.019   -0.145 -0.213 -0.080   -0.020  0.132  0.028
 O         -0.126  0.015 -0.029    0.368 -0.047  0.080   -0.029 -0.001 -0.004
 O          0.130 -0.018  0.025   -0.345  0.045 -0.071    0.023 -0.003  0.006
 TransDip  -0.015  0.281  0.197   -0.205  0.137  0.117    0.152  0.134  0.287

 Mode:                25                     26                     27
 Frequency:      1390.93                1414.43                1430.34
 Force Cnst:      1.9047                 1.9332                 2.7197
 Red. Mass:       1.6710                 1.6401                 2.2563
 IR Active:          YES                    YES                    YES
 IR Intens:       70.413                 85.209                196.245
 Raman Active:       YES                    YES                    YES
               X      Y      Z        X      Y      Z        X      Y      Z
 C         -0.081 -0.113  0.108   -0.031 -0.093 -0.005    0.211 -0.107 -0.097
 O          0.047  0.011 -0.052    0.022  0.021 -0.032   -0.049  0.050  0.030
 C         -0.040  0.043 -0.093    0.061 -0.108  0.142   -0.160 -0.035 -0.060
 O          0.028  0.005  0.039   -0.027  0.006 -0.049    0.040  0.029  0.029
 O          0.010 -0.000  0.031   -0.008  0.026 -0.032    0.031  0.007  0.044
 O          0.014  0.019 -0.055    0.019  0.028 -0.017   -0.011  0.003  0.028
 H          0.022 -0.048  0.153   -0.471  0.150  0.126   -0.553  0.528  0.204
 H         -0.285  0.120  0.324   -0.230  0.103  0.252   -0.043  0.053  0.051
 H         -0.236 -0.332 -0.162    0.379  0.502  0.243   -0.163 -0.206 -0.107
 H         -0.103  0.059 -0.195   -0.065  0.055 -0.184   -0.096  0.074 -0.332
 H          0.334  0.549  0.246    0.127  0.200  0.080   -0.099 -0.192 -0.075
 O          0.020 -0.004  0.008   -0.017  0.003 -0.011    0.001  0.005  0.007
 O         -0.012 -0.000 -0.005    0.005  0.003  0.006    0.009 -0.004 -0.004
 TransDip  -0.233  0.116 -0.068    0.037  0.009  0.293   -0.015 -0.313 -0.321

 Mode:                28                     29                     30
 Frequency:      1456.29                3091.95                3780.95
 Force Cnst:      1.9225                 6.1291                 8.9805
 Red. Mass:       1.5386                 1.0881                 1.0662
 IR Active:          YES                    YES                    YES
 IR Intens:       31.892                 31.524                 91.294
 Raman Active:       YES                    YES                    YES
               X      Y      Z        X      Y      Z        X      Y      Z
 C         -0.089 -0.127 -0.083   -0.000  0.037 -0.077   -0.000  0.001 -0.002
 O          0.013  0.024 -0.006   -0.001 -0.001  0.000   -0.000 -0.002  0.000
 C          0.070  0.073 -0.001    0.001  0.001 -0.001   -0.000 -0.001 -0.000
 O         -0.008 -0.016 -0.000   -0.000 -0.000 -0.000   -0.001  0.002 -0.003
 O         -0.015 -0.015 -0.016    0.000 -0.000  0.000   -0.005 -0.014 -0.001
 O          0.021  0.026  0.046    0.000  0.000  0.002    0.013  0.024 -0.054
 H          0.463  0.635  0.274    0.002 -0.427  0.900   -0.001 -0.007  0.012
 H         -0.159  0.079  0.192    0.007  0.000 -0.003    0.008  0.030 -0.004
 H         -0.018 -0.041 -0.017   -0.003 -0.005  0.001    0.011 -0.034  0.045
 H          0.093 -0.070  0.273    0.001 -0.000  0.001    0.075  0.214  0.015
 H         -0.161 -0.252 -0.114   -0.003 -0.002 -0.018   -0.202 -0.371  0.873
 O         -0.011 -0.002 -0.003   -0.000 -0.000 -0.000    0.000 -0.000 -0.000
 O          0.001  0.001  0.004   -0.000  0.000  0.000   -0.000  0.000  0.000
 TransDip  -0.098 -0.150  0.025    0.078  0.066 -0.148   -0.092 -0.111  0.270

 Mode:                31                     32                     33
 Frequency:      3789.10                3795.49                3817.47
 Force Cnst:      9.0213                 9.0485                 9.1567
 Red. Mass:       1.0665                 1.0661                 1.0664
 IR Active:          YES                    YES                    YES
 IR Intens:      179.892                247.116                165.868
 Raman Active:       YES                    YES                    YES
               X      Y      Z        X      Y      Z        X      Y      Z
 C          0.000 -0.000  0.001    0.000 -0.000  0.000   -0.001 -0.001  0.001
 O         -0.000  0.000 -0.000   -0.000 -0.000  0.000   -0.014 -0.061  0.005
 C         -0.001  0.001 -0.001   -0.001 -0.001 -0.000    0.000 -0.000  0.000
 O         -0.011  0.038 -0.048    0.000  0.000  0.000   -0.000 -0.000  0.000
 O         -0.000 -0.001  0.000   -0.020 -0.057 -0.003    0.000  0.001 -0.000
 O         -0.001 -0.002  0.003   -0.003 -0.006  0.013   -0.000 -0.000  0.002
 H         -0.000  0.001 -0.003   -0.002  0.002 -0.004   -0.001  0.004 -0.000
 H          0.001 -0.000 -0.000    0.002  0.008 -0.001    0.233  0.966 -0.089
 H          0.188 -0.598  0.774   -0.003  0.010 -0.012    0.000  0.001 -0.001
 H          0.001  0.001  0.001    0.326  0.913  0.066   -0.005 -0.015 -0.001
 H          0.012  0.023 -0.054    0.044  0.087 -0.206    0.006  0.011 -0.026
 O          0.000 -0.000 -0.000    0.000 -0.000 -0.000   -0.000  0.000 -0.000
 O         -0.000 -0.000 -0.000   -0.000 -0.000 -0.000   -0.000  0.000  0.000
 TransDip   0.044 -0.337  0.263    0.157  0.457 -0.141    0.014  0.412  0.016

 STANDARD THERMODYNAMIC QUANTITIES AT   298.15 K  AND     1.00 ATM

   This Molecule has  0 Imaginary Frequencies
   Zero point vibrational energy:       56.832 kcal/mol

   Atom    1 Element C  Has Mass   12.00000
   Atom    2 Element O  Has Mass   15.99491
   Atom    3 Element C  Has Mass   12.00000
   Atom    4 Element O  Has Mass   15.99491
   Atom    5 Element O  Has Mass   15.99491
   Atom    6 Element O  Has Mass   15.99491
   Atom    7 Element H  Has Mass    1.00783
   Atom    8 Element H  Has Mass    1.00783
   Atom    9 Element H  Has Mass    1.00783
   Atom   10 Element H  Has Mass    1.00783
   Atom   11 Element H  Has Mass    1.00783
   Atom   12 Element O  Has Mass   15.99491
   Atom   13 Element O  Has Mass   15.99491
   Molecular Mass:   125.008610 amu
   Principal axes and moments of inertia in amu*Bohr^2:
                             1           2           3
    Eigenvalues --      545.35422  1087.08036  1270.17927
          X               0.96768     0.25040     0.03000
          Y              -0.20236     0.84196    -0.50015
          Z              -0.15050     0.47792     0.86542
   Rotational Symmetry Number is   1
   The Molecule is an Asymmetric Top
   Translational Enthalpy:        0.889 kcal/mol
   Rotational Enthalpy:           0.889 kcal/mol
   Vibrational Enthalpy:         60.619 kcal/mol
   gas constant (RT):             0.592 kcal/mol
   Translational Entropy:        40.383  cal/mol.K
   Rotational Entropy:           28.111  cal/mol.K
   Vibrational Entropy:          22.037  cal/mol.K

   Total Enthalpy:               62.988 kcal/mol
   Total Entropy:                90.532  cal/mol.K
 Total job time:  11627.64s(wall), 89970.88s(cpu) 
 Tue Jul 18 19:48:05 2023

        *************************************************************
        *                                                           *
        *  Thank you very much for using Q-Chem.  Have a nice day.  *
        *                                                           *
        *************************************************************


