
Running Job 1 of 1 Q_in.in
qchem Q_in.in_205552.0 /scratch/ari.fischer/qChem1628443.hpc-mn1/qchem205552/ 0
/usr/local/qchem-5.4.1/exe/qcprog.exe_s Q_in.in_205552.0 /scratch/ari.fischer/qChem1628443.hpc-mn1/qchem205552/
                  Welcome to Q-Chem
     A Quantum Leap Into The Future Of Chemistry


 Q-Chem 5.4, Q-Chem, Inc., Pleasanton, CA (2021)

 License issued to: Nanyang Technological University (site)

 E. Epifanovsky,  A. T. B. Gilbert,  Xintian Feng,  Joonho Lee,  Yuezhi Mao,  
 N. Mardirossian,  P. Pokhilko,  A. White,  M. Wormit,  M. P. Coons,  
 A. L. Dempwolff,  Zhengting Gan,  D. Hait,  P. R. Horn,  L. D. Jacobson,  
 I. Kaliman,  J. Kussmann,  A. W. Lange,  Ka Un Lao,  D. S. Levine,  Jie Liu,  
 S. C. McKenzie,  A. F. Morrison,  K. Nanda,  F. Plasser,  D. R. Rehn,  
 M. L. Vidal,  Zhi-Qiang You,  Ying Zhu,  B. Alam,  B. Albrecht,  
 A. Aldossary,  E. Alguire,  J. H. Andersen,  D. Barton,  K. Begam,  A. Behn,  
 Y. A. Bernard,  E. J. Berquist,  H. Burton,  A. Carreras,  K. Carter-Fenk,  
 R. Chakraborty,  A. D. Chien,  K. D. Closser,  V. Cofer-Shabica,  
 S. Dasgupta,  Jia Deng,  M. de Wergifosse,  M. Diedenhofen,  Hainam Do,  
 S. Ehlert,  Po-Tung Fang,  S. Fatehi,  Qingguo Feng,  T. Friedhoff,  
 J. Gayvert,  Qinghui Ge,  G. Gidofalvi,  M. Goldey,  J. Gomes,  
 C. Gonzalez-Espinoza,  S. Gulania,  A. Gunina,  M. W. D. Hanson-Heine,  
 P. H. P. Harbach,  A. W. Hauser,  M. F. Herbst,  M. Hernandez Vera,  
 M. Hodecker,  Z. C. Holden,  S. Houck,  Xunkun Huang,  Kerwin Hui,  
 B. C. Huynh,  M. Ivanov,  Hyunjun Ji,  Hanjie Jiang,  B. Kaduk,  S. Kaehler,  
 K. Khistyaev,  Jaehoon Kim,  P. Klunzinger,  Z. Koczor-Benda,  
 Joong Hoon Koh,  D. Kosenkov,  L. Koulias,  T. Kowalczyk,  C. M. Krauter,  
 K. Kue,  A. Kunitsa,  T. Kus,  A. Landau,  K. V. Lawler,  D. Lefrancois,  
 S. Lehtola,  Rain Li,  Yi-Pei Li,  Jiashu Liang,  M. Liebenthal,  
 Hung-Hsuan Lin,  You-Sheng Lin,  Fenglai Liu,  Kuan-Yu Liu,  
 M. Loipersberger,  A. Luenser,  A. Manjanath,  P. Manohar,  E. Mansoor,  
 S. F. Manzer,  Shan-Ping Mao,  A. V. Marenich,  T. Markovich,  S. Mason,  
 S. A. Maurer,  P. F. McLaughlin,  M. F. S. J. Menger,  J.-M. Mewes,  
 S. A. Mewes,  P. Morgante,  J. W. Mullinax,  K. J. Oosterbaan,  G. Paran,  
 Alexander C. Paul,  Suranjan K. Paul,  F. Pavosevic,  Zheng Pei,  S. Prager,  
 E. I. Proynov,  E. Ramos,  B. Rana,  A. E. Rask,  A. Rettig,  R. M. Richard,  
 F. Rob,  E. Rossomme,  T. Scheele,  M. Scheurer,  M. Schneider,  
 N. Sergueev,  S. M. Sharada,  W. Skomorowski,  D. W. Small,  C. J. Stein,  
 Yu-Chuan Su,  E. J. Sundstrom,  Zhen Tao,  J. Thirman,  T. Tsuchimochi,  
 N. M. Tubman,  S. P. Veccham,  O. Vydrov,  J. Wenzel,  J. Witte,  A. Yamada,  
 Kun Yao,  S. Yeganeh,  S. R. Yost,  A. Zech,  Igor Ying Zhang,  Xing Zhang,  
 Yu Zhang,  D. Zuev,  A. Aspuru-Guzik,  A. T. Bell,  N. A. Besley,  
 K. B. Bravaya,  B. R. Brooks,  D. Casanova,  Jeng-Da Chai,  S. Coriani,  
 C. J. Cramer,  A. E. DePrince, III,  R. A. DiStasio Jr.,  A. Dreuw,  
 B. D. Dunietz,  T. R. Furlani,  W. A. Goddard III,  S. Grimme,  
 S. Hammes-Schiffer,  T. Head-Gordon,  W. J. Hehre,  Chao-Ping Hsu,  
 T.-C. Jagau,  Yousung Jung,  A. Klamt,  Jing Kong,  D. S. Lambrecht,  
 WanZhen Liang,  N. J. Mayhall,  C. W. McCurdy,  J. B. Neaton,  
 C. Ochsenfeld,  J. A. Parkhill,  R. Peverati,  V. A. Rassolov,  Yihan Shao,  
 L. V. Slipchenko,  T. Stauch,  R. P. Steele,  J. E. Subotnik,  
 A. J. W. Thom,  A. Tkatchenko,  D. G. Truhlar,  T. Van Voorhis,  
 T. A. Wesolowski,  K. B. Whaley,  H. L. Woodcock III,  P. M. Zimmerman,  
 S. Faraji,  P. M. W. Gill,  M. Head-Gordon,  J. M. Herbert,  A. I. Krylov

 Additional authors for Version 5.4.1: 
 S. Kotaru,  Shaozhi Li,  Xiangyuan Li,  F. Matz,  A. Molle,  Haisheng Ren,  
 Yingli Su,  Hung-Yi Tsai,  C. Utku,  Fang Wang

 Contributors to earlier versions of Q-Chem not listed above: 
 R. D. Adamson,  B. Austin,  R. Baer,  J. Baker,  G. J. O. Beran,  
 K. Brandhorst,  S. T. Brown,  E. F. C. Byrd,  A. K. Chakraborty,  
 G. K. L. Chan,  Chun-Min Chang,  Yunqing Chen,  C.-L. Cheng,  
 Siu Hung Chien,  D. M. Chipman,  D. L. Crittenden,  H. Dachsel,  
 R. J. Doerksen,  A. D. Dutoi,  R. G. Edgar,  J. Fosso-Tande,  
 L. Fusti-Molnar,  D. Ghosh,  A. Ghysels,  A. Golubeva-Zadorozhnaya,  
 J. Gonthier,  M. S. Gordon,  S. R. Gwaltney,  G. Hawkins,  J. E. Herr,  
 A. Heyden,  S. Hirata,  E. G. Hohenstein,  G. Kedziora,  F. J. Keil,  
 C. Kelley,  Jihan Kim,  R. A. King,  R. Z. Khaliullin,  P. P. Korambath,  
 W. Kurlancheek,  A. Laurent,  A. M. Lee,  M. S. Lee,  S. V. Levchenko,  
 Ching Yeh Lin,  D. Liotard,  E. Livshits,  R. C. Lochan,  I. Lotan,  
 L. A. Martinez-Martinez,  P. E. Maslen,  N. Nair,  D. P. O'Neill,  
 D. Neuhauser,  E. Neuscamman,  C. M. Oana,  R. Olivares-Amaya,  R. Olson,  
 T. M. Perrine,  B. Peters,  P. A. Pieniazek,  A. Prociuk,  Y. M. Rhee,  
 J. Ritchie,  M. A. Rohrdanz,  E. Rosta,  N. J. Russ,  H. F. Schaefer III,  
 M. W. Schmidt,  N. E. Schultz,  S. Sharma,  N. Shenvi,  C. D. Sherrill,  
 A. C. Simmonett,  A. Sodt,  T. Stein,  D. Stuck,  K. S. Thanthiriwatte,  
 V. Vanovschi,  L. Vogt,  Tao Wang,  A. Warshel,  M. A. Watson,  
 C. F. Williams,  Q. Wu,  X. Xu,  Jun Yang,  W. Zhang,  Yan Zhao

 Please cite Q-Chem as follows:
 Y. Shao et al., Mol. Phys. 113, 184-215 (2015)
 DOI: 10.1080/00268976.2014.952696

 Q-Chem 5.4.1 for Intel X86 EM64T Linux

 Parts of Q-Chem use Armadillo 9.800.1 (Horizon Scraper).
 http://arma.sourceforge.net/

 Q-Chem begins on Mon Jul 17 16:24:22 2023  

 Host: 
0

     Scratch files written to /scratch/ari.fischer/qChem1628443.hpc-mn1/qchem205552//
 Aug1521 |scratch|qcdevops|jenkins|workspace|build_RNUM 8249   
 Processing $rem in /usr/local/qchem-5.4.1/config/preferences:
 Processing $rem in /home/ari.fischer/.qchemrc:
 Symmetry turned off for PCM/SM12/SMD calculation

 Checking the input file for inconsistencies... 	...done.

--------------------------------------------------------------
User input:
--------------------------------------------------------------
$molecule
0 2
C         1.2641995745   -0.2313110438   -0.4371110567
O         2.0274586972   -1.0225802244   -1.3140840701
C        -0.1842935979   -0.1524549406   -0.9595565024
O        -0.7560807084   -1.3910749797   -1.1343063678
O        -0.3403889051    0.5006902076   -2.1545181903
O         1.8547832688    1.0337339660   -0.3484553715
H         1.2433312919   -0.6437164319    0.5797937610
H         1.4977995670   -1.8061931290   -1.5452103819
H        -0.6383353012   -1.9069541106   -0.3155834106
H         0.0328671671    1.3962993007   -2.0696821359
H         2.1205517784    1.2904364352   -1.2501243487
O        -0.8958787624    0.5859350081    0.1169801073
O        -2.1628139700    0.7343097427   -0.1871133325
$end

$rem
BASIS = 6-311++G(2df,2p)
GUI = 2
JOB_TYPE = Optimization
METHOD = wB97M-V
SCF_ALGORITHM = DIIS_GDM
MAX_SCF_CYCLES = 400
GEOM_OPT_MAX_CYCLES = 150
SCF_CONVERGENCE = 7
THRESH = 12
Solvent_method = SMD
$end
--------------------------------------------------------------
 ----------------------------------------------------------------
             Standard Nuclear Orientation (Angstroms)
    I     Atom           X                Y                Z
 ----------------------------------------------------------------
    1      C       1.2641995745    -0.2313110438    -0.4371110567
    2      O       2.0274586972    -1.0225802244    -1.3140840701
    3      C      -0.1842935979    -0.1524549406    -0.9595565024
    4      O      -0.7560807084    -1.3910749797    -1.1343063678
    5      O      -0.3403889051     0.5006902076    -2.1545181903
    6      O       1.8547832688     1.0337339660    -0.3484553715
    7      H       1.2433312919    -0.6437164319     0.5797937610
    8      H       1.4977995670    -1.8061931290    -1.5452103819
    9      H      -0.6383353012    -1.9069541106    -0.3155834106
   10      H       0.0328671671     1.3962993007    -2.0696821359
   11      H       2.1205517784     1.2904364352    -1.2501243487
   12      O      -0.8958787624     0.5859350081     0.1169801073
   13      O      -2.1628139700     0.7343097427    -0.1871133325
 ----------------------------------------------------------------
 Nuclear Repulsion Energy =         437.43435900 hartrees
 There are       33 alpha and       32 beta electrons
 Requested basis set is 6-311++G(2df,2p)
 There are 94 shells and 322 basis functions

 Total QAlloc Memory Limit 288000 MB
 Mega-Array Size       188 MB
 MEM_STATIC part       192 MB
 
 Citation of the SMD model:
 Marenich, A.V.; Cramer, C.J.; Truhlar, D.G.
 J. Phys. Chem. B 2009, 113, 6378-6396.
 iSolventCode=           1
 Solvent: water                                                           
 
 vradii
            1           2           3           4           5           6
    1   1.8500000   1.5200000   1.8500000   1.5200000   1.5200000   1.5200000
            7           8           9          10          11          12
    1   1.2000000   1.2000000   1.2000000   1.2000000   1.2000000   1.5200000
           13
    1   1.5200000
 Changing PCM_VDW_RADII to SMD_RADIUS
 Discretize the solute cavity surface with Lebedev spheres
	Using 110 Lebedev grid points for each H atom
	Using 194 Lebedev grid points for other atoms
	Atomic van der Waals radii will be scaled by 1.20
 Remove points where switching function is < 1.0e-08
 Keep 1110 surface tesserae and discard 992 interior tesserae
 Molecular Surface Area = 126.160 Angst**2
 A cutoff of  1.0D-12 yielded   4142 shell pairs
 There are     48844 function pairs (     61648 Cartesian)
 Smallest overlap matrix eigenvalue = 4.39E-05

 Scale SEOQF with 1.000000e-01/1.000000e-01/1.000000e-01

 Standard Electronic Orientation quadrupole field applied
 Guess from superposition of atomic densities
 Warning:  Energy on first SCF cycle will be non-variational
 SAD guess density has 65.000000 electrons

 -----------------------------------------------------------------------
  General SCF calculation program by
  Eric Jon Sundstrom, Paul Horn, Yuezhi Mao, Dmitri Zuev, Alec White,
  David Stuck, Shaama M.S., Shane Yost, Joonho Lee, David Small,
  Daniel Levine, Susi Lehtola, Hugh Burton, Evgeny Epifanovsky,
  Bang C. Huynh
 -----------------------------------------------------------------------
 Exchange:     0.1500 Hartree-Fock + 1.0000 wB97M-V + LR-HF
 Correlation:  1.0000 wB97M-V
 Using SG-2 standard quadrature grid
 Nonlocal Correlation:  VV10 with C = 0.0100 and b = 6.00 and scale = 1.00000
 Grid used for NLC:  SG-1 standard quadrature
 
 Citation of the SMD model:
 Marenich, A.V.; Cramer, C.J.; Truhlar, D.G.
 J. Phys. Chem. B 2009, 113, 6378-6396.
 iSolventCode=           1
 Solvent: water                                                           
 
 vradii
            1           2           3           4           5           6
    1   1.8500000   1.5200000   1.8500000   1.5200000   1.5200000   1.5200000
            7           8           9          10          11          12
    1   1.2000000   1.2000000   1.2000000   1.2000000   1.2000000   1.5200000
           13
    1   1.5200000
 using 8 threads for integral computing
 -------------------------------------------------------
 OpenMP Integral computing Module                
 Release: version 1.0, May 2013, Q-Chem Inc. Pittsburgh 
 -------------------------------------------------------
 -------------------------------------------------------
 OpenMP BLAS3 based DFT computing Module                
 Release: version 1.0, May 2013, Q-Chem Inc. Pittsburgh 
 -------------------------------------------------------
 A unrestricted SCF calculation will be
 performed using DIIS, GDM
 SCF converges when RMS gradient is below 1.0e-07
 ---------------------------------------
  Cycle       Energy         DIIS error
 ---------------------------------------
    1    -531.8109300357      1.38e-02  
    2    -530.3087458651      2.21e-03  Done DIIS. Switching to GDM
 ---------------------------------------
  Cycle       Energy        RMS Gradient
 ---------------------------------------
    1    -530.3087458651      9.90e-02   Descent step
    2    -530.4780753319      1.86e-02   Normal BFGS step
    3    -530.4995962553      3.55e-02   Normal BFGS step
    4    -530.5017125609      1.38e-02   Normal BFGS step
    5    -530.5036761616      5.20e-03   Normal BFGS step
    6    -530.5038287325      4.23e-03   Normal BFGS step
    7    -530.5039082833      1.84e-03   Normal BFGS step
    8    -530.5039196552      1.96e-04   Normal BFGS step
    9    -530.5039210234      1.44e-04   Normal BFGS step
   10    -530.5039212765      1.00e-04   Normal BFGS step
   11    -530.5039213493      9.02e-05   Normal BFGS step
   12    -530.5039213779      7.98e-05   Normal BFGS step
   13    -530.5039214115      5.71e-05   Normal BFGS step
   14    -530.5039214351      2.69e-05   Normal BFGS step
   15    -530.5039214454      9.58e-06   Normal BFGS step
   16    -530.5039214477      3.85e-06   Normal BFGS step
   17    -530.5039214482      1.22e-06   Normal BFGS step
   18    -530.5039214483      5.24e-07   Normal BFGS step
   19    -530.5039214483      2.50e-07   Normal BFGS step
   20    -530.5039214483      1.04e-07   Normal BFGS step
   21    -530.5039214483      4.19e-08  Convergence criterion met
 ---------------------------------------
 SCF time:   CPU 1115.71s  wall 142.00s 
<S^2> =          0.753794717
(3)  G-ENP(liq) elect-nuc-pol free energy of system     -530.503921448 a.u.
(4)  G-CDS(liq) cavity-dispersion-solvent structure 
     free energy                                                2.7324 kcal/mol
(6)  G-S(liq) free energy of system                     -530.499567144 a.u.
 SCF   energy in the final basis set =     -530.4995671437
 Total energy in the final basis set =     -530.4995671437
 
 --------------------------------------------------------------
 
                    Orbital Energies (a.u.)
 --------------------------------------------------------------
 
 Alpha MOs
 -- Occupied --
-19.4636 -19.4277 -19.3759 -19.3737 -19.3598 -19.3567 -10.5242 -10.4638
 -1.3511  -1.2456  -1.2087  -1.1732  -1.1445  -1.0126  -0.8412  -0.7793
 -0.7076  -0.6817  -0.6632  -0.6572  -0.6105  -0.6048  -0.5958  -0.5399
 -0.5325  -0.5045  -0.4925  -0.4739  -0.4530  -0.4409  -0.4183  -0.4088
 -0.3863
 -- Virtual --
  0.0271   0.0406   0.0537   0.0590   0.0748   0.0952   0.1009   0.1024
  0.1249   0.1357   0.1447   0.1518   0.1651   0.1685   0.1993   0.2101
  0.2120   0.2247   0.2316   0.2445   0.2473   0.2622   0.2681   0.2755
  0.2824   0.2971   0.2980   0.3055   0.3195   0.3221   0.3263   0.3370
  0.3427   0.3509   0.3558   0.3619   0.3674   0.3727   0.3791   0.3918
  0.3991   0.4055   0.4245   0.4247   0.4367   0.4574   0.4664   0.4950
  0.5252   0.5687   0.5883   0.5967   0.6028   0.6351   0.6601   0.6973
  0.7027   0.7200   0.7355   0.7623   0.7779   0.8128   0.8444   0.8528
  0.9049   0.9157   0.9207   0.9430   0.9829   1.0244   1.0499   1.0607
  1.0700   1.0756   1.0930   1.1092   1.1230   1.1366   1.1490   1.1561
  1.1700   1.1838   1.1893   1.2061   1.2211   1.2305   1.2384   1.2499
  1.2763   1.2854   1.2959   1.3055   1.3488   1.3666   1.3964   1.4068
  1.4244   1.4640   1.4760   1.5118   1.5262   1.5405   1.5586   1.5732
  1.5917   1.5999   1.6316   1.6427   1.6537   1.6933   1.7158   1.7545
  1.7676   1.8295   1.8623   1.8884   1.9095   1.9428   1.9552   1.9724
  2.0480   2.0585   2.1303   2.1503   2.1913   2.2360   2.2472   2.2724
  2.2967   2.3285   2.3519   2.3763   2.3911   2.4407   2.4453   2.4702
  2.4943   2.5160   2.5190   2.5697   2.7030   2.7547   2.7815   2.8213
  2.8929   2.9565   3.0503   3.1060   3.1273   3.2309   3.2452   3.3296
  3.3479   3.3645   3.3835   3.4351   3.4779   3.5093   3.5571   3.5905
  3.6334   3.6504   3.6663   3.6861   3.7203   3.7447   3.7803   3.8090
  3.8162   3.8568   3.8584   3.8790   3.9151   3.9373   3.9410   4.0189
  4.0795   4.1053   4.1900   4.2088   4.2434   4.2531   4.2821   4.2981
  4.3192   4.3749   4.3922   4.4525   4.5180   4.5684   4.7071   4.7291
  4.7977   4.8570   4.9998   5.0286   5.0666   5.0829   5.1309   5.1468
  5.1967   5.2031   5.2075   5.2125   5.2319   5.2385   5.2561   5.2647
  5.2727   5.2857   5.3029   5.3277   5.3378   5.3498   5.3950   5.4136
  5.4176   5.4497   5.4873   5.5262   5.5346   5.5426   5.5789   5.6072
  5.6176   5.6359   5.6474   5.6804   5.7203   5.7308   5.7812   5.8844
  5.9417   5.9888   6.0135   6.0441   6.1105   6.1212   6.1789   6.2080
  6.4339   6.5288   6.5436   6.6312   6.7703   6.8003   6.8611   6.9109
  6.9434   7.0329   7.0451   7.0631   7.0933   7.1384   7.1421   7.1757
  7.2039   7.2249   7.2516   7.2817   7.3037   7.3277   7.3443   7.3511
  7.3829   7.4237   7.4419   7.4682   7.5229   7.5720   7.6070   7.6869
  7.6958   7.7201   7.7485   7.8397   7.8515   7.8801   7.9023   8.0799
  8.1375  24.7531  24.8664  50.4085  50.5359  50.5785  50.5858  50.6218
 50.6759
 
 Beta MOs
 -- Occupied --
-19.4542 -19.4080 -19.3758 -19.3735 -19.3598 -19.3567 -10.5246 -10.4638
 -1.3279  -1.2415  -1.2082  -1.1728  -1.1444  -0.9787  -0.8348  -0.7783
 -0.7001  -0.6765  -0.6623  -0.6448  -0.5966  -0.5879  -0.5619  -0.5321
 -0.5176  -0.5026  -0.4907  -0.4721  -0.4464  -0.4394  -0.4050  -0.3796
 -- Virtual --
 -0.0382   0.0272   0.0409   0.0539   0.0592   0.0750   0.0963   0.1018
  0.1032   0.1254   0.1362   0.1450   0.1527   0.1666   0.1758   0.2011
  0.2117   0.2126   0.2264   0.2332   0.2481   0.2488   0.2637   0.2743
  0.2768   0.2850   0.2974   0.2998   0.3078   0.3211   0.3229   0.3283
  0.3385   0.3430   0.3521   0.3564   0.3633   0.3699   0.3739   0.3795
  0.3921   0.4006   0.4060   0.4254   0.4265   0.4378   0.4579   0.4673
  0.4960   0.5257   0.5689   0.5886   0.5976   0.6029   0.6355   0.6604
  0.6976   0.7028   0.7204   0.7366   0.7626   0.7786   0.8131   0.8450
  0.8537   0.9062   0.9166   0.9211   0.9448   0.9848   1.0257   1.0514
  1.0674   1.0722   1.0835   1.0953   1.1117   1.1257   1.1399   1.1546
  1.1601   1.1721   1.1925   1.1948   1.2223   1.2265   1.2355   1.2417
  1.2544   1.2784   1.2864   1.2974   1.3065   1.3498   1.3752   1.3969
  1.4080   1.4279   1.4675   1.4780   1.5138   1.5307   1.5414   1.5660
  1.5813   1.6007   1.6129   1.6347   1.6535   1.6593   1.7000   1.7199
  1.7662   1.7782   1.8405   1.8639   1.8927   1.9146   1.9463   1.9576
  1.9739   2.0497   2.0614   2.1312   2.1527   2.1965   2.2426   2.2531
  2.2871   2.2994   2.3318   2.3554   2.3787   2.3942   2.4433   2.4470
  2.4714   2.4957   2.5180   2.5224   2.5710   2.7036   2.7632   2.7820
  2.8219   2.8934   2.9579   3.0508   3.1067   3.1279   3.2310   3.2457
  3.3297   3.3482   3.3648   3.3838   3.4361   3.4782   3.5097   3.5569
  3.5908   3.6332   3.6503   3.6673   3.6860   3.7206   3.7452   3.7808
  3.8097   3.8164   3.8570   3.8588   3.8793   3.9152   3.9375   3.9418
  4.0193   4.0796   4.1056   4.1902   4.2091   4.2434   4.2533   4.2823
  4.2987   4.3195   4.3752   4.3926   4.4532   4.5188   4.6037   4.7268
  4.7301   4.8226   4.8673   5.0173   5.0834   5.1230   5.1306   5.1674
  5.1742   5.2032   5.2093   5.2233   5.2279   5.2525   5.2566   5.2689
  5.2709   5.2780   5.2877   5.3094   5.3308   5.3396   5.3588   5.4019
  5.4178   5.4252   5.4539   5.4932   5.5309   5.5409   5.5484   5.5840
  5.6170   5.6307   5.6376   5.6490   5.6832   5.7248   5.7343   5.7850
  5.8855   5.9421   5.9913   6.0141   6.0466   6.1117   6.1225   6.1854
  6.2137   6.4774   6.5347   6.5525   6.6381   6.7748   6.8519   6.9424
  6.9539   6.9896   7.0372   7.0606   7.0691   7.1005   7.1497   7.1605
  7.2036   7.2070   7.2298   7.2533   7.2825   7.3066   7.3301   7.3504
  7.3597   7.3935   7.4396   7.4627   7.4793   7.5291   7.5748   7.6161
  7.6900   7.6982   7.7208   7.7556   7.8406   7.8570   7.8826   7.9079
  8.0906   8.1532  24.7530  24.8662  50.4218  50.5423  50.5789  50.5870
 50.6228  50.6762
 --------------------------------------------------------------
 
          Ground-State Mulliken Net Atomic Charges

     Atom                 Charge (a.u.)    Spin (a.u.)
  --------------------------------------------------------
      1 C                     0.004964       0.000800
      2 O                    -0.420192      -0.000844
      3 C                     0.163625      -0.000959
      4 O                    -0.413200       0.003490
      5 O                    -0.419711       0.003187
      6 O                    -0.416414       0.003291
      7 H                     0.300472       0.000269
      8 H                     0.330972       0.000000
      9 H                     0.359733       0.000272
     10 H                     0.357608      -0.000067
     11 H                     0.345824      -0.000519
     12 O                     0.018040       0.283352
     13 O                    -0.211723       0.707729
  --------------------------------------------------------
  Sum of atomic charges =     0.000000
  Sum of spin   charges =     1.000000

 -----------------------------------------------------------------
                    Cartesian Multipole Moments
 -----------------------------------------------------------------
    Charge (ESU x 10^10)
                -0.0000
    Dipole Moment (Debye)
         X       2.3741      Y      -1.8708      Z       0.3250
       Tot       3.0400
    Quadrupole Moments (Debye-Ang)
        XX     -59.0267     XY       2.5652     YY     -36.9218
        XZ      -4.9353     YZ      -7.5311     ZZ     -49.0024
    Octopole Moments (Debye-Ang^2)
       XXX     -24.7098    XXY       2.5780    XYY      -1.5159
       YYY      -9.4596    XXZ      42.3043    XYZ      -4.1306
       YYZ      23.5910    XZZ       3.8474    YZZ      11.9923
       ZZZ     123.1690
    Hexadecapole Moments (Debye-Ang^3)
      XXXX    -664.4878   XXXY      56.7501   XXYY    -138.8845
      XYYY      24.2828   YYYY    -198.5118   XXXZ      36.0681
      XXYZ     -29.8032   XYYZ      -8.2555   YYYZ     -35.6531
      XXZZ    -165.6309   XYZZ      14.6431   YYZZ     -76.6227
      XZZZ      18.4803   YZZZ     -46.7393   ZZZZ    -398.7809
 -----------------------------------------------------------------
 Calculating analytic gradient of the SCF energy
 Gradient of CDS energy
            1           2           3           4           5           6
    1   0.0037481  -0.0015690  -0.0024080   0.0018033   0.0004656  -0.0019496
    2   0.0019938   0.0017578  -0.0016888   0.0041529  -0.0024364  -0.0038022
    3  -0.0009978   0.0015483  -0.0047453   0.0004963   0.0042056  -0.0002864
            7           8           9          10          11          12
    1  -0.0002390   0.0001891  -0.0002505  -0.0001138   0.0003772  -0.0000474
    2   0.0001147  -0.0003777  -0.0003503   0.0003390   0.0002764   0.0000107
    3   0.0001699  -0.0002635   0.0002039  -0.0002223  -0.0001204  -0.0000317
           13
    1  -0.0000061
    2   0.0000101
    3   0.0000434
 Gradient of SCF Energy
            1           2           3           4           5           6
    1   0.0031845   0.0163778   0.0060657  -0.0134331  -0.0164290  -0.0026223
    2   0.0074075   0.0158045   0.0013973   0.0168484  -0.0249477  -0.0034200
    3  -0.0197943   0.0020841   0.0084244  -0.0304390  -0.0080978   0.0291231
            7           8           9          10          11          12
    1  -0.0026003  -0.0134665   0.0089402   0.0119919   0.0026028   0.0073991
    2  -0.0086958  -0.0178943  -0.0156793   0.0215630   0.0063629   0.0024387
    3   0.0139815  -0.0015997   0.0250452   0.0024690  -0.0220873   0.0069398
           13
    1  -0.0080107
    2  -0.0011851
    3  -0.0060491
 Max gradient component =       3.044E-02
 RMS gradient           =       1.378E-02
 Computing fast CPCM-SWIG gradient
 Updating gradient with PCM contributions...
 -- total gradient after adding PCM contribution --
---------------------------------------------------
  Atom         X              Y              Z     
---------------------------------------------------
   1      -0.000406      -0.001051      -0.004276
   2       0.005852       0.005021      -0.000236
   3       0.001512       0.001872       0.004138
   4      -0.002730       0.000447      -0.008560
   5      -0.003848      -0.006266      -0.004677
   6      -0.001167       0.001564       0.008624
   7       0.000016      -0.000339       0.003334
   8      -0.005349      -0.004417      -0.000718
   9       0.001418      -0.002233       0.006178
  10       0.003106       0.005253       0.002470
  11       0.000978      -0.000267      -0.006852
  12       0.008598       0.000169       0.003941
  13      -0.007981       0.000247      -0.003367
---------------------------------------------------
 Number of fixed atoms: 0
 Gradient time:  CPU 149.56 s  wall 21.97 s
 Geometry Optimization Parameters
   NAtoms,    NIC,     NZ,  NCons,   NDum,   NFix, NCnnct, MaxDiis
       13      79       0       0       0       0       0       0


** GEOMETRY OPTIMIZATION IN DELOCALIZED INTERNAL COORDINATES **
   Searching for a Minimum

   Optimization Cycle:   1

                       Coordinates (Angstroms)
     ATOM                X               Y               Z
      1  C         1.2641995745   -0.2313110438   -0.4371110567
      2  O         2.0274586972   -1.0225802244   -1.3140840701
      3  C        -0.1842935979   -0.1524549406   -0.9595565024
      4  O        -0.7560807084   -1.3910749797   -1.1343063678
      5  O        -0.3403889051    0.5006902076   -2.1545181903
      6  O         1.8547832688    1.0337339660   -0.3484553715
      7  H         1.2433312919   -0.6437164319    0.5797937610
      8  H         1.4977995670   -1.8061931290   -1.5452103819
      9  H        -0.6383353012   -1.9069541106   -0.3155834106
     10  H         0.0328671671    1.3962993007   -2.0696821359
     11  H         2.1205517784    1.2904364352   -1.2501243487
     12  O        -0.8958787624    0.5859350081    0.1169801073
     13  O        -2.1628139700    0.7343097427   -0.1871133325
   Point Group: c1    Number of degrees of freedom:    33


   Energy is   -530.499567144


 Attempting to generate delocalized internal coordinates
 Initial Hessian constructed with Jon Baker's OPTIMIZE code

 33 Hessian modes will be used to form the next step
  Hessian Eigenvalues:
     0.003643    0.004167    0.014809    0.015788    0.018903    0.019517
     0.057000    0.060376    0.063934    0.076675    0.094923    0.113551
     0.160000    0.160000    0.160000    0.160000    0.186571    0.189247
     0.200911    0.204821    0.250000    0.283557    0.338052    0.339549
     0.445880    0.457994    0.499574    0.508368    0.524012    0.524797
     0.525724    0.526367    0.641397

 Minimum search - taking simple RFO step
 Searching for Lamda that Minimizes Along All modes
 Value Taken    Lamda =  -0.00098387
 Step Taken.  Stepsize is  0.076264

                             Maximum     Tolerance    Cnvgd?
         Gradient           0.008187      0.000300      NO
         Displacement       0.033131      0.001200      NO
         Energy change     *********      0.000001      NO


 New Cartesian Coordinates Obtained by Inverse Iteration

 Displacement from previous Coordinates is:  0.129604
 ----------------------------------------------------------------
             Standard Nuclear Orientation (Angstroms)
    I     Atom           X                Y                Z
 ----------------------------------------------------------------
    1      C       1.2595807547    -0.2336403123    -0.4408585303
    2      O       2.0317864559    -1.0253354718    -1.3085081226
    3      C      -0.1880801442    -0.1514711228    -0.9659924267
    4      O      -0.7627675103    -1.3876130800    -1.1278769048
    5      O      -0.3470264073     0.5009443262    -2.1591772103
    6      O       1.8535903995     1.0278805465    -0.3467041530
    7      H       1.2331178506    -0.6499471367     0.5689291971
    8      H       1.5322702622    -1.8194851003    -1.5427348652
    9      H      -0.6481789417    -1.9081748717    -0.3195416751
   10      H       0.0159727203     1.3958412479    -2.0974022688
   11      H       2.1316421219     1.3057435103    -1.2311496359
   12      O      -0.8912875788     0.5901591471     0.1130364900
   13      O      -2.1574198828     0.7422181180    -0.1609911946
 ----------------------------------------------------------------
 Nuclear Repulsion Energy =         437.45317966 hartrees
 There are       33 alpha and       32 beta electrons
 Discretize the solute cavity surface with Lebedev spheres
	Using 110 Lebedev grid points for each H atom
	Using 194 Lebedev grid points for other atoms
	Atomic van der Waals radii will be scaled by 1.20
 Remove points where switching function is < 1.0e-08
 Keep 1117 surface tesserae and discard 985 interior tesserae
 Molecular Surface Area = 126.434 Angst**2
 Applying Cartesian multipole field
    Component          Value
    ---------          -----
     (2,0,0)        1.00000E-11
     (0,2,0)        2.00000E-11
     (0,0,2)       -3.00000E-11
 Requested basis set is 6-311++G(2df,2p)
 There are 94 shells and 322 basis functions
 A cutoff of  1.0D-12 yielded   4142 shell pairs
 There are     48853 function pairs (     61666 Cartesian)
 Smallest overlap matrix eigenvalue = 4.51E-05
 Guess MOs from SCF MO coefficient file

 -----------------------------------------------------------------------
  General SCF calculation program by
  Eric Jon Sundstrom, Paul Horn, Yuezhi Mao, Dmitri Zuev, Alec White,
  David Stuck, Shaama M.S., Shane Yost, Joonho Lee, David Small,
  Daniel Levine, Susi Lehtola, Hugh Burton, Evgeny Epifanovsky,
  Bang C. Huynh
 -----------------------------------------------------------------------
 Exchange:     0.1500 Hartree-Fock + 1.0000 wB97M-V + LR-HF
 Correlation:  1.0000 wB97M-V
 Using SG-2 standard quadrature grid
 Nonlocal Correlation:  VV10 with C = 0.0100 and b = 6.00 and scale = 1.00000
 Grid used for NLC:  SG-1 standard quadrature
 
 Citation of the SMD model:
 Marenich, A.V.; Cramer, C.J.; Truhlar, D.G.
 J. Phys. Chem. B 2009, 113, 6378-6396.
 iSolventCode=           1
 Solvent: water                                                           
 
 vradii
            1           2           3           4           5           6
    1   1.8500000   1.5200000   1.8500000   1.5200000   1.5200000   1.5200000
            7           8           9          10          11          12
    1   1.2000000   1.2000000   1.2000000   1.2000000   1.2000000   1.5200000
           13
    1   1.5200000
 -------------------------------------------------------
 OpenMP BLAS3 based DFT computing Module                
 Release: version 1.0, May 2013, Q-Chem Inc. Pittsburgh 
 -------------------------------------------------------
 A unrestricted SCF calculation will be
 performed using Roothaan-Hall, DIIS, GDM
 SCF converges when RMS gradient is below 1.0e-07
 ---------------------------------------
  Cycle       Energy         DIIS error
 ---------------------------------------
    1    -530.4525167981      3.38e-04  Roothaan Step
 ---------------------------------------
  Cycle       Energy         DIIS error
 ---------------------------------------
    1    -530.4945816811      3.75e-04  
    2    -530.5008280780      3.25e-04  Done DIIS. Switching to GDM
 ---------------------------------------
  Cycle       Energy        RMS Gradient
 ---------------------------------------
    1    -530.5008280780      2.29e-02   Normal BFGS step
    2    -530.4991825530      3.86e-02  Line search: overstep
    3    -530.5042696989      4.42e-03   Normal BFGS step
    4    -530.5044713037      1.11e-03   Normal BFGS step
    5    -530.5045252415      1.31e-03   Normal BFGS step
    6    -530.5045365123      4.70e-04   Normal BFGS step
    7    -530.5045380018      2.88e-04   Normal BFGS step
    8    -530.5045387384      1.39e-04   Normal BFGS step
    9    -530.5045389085      1.15e-04   Normal BFGS step
   10    -530.5045389561      9.95e-05   Normal BFGS step
   11    -530.5045389995      7.30e-05   Normal BFGS step
   12    -530.5045390408      3.45e-05   Normal BFGS step
   13    -530.5045390607      1.76e-05   Normal BFGS step
   14    -530.5045390652      8.33e-06   Normal BFGS step
   15    -530.5045390659      3.82e-06   Normal BFGS step
   16    -530.5045390659      1.71e-06   Normal BFGS step
   17    -530.5045390660      7.05e-07   Normal BFGS step
   18    -530.5045390660      2.17e-07   Normal BFGS step
   19    -530.5045390660      7.61e-08  Convergence criterion met
 ---------------------------------------
 SCF time:   CPU 1101.90s  wall 140.00s 
<S^2> =          0.753775698
(3)  G-ENP(liq) elect-nuc-pol free energy of system     -530.504539066 a.u.
(4)  G-CDS(liq) cavity-dispersion-solvent structure 
     free energy                                                2.7931 kcal/mol
(6)  G-S(liq) free energy of system                     -530.500087960 a.u.
 SCF   energy in the final basis set =     -530.5000879595
 Total energy in the final basis set =     -530.5000879595
 
 --------------------------------------------------------------
 
                    Orbital Energies (a.u.)
 --------------------------------------------------------------
 
 Alpha MOs
 -- Occupied --
-19.4631 -19.4264 -19.3749 -19.3730 -19.3584 -19.3555 -10.5243 -10.4633
 -1.3542  -1.2462  -1.2091  -1.1744  -1.1449  -1.0120  -0.8426  -0.7826
 -0.7090  -0.6820  -0.6646  -0.6602  -0.6125  -0.6054  -0.5982  -0.5387
 -0.5312  -0.5031  -0.4918  -0.4735  -0.4534  -0.4407  -0.4166  -0.4067
 -0.3853
 -- Virtual --
  0.0270   0.0406   0.0537   0.0589   0.0746   0.0954   0.1014   0.1023
  0.1253   0.1357   0.1446   0.1523   0.1655   0.1696   0.1997   0.2108
  0.2133   0.2258   0.2328   0.2457   0.2478   0.2621   0.2710   0.2760
  0.2827   0.2979   0.2991   0.3064   0.3201   0.3218   0.3272   0.3380
  0.3426   0.3518   0.3560   0.3616   0.3683   0.3736   0.3798   0.3929
  0.3992   0.4061   0.4247   0.4262   0.4367   0.4566   0.4689   0.4945
  0.5248   0.5704   0.5944   0.5987   0.6040   0.6376   0.6611   0.6979
  0.7060   0.7201   0.7337   0.7639   0.7868   0.8148   0.8441   0.8550
  0.9010   0.9132   0.9215   0.9445   0.9818   1.0198   1.0476   1.0604
  1.0696   1.0755   1.0912   1.1083   1.1223   1.1380   1.1472   1.1558
  1.1706   1.1827   1.1908   1.2059   1.2235   1.2288   1.2382   1.2506
  1.2762   1.2860   1.2948   1.3054   1.3481   1.3687   1.3979   1.4098
  1.4255   1.4680   1.4776   1.5162   1.5243   1.5451   1.5608   1.5736
  1.5897   1.6022   1.6313   1.6428   1.6518   1.6943   1.7171   1.7524
  1.7686   1.8324   1.8611   1.8890   1.9079   1.9417   1.9590   1.9671
  2.0487   2.0584   2.1313   2.1497   2.1938   2.2408   2.2448   2.2761
  2.2952   2.3300   2.3509   2.3711   2.3938   2.4352   2.4436   2.4709
  2.4967   2.5132   2.5160   2.5709   2.7017   2.7514   2.7867   2.8233
  2.8960   2.9551   3.0510   3.1095   3.1296   3.2317   3.2545   3.3296
  3.3556   3.3657   3.3881   3.4355   3.4770   3.5115   3.5564   3.5901
  3.6350   3.6508   3.6684   3.6845   3.7211   3.7438   3.7827   3.8107
  3.8204   3.8556   3.8586   3.8803   3.9145   3.9360   3.9431   4.0246
  4.0810   4.1085   4.1985   4.2108   4.2482   4.2589   4.2912   4.2993
  4.3308   4.3905   4.4109   4.4624   4.5219   4.5713   4.7064   4.7304
  4.7959   4.8742   5.0059   5.0277   5.0659   5.0810   5.1314   5.1471
  5.1982   5.2054   5.2090   5.2117   5.2309   5.2360   5.2555   5.2666
  5.2717   5.2837   5.3049   5.3256   5.3377   5.3493   5.3957   5.4103
  5.4188   5.4495   5.4884   5.5220   5.5369   5.5418   5.5841   5.6165
  5.6286   5.6418   5.6640   5.6915   5.7243   5.7334   5.7918   5.8910
  5.9487   5.9924   6.0281   6.0542   6.1275   6.1298   6.1835   6.2170
  6.4622   6.5383   6.5692   6.6367   6.7765   6.8006   6.8626   6.9158
  6.9470   7.0338   7.0448   7.0639   7.0989   7.1430   7.1484   7.1793
  7.2256   7.2499   7.2696   7.2929   7.3174   7.3266   7.3492   7.3564
  7.3847   7.4235   7.4433   7.4690   7.5184   7.5860   7.6135   7.6907
  7.7016   7.7197   7.7636   7.8399   7.8677   7.8807   7.8982   8.0902
  8.1534  24.7628  24.8734  50.4158  50.5391  50.5815  50.5903  50.6275
 50.6764
 
 Beta MOs
 -- Occupied --
-19.4535 -19.4069 -19.3747 -19.3729 -19.3583 -19.3555 -10.5246 -10.4633
 -1.3308  -1.2423  -1.2087  -1.1740  -1.1448  -0.9786  -0.8360  -0.7817
 -0.7012  -0.6769  -0.6634  -0.6485  -0.5989  -0.5883  -0.5623  -0.5308
 -0.5174  -0.5012  -0.4900  -0.4717  -0.4470  -0.4392  -0.4038  -0.3782
 -- Virtual --
 -0.0365   0.0272   0.0409   0.0539   0.0591   0.0748   0.0964   0.1023
  0.1031   0.1257   0.1362   0.1449   0.1532   0.1666   0.1767   0.2015
  0.2124   0.2138   0.2275   0.2344   0.2490   0.2491   0.2637   0.2751
  0.2791   0.2860   0.2983   0.3008   0.3088   0.3215   0.3226   0.3294
  0.3396   0.3430   0.3531   0.3567   0.3631   0.3705   0.3752   0.3802
  0.3931   0.4007   0.4065   0.4256   0.4282   0.4379   0.4572   0.4699
  0.4955   0.5253   0.5706   0.5947   0.5994   0.6043   0.6380   0.6614
  0.6981   0.7062   0.7204   0.7348   0.7642   0.7875   0.8151   0.8447
  0.8560   0.9022   0.9143   0.9218   0.9462   0.9837   1.0210   1.0488
  1.0665   1.0719   1.0840   1.0938   1.1106   1.1250   1.1409   1.1533
  1.1599   1.1727   1.1914   1.1961   1.2224   1.2288   1.2342   1.2410
  1.2548   1.2784   1.2867   1.2966   1.3066   1.3491   1.3770   1.3985
  1.4108   1.4290   1.4718   1.4797   1.5180   1.5297   1.5459   1.5688
  1.5805   1.5993   1.6161   1.6336   1.6530   1.6569   1.7006   1.7205
  1.7641   1.7802   1.8436   1.8627   1.8935   1.9133   1.9450   1.9615
  1.9688   2.0502   2.0613   2.1322   2.1520   2.1988   2.2435   2.2538
  2.2907   2.2979   2.3327   2.3552   2.3740   2.3973   2.4376   2.4458
  2.4719   2.4977   2.5162   2.5186   2.5723   2.7026   2.7599   2.7872
  2.8240   2.8965   2.9565   3.0515   3.1103   3.1302   3.2318   3.2550
  3.3298   3.3559   3.3659   3.3884   3.4365   3.4773   3.5119   3.5563
  3.5903   3.6349   3.6506   3.6693   3.6845   3.7214   3.7443   3.7832
  3.8113   3.8206   3.8558   3.8590   3.8806   3.9147   3.9363   3.9439
  4.0249   4.0811   4.1088   4.1987   4.2110   4.2483   4.2591   4.2915
  4.2999   4.3311   4.3908   4.4113   4.4632   4.5228   4.6066   4.7257
  4.7321   4.8208   4.8846   5.0230   5.0810   5.1225   5.1283   5.1681
  5.1744   5.2035   5.2094   5.2233   5.2263   5.2537   5.2568   5.2695
  5.2721   5.2774   5.2856   5.3115   5.3284   5.3395   5.3584   5.4026
  5.4196   5.4214   5.4538   5.4943   5.5269   5.5416   5.5474   5.5920
  5.6254   5.6389   5.6469   5.6653   5.6944   5.7303   5.7356   5.7954
  5.8922   5.9491   5.9952   6.0285   6.0569   6.1291   6.1308   6.1901
  6.2226   6.5034   6.5448   6.5805   6.6439   6.7815   6.8534   6.9431
  6.9558   6.9939   7.0385   7.0600   7.0701   7.1059   7.1525   7.1693
  7.2092   7.2294   7.2547   7.2709   7.2933   7.3195   7.3291   7.3561
  7.3631   7.3964   7.4365   7.4626   7.4829   7.5248   7.5904   7.6215
  7.6938   7.7036   7.7205   7.7703   7.8407   7.8715   7.8851   7.9035
  8.1005   8.1697  24.7627  24.8732  50.4290  50.5456  50.5819  50.5915
 50.6285  50.6767
 --------------------------------------------------------------
 
          Ground-State Mulliken Net Atomic Charges

     Atom                 Charge (a.u.)    Spin (a.u.)
  --------------------------------------------------------
      1 C                     0.003777       0.000672
      2 O                    -0.424230      -0.000843
      3 C                     0.170149      -0.000985
      4 O                    -0.412767       0.003562
      5 O                    -0.421805       0.003303
      6 O                    -0.418815       0.003345
      7 H                     0.303431       0.000314
      8 H                     0.330731      -0.000011
      9 H                     0.358639       0.000253
     10 H                     0.358499      -0.000028
     11 H                     0.346279      -0.000523
     12 O                     0.022674       0.288838
     13 O                    -0.216563       0.702102
  --------------------------------------------------------
  Sum of atomic charges =     0.000000
  Sum of spin   charges =     1.000000

 -----------------------------------------------------------------
                    Cartesian Multipole Moments
 -----------------------------------------------------------------
    Charge (ESU x 10^10)
                 0.0000
    Dipole Moment (Debye)
         X       2.4375      Y      -1.8760      Z       0.2173
       Tot       3.0835
    Quadrupole Moments (Debye-Ang)
        XX     -58.9447     XY       2.5423     YY     -36.5989
        XZ      -5.0176     YZ      -7.6178     ZZ     -48.8186
    Octopole Moments (Debye-Ang^2)
       XXX     -23.9316    XXY       2.4660    XYY      -0.8128
       YYY      -9.7729    XXZ      41.8902    XYZ      -3.8402
       YYZ      22.9096    XZZ       3.9509    YZZ      12.2182
       ZZZ     122.2986
    Hexadecapole Moments (Debye-Ang^3)
      XXXX    -664.2553   XXXY      57.7751   XXYY    -137.1441
      XYYY      24.5959   YYYY    -196.8304   XXXZ      35.6017
      XXYZ     -29.5187   XYYZ      -8.9062   YYYZ     -35.6187
      XXZZ    -165.5984   XYZZ      14.2198   YYZZ     -75.6088
      XZZZ      18.7042   YZZZ     -47.8444   ZZZZ    -397.3475
 -----------------------------------------------------------------
 Calculating analytic gradient of the SCF energy
 Gradient of CDS energy
            1           2           3           4           5           6
    1   0.0039268  -0.0016678  -0.0024079   0.0017936   0.0004695  -0.0020327
    2   0.0020555   0.0018458  -0.0016814   0.0041144  -0.0024112  -0.0039529
    3  -0.0010357   0.0016262  -0.0046704   0.0004521   0.0041685  -0.0003177
            7           8           9          10          11          12
    1  -0.0002433   0.0001988  -0.0002481  -0.0001153   0.0003785  -0.0000475
    2   0.0001156  -0.0003801  -0.0003490   0.0003378   0.0002831   0.0000092
    3   0.0001600  -0.0002604   0.0002047  -0.0002285  -0.0001128  -0.0000306
           13
    1  -0.0000048
    2   0.0000131
    3   0.0000446
 Gradient of SCF Energy
            1           2           3           4           5           6
    1   0.0026344   0.0113444   0.0046076  -0.0108299  -0.0125729  -0.0019148
    2   0.0071713   0.0114657   0.0007533   0.0150941  -0.0182876  -0.0042115
    3  -0.0154015   0.0030514   0.0064206  -0.0219090  -0.0045158   0.0210135
            7           8           9          10          11          12
    1  -0.0024301  -0.0085039   0.0071625   0.0090313   0.0025985   0.0019533
    2  -0.0084891  -0.0143684  -0.0141030   0.0174762   0.0072651   0.0013382
    3   0.0105007  -0.0017220   0.0194296  -0.0005270  -0.0159814   0.0029258
           13
    1  -0.0030805
    2  -0.0011044
    3  -0.0032849
 Max gradient component =       2.191E-02
 RMS gradient           =       1.046E-02
 Computing fast CPCM-SWIG gradient
 Updating gradient with PCM contributions...
 -- total gradient after adding PCM contribution --
---------------------------------------------------
  Atom         X              Y              Z     
---------------------------------------------------
   1      -0.000740      -0.001251      -0.000277
   2       0.001084       0.000132       0.000507
   3       0.000052       0.000936       0.002273
   4      -0.000492      -0.001435      -0.000322
   5      -0.000086       0.000741      -0.001566
   6      -0.000103       0.001239       0.000476
   7       0.000235       0.000026       0.000138
   8      -0.000550      -0.000487      -0.000527
   9      -0.000188      -0.000399       0.000767
  10      -0.000039       0.000831      -0.000312
  11       0.000857       0.000223      -0.000556
  12       0.003016      -0.000912      -0.000044
  13      -0.003045       0.000355      -0.000556
---------------------------------------------------
 Number of fixed atoms: 0
 Gradient time:  CPU 147.53 s  wall 21.58 s
 Geometry Optimization Parameters
   NAtoms,    NIC,     NZ,  NCons,   NDum,   NFix, NCnnct, MaxDiis
       13      79       0       0       0       0       0       0

 Cartesian Hessian Update
 Hessian updated using BFGS update


** GEOMETRY OPTIMIZATION IN DELOCALIZED INTERNAL COORDINATES **
   Searching for a Minimum

   Optimization Cycle:   2

                       Coordinates (Angstroms)
     ATOM                X               Y               Z
      1  C         1.2595807547   -0.2336403123   -0.4408585303
      2  O         2.0317864559   -1.0253354718   -1.3085081226
      3  C        -0.1880801442   -0.1514711228   -0.9659924267
      4  O        -0.7627675103   -1.3876130800   -1.1278769048
      5  O        -0.3470264073    0.5009443262   -2.1591772103
      6  O         1.8535903995    1.0278805465   -0.3467041530
      7  H         1.2331178506   -0.6499471367    0.5689291971
      8  H         1.5322702622   -1.8194851003   -1.5427348652
      9  H        -0.6481789417   -1.9081748717   -0.3195416751
     10  H         0.0159727203    1.3958412479   -2.0974022688
     11  H         2.1316421219    1.3057435103   -1.2311496359
     12  O        -0.8912875788    0.5901591471    0.1130364900
     13  O        -2.1574198828    0.7422181180   -0.1609911946
   Point Group: c1    Number of degrees of freedom:    33


   Energy is   -530.500087960

 Hessian updated using BFGS update

 31 Hessian modes will be used to form the next step
  Hessian Eigenvalues:
     0.003635    0.004179    0.014292    0.015806    0.018836    0.019616
     0.056968    0.060723    0.064521    0.077502    0.095029    0.113543
     0.158620    0.170971    0.186694    0.192843    0.201817    0.206832
     0.253134    0.284536    0.335313    0.341237    0.427341    0.447137
     0.469463    0.502978    0.524314    0.525259    0.526090    0.539007
     0.618495

 Minimum search - taking simple RFO step
 Searching for Lamda that Minimizes Along All modes
 Value Taken    Lamda =  -0.00012564
 Step Taken.  Stepsize is  0.066859

                             Maximum     Tolerance    Cnvgd?
         Gradient           0.002557      0.000300      NO
         Displacement       0.043830      0.001200      NO
         Energy change     -0.000521      0.000001      NO


 New Cartesian Coordinates Obtained by Inverse Iteration

 Displacement from previous Coordinates is:  0.083655
 ----------------------------------------------------------------
             Standard Nuclear Orientation (Angstroms)
    I     Atom           X                Y                Z
 ----------------------------------------------------------------
    1      C       1.2586579872    -0.2363882293    -0.4410248314
    2      O       2.0297212561    -1.0213196969    -1.3145795889
    3      C      -0.1880802034    -0.1536187129    -0.9650424208
    4      O      -0.7648446917    -1.3860069384    -1.1274970101
    5      O      -0.3459168058     0.4957465977    -2.1568080754
    6      O       1.8479728019     1.0246978247    -0.3434295398
    7      H       1.2346782997    -0.6579246033     0.5657898616
    8      H       1.5413173902    -1.8233037810    -1.5382423132
    9      H      -0.6446648353    -1.9103767717    -0.3244540316
   10      H       0.0246572901     1.3859290536    -2.0969901320
   11      H       2.1037066630     1.3152729113    -1.2286991848
   12      O      -0.8871629832     0.5930098074     0.1146281251
   13      O      -2.1468420687     0.7614023392    -0.1626221587
 ----------------------------------------------------------------
 Nuclear Repulsion Energy =         438.02937973 hartrees
 There are       33 alpha and       32 beta electrons
 Discretize the solute cavity surface with Lebedev spheres
	Using 110 Lebedev grid points for each H atom
	Using 194 Lebedev grid points for other atoms
	Atomic van der Waals radii will be scaled by 1.20
 Remove points where switching function is < 1.0e-08
 Keep 1119 surface tesserae and discard 983 interior tesserae
 Molecular Surface Area = 126.153 Angst**2
 Applying Cartesian multipole field
    Component          Value
    ---------          -----
     (2,0,0)        1.00000E-11
     (0,2,0)        2.00000E-11
     (0,0,2)       -3.00000E-11
 Requested basis set is 6-311++G(2df,2p)
 There are 94 shells and 322 basis functions
 A cutoff of  1.0D-12 yielded   4142 shell pairs
 There are     48853 function pairs (     61666 Cartesian)
 Smallest overlap matrix eigenvalue = 4.49E-05
 Guess MOs from SCF MO coefficient file

 -----------------------------------------------------------------------
  General SCF calculation program by
  Eric Jon Sundstrom, Paul Horn, Yuezhi Mao, Dmitri Zuev, Alec White,
  David Stuck, Shaama M.S., Shane Yost, Joonho Lee, David Small,
  Daniel Levine, Susi Lehtola, Hugh Burton, Evgeny Epifanovsky,
  Bang C. Huynh
 -----------------------------------------------------------------------
 Exchange:     0.1500 Hartree-Fock + 1.0000 wB97M-V + LR-HF
 Correlation:  1.0000 wB97M-V
 Using SG-2 standard quadrature grid
 Nonlocal Correlation:  VV10 with C = 0.0100 and b = 6.00 and scale = 1.00000
 Grid used for NLC:  SG-1 standard quadrature
 
 Citation of the SMD model:
 Marenich, A.V.; Cramer, C.J.; Truhlar, D.G.
 J. Phys. Chem. B 2009, 113, 6378-6396.
 iSolventCode=           1
 Solvent: water                                                           
 
 vradii
            1           2           3           4           5           6
    1   1.8500000   1.5200000   1.8500000   1.5200000   1.5200000   1.5200000
            7           8           9          10          11          12
    1   1.2000000   1.2000000   1.2000000   1.2000000   1.2000000   1.5200000
           13
    1   1.5200000
 -------------------------------------------------------
 OpenMP BLAS3 based DFT computing Module                
 Release: version 1.0, May 2013, Q-Chem Inc. Pittsburgh 
 -------------------------------------------------------
 A unrestricted SCF calculation will be
 performed using Roothaan-Hall, DIIS, GDM
 SCF converges when RMS gradient is below 1.0e-07
 ---------------------------------------
  Cycle       Energy         DIIS error
 ---------------------------------------
    1    -530.4521042390      3.35e-04  Roothaan Step
 ---------------------------------------
  Cycle       Energy         DIIS error
 ---------------------------------------
    1    -530.4945776879      3.80e-04  
    2    -530.5008185427      3.31e-04  Done DIIS. Switching to GDM
 ---------------------------------------
  Cycle       Energy        RMS Gradient
 ---------------------------------------
    1    -530.5008185427      2.33e-02   Normal BFGS step
    2    -530.4991451377      3.88e-02  Line search: overstep
    3    -530.5043882293      4.40e-03   Normal BFGS step
    4    -530.5045794729      1.19e-03   Normal BFGS step
    5    -530.5046335051      1.25e-03   Normal BFGS step
    6    -530.5046437923      4.52e-04   Normal BFGS step
    7    -530.5046450295      2.84e-04   Normal BFGS step
    8    -530.5046455622      8.53e-05   Normal BFGS step
    9    -530.5046456797      4.85e-05   Normal BFGS step
   10    -530.5046456943      4.07e-05   Normal BFGS step
   11    -530.5046456998      3.46e-05   Normal BFGS step
   12    -530.5046457039      2.55e-05   Normal BFGS step
   13    -530.5046457088      1.10e-05   Normal BFGS step
   14    -530.5046457108      8.27e-06   Normal BFGS step
   15    -530.5046457114      4.61e-06   Normal BFGS step
   16    -530.5046457114      1.81e-06   Normal BFGS step
   17    -530.5046457115      5.12e-07   Normal BFGS step
   18    -530.5046457114      1.59e-07   Normal BFGS step
   19    -530.5046457114      6.71e-08  Convergence criterion met
 ---------------------------------------
 SCF time:   CPU 1097.53s  wall 139.00s 
<S^2> =          0.753764999
(3)  G-ENP(liq) elect-nuc-pol free energy of system     -530.504645711 a.u.
(4)  G-CDS(liq) cavity-dispersion-solvent structure 
     free energy                                                2.8247 kcal/mol
(6)  G-S(liq) free energy of system                     -530.500144263 a.u.
 SCF   energy in the final basis set =     -530.5001442629
 Total energy in the final basis set =     -530.5001442629
 
 --------------------------------------------------------------
 
                    Orbital Energies (a.u.)
 --------------------------------------------------------------
 
 Alpha MOs
 -- Occupied --
-19.4629 -19.4256 -19.3747 -19.3730 -19.3586 -19.3551 -10.5235 -10.4629
 -1.3559  -1.2479  -1.2102  -1.1753  -1.1458  -1.0111  -0.8427  -0.7835
 -0.7098  -0.6828  -0.6655  -0.6608  -0.6131  -0.6059  -0.5986  -0.5390
 -0.5315  -0.5036  -0.4922  -0.4738  -0.4537  -0.4406  -0.4161  -0.4057
 -0.3851
 -- Virtual --
  0.0271   0.0407   0.0538   0.0590   0.0747   0.0956   0.1017   0.1023
  0.1253   0.1353   0.1446   0.1524   0.1657   0.1710   0.2000   0.2102
  0.2138   0.2262   0.2325   0.2461   0.2489   0.2632   0.2722   0.2764
  0.2834   0.2977   0.2997   0.3063   0.3201   0.3222   0.3279   0.3381
  0.3429   0.3523   0.3563   0.3620   0.3693   0.3743   0.3803   0.3933
  0.3996   0.4061   0.4254   0.4276   0.4367   0.4581   0.4685   0.4952
  0.5249   0.5713   0.5960   0.5991   0.6047   0.6377   0.6611   0.6983
  0.7057   0.7196   0.7340   0.7645   0.7819   0.8160   0.8434   0.8569
  0.9016   0.9132   0.9221   0.9443   0.9812   1.0211   1.0492   1.0623
  1.0692   1.0760   1.0913   1.1096   1.1223   1.1371   1.1471   1.1561
  1.1703   1.1835   1.1907   1.2055   1.2248   1.2293   1.2389   1.2506
  1.2764   1.2879   1.2950   1.3056   1.3481   1.3729   1.3996   1.4103
  1.4260   1.4688   1.4789   1.5178   1.5228   1.5450   1.5618   1.5733
  1.5914   1.6025   1.6330   1.6435   1.6538   1.6964   1.7154   1.7530
  1.7680   1.8318   1.8602   1.8906   1.9084   1.9427   1.9601   1.9691
  2.0542   2.0626   2.1326   2.1514   2.1968   2.2421   2.2459   2.2793
  2.2959   2.3310   2.3520   2.3722   2.3949   2.4369   2.4449   2.4722
  2.4966   2.5157   2.5183   2.5733   2.7028   2.7506   2.7874   2.8248
  2.9015   2.9576   3.0520   3.1103   3.1337   3.2348   3.2591   3.3291
  3.3582   3.3659   3.3920   3.4381   3.4779   3.5122   3.5556   3.5926
  3.6340   3.6503   3.6693   3.6834   3.7230   3.7427   3.7838   3.8124
  3.8220   3.8581   3.8596   3.8815   3.9162   3.9388   3.9441   4.0284
  4.0824   4.1120   4.2028   4.2169   4.2514   4.2609   4.2937   4.3010
  4.3348   4.3970   4.4154   4.4645   4.5255   4.5725   4.7071   4.7318
  4.7938   4.8814   5.0065   5.0278   5.0654   5.0807   5.1324   5.1478
  5.1991   5.2077   5.2112   5.2126   5.2328   5.2367   5.2556   5.2680
  5.2726   5.2841   5.3059   5.3264   5.3391   5.3506   5.3976   5.4132
  5.4212   5.4510   5.4873   5.5231   5.5397   5.5445   5.5872   5.6210
  5.6333   5.6444   5.6676   5.6937   5.7259   5.7370   5.7966   5.8959
  5.9543   5.9996   6.0331   6.0598   6.1331   6.1383   6.1881   6.2208
  6.4754   6.5442   6.5807   6.6415   6.7822   6.8032   6.8641   6.9226
  6.9516   7.0344   7.0469   7.0651   7.0994   7.1456   7.1511   7.1810
  7.2304   7.2562   7.2759   7.2995   7.3235   7.3295   7.3507   7.3634
  7.3863   7.4248   7.4464   7.4680   7.5208   7.5903   7.6147   7.6941
  7.7051   7.7221   7.7641   7.8406   7.8696   7.8820   7.8990   8.0951
  8.1601  24.7704  24.8848  50.4200  50.5417  50.5834  50.5925  50.6312
 50.6791
 
 Beta MOs
 -- Occupied --
-19.4533 -19.4061 -19.3745 -19.3729 -19.3585 -19.3552 -10.5239 -10.4629
 -1.3325  -1.2439  -1.2098  -1.1749  -1.1457  -0.9779  -0.8361  -0.7826
 -0.7020  -0.6778  -0.6643  -0.6490  -0.5995  -0.5886  -0.5624  -0.5312
 -0.5182  -0.5017  -0.4904  -0.4721  -0.4473  -0.4391  -0.4038  -0.3776
 -- Virtual --
 -0.0355   0.0272   0.0409   0.0540   0.0592   0.0749   0.0965   0.1025
  0.1031   0.1258   0.1358   0.1449   0.1532   0.1666   0.1781   0.2018
  0.2117   0.2143   0.2280   0.2339   0.2493   0.2503   0.2647   0.2756
  0.2797   0.2870   0.2979   0.3016   0.3087   0.3213   0.3231   0.3301
  0.3398   0.3434   0.3537   0.3569   0.3635   0.3712   0.3763   0.3808
  0.3935   0.4012   0.4065   0.4265   0.4293   0.4379   0.4587   0.4695
  0.4963   0.5253   0.5715   0.5963   0.5996   0.6050   0.6382   0.6614
  0.6985   0.7058   0.7199   0.7350   0.7648   0.7826   0.8163   0.8439
  0.8578   0.9027   0.9144   0.9225   0.9461   0.9832   1.0222   1.0504
  1.0683   1.0715   1.0843   1.0941   1.1121   1.1249   1.1400   1.1531
  1.1603   1.1724   1.1922   1.1962   1.2234   1.2290   1.2346   1.2413
  1.2551   1.2784   1.2886   1.2969   1.3066   1.3491   1.3810   1.4005
  1.4112   1.4295   1.4727   1.4812   1.5195   1.5283   1.5458   1.5700
  1.5799   1.6007   1.6170   1.6350   1.6532   1.6588   1.7027   1.7186
  1.7649   1.7793   1.8434   1.8618   1.8949   1.9137   1.9462   1.9619
  1.9712   2.0561   2.0652   2.1335   2.1538   2.2017   2.2443   2.2552
  2.2932   2.2989   2.3340   2.3567   2.3752   2.3984   2.4393   2.4473
  2.4732   2.4975   2.5188   2.5209   2.5748   2.7037   2.7590   2.7878
  2.8255   2.9020   2.9590   3.0525   3.1111   3.1343   3.2349   3.2596
  3.3293   3.3586   3.3661   3.3923   3.4391   3.4782   3.5127   3.5555
  3.5928   3.6339   3.6501   3.6702   3.6834   3.7233   3.7432   3.7843
  3.8131   3.8222   3.8583   3.8599   3.8817   3.9164   3.9391   3.9449
  4.0288   4.0825   4.1123   4.2030   4.2172   4.2515   4.2611   4.2939
  4.3016   4.3351   4.3972   4.4158   4.4653   4.5265   4.6079   4.7267
  4.7333   4.8187   4.8920   5.0235   5.0810   5.1221   5.1278   5.1686
  5.1748   5.2042   5.2116   5.2252   5.2281   5.2551   5.2583   5.2697
  5.2733   5.2780   5.2857   5.3128   5.3295   5.3409   5.3598   5.4045
  5.4212   5.4248   5.4554   5.4931   5.5282   5.5443   5.5496   5.5951
  5.6302   5.6426   5.6506   5.6691   5.6966   5.7322   5.7389   5.8002
  5.8971   5.9547   6.0025   6.0335   6.0625   6.1344   6.1397   6.1948
  6.2263   6.5148   6.5528   6.5920   6.6489   6.7874   6.8589   6.9441
  6.9600   6.9973   7.0400   7.0616   7.0710   7.1070   7.1553   7.1716
  7.2108   7.2344   7.2613   7.2772   7.3001   7.3255   7.3316   7.3581
  7.3700   7.3985   7.4378   7.4634   7.4830   7.5272   7.5948   7.6227
  7.6971   7.7069   7.7231   7.7710   7.8414   7.8727   7.8865   7.9044
  8.1052   8.1769  24.7703  24.8846  50.4333  50.5482  50.5837  50.5938
 50.6323  50.6793
 --------------------------------------------------------------
 
          Ground-State Mulliken Net Atomic Charges

     Atom                 Charge (a.u.)    Spin (a.u.)
  --------------------------------------------------------
      1 C                     0.007056       0.000792
      2 O                    -0.424535      -0.000865
      3 C                     0.165656      -0.001299
      4 O                    -0.413091       0.003617
      5 O                    -0.418696       0.003181
      6 O                    -0.415611       0.003605
      7 H                     0.304137       0.000334
      8 H                     0.330431      -0.000011
      9 H                     0.358341       0.000261
     10 H                     0.356949      -0.000004
     11 H                     0.344226      -0.000591
     12 O                     0.023865       0.291130
     13 O                    -0.218726       0.699850
  --------------------------------------------------------
  Sum of atomic charges =     0.000000
  Sum of spin   charges =     1.000000

 -----------------------------------------------------------------
                    Cartesian Multipole Moments
 -----------------------------------------------------------------
    Charge (ESU x 10^10)
                 0.0000
    Dipole Moment (Debye)
         X       2.4522      Y      -1.9237      Z       0.2243
       Tot       3.1248
    Quadrupole Moments (Debye-Ang)
        XX     -59.0624     XY       2.5149     YY     -36.4663
        XZ      -4.9577     YZ      -7.6081     ZZ     -48.8518
    Octopole Moments (Debye-Ang^2)
       XXX     -24.4807    XXY       1.9429    XYY      -0.3944
       YYY     -10.2596    XXZ      42.2155    XYZ      -3.8481
       YYZ      22.8096    XZZ       3.7773    YZZ      12.1892
       ZZZ     122.3174
    Hexadecapole Moments (Debye-Ang^3)
      XXXX    -662.7829   XXXY      57.4659   XXYY    -136.4937
      XYYY      25.1566   YYYY    -196.4017   XXXZ      36.6255
      XXYZ     -29.1070   XYYZ      -9.1548   YYYZ     -35.5413
      XXZZ    -165.5785   XYZZ      14.5064   YYZZ     -75.7541
      XZZZ      19.0365   YZZZ     -48.3065   ZZZZ    -397.1942
 -----------------------------------------------------------------
 Calculating analytic gradient of the SCF energy
 Gradient of CDS energy
            1           2           3           4           5           6
    1   0.0041291  -0.0017634  -0.0023892   0.0017830   0.0004533  -0.0021328
    2   0.0022304   0.0019297  -0.0016982   0.0040699  -0.0023535  -0.0042054
    3  -0.0011277   0.0017496  -0.0045868   0.0004498   0.0040760  -0.0003442
            7           8           9          10          11          12
    1  -0.0002442   0.0002028  -0.0002447  -0.0001123   0.0003718  -0.0000484
    2   0.0001129  -0.0003786  -0.0003458   0.0003314   0.0002838   0.0000096
    3   0.0001587  -0.0002602   0.0002057  -0.0002263  -0.0001117  -0.0000311
           13
    1  -0.0000052
    2   0.0000137
    3   0.0000482
 Gradient of SCF Energy
            1           2           3           4           5           6
    1   0.0033598   0.0095458   0.0040440  -0.0099175  -0.0123233  -0.0019163
    2   0.0081218   0.0111170   0.0009350   0.0159746  -0.0187172  -0.0053960
    3  -0.0151949   0.0029796   0.0055752  -0.0213565  -0.0030212   0.0195141
            7           8           9          10          11          12
    1  -0.0024335  -0.0075668   0.0072666   0.0090469   0.0013209  -0.0005287
    2  -0.0085125  -0.0134063  -0.0133092   0.0158597   0.0069001   0.0018769
    3   0.0100615  -0.0012624   0.0180858  -0.0001348  -0.0147496   0.0022666
           13
    1   0.0001021
    2  -0.0014439
    3  -0.0027634
 Max gradient component =       2.136E-02
 RMS gradient           =       1.001E-02
 Computing fast CPCM-SWIG gradient
 Updating gradient with PCM contributions...
 -- total gradient after adding PCM contribution --
---------------------------------------------------
  Atom         X              Y              Z     
---------------------------------------------------
   1       0.000088      -0.000417      -0.000099
   2      -0.000624      -0.000571       0.000634
   3      -0.000560       0.001056       0.001430
   4       0.000504      -0.000714       0.000210
   5       0.000343       0.000337      -0.000164
   6      -0.000448       0.000387      -0.001023
   7       0.000188       0.000136      -0.000347
   8       0.000374       0.000760      -0.000224
   9      -0.000230       0.000545      -0.000545
  10      -0.000037      -0.000838       0.000168
  11      -0.000252      -0.000339       0.000687
  12       0.000471      -0.000382      -0.000709
  13       0.000182       0.000040      -0.000019
---------------------------------------------------
 Number of fixed atoms: 0
 Gradient time:  CPU 148.49 s  wall 21.82 s
 Geometry Optimization Parameters
   NAtoms,    NIC,     NZ,  NCons,   NDum,   NFix, NCnnct, MaxDiis
       13      79       0       0       0       0       0       0

 Cartesian Hessian Update
 Hessian updated using BFGS update


** GEOMETRY OPTIMIZATION IN DELOCALIZED INTERNAL COORDINATES **
   Searching for a Minimum

   Optimization Cycle:   3

                       Coordinates (Angstroms)
     ATOM                X               Y               Z
      1  C         1.2586579872   -0.2363882293   -0.4410248314
      2  O         2.0297212561   -1.0213196969   -1.3145795889
      3  C        -0.1880802034   -0.1536187129   -0.9650424208
      4  O        -0.7648446917   -1.3860069384   -1.1274970101
      5  O        -0.3459168058    0.4957465977   -2.1568080754
      6  O         1.8479728019    1.0246978247   -0.3434295398
      7  H         1.2346782997   -0.6579246033    0.5657898616
      8  H         1.5413173902   -1.8233037810   -1.5382423132
      9  H        -0.6446648353   -1.9103767717   -0.3244540316
     10  H         0.0246572901    1.3859290536   -2.0969901320
     11  H         2.1037066630    1.3152729113   -1.2286991848
     12  O        -0.8871629832    0.5930098074    0.1146281251
     13  O        -2.1468420687    0.7614023392   -0.1626221587
   Point Group: c1    Number of degrees of freedom:    33


   Energy is   -530.500144263

 Hessian updated using BFGS update

 32 Hessian modes will be used to form the next step
  Hessian Eigenvalues:
     0.003698    0.004285    0.010007    0.016185    0.018543    0.020192
     0.056961    0.061634    0.065498    0.080970    0.095159    0.114418
     0.159867    0.161844    0.171185    0.186510    0.193735    0.203589
     0.216529    0.253120    0.293386    0.327454    0.341812    0.445763
     0.465908    0.493490    0.523247    0.524395    0.525580    0.526490
     0.559788    0.613240

 Minimum search - taking simple RFO step
 Searching for Lamda that Minimizes Along All modes
 Value Taken    Lamda =  -0.00004396
 Step Taken.  Stepsize is  0.048912

                             Maximum     Tolerance    Cnvgd?
         Gradient           0.001111      0.000300      NO
         Displacement       0.029070      0.001200      NO
         Energy change     -0.000056      0.000001      NO


 New Cartesian Coordinates Obtained by Inverse Iteration

 Displacement from previous Coordinates is:  0.057084
 ----------------------------------------------------------------
             Standard Nuclear Orientation (Angstroms)
    I     Atom           X                Y                Z
 ----------------------------------------------------------------
    1      C       1.2591764549    -0.2351088949    -0.4430301195
    2      O       2.0278236595    -1.0248174879    -1.3148010282
    3      C      -0.1880687426    -0.1506021249    -0.9681012938
    4      O      -0.7659276552    -1.3814006366    -1.1314011033
    5      O      -0.3495848009     0.5010390035    -2.1573864638
    6      O       1.8551679294     1.0223387209    -0.3446816805
    7      H       1.2323586103    -0.6554618997     0.5645675458
    8      H       1.5434126895    -1.8340707664    -1.5210744387
    9      H      -0.6387878947    -1.9103985380    -0.3321709268
   10      H       0.0176220018     1.3928755449    -2.0980051928
   11      H       2.1071960723     1.3155590660    -1.2304233704
   12      O      -0.8881420956     0.5937334937     0.1148762886
   13      O      -2.1490461288     0.7534343197    -0.1573395166
 ----------------------------------------------------------------
 Nuclear Repulsion Energy =         437.89691064 hartrees
 There are       33 alpha and       32 beta electrons
 Discretize the solute cavity surface with Lebedev spheres
	Using 110 Lebedev grid points for each H atom
	Using 194 Lebedev grid points for other atoms
	Atomic van der Waals radii will be scaled by 1.20
 Remove points where switching function is < 1.0e-08
 Keep 1114 surface tesserae and discard 988 interior tesserae
 Molecular Surface Area = 126.241 Angst**2
 Applying Cartesian multipole field
    Component          Value
    ---------          -----
     (2,0,0)        1.00000E-11
     (0,2,0)        2.00000E-11
     (0,0,2)       -3.00000E-11
 Requested basis set is 6-311++G(2df,2p)
 There are 94 shells and 322 basis functions
 A cutoff of  1.0D-12 yielded   4141 shell pairs
 There are     48852 function pairs (     61665 Cartesian)
 Smallest overlap matrix eigenvalue = 4.48E-05
 Guess MOs from SCF MO coefficient file

 -----------------------------------------------------------------------
  General SCF calculation program by
  Eric Jon Sundstrom, Paul Horn, Yuezhi Mao, Dmitri Zuev, Alec White,
  David Stuck, Shaama M.S., Shane Yost, Joonho Lee, David Small,
  Daniel Levine, Susi Lehtola, Hugh Burton, Evgeny Epifanovsky,
  Bang C. Huynh
 -----------------------------------------------------------------------
 Exchange:     0.1500 Hartree-Fock + 1.0000 wB97M-V + LR-HF
 Correlation:  1.0000 wB97M-V
 Using SG-2 standard quadrature grid
 Nonlocal Correlation:  VV10 with C = 0.0100 and b = 6.00 and scale = 1.00000
 Grid used for NLC:  SG-1 standard quadrature
 
 Citation of the SMD model:
 Marenich, A.V.; Cramer, C.J.; Truhlar, D.G.
 J. Phys. Chem. B 2009, 113, 6378-6396.
 iSolventCode=           1
 Solvent: water                                                           
 
 vradii
            1           2           3           4           5           6
    1   1.8500000   1.5200000   1.8500000   1.5200000   1.5200000   1.5200000
            7           8           9          10          11          12
    1   1.2000000   1.2000000   1.2000000   1.2000000   1.2000000   1.5200000
           13
    1   1.5200000
 -------------------------------------------------------
 OpenMP BLAS3 based DFT computing Module                
 Release: version 1.0, May 2013, Q-Chem Inc. Pittsburgh 
 -------------------------------------------------------
 A unrestricted SCF calculation will be
 performed using Roothaan-Hall, DIIS, GDM
 SCF converges when RMS gradient is below 1.0e-07
 ---------------------------------------
  Cycle       Energy         DIIS error
 ---------------------------------------
    1    -530.4519940378      3.31e-04  Roothaan Step
 ---------------------------------------
  Cycle       Energy         DIIS error
 ---------------------------------------
    1    -530.4945317911      3.82e-04  
    2    -530.5008079651      3.34e-04  Done DIIS. Switching to GDM
 ---------------------------------------
  Cycle       Energy        RMS Gradient
 ---------------------------------------
    1    -530.5008079651      2.37e-02   Normal BFGS step
    2    -530.4991165604      3.90e-02  Line search: overstep
    3    -530.5044363095      4.29e-03   Normal BFGS step
    4    -530.5046281136      1.19e-03   Normal BFGS step
    5    -530.5046829009      1.20e-03   Normal BFGS step
    6    -530.5046930796      4.25e-04   Normal BFGS step
    7    -530.5046942740      2.64e-04   Normal BFGS step
    8    -530.5046947688      8.42e-05   Normal BFGS step
    9    -530.5046948895      4.45e-05   Normal BFGS step
   10    -530.5046949043      4.06e-05   Normal BFGS step
   11    -530.5046949101      3.52e-05   Normal BFGS step
   12    -530.5046949145      2.71e-05   Normal BFGS step
   13    -530.5046949196      1.07e-05   Normal BFGS step
   14    -530.5046949217      7.96e-06   Normal BFGS step
   15    -530.5046949222      4.04e-06   Normal BFGS step
   16    -530.5046949223      1.67e-06   Normal BFGS step
   17    -530.5046949223      5.57e-07   Normal BFGS step
   18    -530.5046949223      1.87e-07   Normal BFGS step
   19    -530.5046949223      5.99e-08  Convergence criterion met
 ---------------------------------------
 SCF time:   CPU 1091.27s  wall 139.00s 
<S^2> =          0.753765878
(3)  G-ENP(liq) elect-nuc-pol free energy of system     -530.504694922 a.u.
(4)  G-CDS(liq) cavity-dispersion-solvent structure 
     free energy                                                2.8349 kcal/mol
(6)  G-S(liq) free energy of system                     -530.500177294 a.u.
 SCF   energy in the final basis set =     -530.5001772940
 Total energy in the final basis set =     -530.5001772940
 
 --------------------------------------------------------------
 
                    Orbital Energies (a.u.)
 --------------------------------------------------------------
 
 Alpha MOs
 -- Occupied --
-19.4626 -19.4251 -19.3747 -19.3730 -19.3587 -19.3551 -10.5235 -10.4630
 -1.3561  -1.2480  -1.2102  -1.1754  -1.1457  -1.0104  -0.8424  -0.7836
 -0.7096  -0.6828  -0.6655  -0.6607  -0.6131  -0.6058  -0.5985  -0.5390
 -0.5314  -0.5036  -0.4924  -0.4739  -0.4537  -0.4405  -0.4158  -0.4052
 -0.3850
 -- Virtual --
  0.0271   0.0406   0.0538   0.0590   0.0747   0.0956   0.1018   0.1024
  0.1250   0.1354   0.1445   0.1524   0.1655   0.1712   0.1998   0.2101
  0.2140   0.2267   0.2322   0.2463   0.2486   0.2629   0.2725   0.2763
  0.2833   0.2978   0.2995   0.3065   0.3197   0.3219   0.3279   0.3378
  0.3428   0.3524   0.3562   0.3624   0.3692   0.3750   0.3804   0.3934
  0.3989   0.4060   0.4255   0.4281   0.4370   0.4574   0.4691   0.4939
  0.5245   0.5722   0.5961   0.5984   0.6049   0.6372   0.6610   0.6984
  0.7063   0.7194   0.7345   0.7648   0.7821   0.8171   0.8420   0.8571
  0.9010   0.9131   0.9231   0.9442   0.9815   1.0201   1.0485   1.0612
  1.0694   1.0754   1.0913   1.1092   1.1227   1.1373   1.1467   1.1564
  1.1706   1.1834   1.1917   1.2058   1.2252   1.2292   1.2379   1.2506
  1.2764   1.2881   1.2946   1.3053   1.3474   1.3726   1.3983   1.4101
  1.4277   1.4680   1.4791   1.5177   1.5227   1.5447   1.5614   1.5756
  1.5914   1.6030   1.6314   1.6447   1.6533   1.6951   1.7137   1.7526
  1.7677   1.8325   1.8584   1.8902   1.9084   1.9430   1.9588   1.9684
  2.0523   2.0659   2.1319   2.1508   2.1976   2.2417   2.2462   2.2794
  2.2948   2.3317   2.3542   2.3714   2.3947   2.4362   2.4434   2.4725
  2.4974   2.5151   2.5182   2.5741   2.7018   2.7508   2.7863   2.8245
  2.9015   2.9582   3.0525   3.1090   3.1323   3.2360   3.2595   3.3286
  3.3583   3.3652   3.3926   3.4378   3.4775   3.5113   3.5547   3.5939
  3.6333   3.6510   3.6700   3.6838   3.7229   3.7416   3.7833   3.8125
  3.8214   3.8563   3.8587   3.8816   3.9152   3.9372   3.9433   4.0282
  4.0818   4.1124   4.2023   4.2156   4.2512   4.2599   4.2934   4.2991
  4.3356   4.3979   4.4150   4.4617   4.5256   4.5728   4.7069   4.7314
  4.7929   4.8831   5.0060   5.0276   5.0654   5.0808   5.1326   5.1479
  5.2000   5.2085   5.2113   5.2128   5.2327   5.2366   5.2558   5.2686
  5.2724   5.2833   5.3054   5.3252   5.3386   5.3501   5.3979   5.4127
  5.4214   5.4493   5.4860   5.5218   5.5400   5.5440   5.5884   5.6211
  5.6335   5.6446   5.6666   5.6933   5.7253   5.7358   5.7975   5.8967
  5.9558   5.9991   6.0327   6.0580   6.1356   6.1397   6.1861   6.2204
  6.4791   6.5436   6.5828   6.6412   6.7830   6.8042   6.8644   6.9240
  6.9527   7.0336   7.0469   7.0654   7.0988   7.1463   7.1512   7.1810
  7.2301   7.2551   7.2759   7.2999   7.3226   7.3289   7.3508   7.3630
  7.3858   7.4243   7.4446   7.4660   7.5210   7.5910   7.6147   7.6942
  7.7064   7.7225   7.7646   7.8403   7.8696   7.8820   7.8985   8.0950
  8.1618  24.7704  24.8840  50.4212  50.5420  50.5829  50.5928  50.6307
 50.6786
 
 Beta MOs
 -- Occupied --
-19.4530 -19.4057 -19.3745 -19.3729 -19.3586 -19.3551 -10.5238 -10.4630
 -1.3326  -1.2441  -1.2099  -1.1750  -1.1456  -0.9772  -0.8359  -0.7827
 -0.7019  -0.6778  -0.6642  -0.6491  -0.5994  -0.5885  -0.5622  -0.5311
 -0.5183  -0.5016  -0.4906  -0.4722  -0.4473  -0.4388  -0.4037  -0.3772
 -- Virtual --
 -0.0350   0.0272   0.0409   0.0540   0.0592   0.0749   0.0965   0.1026
  0.1031   0.1255   0.1359   0.1448   0.1532   0.1665   0.1782   0.2016
  0.2116   0.2146   0.2285   0.2336   0.2495   0.2499   0.2643   0.2756
  0.2799   0.2871   0.2980   0.3015   0.3090   0.3210   0.3229   0.3302
  0.3394   0.3433   0.3538   0.3568   0.3638   0.3712   0.3769   0.3809
  0.3936   0.4004   0.4066   0.4266   0.4298   0.4381   0.4579   0.4701
  0.4949   0.5249   0.5724   0.5966   0.5988   0.6052   0.6376   0.6613
  0.6986   0.7064   0.7198   0.7355   0.7651   0.7829   0.8173   0.8426
  0.8581   0.9019   0.9144   0.9236   0.9459   0.9834   1.0212   1.0496
  1.0673   1.0716   1.0838   1.0939   1.1115   1.1254   1.1401   1.1530
  1.1604   1.1727   1.1922   1.1974   1.2229   1.2300   1.2341   1.2405
  1.2553   1.2784   1.2887   1.2966   1.3063   1.3485   1.3811   1.3990
  1.4110   1.4313   1.4713   1.4814   1.5195   1.5281   1.5456   1.5700
  1.5818   1.6013   1.6173   1.6336   1.6539   1.6583   1.7017   1.7165
  1.7649   1.7792   1.8442   1.8600   1.8946   1.9137   1.9464   1.9605
  1.9707   2.0543   2.0684   2.1327   2.1532   2.2026   2.2437   2.2552
  2.2937   2.2977   2.3351   2.3587   2.3743   2.3982   2.4388   2.4454
  2.4736   2.4983   2.5184   2.5208   2.5756   2.7027   2.7593   2.7867
  2.8252   2.9021   2.9596   3.0530   3.1098   3.1329   3.2361   3.2600
  3.3288   3.3588   3.3653   3.3929   3.4388   3.4778   3.5118   3.5546
  3.5941   3.6331   3.6508   3.6710   3.6837   3.7232   3.7420   3.7837
  3.8132   3.8216   3.8564   3.8590   3.8819   3.9154   3.9375   3.9440
  4.0286   4.0819   4.1128   4.2025   4.2159   4.2513   4.2600   4.2937
  4.2996   4.3359   4.3982   4.4154   4.4625   4.5266   4.6081   4.7262
  4.7332   4.8178   4.8937   5.0229   5.0806   5.1222   5.1277   5.1687
  5.1750   5.2051   5.2120   5.2253   5.2278   5.2553   5.2586   5.2702
  5.2733   5.2785   5.2848   5.3124   5.3284   5.3404   5.3593   5.4048
  5.4205   5.4251   5.4537   5.4918   5.5273   5.5445   5.5489   5.5961
  5.6305   5.6422   5.6515   5.6682   5.6963   5.7313   5.7381   5.8011
  5.8980   5.9561   6.0020   6.0330   6.0607   6.1371   6.1410   6.1927
  6.2259   6.5175   6.5532   6.5941   6.6486   6.7882   6.8606   6.9444
  6.9605   6.9983   7.0396   7.0614   7.0712   7.1062   7.1561   7.1716
  7.2109   7.2341   7.2603   7.2774   7.3005   7.3247   7.3309   7.3583
  7.3694   7.3976   7.4371   7.4612   7.4824   7.5275   7.5956   7.6227
  7.6972   7.7081   7.7236   7.7716   7.8412   7.8725   7.8870   7.9037
  8.1050   8.1787  24.7703  24.8838  50.4345  50.5484  50.5832  50.5940
 50.6317  50.6788
 --------------------------------------------------------------
 
          Ground-State Mulliken Net Atomic Charges

     Atom                 Charge (a.u.)    Spin (a.u.)
  --------------------------------------------------------
      1 C                     0.011410       0.000852
      2 O                    -0.424545      -0.000871
      3 C                     0.161235      -0.001378
      4 O                    -0.412984       0.003468
      5 O                    -0.419071       0.003194
      6 O                    -0.415932       0.003531
      7 H                     0.304947       0.000344
      8 H                     0.330200      -0.000015
      9 H                     0.358514       0.000268
     10 H                     0.357446       0.000002
     11 H                     0.344321      -0.000594
     12 O                     0.024772       0.292459
     13 O                    -0.220314       0.698738
  --------------------------------------------------------
  Sum of atomic charges =    -0.000000
  Sum of spin   charges =     1.000000

 -----------------------------------------------------------------
                    Cartesian Multipole Moments
 -----------------------------------------------------------------
    Charge (ESU x 10^10)
                 0.0000
    Dipole Moment (Debye)
         X       2.4761      Y      -1.9213      Z       0.2302
       Tot       3.1425
    Quadrupole Moments (Debye-Ang)
        XX     -59.1432     XY       2.4608     YY     -36.3004
        XZ      -4.9065     YZ      -7.6594     ZZ     -48.9509
    Octopole Moments (Debye-Ang^2)
       XXX     -24.3307    XXY       1.9339    XYY      -0.2540
       YYY     -10.4642    XXZ      42.2366    XYZ      -3.9072
       YYZ      22.6910    XZZ       3.6471    YZZ      12.4395
       ZZZ     122.6680
    Hexadecapole Moments (Debye-Ang^3)
      XXXX    -664.5629   XXXY      57.2592   XXYY    -136.3821
      XYYY      24.6402   YYYY    -194.8553   XXXZ      36.5735
      XXYZ     -29.2273   XYYZ      -9.0566   YYYZ     -35.3815
      XXZZ    -166.0400   XYZZ      14.7689   YYZZ     -75.8240
      XZZZ      19.4536   YZZZ     -48.8738   ZZZZ    -398.3677
 -----------------------------------------------------------------
 Calculating analytic gradient of the SCF energy
 Gradient of CDS energy
            1           2           3           4           5           6
    1   0.0041357  -0.0017273  -0.0023927   0.0017753   0.0004636  -0.0021757
    2   0.0022924   0.0019077  -0.0016780   0.0040426  -0.0023520  -0.0042435
[...]
  2.8414   2.9016   2.9710   3.0594   3.1031   3.1501   3.2172   3.2680
  3.3143   3.3612   3.3648   3.4081   3.4485   3.4712   3.5043   3.5432
  3.6001   3.6309   3.6445   3.6674   3.6772   3.7315   3.7354   3.7826
  3.8240   3.8314   3.8470   3.8579   3.8836   3.9028   3.9367   3.9579
  4.0450   4.0807   4.1311   4.1945   4.2023   4.2468   4.2603   4.2664
  4.3000   4.3218   4.4094   4.4122   4.4483   4.5344   4.6100   4.7261
  4.7477   4.8159   4.8927   5.0205   5.0811   5.1227   5.1294   5.1685
  5.1767   5.2057   5.2242   5.2343   5.2429   5.2520   5.2578   5.2686
  5.2739   5.2821   5.2888   5.3193   5.3307   5.3446   5.3582   5.3733
  5.4080   5.4345   5.4535   5.4742   5.5143   5.5394   5.5579   5.5987
  5.6262   5.6417   5.6505   5.6698   5.6921   5.7154   5.7343   5.8074
  5.9009   5.9711   6.0044   6.0126   6.0656   6.1266   6.1489   6.1966
  6.2243   6.5191   6.5504   6.5908   6.6420   6.7856   6.8609   6.9424
  6.9533   6.9955   7.0354   7.0673   7.0888   7.1065   7.1526   7.1662
  7.2082   7.2350   7.2622   7.2854   7.3059   7.3232   7.3287   7.3576
  7.3681   7.3914   7.4169   7.4465   7.4782   7.5174   7.6110   7.6271
  7.6989   7.7050   7.7253   7.7865   7.8509   7.8561   7.8700   7.9038
  8.1028   8.1766  24.7636  24.8828  50.4350  50.5487  50.5796  50.5888
 50.6390  50.6829
 --------------------------------------------------------------
 
          Ground-State Mulliken Net Atomic Charges

     Atom                 Charge (a.u.)    Spin (a.u.)
  --------------------------------------------------------
      1 C                     0.033877       0.000279
      2 O                    -0.438444      -0.000915
      3 C                     0.158797      -0.001135
      4 O                    -0.429182       0.003415
      5 O                    -0.425976       0.003604
      6 O                    -0.430175       0.003842
      7 H                     0.316202       0.000427
      8 H                     0.342394      -0.000073
      9 H                     0.360413      -0.000082
     10 H                     0.359020      -0.000125
     11 H                     0.347316      -0.000629
     12 O                     0.036707       0.295127
     13 O                    -0.230948       0.696264
  --------------------------------------------------------
  Sum of atomic charges =     0.000000
  Sum of spin   charges =     1.000000

 -----------------------------------------------------------------
                    Cartesian Multipole Moments
 -----------------------------------------------------------------
    Charge (ESU x 10^10)
                 0.0000
    Dipole Moment (Debye)
         X       3.0334      Y      -2.2677      Z       0.7828
       Tot       3.8674
    Quadrupole Moments (Debye-Ang)
        XX     -58.2379     XY       0.7274     YY     -34.2772
        XZ      -4.2762     YZ      -8.4100     ZZ     -51.2640
    Octopole Moments (Debye-Ang^2)
       XXX     -19.5281    XXY      -3.2070    XYY       5.3125
       YYY     -15.1241    XXZ      43.3770    XYZ      -3.5637
       YYZ      22.7637    XZZ       1.4599    YZZ      14.7255
       ZZZ     130.3676
    Hexadecapole Moments (Debye-Ang^3)
      XXXX    -657.0701   XXXY      48.5016   XXYY    -125.7801
      XYYY      18.7122   YYYY    -182.9898   XXXZ      37.1578
      XXYZ     -26.7605   XYYZ      -9.7985   YYYZ     -35.7233
      XXZZ    -171.1593   XYZZ      18.1581   YYZZ     -80.9955
      XZZZ      27.3968   YZZZ     -55.7483   ZZZZ    -421.7261
 -----------------------------------------------------------------
 Calculating analytic gradient of the SCF energy
 Gradient of CDS energy
            1           2           3           4           5           6
    1   0.0039871  -0.0016540  -0.0026034   0.0019688   0.0004923  -0.0022036
    2   0.0025709   0.0017219  -0.0017144   0.0041223  -0.0024208  -0.0042046
    3  -0.0009969   0.0017250  -0.0045977   0.0004305   0.0040726  -0.0004926
            7           8           9          10          11          12
    1  -0.0002161   0.0002793  -0.0002383  -0.0001157   0.0003624  -0.0000525
    2   0.0000130  -0.0003977  -0.0003344   0.0003328   0.0002939   0.0000061
    3   0.0001320  -0.0001664   0.0002035  -0.0002284  -0.0001059  -0.0000285
           13
    1  -0.0000063
    2   0.0000111
    3   0.0000528
 Gradient of SCF Energy
            1           2           3           4           5           6
    1   0.0031814   0.0058652   0.0045181  -0.0116024  -0.0115941  -0.0005368
    2   0.0087170   0.0178360   0.0021241   0.0173743  -0.0208999  -0.0067016
    3  -0.0154036  -0.0051930   0.0046107  -0.0220236  -0.0035563   0.0200954
            7           8           9          10          11          12
    1  -0.0020957  -0.0059815   0.0098385   0.0085542   0.0007601  -0.0009186
    2  -0.0105485  -0.0191187  -0.0147760   0.0171613   0.0083235   0.0022156
    3   0.0114998   0.0054415   0.0186922   0.0005568  -0.0149507   0.0030331
           13
    1   0.0000116
    2  -0.0017072
    3  -0.0028024
 Max gradient component =       2.202E-02
 RMS gradient           =       1.102E-02
 Computing fast CPCM-SWIG gradient
 Updating gradient with PCM contributions...
 -- total gradient after adding PCM contribution --
---------------------------------------------------
  Atom         X              Y              Z     
---------------------------------------------------
   1      -0.000014       0.000031      -0.000005
   2       0.000036      -0.000008       0.000017
   3      -0.000089      -0.000020       0.000044
   4       0.000011       0.000008       0.000021
   5       0.000081      -0.000059      -0.000041
   6       0.000009       0.000049       0.000001
   7       0.000004       0.000018       0.000021
   8       0.000014      -0.000035       0.000015
   9       0.000013       0.000007       0.000035
  10      -0.000066       0.000007      -0.000028
  11      -0.000012       0.000022      -0.000034
  12      -0.000047      -0.000001      -0.000048
  13       0.000061      -0.000020       0.000002
---------------------------------------------------
 Number of fixed atoms: 0
 Gradient time:  CPU 149.39 s  wall 21.95 s
 Geometry Optimization Parameters
   NAtoms,    NIC,     NZ,  NCons,   NDum,   NFix, NCnnct, MaxDiis
       13      79       0       0       0       0       0       0

 Cartesian Hessian Update
 Hessian updated using BFGS update


** GEOMETRY OPTIMIZATION IN DELOCALIZED INTERNAL COORDINATES **
   Searching for a Minimum

   Optimization Cycle:  12

                       Coordinates (Angstroms)
     ATOM                X               Y               Z
      1  C         1.2493107492   -0.2580111835   -0.4827676067
      2  O         1.9927263652   -1.0207482297   -1.3997807103
      3  C        -0.2039918526   -0.1362529214   -0.9850292355
      4  O        -0.8203761918   -1.3466401861   -1.1420558953
      5  O        -0.3701545085    0.5308123875   -2.1673602266
      6  O         1.8554532490    0.9904942472   -0.3409456695
      7  H         1.2313554315   -0.7229438323    0.5045136637
      8  H         1.7537334588   -1.9508348883   -1.3055062591
      9  H        -0.6279629345   -1.9130827278   -0.3823516654
     10  H        -0.0435766098    1.4370472864   -2.0862653481
     11  H         2.0512743827    1.3479332522   -1.2177311999
     12  O        -0.8696052731    0.6266991803    0.1145034208
     13  O        -2.1349861661    0.8026474159   -0.1281945683
   Point Group: c1    Number of degrees of freedom:    33


   Energy is   -530.500472608

 Hessian updated using BFGS update

 33 Hessian modes will be used to form the next step
  Hessian Eigenvalues:
     0.001107    0.004698    0.005791    0.008934    0.011030    0.019286
     0.058136    0.065061    0.068338    0.086042    0.097016    0.126209
     0.159864    0.163381    0.163911    0.175533    0.185848    0.207810
     0.225555    0.236348    0.253096    0.269410    0.321055    0.341738
     0.451230    0.476331    0.501579    0.520771    0.523637    0.525488
     0.526056    0.529885    0.613299

 Minimum search - taking simple RFO step
 Searching for Lamda that Minimizes Along All modes
 Value Taken    Lamda =  -0.00000034
 Step Taken.  Stepsize is  0.005878

                             Maximum     Tolerance    Cnvgd?
         Gradient           0.000066      0.000300     YES
         Displacement       0.002758      0.001200      NO
         Energy change     -0.000001      0.000001     YES


                       Distance Matrix (Angstroms)
             C (  1)   O (  2)   C (  3)   O (  4)   O (  5)   O (  6)
   O (  2)  1.405471
   C (  3)  1.542459  2.404147
   O (  4)  2.429687  2.843620  1.367342
   O (  5)  2.466326  2.929117  1.367660  2.186041
   O (  6)  1.395094  2.277075  2.434280  3.641983  2.915549
   H (  7)  1.091425  2.072368  2.150155  2.703663  3.357923  2.010017
   H (  8)  1.948588  0.964918  2.688513  2.649115  3.378204  3.097118
   H (  9)  2.504696  2.949480  1.923563  0.966970  3.037325  3.820972
   H ( 10)  2.667581  3.264743  1.927103  3.040373  0.966691  2.617607
   H ( 11)  1.939684  2.376388  2.709831  3.938633  2.726316  0.966882
   O ( 12)  2.372604  3.633192  1.494694  2.339964  2.337851  2.786705
   O ( 13)  3.564293  4.688253  2.311804  2.715797  2.710484  4.000519
             H (  7)   H (  8)   H (  9)   H ( 10)   H ( 11)   O ( 12)
   H (  8)  2.248726
   H (  9)  2.379081  2.554627
   H ( 10)  3.605988  3.913777  3.803709
   H ( 11)  2.815480  3.313323  4.302371  2.269514
   O ( 12)  2.527386  3.942336  2.599182  2.486437  3.290375
   O ( 13)  3.749667  4.908143  3.116233  2.934365  4.359955  1.300403

 
 Final energy is   -530.500472607901     


 ******************************
 **  OPTIMIZATION CONVERGED  **
 ******************************

                       Coordinates (Angstroms)
     ATOM                X               Y               Z
      1  C         1.2493107492   -0.2580111835   -0.4827676067
      2  O         1.9927263652   -1.0207482297   -1.3997807103
      3  C        -0.2039918526   -0.1362529214   -0.9850292355
      4  O        -0.8203761918   -1.3466401861   -1.1420558953
      5  O        -0.3701545085    0.5308123875   -2.1673602266
      6  O         1.8554532490    0.9904942472   -0.3409456695
      7  H         1.2313554315   -0.7229438323    0.5045136637
      8  H         1.7537334588   -1.9508348883   -1.3055062591
      9  H        -0.6279629345   -1.9130827278   -0.3823516654
     10  H        -0.0435766098    1.4370472864   -2.0862653481
     11  H         2.0512743827    1.3479332522   -1.2177311999
     12  O        -0.8696052731    0.6266991803    0.1145034208
     13  O        -2.1349861661    0.8026474159   -0.1281945683

Z-matrix Print:
$molecule
0 2
O 
O  1 1.300403
C  1 1.494694 2 111.413535
O  3 1.367342 1 109.607978 2 -58.146205 0
H  4 0.966970 3 109.793024 1 -69.944505 0
O  3 1.367660 1 109.443334 2 57.854831 0
H  6 0.966691 3 110.100829 1 55.294454 0
C  3 1.542459 1 102.728638 2 -178.634292 0
H  8 1.091425 3 108.220750 1 55.543107 0
O  8 1.395094 3 111.828302 1 -62.362703 0
H  10 0.966882 8 109.065438 3 -73.097206 0
O  8 1.405471 3 109.193091 1 177.178408 0
H  12 0.964918 8 109.168355 3 -74.831925 0
$end

 
 --------------------------------------------------------------
 
                    Orbital Energies (a.u.)
 --------------------------------------------------------------
 
 Alpha MOs
 -- Occupied --
-19.4611 -19.4240 -19.3730 -19.3721 -19.3584 -19.3546 -10.5220 -10.4628
 -1.3538  -1.2459  -1.2095  -1.1737  -1.1456  -1.0079  -0.8423  -0.7820
 -0.7071  -0.6831  -0.6659  -0.6585  -0.6133  -0.6051  -0.5955  -0.5392
 -0.5271  -0.5066  -0.4897  -0.4742  -0.4540  -0.4346  -0.4160  -0.4038
 -0.3861
 -- Virtual --
  0.0267   0.0404   0.0538   0.0590   0.0744   0.0959   0.1008   0.1058
  0.1223   0.1343   0.1427   0.1527   0.1630   0.1719   0.1968   0.2074
  0.2179   0.2269   0.2337   0.2440   0.2513   0.2638   0.2724   0.2758
  0.2839   0.2973   0.3050   0.3058   0.3097   0.3233   0.3260   0.3325
  0.3422   0.3532   0.3564   0.3639   0.3676   0.3768   0.3846   0.3860
  0.4047   0.4067   0.4245   0.4304   0.4346   0.4501   0.4699   0.4713
  0.5217   0.5843   0.5958   0.6048   0.6284   0.6458   0.6619   0.7037
  0.7088   0.7154   0.7346   0.7585   0.7890   0.8123   0.8388   0.8553
  0.8941   0.9118   0.9466   0.9665   0.9804   1.0133   1.0463   1.0614
  1.0664   1.0866   1.0984   1.1092   1.1245   1.1382   1.1400   1.1518
  1.1688   1.1719   1.1883   1.2060   1.2125   1.2275   1.2404   1.2454
  1.2779   1.2877   1.2987   1.3124   1.3357   1.3898   1.3987   1.4075
  1.4597   1.4734   1.4931   1.5133   1.5241   1.5454   1.5596   1.5830
  1.5910   1.6110   1.6141   1.6368   1.6602   1.6891   1.6904   1.7546
  1.7652   1.8283   1.8768   1.9030   1.9102   1.9372   1.9490   1.9780
  2.0442   2.0732   2.1165   2.1556   2.1981   2.2362   2.2524   2.2840
  2.2999   2.3314   2.3573   2.3699   2.4007   2.4172   2.4190   2.4692
  2.5043   2.5225   2.5305   2.5932   2.7052   2.7503   2.7761   2.8406
  2.9012   2.9701   3.0588   3.1024   3.1495   3.2171   3.2674   3.3142
  3.3610   3.3644   3.4076   3.4479   3.4711   3.5036   3.5431   3.5998
  3.6312   3.6447   3.6664   3.6774   3.7312   3.7348   3.7823   3.8234
  3.8314   3.8464   3.8577   3.8834   3.9026   3.9367   3.9572   4.0446
  4.0808   4.1303   4.1944   4.2021   4.2466   4.2601   4.2664   4.2998
  4.3215   4.4091   4.4119   4.4479   4.5322   4.5755   4.7063   4.7463
  4.7911   4.8821   5.0039   5.0265   5.0664   5.0826   5.1334   5.1492
  5.2007   5.2070   5.2196   5.2321   5.2341   5.2467   5.2468   5.2709
  5.2755   5.2870   5.3155   5.3273   5.3400   5.3509   5.3686   5.4007
  5.4280   5.4502   5.4692   5.5055   5.5345   5.5537   5.5906   5.6197
  5.6313   5.6422   5.6683   5.6905   5.7079   5.7327   5.8036   5.8999
  5.9697   6.0042   6.0107   6.0623   6.1257   6.1468   6.1905   6.2193
  6.4790   6.5425   6.5800   6.6347   6.7810   6.8035   6.8645   6.9207
  6.9446   7.0259   7.0536   7.0840   7.1032   7.1366   7.1493   7.1797
  7.2302   7.2568   7.2822   7.3054   7.3205   7.3277   7.3519   7.3604
  7.3825   7.4107   7.4354   7.4474   7.5105   7.5987   7.6264   7.6956
  7.7032   7.7245   7.7794   7.8497   7.8515   7.8684   7.8977   8.0926
  8.1597  24.7637  24.8830  50.4219  50.5422  50.5792  50.5875  50.6380
 50.6827
 
 Beta MOs
 -- Occupied --
-19.4514 -19.4046 -19.3728 -19.3720 -19.3583 -19.3546 -10.5224 -10.4629
 -1.3302  -1.2420  -1.2091  -1.1733  -1.1455  -0.9746  -0.8359  -0.7810
 -0.6980  -0.6816  -0.6620  -0.6476  -0.6003  -0.5849  -0.5613  -0.5278
 -0.5178  -0.5037  -0.4889  -0.4720  -0.4483  -0.4320  -0.4053  -0.3770
 -- Virtual --
 -0.0341   0.0268   0.0406   0.0540   0.0592   0.0746   0.0969   0.1015
  0.1067   0.1227   0.1348   0.1430   0.1536   0.1638   0.1788   0.1987
  0.2092   0.2187   0.2291   0.2343   0.2459   0.2543   0.2650   0.2757
  0.2795   0.2874   0.2974   0.3067   0.3087   0.3110   0.3245   0.3277
  0.3338   0.3434   0.3545   0.3573   0.3648   0.3693   0.3777   0.3852
  0.3874   0.4050   0.4085   0.4257   0.4320   0.4352   0.4513   0.4708
  0.4723   0.5222   0.5847   0.5959   0.6051   0.6287   0.6464   0.6620
  0.7037   0.7090   0.7159   0.7355   0.7589   0.7900   0.8130   0.8390
  0.8564   0.8943   0.9143   0.9479   0.9672   0.9819   1.0141   1.0468
  1.0660   1.0762   1.0902   1.1001   1.1106   1.1291   1.1388   1.1440
  1.1561   1.1725   1.1837   1.1916   1.2161   1.2230   1.2342   1.2417
  1.2526   1.2786   1.2912   1.2997   1.3136   1.3373   1.3903   1.4059
  1.4109   1.4619   1.4762   1.4958   1.5148   1.5273   1.5470   1.5683
  1.5911   1.6040   1.6147   1.6250   1.6416   1.6648   1.6922   1.6982
  1.7685   1.7772   1.8398   1.8805   1.9052   1.9145   1.9384   1.9516
  1.9808   2.0463   2.0757   2.1176   2.1585   2.2039   2.2414   2.2561
  2.2960   2.3058   2.3391   2.3587   2.3718   2.4028   2.4193   2.4222
  2.4721   2.5051   2.5246   2.5331   2.5946   2.7065   2.7583   2.7770
  2.8414   2.9016   2.9710   3.0594   3.1031   3.1501   3.2172   3.2680
  3.3143   3.3612   3.3648   3.4081   3.4485   3.4712   3.5043   3.5432
  3.6001   3.6309   3.6445   3.6674   3.6772   3.7315   3.7354   3.7826
  3.8240   3.8314   3.8470   3.8579   3.8836   3.9028   3.9367   3.9579
  4.0450   4.0807   4.1311   4.1945   4.2023   4.2468   4.2603   4.2664
  4.3000   4.3218   4.4094   4.4122   4.4483   4.5344   4.6100   4.7261
  4.7477   4.8159   4.8927   5.0205   5.0811   5.1227   5.1294   5.1685
  5.1767   5.2057   5.2242   5.2343   5.2429   5.2520   5.2578   5.2686
  5.2739   5.2821   5.2888   5.3193   5.3307   5.3446   5.3582   5.3733
  5.4080   5.4345   5.4535   5.4742   5.5143   5.5394   5.5579   5.5987
  5.6262   5.6417   5.6505   5.6698   5.6921   5.7154   5.7343   5.8074
  5.9009   5.9711   6.0044   6.0126   6.0656   6.1266   6.1489   6.1966
  6.2243   6.5191   6.5504   6.5908   6.6420   6.7856   6.8609   6.9424
  6.9533   6.9955   7.0354   7.0673   7.0888   7.1065   7.1526   7.1662
  7.2082   7.2350   7.2622   7.2854   7.3059   7.3232   7.3287   7.3576
  7.3681   7.3914   7.4169   7.4465   7.4782   7.5174   7.6110   7.6271
  7.6989   7.7050   7.7253   7.7865   7.8509   7.8561   7.8700   7.9038
  8.1028   8.1766  24.7636  24.8828  50.4350  50.5487  50.5796  50.5888
 50.6390  50.6829
 --------------------------------------------------------------
 
          Ground-State Mulliken Net Atomic Charges

     Atom                 Charge (a.u.)    Spin (a.u.)
  --------------------------------------------------------
      1 C                     0.033877       0.000279
      2 O                    -0.438444      -0.000915
      3 C                     0.158797      -0.001135
      4 O                    -0.429182       0.003415
      5 O                    -0.425976       0.003604
      6 O                    -0.430175       0.003842
      7 H                     0.316202       0.000427
      8 H                     0.342394      -0.000073
      9 H                     0.360413      -0.000082
     10 H                     0.359020      -0.000125
     11 H                     0.347316      -0.000629
     12 O                     0.036707       0.295127
     13 O                    -0.230948       0.696264
  --------------------------------------------------------
  Sum of atomic charges =     0.000000
  Sum of spin   charges =     1.000000

 -----------------------------------------------------------------
                    Cartesian Multipole Moments
 -----------------------------------------------------------------
    Charge (ESU x 10^10)
                 0.0000
    Dipole Moment (Debye)
         X       3.0334      Y      -2.2677      Z       0.7828
       Tot       3.8674
    Quadrupole Moments (Debye-Ang)
        XX     -58.2379     XY       0.7274     YY     -34.2772
        XZ      -4.2762     YZ      -8.4100     ZZ     -51.2640
    Octopole Moments (Debye-Ang^2)
       XXX     -19.5281    XXY      -3.2070    XYY       5.3125
       YYY     -15.1241    XXZ      43.3770    XYZ      -3.5637
       YYZ      22.7637    XZZ       1.4599    YZZ      14.7255
       ZZZ     130.3676
    Hexadecapole Moments (Debye-Ang^3)
      XXXX    -657.0701   XXXY      48.5016   XXYY    -125.7801
      XYYY      18.7122   YYYY    -182.9898   XXXZ      37.1578
      XXYZ     -26.7605   XYYZ      -9.7985   YYYZ     -35.7233
      XXZZ    -171.1593   XYZZ      18.1581   YYZZ     -80.9955
      XZZZ      27.3968   YZZZ     -55.7483   ZZZZ    -421.7261
 -----------------------------------------------------------------
 Total job time:  1939.71s(wall), 14990.75s(cpu) 
 Mon Jul 17 16:56:42 2023

        *************************************************************
        *                                                           *
        *  Thank you very much for using Q-Chem.  Have a nice day.  *
        *                                                           *
        *************************************************************


