
Running Job 1 of 1 Q_in.in
qchem Q_in.in_125032.0 /scratch/ari.fischer/qChem1647377.hpc-mn1/qchem125032/ 0
/usr/local/qchem-5.4.1/exe/qcprog.exe_s Q_in.in_125032.0 /scratch/ari.fischer/qChem1647377.hpc-mn1/qchem125032/
                  Welcome to Q-Chem
     A Quantum Leap Into The Future Of Chemistry


 Q-Chem 5.4, Q-Chem, Inc., Pleasanton, CA (2021)

 License issued to: Nanyang Technological University (site)

 E. Epifanovsky,  A. T. B. Gilbert,  Xintian Feng,  Joonho Lee,  Yuezhi Mao,  
 N. Mardirossian,  P. Pokhilko,  A. White,  M. Wormit,  M. P. Coons,  
 A. L. Dempwolff,  Zhengting Gan,  D. Hait,  P. R. Horn,  L. D. Jacobson,  
 I. Kaliman,  J. Kussmann,  A. W. Lange,  Ka Un Lao,  D. S. Levine,  Jie Liu,  
 S. C. McKenzie,  A. F. Morrison,  K. Nanda,  F. Plasser,  D. R. Rehn,  
 M. L. Vidal,  Zhi-Qiang You,  Ying Zhu,  B. Alam,  B. Albrecht,  
 A. Aldossary,  E. Alguire,  J. H. Andersen,  D. Barton,  K. Begam,  A. Behn,  
 Y. A. Bernard,  E. J. Berquist,  H. Burton,  A. Carreras,  K. Carter-Fenk,  
 R. Chakraborty,  A. D. Chien,  K. D. Closser,  V. Cofer-Shabica,  
 S. Dasgupta,  Jia Deng,  M. de Wergifosse,  M. Diedenhofen,  Hainam Do,  
 S. Ehlert,  Po-Tung Fang,  S. Fatehi,  Qingguo Feng,  T. Friedhoff,  
 J. Gayvert,  Qinghui Ge,  G. Gidofalvi,  M. Goldey,  J. Gomes,  
 C. Gonzalez-Espinoza,  S. Gulania,  A. Gunina,  M. W. D. Hanson-Heine,  
 P. H. P. Harbach,  A. W. Hauser,  M. F. Herbst,  M. Hernandez Vera,  
 M. Hodecker,  Z. C. Holden,  S. Houck,  Xunkun Huang,  Kerwin Hui,  
 B. C. Huynh,  M. Ivanov,  Hyunjun Ji,  Hanjie Jiang,  B. Kaduk,  S. Kaehler,  
 K. Khistyaev,  Jaehoon Kim,  P. Klunzinger,  Z. Koczor-Benda,  
 Joong Hoon Koh,  D. Kosenkov,  L. Koulias,  T. Kowalczyk,  C. M. Krauter,  
 K. Kue,  A. Kunitsa,  T. Kus,  A. Landau,  K. V. Lawler,  D. Lefrancois,  
 S. Lehtola,  Rain Li,  Yi-Pei Li,  Jiashu Liang,  M. Liebenthal,  
 Hung-Hsuan Lin,  You-Sheng Lin,  Fenglai Liu,  Kuan-Yu Liu,  
 M. Loipersberger,  A. Luenser,  A. Manjanath,  P. Manohar,  E. Mansoor,  
 S. F. Manzer,  Shan-Ping Mao,  A. V. Marenich,  T. Markovich,  S. Mason,  
 S. A. Maurer,  P. F. McLaughlin,  M. F. S. J. Menger,  J.-M. Mewes,  
 S. A. Mewes,  P. Morgante,  J. W. Mullinax,  K. J. Oosterbaan,  G. Paran,  
 Alexander C. Paul,  Suranjan K. Paul,  F. Pavosevic,  Zheng Pei,  S. Prager,  
 E. I. Proynov,  E. Ramos,  B. Rana,  A. E. Rask,  A. Rettig,  R. M. Richard,  
 F. Rob,  E. Rossomme,  T. Scheele,  M. Scheurer,  M. Schneider,  
 N. Sergueev,  S. M. Sharada,  W. Skomorowski,  D. W. Small,  C. J. Stein,  
 Yu-Chuan Su,  E. J. Sundstrom,  Zhen Tao,  J. Thirman,  T. Tsuchimochi,  
 N. M. Tubman,  S. P. Veccham,  O. Vydrov,  J. Wenzel,  J. Witte,  A. Yamada,  
 Kun Yao,  S. Yeganeh,  S. R. Yost,  A. Zech,  Igor Ying Zhang,  Xing Zhang,  
 Yu Zhang,  D. Zuev,  A. Aspuru-Guzik,  A. T. Bell,  N. A. Besley,  
 K. B. Bravaya,  B. R. Brooks,  D. Casanova,  Jeng-Da Chai,  S. Coriani,  
 C. J. Cramer,  A. E. DePrince, III,  R. A. DiStasio Jr.,  A. Dreuw,  
 B. D. Dunietz,  T. R. Furlani,  W. A. Goddard III,  S. Grimme,  
 S. Hammes-Schiffer,  T. Head-Gordon,  W. J. Hehre,  Chao-Ping Hsu,  
 T.-C. Jagau,  Yousung Jung,  A. Klamt,  Jing Kong,  D. S. Lambrecht,  
 WanZhen Liang,  N. J. Mayhall,  C. W. McCurdy,  J. B. Neaton,  
 C. Ochsenfeld,  J. A. Parkhill,  R. Peverati,  V. A. Rassolov,  Yihan Shao,  
 L. V. Slipchenko,  T. Stauch,  R. P. Steele,  J. E. Subotnik,  
 A. J. W. Thom,  A. Tkatchenko,  D. G. Truhlar,  T. Van Voorhis,  
 T. A. Wesolowski,  K. B. Whaley,  H. L. Woodcock III,  P. M. Zimmerman,  
 S. Faraji,  P. M. W. Gill,  M. Head-Gordon,  J. M. Herbert,  A. I. Krylov

 Additional authors for Version 5.4.1: 
 S. Kotaru,  Shaozhi Li,  Xiangyuan Li,  F. Matz,  A. Molle,  Haisheng Ren,  
 Yingli Su,  Hung-Yi Tsai,  C. Utku,  Fang Wang

 Contributors to earlier versions of Q-Chem not listed above: 
 R. D. Adamson,  B. Austin,  R. Baer,  J. Baker,  G. J. O. Beran,  
 K. Brandhorst,  S. T. Brown,  E. F. C. Byrd,  A. K. Chakraborty,  
 G. K. L. Chan,  Chun-Min Chang,  Yunqing Chen,  C.-L. Cheng,  
 Siu Hung Chien,  D. M. Chipman,  D. L. Crittenden,  H. Dachsel,  
 R. J. Doerksen,  A. D. Dutoi,  R. G. Edgar,  J. Fosso-Tande,  
 L. Fusti-Molnar,  D. Ghosh,  A. Ghysels,  A. Golubeva-Zadorozhnaya,  
 J. Gonthier,  M. S. Gordon,  S. R. Gwaltney,  G. Hawkins,  J. E. Herr,  
 A. Heyden,  S. Hirata,  E. G. Hohenstein,  G. Kedziora,  F. J. Keil,  
 C. Kelley,  Jihan Kim,  R. A. King,  R. Z. Khaliullin,  P. P. Korambath,  
 W. Kurlancheek,  A. Laurent,  A. M. Lee,  M. S. Lee,  S. V. Levchenko,  
 Ching Yeh Lin,  D. Liotard,  E. Livshits,  R. C. Lochan,  I. Lotan,  
 L. A. Martinez-Martinez,  P. E. Maslen,  N. Nair,  D. P. O'Neill,  
 D. Neuhauser,  E. Neuscamman,  C. M. Oana,  R. Olivares-Amaya,  R. Olson,  
 T. M. Perrine,  B. Peters,  P. A. Pieniazek,  A. Prociuk,  Y. M. Rhee,  
 J. Ritchie,  M. A. Rohrdanz,  E. Rosta,  N. J. Russ,  H. F. Schaefer III,  
 M. W. Schmidt,  N. E. Schultz,  S. Sharma,  N. Shenvi,  C. D. Sherrill,  
 A. C. Simmonett,  A. Sodt,  T. Stein,  D. Stuck,  K. S. Thanthiriwatte,  
 V. Vanovschi,  L. Vogt,  Tao Wang,  A. Warshel,  M. A. Watson,  
 C. F. Williams,  Q. Wu,  X. Xu,  Jun Yang,  W. Zhang,  Yan Zhao

 Please cite Q-Chem as follows:
 Y. Shao et al., Mol. Phys. 113, 184-215 (2015)
 DOI: 10.1080/00268976.2014.952696

 Q-Chem 5.4.1 for Intel X86 EM64T Linux

 Parts of Q-Chem use Armadillo 9.800.1 (Horizon Scraper).
 http://arma.sourceforge.net/

 Q-Chem begins on Tue Jul 25 21:01:38 2023  

 Host: 
0

     Scratch files written to /scratch/ari.fischer/qChem1647377.hpc-mn1/qchem125032//
 Aug1521 |scratch|qcdevops|jenkins|workspace|build_RNUM 8249   
 Processing $rem in /usr/local/qchem-5.4.1/config/preferences:
 Processing $rem in /home/ari.fischer/.qchemrc:
 Symmetry turned off for PCM/SM12/SMD calculation


!!********************************************.
!!******************Warning*******************.
!!Desired Analytical derivatives not available.
!!Finite difference job might take a long time.
!!********************************************.
!!********************************************.


 2-order derivative to be evaluated numerically with 1-order analytical derivatives

 Checking the input file for inconsistencies... 	...done.

--------------------------------------------------------------
User input:
--------------------------------------------------------------
$molecule
0 2
C        -0.7331289090   -0.6760306448    0.3672980418
O        -0.8952841265   -1.6586837139    1.2200097559
O        -1.2525592068   -0.4452543372   -0.6740821840
H        -1.5742651576   -2.2840865039    0.8968406863
$end

$rem
BASIS = 6-311++G(2df,2p)
GUI = 2
JOB_TYPE = Frequency
METHOD = wB97M-V
SOLVENT_METHOD = SMD
SCF_ALGORITHM = DIIS_GDM
MAX_SCF_CYCLES = 400
SCF_CONVERGENCE = 7
THRESH = 12
UNRESTRICTED = 1
SYMMETRY_IGNORE = 1
$end
--------------------------------------------------------------
 ----------------------------------------------------------------
             Standard Nuclear Orientation (Angstroms)
    I     Atom           X                Y                Z
 ----------------------------------------------------------------
    1      C      -0.7331289090    -0.6760306448     0.3672980418
    2      O      -0.8952841265    -1.6586837139     1.2200097559
    3      O      -1.2525592068    -0.4452543372    -0.6740821840
    4      H      -1.5742651576    -2.2840865039     0.8968406863
 ----------------------------------------------------------------
 Nuclear Repulsion Energy =          63.39562229 hartrees
 There are       12 alpha and       11 beta electrons
 Requested basis set is 6-311++G(2df,2p)
 There are 30 shells and 112 basis functions

 Total QAlloc Memory Limit 288000 MB
 Mega-Array Size       188 MB
 MEM_STATIC part       192 MB
 
 Citation of the SMD model:
 Marenich, A.V.; Cramer, C.J.; Truhlar, D.G.
 J. Phys. Chem. B 2009, 113, 6378-6396.
 iSolventCode=           1
 Solvent: water                                                           
 
 vradii
            1           2           3           4
    1   1.8500000   1.5200000   1.5200000   1.2000000
 Changing PCM_VDW_RADII to SMD_RADIUS
 Discretize the solute cavity surface with Lebedev spheres
	Using 110 Lebedev grid points for each H atom
	Using 194 Lebedev grid points for other atoms
	Atomic van der Waals radii will be scaled by 1.20
 Remove points where switching function is < 1.0e-08
 Keep 437 surface tesserae and discard 255 interior tesserae
 Molecular Surface Area = 60.655 Angst**2

                       Distance Matrix (Angstroms)
             C (  1)   O (  2)   O (  3)
   O (  2)  1.311114
   O (  3)  1.186397  2.277639
   H (  4)  1.890442  0.978050  2.439794
 
 A cutoff of  1.0D-12 yielded    462 shell pairs
 There are      6520 function pairs (      8422 Cartesian)
 Smallest overlap matrix eigenvalue = 8.32E-04
 Guess from superposition of atomic densities
 Warning:  Energy on first SCF cycle will be non-variational
 SAD guess density has 23.000000 electrons

 -----------------------------------------------------------------------
  General SCF calculation program by
  Eric Jon Sundstrom, Paul Horn, Yuezhi Mao, Dmitri Zuev, Alec White,
  David Stuck, Shaama M.S., Shane Yost, Joonho Lee, David Small,
  Daniel Levine, Susi Lehtola, Hugh Burton, Evgeny Epifanovsky,
  Bang C. Huynh
 -----------------------------------------------------------------------
 Exchange:     0.1500 Hartree-Fock + 1.0000 wB97M-V + LR-HF
 Correlation:  1.0000 wB97M-V
 Using SG-2 standard quadrature grid
 Nonlocal Correlation:  VV10 with C = 0.0100 and b = 6.00 and scale = 1.00000
 Grid used for NLC:  SG-1 standard quadrature
 using 8 threads for integral computing
 -------------------------------------------------------
 OpenMP Integral computing Module                
 Release: version 1.0, May 2013, Q-Chem Inc. Pittsburgh 
 -------------------------------------------------------
 
 Citation of the SMD model:
 Marenich, A.V.; Cramer, C.J.; Truhlar, D.G.
 J. Phys. Chem. B 2009, 113, 6378-6396.
 iSolventCode=           1
 Solvent: water                                                           
 
 vradii
            1           2           3           4
    1   1.8500000   1.5200000   1.5200000   1.2000000
 -------------------------------------------------------
 OpenMP BLAS3 based DFT computing Module                
 Release: version 1.0, May 2013, Q-Chem Inc. Pittsburgh 
 -------------------------------------------------------
 A unrestricted SCF calculation will be
 performed using DIIS, GDM
 SCF converges when RMS gradient is below 1.0e-07
 ---------------------------------------
  Cycle       Energy         DIIS error
 ---------------------------------------
    1    -189.5393591157      2.46e-02  
    2    -189.0446012204      3.86e-03  Done DIIS. Switching to GDM
 ---------------------------------------
  Cycle       Energy        RMS Gradient
 ---------------------------------------
    1    -189.0446012204      1.53e-01   Descent step
    2    -189.1077690836      4.79e-02   Normal BFGS step
    3    -189.1201656208      1.36e-02   Normal BFGS step
    4    -189.1207553758      8.58e-03   Normal BFGS step
    5    -189.1213695608      1.79e-03   Normal BFGS step
    6    -189.1213894715      6.23e-04   Normal BFGS step
    7    -189.1213927751      1.37e-04   Normal BFGS step
    8    -189.1213929893      7.02e-05   Normal BFGS step
    9    -189.1213930257      4.11e-05   Normal BFGS step
   10    -189.1213930344      2.07e-05   Normal BFGS step
   11    -189.1213930361      8.07e-06   Normal BFGS step
   12    -189.1213930364      2.52e-06   Normal BFGS step
   13    -189.1213930365      6.68e-07   Normal BFGS step
   14    -189.1213930365      1.96e-07   Normal BFGS step
   15    -189.1213930365      5.75e-08  Convergence criterion met
 ---------------------------------------
 SCF time:   CPU 70.75s  wall 9.00s 
<S^2> =          0.752705856
(3)  G-ENP(liq) elect-nuc-pol free energy of system     -189.121393036 a.u.
(4)  G-CDS(liq) cavity-dispersion-solvent structure 
     free energy                                                5.4920 kcal/mol
(6)  G-S(liq) free energy of system                     -189.112641049 a.u.
 SCF   energy in the final basis set =     -189.1126410485
 Total energy in the final basis set =     -189.1126410485
 
 --------------------------------------------------------------
 
                    Orbital Energies (a.u.)
 --------------------------------------------------------------
 
 Alpha MOs
 -- Occupied --
-19.4107 -19.3812 -10.4978  -1.2740  -1.2016  -0.7732  -0.6457  -0.6116
 -0.5915  -0.5011  -0.4677  -0.3391
 -- Virtual --
  0.0433   0.0753   0.0761   0.0875   0.1012   0.1210   0.2086   0.2212
  0.2269   0.2385   0.2840   0.2942   0.3011   0.3299   0.3562   0.4140
  0.5230   0.5444   0.6047   0.6464   0.7146   0.7199   0.7404   0.8234
  0.8533   0.9931   1.0027   1.0685   1.0849   1.0999   1.1259   1.1464
  1.1642   1.3441   1.3909   1.5164   1.5362   1.5885   1.6069   1.7375
  1.8135   1.9658   1.9947   2.1133   2.2305   2.3240   2.3545   2.5109
  2.7320   2.7901   2.8957   2.9028   3.0585   3.1173   3.1926   3.2181
  3.3415   3.3913   3.4768   3.5581   3.6101   3.6354   3.7655   3.8070
  3.9858   4.1509   4.3467   5.0908   5.1012   5.1140   5.1380   5.1591
  5.2242   5.2432   5.2745   5.4402   5.4765   5.5526   5.5815   5.5881
  5.9884   6.1151   6.5301   6.7367   6.8529   6.8584   6.9099   7.0031
  7.0850   7.1589   7.2135   7.3004   7.3963   7.4171   7.5900   7.7264
  7.7681  25.0267  50.5202  50.6696
 
 Beta MOs
 -- Occupied --
-19.4075 -19.3740 -10.4861  -1.2618  -1.1878  -0.7505  -0.6340  -0.5831
 -0.5809  -0.4714  -0.4636
 -- Virtual --
 -0.0268   0.0486   0.0770   0.0800   0.0900   0.1167   0.1198   0.2101
  0.2186   0.2269   0.2372   0.2826   0.2931   0.2989   0.3308   0.3591
  0.4261   0.5360   0.5565   0.6072   0.6622   0.7239   0.7321   0.7566
  0.8339   0.8653   1.0048   1.0100   1.0718   1.0912   1.1018   1.1402
  1.1513   1.1657   1.3583   1.4032   1.5234   1.5395   1.5981   1.6190
  1.7513   1.8180   1.9811   2.0023   2.1210   2.2461   2.3404   2.3729
  2.5254   2.7486   2.8091   2.9433   2.9440   3.0834   3.1556   3.2298
  3.2815   3.4150   3.4165   3.5085   3.5982   3.6272   3.6617   3.7786
  3.8477   4.0031   4.1673   4.3745   5.0991   5.1079   5.1290   5.1520
  5.1682   5.2471   5.2520   5.2819   5.4516   5.4853   5.5700   5.5865
  5.5984   6.0126   6.1260   6.5472   6.7526   6.8759   6.8849   6.9271
  7.0121   7.1036   7.1747   7.2197   7.3091   7.4135   7.4404   7.6035
  7.7406   7.7850  25.0378  50.5235  50.6755
 --------------------------------------------------------------
 
          Ground-State Mulliken Net Atomic Charges

     Atom                 Charge (a.u.)    Spin (a.u.)
  --------------------------------------------------------
      1 C                     0.188073       0.740117
      2 O                    -0.237830      -0.002192
      3 O                    -0.312412       0.210013
      4 H                     0.362169       0.052063
  --------------------------------------------------------
  Sum of atomic charges =    -0.000000
  Sum of spin   charges =     1.000000

 -----------------------------------------------------------------
                    Cartesian Multipole Moments
 -----------------------------------------------------------------
    Charge (ESU x 10^10)
                 0.0000
    Dipole Moment (Debye)
         X      -0.9953      Y      -2.4016      Z       1.1884
       Tot       2.8584
    Quadrupole Moments (Debye-Ang)
        XX     -14.3903     XY       5.2818     YY     -10.1509
        XZ      -3.2292     YZ      -1.0234     ZZ     -19.5109
    Octopole Moments (Debye-Ang^2)
       XXX      43.8732    XXY       5.9811    XYY       1.9292
       YYY      29.7747    XXZ       0.5080    XYZ       4.6009
       YYZ      -1.9008    XZZ      17.6691    YZZ      18.1978
       ZZZ     -18.5954
    Hexadecapole Moments (Debye-Ang^3)
      XXXX    -107.5551   XXXY     -27.8456   XXYY     -16.5023
      XYYY      -8.6236   YYYY     -91.5938   XXXZ      -0.4031
      XXYZ       1.9725   XYYZ      -8.3416   YYYZ      22.8637
      XXZZ     -33.9927   XYZZ     -14.2324   YYZZ     -38.6290
      XZZZ      10.4415   YZZZ      39.0934   ZZZZ     -94.4858
 -----------------------------------------------------------------
 Calculating analytic gradient of the SCF energy
 Gradient of CDS energy
            1           2           3           4
    1  -0.0004481   0.0002837   0.0003649  -0.0002005
    2  -0.0015274   0.0022377  -0.0003319  -0.0003784
    3   0.0010286  -0.0020705   0.0009213   0.0001205
 Gradient of SCF Energy
            1           2           3           4
    1  -0.0000740   0.0138814  -0.0001229  -0.0136845
    2  -0.0009740   0.0108178   0.0043636  -0.0142074
    3   0.0009854   0.0087794  -0.0050534  -0.0047113
 Max gradient component =       1.421E-02
 RMS gradient           =       8.390E-03
 Computing fast CPCM-SWIG gradient
 Updating gradient with PCM contributions...
 -- total gradient after adding PCM contribution --
---------------------------------------------------
  Atom         X              Y              Z     
---------------------------------------------------
   1      -0.000078       0.000061       0.000028
   2       0.000006       0.000049      -0.000000
   3      -0.000029      -0.000025       0.000016
   4       0.000101      -0.000085      -0.000044
---------------------------------------------------
 Number of fixed atoms: 0
 Gradient time:  CPU 11.64 s  wall 2.22 s
 ######################################################
 ######################################################
 # Starting finite difference calculation for IDERIV  #
 Finite diff step size:  1.88973e-03 a.u.
 ----------------------------------------------------------------
             Standard Nuclear Orientation (Angstroms)
    I     Atom           X                Y                Z
 ----------------------------------------------------------------
    1      C      -0.7321289090    -0.6760306448     0.3672980418
    2      O      -0.8952841265    -1.6586837139     1.2200097559
    3      O      -1.2525592068    -0.4452543372    -0.6740821840
    4      H      -1.5742651576    -2.2840865039     0.8968406863
 ----------------------------------------------------------------
 Nuclear Repulsion Energy =          63.38548987 hartrees
 There are       12 alpha and       11 beta electrons
 Discretize the solute cavity surface with Lebedev spheres
	Using 110 Lebedev grid points for each H atom
	Using 194 Lebedev grid points for other atoms
	Atomic van der Waals radii will be scaled by 1.20
 Remove points where switching function is < 1.0e-08
 Keep 437 surface tesserae and discard 255 interior tesserae
 Molecular Surface Area = 60.663 Angst**2

                       Distance Matrix (Angstroms)
             C (  1)   O (  2)   O (  3)
   O (  2)  1.311238
   O (  3)  1.186835  2.277639
   H (  4)  1.890887  0.978050  2.439794
 
 Requested basis set is 6-311++G(2df,2p)
 There are 30 shells and 112 basis functions
 A cutoff of  1.0D-12 yielded    462 shell pairs
 There are      6520 function pairs (      8422 Cartesian)
 Smallest overlap matrix eigenvalue = 8.33E-04
 Guess MOs from SCF MO coefficient file

 -----------------------------------------------------------------------
  General SCF calculation program by
  Eric Jon Sundstrom, Paul Horn, Yuezhi Mao, Dmitri Zuev, Alec White,
  David Stuck, Shaama M.S., Shane Yost, Joonho Lee, David Small,
  Daniel Levine, Susi Lehtola, Hugh Burton, Evgeny Epifanovsky,
  Bang C. Huynh
 -----------------------------------------------------------------------
 Exchange:     0.1500 Hartree-Fock + 1.0000 wB97M-V + LR-HF
 Correlation:  1.0000 wB97M-V
 Using SG-2 standard quadrature grid
 Nonlocal Correlation:  VV10 with C = 0.0100 and b = 6.00 and scale = 1.00000
 Grid used for NLC:  SG-1 standard quadrature
 
 Citation of the SMD model:
 Marenich, A.V.; Cramer, C.J.; Truhlar, D.G.
 J. Phys. Chem. B 2009, 113, 6378-6396.
 iSolventCode=           1
 Solvent: water                                                           
 
 vradii
            1           2           3           4
    1   1.8500000   1.5200000   1.5200000   1.2000000
 -------------------------------------------------------
 OpenMP BLAS3 based DFT computing Module                
 Release: version 1.0, May 2013, Q-Chem Inc. Pittsburgh 
 -------------------------------------------------------
 A unrestricted SCF calculation will be
 performed using Roothaan-Hall, DIIS, GDM
 SCF converges when RMS gradient is below 1.0e-07
 ---------------------------------------
  Cycle       Energy         DIIS error
 ---------------------------------------
    1    -189.1056083588      4.71e-04  Roothaan Step
 ---------------------------------------
  Cycle       Energy         DIIS error
 ---------------------------------------
    1    -189.1186272238      5.49e-04  
    2    -189.1201838789      5.37e-04  Done DIIS. Switching to GDM
 ---------------------------------------
  Cycle       Energy        RMS Gradient
 ---------------------------------------
    1    -189.1201838789      1.36e-02   Normal BFGS step
    2    -189.1194834553      2.25e-02  Line search: overstep
    3    -189.1213124133      2.61e-03   Normal BFGS step
    4    -189.1213808380      1.21e-03   Normal BFGS step
    5    -189.1213903815      3.75e-04   Normal BFGS step
    6    -189.1213914274      2.16e-04   Normal BFGS step
    7    -189.1213918127      6.20e-05   Normal BFGS step
    8    -189.1213918278      3.62e-05   Normal BFGS step
    9    -189.1213918318      1.46e-05   Normal BFGS step
   10    -189.1213918325      5.39e-06   Normal BFGS step
   11    -189.1213918326      1.22e-06   Normal BFGS step
   12    -189.1213918327      7.32e-07   Normal BFGS step
   13    -189.1213918327      3.88e-07   Normal BFGS step
   14    -189.1213918327      1.21e-07   Normal BFGS step
   15    -189.1213918327      2.97e-08  Convergence criterion met
 ---------------------------------------
 SCF time:   CPU 75.06s  wall 10.00s 
<S^2> =          0.752709713
(3)  G-ENP(liq) elect-nuc-pol free energy of system     -189.121391833 a.u.
(4)  G-CDS(liq) cavity-dispersion-solvent structure 
     free energy                                                5.4914 kcal/mol
(6)  G-S(liq) free energy of system                     -189.112640697 a.u.
 SCF   energy in the final basis set =     -189.1126406965
 Total energy in the final basis set =     -189.1126406965
 
 --------------------------------------------------------------
 
                    Orbital Energies (a.u.)
 --------------------------------------------------------------
 
 Alpha MOs
 -- Occupied --
-19.4107 -19.3812 -10.4979  -1.2739  -1.2014  -0.7733  -0.6456  -0.6115
 -0.5914  -0.5010  -0.4677  -0.3394
 -- Virtual --
  0.0433   0.0753   0.0760   0.0875   0.1011   0.1210   0.2085   0.2212
  0.2268   0.2385   0.2840   0.2942   0.3011   0.3299   0.3562   0.4139
  0.5228   0.5443   0.6046   0.6463   0.7148   0.7200   0.7402   0.8233
  0.8532   0.9929   1.0026   1.0685   1.0849   1.0999   1.1259   1.1465
  1.1641   1.3440   1.3907   1.5164   1.5361   1.5885   1.6066   1.7375
  1.8133   1.9653   1.9945   2.1129   2.2303   2.3238   2.3541   2.5106
  2.7320   2.7900   2.8958   2.9029   3.0585   3.1174   3.1927   3.2181
  3.3415   3.3913   3.4768   3.5583   3.6094   3.6355   3.7654   3.8063
  3.9856   4.1506   4.3459   5.0908   5.1012   5.1140   5.1379   5.1591
  5.2240   5.2427   5.2746   5.4400   5.4758   5.5523   5.5815   5.5875
  5.9874   6.1142   6.5279   6.7354   6.8529   6.8575   6.9097   7.0030
  7.0843   7.1585   7.2136   7.3001   7.3968   7.4161   7.5901   7.7259
  7.7672  25.0259  50.5198  50.6687
 
 Beta MOs
 -- Occupied --
-19.4075 -19.3740 -10.4862  -1.2617  -1.1876  -0.7506  -0.6339  -0.5830
 -0.5808  -0.4712  -0.4636
 -- Virtual --
 -0.0270   0.0485   0.0770   0.0800   0.0900   0.1166   0.1198   0.2101
  0.2186   0.2269   0.2372   0.2826   0.2932   0.2989   0.3308   0.3592
  0.4260   0.5359   0.5563   0.6072   0.6621   0.7241   0.7322   0.7564
  0.8338   0.8651   1.0047   1.0100   1.0718   1.0912   1.1019   1.1402
  1.1514   1.1657   1.3582   1.4029   1.5235   1.5393   1.5981   1.6187
  1.7512   1.8179   1.9806   2.0021   2.1206   2.2460   2.3403   2.3724
  2.5251   2.7486   2.8090   2.9434   2.9442   3.0832   3.1558   3.2299
  3.2815   3.4151   3.4165   3.5084   3.5983   3.6266   3.6618   3.7786
  3.8471   4.0030   4.1671   4.3736   5.0991   5.1079   5.1291   5.1519
  5.1681   5.2469   5.2515   5.2820   5.4514   5.4846   5.5698   5.5866
  5.5977   6.0116   6.1251   6.5450   6.7512   6.8759   6.8839   6.9270
  7.0120   7.1030   7.1743   7.2198   7.3089   7.4141   7.4394   7.6036
  7.7402   7.7839  25.0370  50.5231  50.6747
 --------------------------------------------------------------
 
          Ground-State Mulliken Net Atomic Charges

     Atom                 Charge (a.u.)    Spin (a.u.)
  --------------------------------------------------------
      1 C                     0.188337       0.739910
      2 O                    -0.238008      -0.002142
      3 O                    -0.312637       0.210257
      4 H                     0.362308       0.051975
  --------------------------------------------------------
  Sum of atomic charges =    -0.000000
  Sum of spin   charges =     1.000000

 -----------------------------------------------------------------
                    Cartesian Multipole Moments
 -----------------------------------------------------------------
    Charge (ESU x 10^10)
                -0.0000
    Dipole Moment (Debye)
         X      -0.9936      Y      -2.4016      Z       1.1899
       Tot       2.8585
    Quadrupole Moments (Debye-Ang)
        XX     -14.3943     XY       5.2815     YY     -10.1501
        XZ      -3.2296     YZ      -1.0228     ZZ     -19.5111
    Octopole Moments (Debye-Ang^2)
       XXX      43.8647    XXY       5.9813    XYY       1.9220
       YYY      29.7712    XXZ       0.5080    XYZ       4.6010
       YYZ      -1.9002    XZZ      17.6633    YZZ      18.1991
       ZZZ     -18.5924
    Hexadecapole Moments (Debye-Ang^3)
      XXXX    -107.5216   XXXY     -27.8339   XXYY     -16.4894
      XYYY      -8.6032   YYYY     -91.5791   XXXZ      -0.4084
      XXYZ       1.9719   XYYZ      -8.3472   YYYZ      22.8636
      XXZZ     -33.9830   XYZZ     -14.2271   YYZZ     -38.6301
      XZZZ      10.4334   YZZZ      39.0972   ZZZZ     -94.4868
 -----------------------------------------------------------------
 Calculating analytic gradient of the SCF energy
 Gradient of CDS energy
            1           2           3           4
    1  -0.0004534   0.0002866   0.0003677  -0.0002008
    2  -0.0015294   0.0022405  -0.0003329  -0.0003782
    3   0.0010269  -0.0020729   0.0009256   0.0001204
 Gradient of SCF Energy
            1           2           3           4
    1   0.0004596   0.0137340  -0.0005107  -0.0136830
    2  -0.0008409   0.0107107   0.0044105  -0.0142803
    3   0.0015561   0.0087600  -0.0056449  -0.0046712
 Max gradient component =       1.428E-02
 RMS gradient           =       8.406E-03
 Computing fast CPCM-SWIG gradient
 Updating gradient with PCM contributions...
 -- total gradient after adding PCM contribution --
---------------------------------------------------
  Atom         X              Y              Z     
---------------------------------------------------
   1       0.000451       0.000189       0.000605
   2      -0.000136      -0.000063      -0.000014
   3      -0.000417       0.000025      -0.000583
   4       0.000102      -0.000151      -0.000008
---------------------------------------------------
 Number of fixed atoms: 0
 Gradient time:  CPU 11.37 s  wall 1.58 s
 ----------------------------------------------------------------
             Standard Nuclear Orientation (Angstroms)
    I     Atom           X                Y                Z
 ----------------------------------------------------------------
    1      C      -0.7341289090    -0.6760306448     0.3672980418
    2      O      -0.8952841265    -1.6586837139     1.2200097559
    3      O      -1.2525592068    -0.4452543372    -0.6740821840
    4      H      -1.5742651576    -2.2840865039     0.8968406863
 ----------------------------------------------------------------
 Nuclear Repulsion Energy =          63.40573731 hartrees
 There are       12 alpha and       11 beta electrons
 Discretize the solute cavity surface with Lebedev spheres
	Using 110 Lebedev grid points for each H atom
	Using 194 Lebedev grid points for other atoms
	Atomic van der Waals radii will be scaled by 1.20
 Remove points where switching function is < 1.0e-08
 Keep 436 surface tesserae and discard 256 interior tesserae
 Molecular Surface Area = 60.648 Angst**2

                       Distance Matrix (Angstroms)
             C (  1)   O (  2)   O (  3)
   O (  2)  1.310990
   O (  3)  1.185960  2.277639
   H (  4)  1.889997  0.978050  2.439794
 
 Requested basis set is 6-311++G(2df,2p)
 There are 30 shells and 112 basis functions
 A cutoff of  1.0D-12 yielded    462 shell pairs
 There are      6520 function pairs (      8422 Cartesian)
 Smallest overlap matrix eigenvalue = 8.31E-04
 Guess MOs from SCF MO coefficient file

 -----------------------------------------------------------------------
  General SCF calculation program by
  Eric Jon Sundstrom, Paul Horn, Yuezhi Mao, Dmitri Zuev, Alec White,
  David Stuck, Shaama M.S., Shane Yost, Joonho Lee, David Small,
  Daniel Levine, Susi Lehtola, Hugh Burton, Evgeny Epifanovsky,
  Bang C. Huynh
 -----------------------------------------------------------------------
 Exchange:     0.1500 Hartree-Fock + 1.0000 wB97M-V + LR-HF
 Correlation:  1.0000 wB97M-V
 Using SG-2 standard quadrature grid
 Nonlocal Correlation:  VV10 with C = 0.0100 and b = 6.00 and scale = 1.00000
 Grid used for NLC:  SG-1 standard quadrature
 
 Citation of the SMD model:
 Marenich, A.V.; Cramer, C.J.; Truhlar, D.G.
 J. Phys. Chem. B 2009, 113, 6378-6396.
 iSolventCode=           1
 Solvent: water                                                           
 
 vradii
            1           2           3           4
    1   1.8500000   1.5200000   1.5200000   1.2000000
 -------------------------------------------------------
 OpenMP BLAS3 based DFT computing Module                
 Release: version 1.0, May 2013, Q-Chem Inc. Pittsburgh 
 -------------------------------------------------------
 A unrestricted SCF calculation will be
 performed using Roothaan-Hall, DIIS, GDM
 SCF converges when RMS gradient is below 1.0e-07
 ---------------------------------------
  Cycle       Energy         DIIS error
 ---------------------------------------
    1    -189.1055993474      4.73e-04  Roothaan Step
 ---------------------------------------
  Cycle       Energy         DIIS error
 ---------------------------------------
    1    -189.1186428431      5.47e-04  
    2    -189.1202068949      5.32e-04  Done DIIS. Switching to GDM
 ---------------------------------------
  Cycle       Energy        RMS Gradient
 ---------------------------------------
    1    -189.1202068949      1.34e-02   Normal BFGS step
    2    -189.1195263967      2.21e-02  Line search: overstep
    3    -189.1213142563      2.59e-03   Normal BFGS step
    4    -189.1213822988      1.19e-03   Normal BFGS step
    5    -189.1213917668      3.78e-04   Normal BFGS step
    6    -189.1213928212      2.16e-04   Normal BFGS step
    7    -189.1213932083      6.92e-05   Normal BFGS step
    8    -189.1213932250      4.03e-05   Normal BFGS step
    9    -189.1213932300      1.44e-05   Normal BFGS step
   10    -189.1213932308      4.77e-06   Normal BFGS step
   11    -189.1213932311      1.27e-06   Normal BFGS step
   12    -189.1213932311      7.89e-07   Normal BFGS step
   13    -189.1213932311      3.89e-07   Normal BFGS step
   14    -189.1213932311      1.15e-07   Normal BFGS step
   15    -189.1213932311      2.81e-08  Convergence criterion met
 ---------------------------------------
 SCF time:   CPU 75.50s  wall 9.00s 
<S^2> =          0.752702013
(3)  G-ENP(liq) elect-nuc-pol free energy of system     -189.121393231 a.u.
(4)  G-CDS(liq) cavity-dispersion-solvent structure 
     free energy                                                5.4925 kcal/mol
(6)  G-S(liq) free energy of system                     -189.112640401 a.u.
 SCF   energy in the final basis set =     -189.1126404014
 Total energy in the final basis set =     -189.1126404014
 
 --------------------------------------------------------------
 
                    Orbital Energies (a.u.)
 --------------------------------------------------------------
 
 Alpha MOs
 -- Occupied --
-19.4107 -19.3812 -10.4976  -1.2741  -1.2017  -0.7732  -0.6457  -0.6117
 -0.5916  -0.5012  -0.4678  -0.3389
 -- Virtual --
  0.0433   0.0753   0.0762   0.0875   0.1013   0.1210   0.2086   0.2212
  0.2269   0.2385   0.2841   0.2942   0.3011   0.3298   0.3562   0.4141
  0.5232   0.5445   0.6047   0.6465   0.7145   0.7199   0.7407   0.8235
  0.8534   0.9933   1.0027   1.0684   1.0850   1.0998   1.1259   1.1463
  1.1642   1.3443   1.3912   1.5164   1.5364   1.5886   1.6072   1.7375
  1.8136   1.9662   1.9949   2.1137   2.2306   2.3241   2.3549   2.5112
  2.7320   2.7902   2.8956   2.9027   3.0586   3.1172   3.1925   3.2180
  3.3415   3.3913   3.4769   3.5579   3.6108   3.6353   3.7655   3.8077
  3.9860   4.1511   4.3476   5.0908   5.1012   5.1140   5.1382   5.1592
  5.2244   5.2438   5.2744   5.4405   5.4772   5.5528   5.5815   5.5887
  5.9895   6.1159   6.5323   6.7381   6.8530   6.8594   6.9101   7.0032
  7.0856   7.1593   7.2134   7.3007   7.3957   7.4181   7.5899   7.7269
  7.7691  25.0276  50.5206  50.6705
 
 Beta MOs
 -- Occupied --
-19.4075 -19.3740 -10.4860  -1.2619  -1.1880  -0.7505  -0.6340  -0.5832
 -0.5810  -0.4715  -0.4637
 -- Virtual --
 -0.0267   0.0486   0.0769   0.0800   0.0900   0.1169   0.1198   0.2101
  0.2186   0.2269   0.2372   0.2827   0.2931   0.2989   0.3307   0.3591
  0.4262   0.5362   0.5566   0.6072   0.6623   0.7238   0.7320   0.7569
  0.8340   0.8654   1.0050   1.0100   1.0717   1.0913   1.1017   1.1402
  1.1511   1.1658   1.3584   1.4035   1.5233   1.5398   1.5981   1.6193
  1.7513   1.8181   1.9815   2.0025   2.1214   2.2462   2.3406   2.3733
  2.5258   2.7486   2.8091   2.9432   2.9440   3.0835   3.1554   3.2297
  3.2814   3.4149   3.4165   3.5086   3.5980   3.6279   3.6616   3.7787
  3.8484   4.0032   4.1675   4.3754   5.0991   5.1079   5.1290   5.1521
  5.1682   5.2473   5.2525   5.2818   5.4519   5.4860   5.5702   5.5865
  5.5992   6.0137   6.1269   6.5495   6.7541   6.8760   6.8858   6.9272
  7.0122   7.1043   7.1751   7.2196   7.3094   7.4129   7.4414   7.6034
  7.7410   7.7861  25.0387  50.5239  50.6764
 --------------------------------------------------------------
 
          Ground-State Mulliken Net Atomic Charges

     Atom                 Charge (a.u.)    Spin (a.u.)
  --------------------------------------------------------
      1 C                     0.187807       0.740323
      2 O                    -0.237651      -0.002243
      3 O                    -0.312186       0.209770
      4 H                     0.362030       0.052150
  --------------------------------------------------------
  Sum of atomic charges =    -0.000000
  Sum of spin   charges =     1.000000

 -----------------------------------------------------------------
                    Cartesian Multipole Moments
 -----------------------------------------------------------------
    Charge (ESU x 10^10)
                -0.0000
    Dipole Moment (Debye)
         X      -0.9970      Y      -2.4016      Z       1.1868
       Tot       2.8584
    Quadrupole Moments (Debye-Ang)
        XX     -14.3863     XY       5.2822     YY     -10.1517
        XZ      -3.2288     YZ      -1.0240     ZZ     -19.5107
    Octopole Moments (Debye-Ang^2)
       XXX      43.8817    XXY       5.9810    XYY       1.9364
       YYY      29.7782    XXZ       0.5080    XYZ       4.6009
       YYZ      -1.9014    XZZ      17.6749    YZZ      18.1965
       ZZZ     -18.5984
    Hexadecapole Moments (Debye-Ang^3)
      XXXX    -107.5886   XXXY     -27.8572   XXYY     -16.5152
      XYYY      -8.6440   YYYY     -91.6086   XXXZ      -0.3977
      XXYZ       1.9732   XYYZ      -8.3361   YYYZ      22.8637
      XXZZ     -34.0025   XYZZ     -14.2377   YYZZ     -38.6279
      XZZZ      10.4497   YZZZ      39.0897   ZZZZ     -94.4848
 -----------------------------------------------------------------
 Calculating analytic gradient of the SCF energy
 Gradient of CDS energy
            1           2           3           4
    1  -0.0004427   0.0002808   0.0003620  -0.0002001
    2  -0.0015255   0.0022348  -0.0003308  -0.0003785
    3   0.0010304  -0.0020680   0.0009170   0.0001207
 Gradient of SCF Energy
            1           2           3           4
    1  -0.0006068   0.0140285   0.0002643  -0.0136860
    2  -0.0011069   0.0109248   0.0043166  -0.0141344
    3   0.0004128   0.0087989  -0.0044604  -0.0047514
 Max gradient component =       1.413E-02
 RMS gradient           =       8.384E-03
 Computing fast CPCM-SWIG gradient
 Updating gradient with PCM contributions...
 -- total gradient after adding PCM contribution --
---------------------------------------------------
  Atom         X              Y              Z     
---------------------------------------------------
   1      -0.000606      -0.000068      -0.000551
   2       0.000147       0.000160       0.000013
   3       0.000359      -0.000075       0.000617
   4       0.000101      -0.000018      -0.000079
---------------------------------------------------
 Number of fixed atoms: 0
 Gradient time:  CPU 11.27 s  wall 1.49 s
 ----------------------------------------------------------------
             Standard Nuclear Orientation (Angstroms)
    I     Atom           X                Y                Z
 ----------------------------------------------------------------
    1      C      -0.7331289090    -0.6750306448     0.3672980418
    2      O      -0.8952841265    -1.6586837139     1.2200097559
    3      O      -1.2525592068    -0.4452543372    -0.6740821840
    4      H      -1.5742651576    -2.2840865039     0.8968406863
 ----------------------------------------------------------------
 Nuclear Repulsion Energy =          63.38729981 hartrees
 There are       12 alpha and       11 beta electrons
 Discretize the solute cavity surface with Lebedev spheres
	Using 110 Lebedev grid points for each H atom
	Using 194 Lebedev grid points for other atoms
	Atomic van der Waals radii will be scaled by 1.20
 Remove points where switching function is < 1.0e-08
 Keep 436 surface tesserae and discard 256 interior tesserae
 Molecular Surface Area = 60.664 Angst**2

                       Distance Matrix (Angstroms)
             C (  1)   O (  2)   O (  3)
   O (  2)  1.311863
   O (  3)  1.186203  2.277639
   H (  4)  1.891292  0.978050  2.439794
 
 Requested basis set is 6-311++G(2df,2p)
 There are 30 shells and 112 basis functions
 A cutoff of  1.0D-12 yielded    462 shell pairs
 There are      6520 function pairs (      8422 Cartesian)
 Smallest overlap matrix eigenvalue = 8.32E-04
 Guess MOs from SCF MO coefficient file

 -----------------------------------------------------------------------
  General SCF calculation program by
  Eric Jon Sundstrom, Paul Horn, Yuezhi Mao, Dmitri Zuev, Alec White,
  David Stuck, Shaama M.S., Shane Yost, Joonho Lee, David Small,
  Daniel Levine, Susi Lehtola, Hugh Burton, Evgeny Epifanovsky,
  Bang C. Huynh
 -----------------------------------------------------------------------
 Exchange:     0.1500 Hartree-Fock + 1.0000 wB97M-V + LR-HF
 Correlation:  1.0000 wB97M-V
 Using SG-2 standard quadrature grid
 Nonlocal Correlation:  VV10 with C = 0.0100 and b = 6.00 and scale = 1.00000
 Grid used for NLC:  SG-1 standard quadrature
 
 Citation of the SMD model:
 Marenich, A.V.; Cramer, C.J.; Truhlar, D.G.
 J. Phys. Chem. B 2009, 113, 6378-6396.
 iSolventCode=           1
 Solvent: water                                                           
 
 vradii
            1           2           3           4
    1   1.8500000   1.5200000   1.5200000   1.2000000
 -------------------------------------------------------
 OpenMP BLAS3 based DFT computing Module                
 Release: version 1.0, May 2013, Q-Chem Inc. Pittsburgh 
 -------------------------------------------------------
 A unrestricted SCF calculation will be
 performed using Roothaan-Hall, DIIS, GDM
 SCF converges when RMS gradient is below 1.0e-07
 ---------------------------------------
  Cycle       Energy         DIIS error
 ---------------------------------------
    1    -189.1056225641      4.72e-04  Roothaan Step
 ---------------------------------------
  Cycle       Energy         DIIS error
 ---------------------------------------
    1    -189.1186375622      5.47e-04  
    2    -189.1201989317      5.34e-04  Done DIIS. Switching to GDM
 ---------------------------------------
  Cycle       Energy        RMS Gradient
 ---------------------------------------
    1    -189.1201989317      1.34e-02   Normal BFGS step
    2    -189.1195145659      2.22e-02  Line search: overstep
    3    -189.1213105321      2.59e-03   Normal BFGS step
    4    -189.1213785558      1.21e-03   Normal BFGS step
    5    -189.1213880058      3.74e-04   Normal BFGS step
    6    -189.1213890683      2.16e-04   Normal BFGS step
    7    -189.1213894486      5.75e-05   Normal BFGS step
    8    -189.1213894629      3.35e-05   Normal BFGS step
    9    -189.1213894665      1.42e-05   Normal BFGS step
   10    -189.1213894671      5.59e-06   Normal BFGS step
   11    -189.1213894672      1.14e-06   Normal BFGS step
   12    -189.1213894672      6.86e-07   Normal BFGS step
   13    -189.1213894672      3.73e-07   Normal BFGS step
   14    -189.1213894672      1.21e-07   Normal BFGS step
   15    -189.1213894672      2.89e-08  Convergence criterion met
 ---------------------------------------
 SCF time:   CPU 76.51s  wall 10.00s 
<S^2> =          0.752706518
(3)  G-ENP(liq) elect-nuc-pol free energy of system     -189.121389467 a.u.
(4)  G-CDS(liq) cavity-dispersion-solvent structure 
     free energy                                                5.4901 kcal/mol
(6)  G-S(liq) free energy of system                     -189.112640386 a.u.
 SCF   energy in the final basis set =     -189.1126403861
 Total energy in the final basis set =     -189.1126403861
 
 --------------------------------------------------------------
 
                    Orbital Energies (a.u.)
 --------------------------------------------------------------
 
 Alpha MOs
 -- Occupied --
-19.4105 -19.3813 -10.4978  -1.2738  -1.2015  -0.7731  -0.6457  -0.6116
 -0.5914  -0.5011  -0.4677  -0.3393
 -- Virtual --
  0.0433   0.0753   0.0760   0.0875   0.1012   0.1210   0.2086   0.2212
  0.2268   0.2385   0.2840   0.2943   0.3011   0.3299   0.3563   0.4136
  0.5230   0.5443   0.6046   0.6464   0.7149   0.7201   0.7402   0.8232
  0.8534   0.9929   1.0026   1.0684   1.0849   1.0999   1.1258   1.1465
  1.1642   1.3439   1.3908   1.5164   1.5362   1.5884   1.6067   1.7376
  1.8135   1.9655   1.9945   2.1130   2.2304   2.3237   2.3539   2.5109
  2.7318   2.7900   2.8959   2.9029   3.0581   3.1177   3.1925   3.2182
  3.3414   3.3910   3.4765   3.5582   3.6101   3.6354   3.7654   3.8058
  3.9862   4.1509   4.3461   5.0907   5.1012   5.1140   5.1380   5.1591
  5.2241   5.2426   5.2747   5.4402   5.4758   5.5526   5.5816   5.5873
  5.9873   6.1134   6.5294   6.7353   6.8529   6.8582   6.9100   7.0031
  7.0848   7.1586   7.2135   7.3000   7.3963   7.4158   7.5899   7.7265
  7.7673  25.0256  50.5195  50.6696
 
 Beta MOs
 -- Occupied --
-19.4074 -19.3741 -10.4862  -1.2616  -1.1878  -0.7503  -0.6340  -0.5830
 -0.5808  -0.4714  -0.4636
 -- Virtual --
 -0.0270   0.0485   0.0769   0.0800   0.0900   0.1167   0.1198   0.2101
  0.2186   0.2269   0.2373   0.2826   0.2932   0.2989   0.3308   0.3592
  0.4258   0.5361   0.5562   0.6072   0.6621   0.7242   0.7322   0.7564
  0.8337   0.8654   1.0047   1.0099   1.0718   1.0912   1.1019   1.1401
  1.1514   1.1657   1.3582   1.4031   1.5235   1.5394   1.5980   1.6188
  1.7514   1.8180   1.9808   2.0020   2.1207   2.2461   2.3401   2.3722
  2.5255   2.7484   2.8090   2.9434   2.9442   3.0829   3.1560   3.2298
  3.2815   3.4147   3.4164   3.5082   3.5982   3.6272   3.6617   3.7786
  3.8466   4.0036   4.1673   4.3738   5.0991   5.1078   5.1290   5.1520
  5.1681   5.2470   5.2514   5.2821   5.4516   5.4846   5.5701   5.5866
  5.5975   6.0115   6.1244   6.5465   6.7512   6.8759   6.8848   6.9272
  7.0121   7.1035   7.1744   7.2198   7.3088   7.4137   7.4391   7.6034
  7.7407   7.7841  25.0367  50.5228  50.6756
 --------------------------------------------------------------
 
          Ground-State Mulliken Net Atomic Charges

     Atom                 Charge (a.u.)    Spin (a.u.)
  --------------------------------------------------------
      1 C                     0.188357       0.739912
      2 O                    -0.238685      -0.001930
      3 O                    -0.311887       0.210097
      4 H                     0.362215       0.051921
  --------------------------------------------------------
  Sum of atomic charges =     0.000000
  Sum of spin   charges =     1.000000

 -----------------------------------------------------------------
                    Cartesian Multipole Moments
 -----------------------------------------------------------------
    Charge (ESU x 10^10)
                 0.0000
    Dipole Moment (Debye)
         X      -0.9953      Y      -2.3959      Z       1.1827
       Tot       2.8512
    Quadrupole Moments (Debye-Ang)
        XX     -14.3885     XY       5.2774     YY     -10.1626
        XZ      -3.2231     YZ      -1.0153     ZZ     -19.5158
    Octopole Moments (Debye-Ang^2)
       XXX      43.8684    XXY       5.9809    XYY       1.9370
       YYY      29.7846    XXZ       0.4980    XYZ       4.5932
       YYZ      -1.9159    XZZ      17.6736    YZZ      18.2031
       ZZZ     -18.6146
    Hexadecapole Moments (Debye-Ang^3)
      XXXX    -107.5372   XXXY     -27.8399   XXYY     -16.5042
      XYYY      -8.6284   YYYY     -91.6078   XXXZ      -0.3843
      XXYZ       1.9833   XYYZ      -8.3289   YYYZ      22.8875
      XXZZ     -33.9980   XYZZ     -14.2371   YYZZ     -38.6421
      XZZZ      10.4609   YZZZ      39.1155   ZZZZ     -94.5139
 -----------------------------------------------------------------
 Calculating analytic gradient of the SCF energy
 Gradient of CDS energy
            1           2           3           4
    1  -0.0004501   0.0002866   0.0003639  -0.0002004
    2  -0.0015491   0.0022587  -0.0003307  -0.0003789
    3   0.0010467  -0.0020869   0.0009195   0.0001207
 Gradient of SCF Energy
            1           2           3           4
    1   0.0000602   0.0137432  -0.0000921  -0.0137112
    2  -0.0003929   0.0104457   0.0042142  -0.0142671
    3   0.0006011   0.0089247  -0.0048728  -0.0046531
 Max gradient component =       1.427E-02
 RMS gradient           =       8.331E-03
 Computing fast CPCM-SWIG gradient
 Updating gradient with PCM contributions...
 -- total gradient after adding PCM contribution --
---------------------------------------------------
  Atom         X              Y              Z     
---------------------------------------------------
   1       0.000050       0.000640      -0.000369
   2      -0.000126      -0.000317       0.000154
   3       0.000009      -0.000164       0.000199
   4       0.000067      -0.000159       0.000017
---------------------------------------------------
 Number of fixed atoms: 0
 Gradient time:  CPU 11.27 s  wall 1.50 s
 ----------------------------------------------------------------
             Standard Nuclear Orientation (Angstroms)
    I     Atom           X                Y                Z
 ----------------------------------------------------------------
    1      C      -0.7331289090    -0.6770306448     0.3672980418
    2      O      -0.8952841265    -1.6586837139     1.2200097559
    3      O      -1.2525592068    -0.4452543372    -0.6740821840
    4      H      -1.5742651576    -2.2840865039     0.8968406863
 ----------------------------------------------------------------
 Nuclear Repulsion Energy =          63.40393956 hartrees
 There are       12 alpha and       11 beta electrons
 Discretize the solute cavity surface with Lebedev spheres
	Using 110 Lebedev grid points for each H atom
	Using 194 Lebedev grid points for other atoms
	Atomic van der Waals radii will be scaled by 1.20
 Remove points where switching function is < 1.0e-08
 Keep 437 surface tesserae and discard 255 interior tesserae
 Molecular Surface Area = 60.647 Angst**2

                       Distance Matrix (Angstroms)
             C (  1)   O (  2)   O (  3)
   O (  2)  1.310364
   O (  3)  1.186592  2.277639
   H (  4)  1.889591  0.978050  2.439794
 
 Requested basis set is 6-311++G(2df,2p)
 There are 30 shells and 112 basis functions
 A cutoff of  1.0D-12 yielded    462 shell pairs
 There are      6520 function pairs (      8422 Cartesian)
 Smallest overlap matrix eigenvalue = 8.32E-04
 Guess MOs from SCF MO coefficient file

 -----------------------------------------------------------------------
  General SCF calculation program by
  Eric Jon Sundstrom, Paul Horn, Yuezhi Mao, Dmitri Zuev, Alec White,
  David Stuck, Shaama M.S., Shane Yost, Joonho Lee, David Small,
  Daniel Levine, Susi Lehtola, Hugh Burton, Evgeny Epifanovsky,
  Bang C. Huynh
 -----------------------------------------------------------------------
 Exchange:     0.1500 Hartree-Fock + 1.0000 wB97M-V + LR-HF
 Correlation:  1.0000 wB97M-V
 Using SG-2 standard quadrature grid
 Nonlocal Correlation:  VV10 with C = 0.0100 and b = 6.00 and scale = 1.00000
 Grid used for NLC:  SG-1 standard quadrature
 
 Citation of the SMD model:
 Marenich, A.V.; Cramer, C.J.; Truhlar, D.G.
 J. Phys. Chem. B 2009, 113, 6378-6396.
 iSolventCode=           1
 Solvent: water                                                           
 
 vradii
            1           2           3           4
    1   1.8500000   1.5200000   1.5200000   1.2000000
 -------------------------------------------------------
 OpenMP BLAS3 based DFT computing Module                
 Release: version 1.0, May 2013, Q-Chem Inc. Pittsburgh 
 -------------------------------------------------------
 A unrestricted SCF calculation will be
 performed using Roothaan-Hall, DIIS, GDM
 SCF converges when RMS gradient is below 1.0e-07
 ---------------------------------------
  Cycle       Energy         DIIS error
 ---------------------------------------
    1    -189.1056115175      4.70e-04  Roothaan Step
 ---------------------------------------
  Cycle       Energy         DIIS error
 ---------------------------------------
    1    -189.1186228581      5.49e-04  
    2    -189.1201777259      5.40e-04  Done DIIS. Switching to GDM
 ---------------------------------------
  Cycle       Energy        RMS Gradient
 ---------------------------------------
    1    -189.1201777259      1.37e-02   Normal BFGS step
    2    -189.1194703853      2.26e-02  Line search: overstep
    3    -189.1213155525      2.64e-03   Normal BFGS step
    4    -189.1213843734      1.20e-03   Normal BFGS step
    5    -189.1213940225      3.76e-04   Normal BFGS step
    6    -189.1213950521      2.17e-04   Normal BFGS step
    7    -189.1213954451      7.17e-05   Normal BFGS step
    8    -189.1213954619      4.18e-05   Normal BFGS step
    9    -189.1213954669      1.50e-05   Normal BFGS step
   10    -189.1213954677      4.90e-06   Normal BFGS step
   11    -189.1213954679      1.35e-06   Normal BFGS step
   12    -189.1213954680      8.16e-07   Normal BFGS step
   13    -189.1213954680      4.05e-07   Normal BFGS step
   14    -189.1213954680      1.18e-07   Normal BFGS step
   15    -189.1213954680      2.92e-08  Convergence criterion met
 ---------------------------------------
 SCF time:   CPU 77.33s  wall 10.00s 
<S^2> =          0.752705199
(3)  G-ENP(liq) elect-nuc-pol free energy of system     -189.121395468 a.u.
(4)  G-CDS(liq) cavity-dispersion-solvent structure 
     free energy                                                5.4938 kcal/mol
(6)  G-S(liq) free energy of system                     -189.112640614 a.u.
 SCF   energy in the final basis set =     -189.1126406139
 Total energy in the final basis set =     -189.1126406139
 
 --------------------------------------------------------------
 
                    Orbital Energies (a.u.)
 --------------------------------------------------------------
 
 Alpha MOs
 -- Occupied --
-19.4108 -19.3811 -10.4977  -1.2741  -1.2016  -0.7734  -0.6457  -0.6117
 -0.5916  -0.5011  -0.4677  -0.3389
 -- Virtual --
  0.0433   0.0753   0.0761   0.0874   0.1012   0.1210   0.2085   0.2212
  0.2269   0.2385   0.2841   0.2942   0.3011   0.3298   0.3562   0.4144
  0.5230   0.5445   0.6047   0.6465   0.7144   0.7198   0.7406   0.8236
  0.8532   0.9932   1.0027   1.0685   1.0850   1.0998   1.1261   1.1463
  1.1642   1.3443   1.3911   1.5164   1.5363   1.5886   1.6071   1.7374
  1.8135   1.9660   1.9949   2.1136   2.2305   2.3242   2.3552   2.5109
  2.7322   2.7902   2.8956   2.9027   3.0589   3.1169   3.1927   3.2180
  3.3416   3.3916   3.4772   3.5580   3.6102   3.6354   3.7655   3.8082
  3.9854   4.1509   4.3474   5.0908   5.1012   5.1141   5.1381   5.1592
  5.2244   5.2438   5.2743   5.4403   5.4772   5.5526   5.5814   5.5890
  5.9896   6.1167   6.5308   6.7382   6.8530   6.8586   6.9098   7.0032
  7.0851   7.1592   7.2135   7.3008   7.3962   7.4184   7.5900   7.7264
  7.7689  25.0278  50.5209  50.6696
 
 Beta MOs
 -- Occupied --
-19.4077 -19.3739 -10.4861  -1.2619  -1.1879  -0.7508  -0.6340  -0.5832
 -0.5810  -0.4713  -0.4636
 -- Virtual --
 -0.0267   0.0486   0.0770   0.0800   0.0900   0.1168   0.1198   0.2101
  0.2186   0.2269   0.2372   0.2827   0.2931   0.2989   0.3307   0.3591
  0.4264   0.5360   0.5567   0.6072   0.6623   0.7237   0.7320   0.7569
  0.8341   0.8651   1.0050   1.0101   1.0718   1.0913   1.1017   1.1403
  1.1511   1.1658   1.3584   1.4034   1.5233   1.5397   1.5982   1.6192
  1.7512   1.8180   1.9813   2.0025   2.1213   2.2461   2.3408   2.3735
  2.5254   2.7487   2.8091   2.9432   2.9440   3.0838   3.1552   3.2298
  3.2814   3.4152   3.4166   3.5089   3.5981   3.6272   3.6617   3.7787
  3.8489   4.0027   4.1673   4.3751   5.0990   5.1080   5.1291   5.1520
  5.1682   5.2473   5.2526   5.2816   5.4517   5.4859   5.5699   5.5864
  5.5994   6.0138   6.1276   6.5479   6.7541   6.8760   6.8850   6.9269
  7.0122   7.1038   7.1750   7.2197   7.3095   7.4134   7.4417   7.6035
  7.7405   7.7859  25.0389  50.5243  50.6755
 --------------------------------------------------------------
 
          Ground-State Mulliken Net Atomic Charges

     Atom                 Charge (a.u.)    Spin (a.u.)
  --------------------------------------------------------
      1 C                     0.187787       0.740320
      2 O                    -0.236973      -0.002453
      3 O                    -0.312937       0.209929
      4 H                     0.362123       0.052205
  --------------------------------------------------------
  Sum of atomic charges =     0.000000
  Sum of spin   charges =     1.000000

 -----------------------------------------------------------------
                    Cartesian Multipole Moments
 -----------------------------------------------------------------
    Charge (ESU x 10^10)
                 0.0000
    Dipole Moment (Debye)
         X      -0.9953      Y      -2.4074      Z       1.1940
       Tot       2.8656
    Quadrupole Moments (Debye-Ang)
        XX     -14.3921     XY       5.2862     YY     -10.1391
        XZ      -3.2352     YZ      -1.0316     ZZ     -19.5060
    Octopole Moments (Debye-Ang^2)
       XXX      43.8780    XXY       5.9814    XYY       1.9213
       YYY      29.7647    XXZ       0.5180    XYZ       4.6086
       YYZ      -1.8857    XZZ      17.6647    YZZ      18.1925
       ZZZ     -18.5761
    Hexadecapole Moments (Debye-Ang^3)
      XXXX    -107.5731   XXXY     -27.8512   XXYY     -16.5004
      XYYY      -8.6187   YYYY     -91.5799   XXXZ      -0.4220
      XXYZ       1.9617   XYYZ      -8.3543   YYYZ      22.8398
      XXZZ     -33.9875   XYZZ     -14.2278   YYZZ     -38.6158
      XZZZ      10.4221   YZZZ      39.0714   ZZZZ     -94.4577
 -----------------------------------------------------------------
 Calculating analytic gradient of the SCF energy
 Gradient of CDS energy
            1           2           3           4
    1  -0.0004461   0.0002808   0.0003658  -0.0002005
    2  -0.0015060   0.0022169  -0.0003330  -0.0003779
    3   0.0010107  -0.0020542   0.0009232   0.0001204
 Gradient of SCF Energy
            1           2           3           4
    1  -0.0002087   0.0140201  -0.0001540  -0.0136574
    2  -0.0015578   0.0111920   0.0045134  -0.0141476
    3   0.0013728   0.0086317  -0.0052348  -0.0047696
 Max gradient component =       1.415E-02
 RMS gradient           =       8.455E-03
 Computing fast CPCM-SWIG gradient
 Updating gradient with PCM contributions...
 -- total gradient after adding PCM contribution --
---------------------------------------------------
  Atom         X              Y              Z     
---------------------------------------------------
   1      -0.000207      -0.000521       0.000429
   2       0.000137       0.000417      -0.000157
   3      -0.000067       0.000114      -0.000167
   4       0.000136      -0.000010      -0.000104
---------------------------------------------------
 Number of fixed atoms: 0
 Gradient time:  CPU 11.32 s  wall 1.57 s
 ----------------------------------------------------------------
             Standard Nuclear Orientation (Angstroms)
    I     Atom           X                Y                Z
 ----------------------------------------------------------------
    1      C      -0.7331289090    -0.6760306448     0.3682980418
    2      O      -0.8952841265    -1.6586837139     1.2200097559
    3      O      -1.2525592068    -0.4452543372    -0.6740821840
    4      H      -1.5742651576    -2.2840865039     0.8968406863
 ----------------------------------------------------------------
 Nuclear Repulsion Energy =          63.38965224 hartrees
 There are       12 alpha and       11 beta electrons
 Discretize the solute cavity surface with Lebedev spheres
	Using 110 Lebedev grid points for each H atom
	Using 194 Lebedev grid points for other atoms
	Atomic van der Waals radii will be scaled by 1.20
 Remove points where switching function is < 1.0e-08
 Keep 437 surface tesserae and discard 255 interior tesserae
 Molecular Surface Area = 60.658 Angst**2

                       Distance Matrix (Angstroms)
             C (  1)   O (  2)   O (  3)
   O (  2)  1.310463
   O (  3)  1.187275  2.277639
   H (  4)  1.890162  0.978050  2.439794
 
 Requested basis set is 6-311++G(2df,2p)
 There are 30 shells and 112 basis functions
 A cutoff of  1.0D-12 yielded    462 shell pairs
 There are      6520 function pairs (      8422 Cartesian)
 Smallest overlap matrix eigenvalue = 8.33E-04
 Guess MOs from SCF MO coefficient file

 -----------------------------------------------------------------------
  General SCF calculation program by
  Eric Jon Sundstrom, Paul Horn, Yuezhi Mao, Dmitri Zuev, Alec White,
  David Stuck, Shaama M.S., Shane Yost, Joonho Lee, David Small,
  Daniel Levine, Susi Lehtola, Hugh Burton, Evgeny Epifanovsky,
  Bang C. Huynh
 -----------------------------------------------------------------------
 Exchange:     0.1500 Hartree-Fock + 1.0000 wB97M-V + LR-HF
 Correlation:  1.0000 wB97M-V
 Using SG-2 standard quadrature grid
 Nonlocal Correlation:  VV10 with C = 0.0100 and b = 6.00 and scale = 1.00000
 Grid used for NLC:  SG-1 standard quadrature
 
 Citation of the SMD model:
 Marenich, A.V.; Cramer, C.J.; Truhlar, D.G.
 J. Phys. Chem. B 2009, 113, 6378-6396.
 iSolventCode=           1
 Solvent: water                                                           
 
 vradii
            1           2           3           4
    1   1.8500000   1.5200000   1.5200000   1.2000000
 -------------------------------------------------------
 OpenMP BLAS3 based DFT computing Module                
 Release: version 1.0, May 2013, Q-Chem Inc. Pittsburgh 
 -------------------------------------------------------
 A unrestricted SCF calculation will be
 performed using Roothaan-Hall, DIIS, GDM
 SCF converges when RMS gradient is below 1.0e-07
 ---------------------------------------
  Cycle       Energy         DIIS error
 ---------------------------------------
    1    -189.1055787206      4.72e-04  Roothaan Step
 ---------------------------------------
  Cycle       Energy         DIIS error
 ---------------------------------------
    1    -189.1186143884      5.50e-04  
    2    -189.1201704010      5.41e-04  Done DIIS. Switching to GDM
 ---------------------------------------
  Cycle       Energy        RMS Gradient
 ---------------------------------------
    1    -189.1201704010      1.37e-02   Normal BFGS step
    2    -189.1194572765      2.27e-02  Line search: overstep
    3    -189.1213137175      2.63e-03   Normal BFGS step
    4    -189.1213825374      1.21e-03   Normal BFGS step
    5    -189.1213921644      3.74e-04   Normal BFGS step
    6    -189.1213932038      2.16e-04   Normal BFGS step
    7    -189.1213935916      6.12e-05   Normal BFGS step
    8    -189.1213936069      3.57e-05   Normal BFGS step
    9    -189.1213936109      1.44e-05   Normal BFGS step
   10    -189.1213936116      5.26e-06   Normal BFGS step
   11    -189.1213936118      1.21e-06   Normal BFGS step
   12    -189.1213936118      7.29e-07   Normal BFGS step
   13    -189.1213936118      3.86e-07   Normal BFGS step
   14    -189.1213936118      1.21e-07   Normal BFGS step
   15    -189.1213936118      2.99e-08  Convergence criterion met
 ---------------------------------------
 SCF time:   CPU 75.71s  wall 9.00s 
<S^2> =          0.752710926
(3)  G-ENP(liq) elect-nuc-pol free energy of system     -189.121393612 a.u.
(4)  G-CDS(liq) cavity-dispersion-solvent structure 
     free energy                                                5.4932 kcal/mol
(6)  G-S(liq) free energy of system                     -189.112639704 a.u.
 SCF   energy in the final basis set =     -189.1126397041
 Total energy in the final basis set =     -189.1126397041
 
 --------------------------------------------------------------
 
                    Orbital Energies (a.u.)
 --------------------------------------------------------------
 
 Alpha MOs
 -- Occupied --
-19.4108 -19.3811 -10.4979  -1.2740  -1.2013  -0.7735  -0.6456  -0.6116
 -0.5914  -0.5009  -0.4677  -0.3393
 -- Virtual --
  0.0433   0.0753   0.0760   0.0874   0.1011   0.1210   0.2085   0.2212
  0.2269   0.2385   0.2840   0.2942   0.3011   0.3299   0.3562   0.4142
  0.5227   0.5444   0.6046   0.6463   0.7146   0.7199   0.7403   0.8235
  0.8530   0.9930   1.0027   1.0685   1.0849   1.0999   1.1260   1.1464
  1.1642   1.3441   1.3906   1.5164   1.5361   1.5886   1.6067   1.7373
  1.8133   1.9654   1.9947   2.1130   2.2303   2.3240   2.3547   2.5104
  2.7322   2.7901   2.8957   2.9029   3.0589   3.1170   3.1929   3.2180
  3.3416   3.3917   3.4771   3.5583   3.6091   3.6355   3.7655   3.8073
  3.9851   4.1505   4.3462   5.0908   5.1012   5.1141   5.1379   5.1591
  5.2241   5.2431   5.2744   5.4399   5.4762   5.5522   5.5814   5.5881
  5.9881   6.1155   6.5275   6.7363   6.8529   6.8572   6.9094   7.0030
  7.0841   7.1587   7.2137   7.3004   7.3970   7.4170   7.5902   7.7257
  7.7676  25.0267  50.5204  50.6683
 
 Beta MOs
 -- Occupied --
-19.4077 -19.3739 -10.4862  -1.2618  -1.1876  -0.7508  -0.6339  -0.5830
 -0.5809  -0.4711  -0.4635
 -- Virtual --
 -0.0269   0.0485   0.0770   0.0800   0.0899   0.1166   0.1198   0.2101
  0.2186   0.2269   0.2372   0.2826   0.2932   0.2989   0.3308   0.3591
  0.4263   0.5358   0.5565   0.6072   0.6621   0.7239   0.7320   0.7565
  0.8340   0.8650   1.0047   1.0100   1.0718   1.0912   1.1018   1.1403
  1.1513   1.1657   1.3582   1.4029   1.5234   1.5394   1.5981   1.6188
  1.7511   1.8178   1.9806   2.0022   2.1207   2.2460   2.3406   2.3729
  2.5249   2.7488   2.8090   2.9433   2.9441   3.0836   3.1554   3.2300
  3.2815   3.4154   3.4166   3.5088   3.5983   3.6263   3.6619   3.7786
  3.8480   4.0024   4.1669   4.3738   5.0990   5.1080   5.1291   5.1519
  5.1681   5.2470   5.2518   5.2818   5.4513   5.4850   5.5696   5.5864
  5.5984   6.0123   6.1264   6.5446   6.7521   6.8760   6.8835   6.9268
  7.0120   7.1028   7.1744   7.2198   7.3092   7.4142   7.4404   7.6036
  7.7399   7.7844  25.0378  50.5237  50.6742
 --------------------------------------------------------------
 
          Ground-State Mulliken Net Atomic Charges

     Atom                 Charge (a.u.)    Spin (a.u.)
  --------------------------------------------------------
      1 C                     0.188158       0.740030
      2 O                    -0.237143      -0.002406
      3 O                    -0.313340       0.210287
      4 H                     0.362324       0.052089
  --------------------------------------------------------
  Sum of atomic charges =    -0.000000
  Sum of spin   charges =     1.000000

 -----------------------------------------------------------------
                    Cartesian Multipole Moments
 -----------------------------------------------------------------
    Charge (ESU x 10^10)
                -0.0000
    Dipole Moment (Debye)
         X      -0.9937      Y      -2.4073      Z       1.1977
       Tot       2.8665
    Quadrupole Moments (Debye-Ang)
        XX     -14.3924     XY       5.2867     YY     -10.1407
        XZ      -3.2378     YZ      -1.0339     ZZ     -19.5066
    Octopole Moments (Debye-Ang^2)
       XXX      43.8799    XXY       5.9718    XYY       1.9205
       YYY      29.7448    XXZ       0.5172    XYZ       4.6107
       YYZ      -1.8861    XZZ      17.6648    YZZ      18.1871
       ZZZ     -18.5898
    Hexadecapole Moments (Debye-Ang^3)
      XXXX    -107.5694   XXXY     -27.8293   XXYY     -16.4848
      XYYY      -8.5953   YYYY     -91.5146   XXXZ      -0.4174
      XXYZ       1.9593   XYYZ      -8.3571   YYYZ      22.8332
      XXZZ     -33.9881   XYZZ     -14.2221   YYZZ     -38.6134
      XZZZ      10.4324   YZZZ      39.0791   ZZZZ     -94.4886
 -----------------------------------------------------------------
 Calculating analytic gradient of the SCF energy
 Gradient of CDS energy
            1           2           3           4
    1  -0.0004499   0.0002812   0.0003691  -0.0002005
    2  -0.0015095   0.0022214  -0.0003339  -0.0003780
    3   0.0010032  -0.0020536   0.0009307   0.0001198
 Gradient of SCF Energy
            1           2           3           4
    1   0.0004934   0.0138970  -0.0006951  -0.0136953
    2  -0.0013624   0.0110125   0.0045677  -0.0142179
    3   0.0023321   0.0085307  -0.0061755  -0.0046872
 Max gradient component =       1.422E-02
 RMS gradient           =       8.494E-03
 Computing fast CPCM-SWIG gradient
 Updating gradient with PCM contributions...
 -- total gradient after adding PCM contribution --
---------------------------------------------------
  Atom         X              Y              Z     
---------------------------------------------------
   1       0.000497      -0.000338       0.001394
   2       0.000015       0.000236      -0.000245
   3      -0.000613       0.000175      -0.001117
   4       0.000101      -0.000073      -0.000032
---------------------------------------------------
 Number of fixed atoms: 0
 Gradient time:  CPU 11.21 s  wall 1.48 s
 ----------------------------------------------------------------
             Standard Nuclear Orientation (Angstroms)
    I     Atom           X                Y                Z
 ----------------------------------------------------------------
    1      C      -0.7331289090    -0.6760306448     0.3662980418
    2      O      -0.8952841265    -1.6586837139     1.2200097559
    3      O      -1.2525592068    -0.4452543372    -0.6740821840
    4      H      -1.5742651576    -2.2840865039     0.8968406863
 ----------------------------------------------------------------
 Nuclear Repulsion Energy =          63.40161496 hartrees
 There are       12 alpha and       11 beta electrons
 Discretize the solute cavity surface with Lebedev spheres
	Using 110 Lebedev grid points for each H atom
	Using 194 Lebedev grid points for other atoms
	Atomic van der Waals radii will be scaled by 1.20
 Remove points where switching function is < 1.0e-08
 Keep 437 surface tesserae and discard 255 interior tesserae
 Molecular Surface Area = 60.652 Angst**2

                       Distance Matrix (Angstroms)
             C (  1)   O (  2)   O (  3)
   O (  2)  1.311764
   O (  3)  1.185520  2.277639
   H (  4)  1.890722  0.978050  2.439794
 
 Requested basis set is 6-311++G(2df,2p)
 There are 30 shells and 112 basis functions
 A cutoff of  1.0D-12 yielded    462 shell pairs
 There are      6520 function pairs (      8422 Cartesian)
 Smallest overlap matrix eigenvalue = 8.30E-04
 Guess MOs from SCF MO coefficient file

 -----------------------------------------------------------------------
  General SCF calculation program by
  Eric Jon Sundstrom, Paul Horn, Yuezhi Mao, Dmitri Zuev, Alec White,
  David Stuck, Shaama M.S., Shane Yost, Joonho Lee, David Small,
  Daniel Levine, Susi Lehtola, Hugh Burton, Evgeny Epifanovsky,
  Bang C. Huynh
 -----------------------------------------------------------------------
 Exchange:     0.1500 Hartree-Fock + 1.0000 wB97M-V + LR-HF
 Correlation:  1.0000 wB97M-V
 Using SG-2 standard quadrature grid
 Nonlocal Correlation:  VV10 with C = 0.0100 and b = 6.00 and scale = 1.00000
 Grid used for NLC:  SG-1 standard quadrature
 
 Citation of the SMD model:
 Marenich, A.V.; Cramer, C.J.; Truhlar, D.G.
 J. Phys. Chem. B 2009, 113, 6378-6396.
 iSolventCode=           1
 Solvent: water                                                           
 
 vradii
            1           2           3           4
    1   1.8500000   1.5200000   1.5200000   1.2000000
 -------------------------------------------------------
 OpenMP BLAS3 based DFT computing Module                
 Release: version 1.0, May 2013, Q-Chem Inc. Pittsburgh 
 -------------------------------------------------------
 A unrestricted SCF calculation will be
 performed using Roothaan-Hall, DIIS, GDM
 SCF converges when RMS gradient is below 1.0e-07
 ---------------------------------------
  Cycle       Energy         DIIS error
 ---------------------------------------
    1    -189.1055857744      4.75e-04  Roothaan Step
 ---------------------------------------
  Cycle       Energy         DIIS error
 ---------------------------------------
    1    -189.1186580954      5.45e-04  
    2    -189.1202301099      5.26e-04  Done DIIS. Switching to GDM
 ---------------------------------------
  Cycle       Energy        RMS Gradient
 ---------------------------------------
    1    -189.1202301099      1.31e-02   Normal BFGS step
    2    -189.1195721434      2.17e-02  Line search: overstep
    3    -189.1213117106      2.55e-03   Normal BFGS step
    4    -189.1213790551      1.19e-03   Normal BFGS step
    5    -189.1213883498      3.79e-04   Normal BFGS step
    6    -189.1213894277      2.15e-04   Normal BFGS step
    7    -189.1213898061      6.35e-05   Normal BFGS step
    8    -189.1213898214      3.71e-05   Normal BFGS step
    9    -189.1213898257      1.44e-05   Normal BFGS step
   10    -189.1213898264      5.18e-06   Normal BFGS step
   11    -189.1213898266      1.23e-06   Normal BFGS step
   12    -189.1213898266      7.41e-07   Normal BFGS step
   13    -189.1213898266      3.75e-07   Normal BFGS step
   14    -189.1213898266      1.15e-07   Normal BFGS step
   15    -189.1213898266      2.81e-08  Convergence criterion met
 ---------------------------------------
 SCF time:   CPU 76.61s  wall 10.00s 
<S^2> =          0.752700809
(3)  G-ENP(liq) elect-nuc-pol free energy of system     -189.121389827 a.u.
(4)  G-CDS(liq) cavity-dispersion-solvent structure 
     free energy                                                5.4907 kcal/mol
(6)  G-S(liq) free energy of system                     -189.112639807 a.u.
 SCF   energy in the final basis set =     -189.1126398066
 Total energy in the final basis set =     -189.1126398066
 
 --------------------------------------------------------------
 
                    Orbital Energies (a.u.)
 --------------------------------------------------------------
 
 Alpha MOs
 -- Occupied --
-19.4105 -19.3813 -10.4976  -1.2740  -1.2018  -0.7730  -0.6457  -0.6117
 -0.5915  -0.5013  -0.4678  -0.3390
 -- Virtual --
  0.0433   0.0753   0.0761   0.0875   0.1013   0.1210   0.2086   0.2212
  0.2269   0.2385   0.2841   0.2942   0.3011   0.3299   0.3563   0.4137
  0.5233   0.5444   0.6047   0.6465   0.7146   0.7200   0.7406   0.8234
  0.8536   0.9932   1.0026   1.0684   1.0849   1.0998   1.1258   1.1464
  1.1642   1.3442   1.3913   1.5164   1.5364   1.5885   1.6071   1.7377
  1.8137   1.9662   1.9947   2.1135   2.2306   2.3240   2.3543   2.5114
  2.7318   2.7902   2.8957   2.9027   3.0582   3.1176   3.1923   3.2181
  3.3413   3.3909   3.4765   3.5580   3.6111   3.6353   3.7655   3.8067
  3.9866   4.1512   4.3473   5.0907   5.1011   5.1140   5.1382   5.1592
  5.2243   5.2434   5.2746   5.4405   5.4768   5.5530   5.5816   5.5881
  5.9887   6.1146   6.5327   6.7372   6.8529   6.8596   6.9104   7.0032
  7.0858   7.1592   7.2134   7.3004   7.3955   7.4172   7.5897   7.7272
  7.7687  25.0268  50.5200  50.6710
 
 Beta MOs
 -- Occupied --
-19.4074 -19.3741 -10.4860  -1.2617  -1.1881  -0.7503  -0.6340  -0.5832
 -0.5809  -0.4716  -0.4637
 -- Virtual --
 -0.0267   0.0486   0.0769   0.0800   0.0900   0.1169   0.1198   0.2101
  0.2186   0.2269   0.2372   0.2826   0.2931   0.2989   0.3308   0.3592
  0.4259   0.5363   0.5565   0.6072   0.6623   0.7239   0.7322   0.7568
  0.8339   0.8656   1.0049   1.0100   1.0717   1.0912   1.1018   1.1401
  1.1512   1.1658   1.3583   1.4035   1.5234   1.5397   1.5981   1.6192
  1.7514   1.8182   1.9815   2.0023   2.1212   2.2463   2.3403   2.3728
  2.5260   2.7484   2.8091   2.9433   2.9440   3.0831   3.1558   3.2296
  3.2814   3.4146   3.4164   3.5083   3.5980   3.6282   3.6615   3.7787
  3.8475   4.0038   4.1676   4.3751   5.0991   5.1078   5.1289   5.1522
  5.1682   5.2473   5.2521   5.2820   5.4519   5.4856   5.5704   5.5866
  5.5985   6.0129   6.1256   6.5498   6.7531   6.8759   6.8862   6.9274
  7.0122   7.1044   7.1749   7.2196   7.3091   7.4128   7.4404   7.6033
  7.7413   7.7856  25.0379  50.5233  50.6769
 --------------------------------------------------------------
 
          Ground-State Mulliken Net Atomic Charges

     Atom                 Charge (a.u.)    Spin (a.u.)
  --------------------------------------------------------
      1 C                     0.187986       0.740203
      2 O                    -0.238515      -0.001978
      3 O                    -0.311485       0.209739
      4 H                     0.362015       0.052036
  --------------------------------------------------------
  Sum of atomic charges =    -0.000000
  Sum of spin   charges =     1.000000

 -----------------------------------------------------------------
                    Cartesian Multipole Moments
 -----------------------------------------------------------------
    Charge (ESU x 10^10)
                -0.0000
    Dipole Moment (Debye)
         X      -0.9968      Y      -2.3960      Z       1.1790
       Tot       2.8503
    Quadrupole Moments (Debye-Ang)
        XX     -14.3882     XY       5.2769     YY     -10.1611
        XZ      -3.2205     YZ      -1.0129     ZZ     -19.5152
    Octopole Moments (Debye-Ang^2)
       XXX      43.8665    XXY       5.9905    XYY       1.9378
       YYY      29.8046    XXZ       0.4988    XYZ       4.5912
       YYZ      -1.9155    XZZ      17.6734    YZZ      18.2085
       ZZZ     -18.6010
    Hexadecapole Moments (Debye-Ang^3)
      XXXX    -107.5408   XXXY     -27.8618   XXYY     -16.5197
      XYYY      -8.6519   YYYY     -91.6731   XXXZ      -0.3888
      XXYZ       1.9858   XYYZ      -8.3262   YYYZ      22.8941
      XXZZ     -33.9974   XYZZ     -14.2427   YYZZ     -38.6446
      XZZZ      10.4506   YZZZ      39.1078   ZZZZ     -94.4829
 -----------------------------------------------------------------
 Calculating analytic gradient of the SCF energy
 Gradient of CDS energy
            1           2           3           4
    1  -0.0004464   0.0002862   0.0003607  -0.0002005
    2  -0.0015455   0.0022541  -0.0003299  -0.0003787
    3   0.0010541  -0.0020875   0.0009120   0.0001213
 Gradient of SCF Energy
            1           2           3           4
    1  -0.0006464   0.0138662   0.0004538  -0.0136736
    2  -0.0005855   0.0106250   0.0041575  -0.0141969
    3  -0.0003668   0.0090265  -0.0039244  -0.0047354
 Max gradient component =       1.420E-02
 RMS gradient           =       8.324E-03
 Computing fast CPCM-SWIG gradient
 Updating gradient with PCM contributions...
 -- total gradient after adding PCM contribution --
---------------------------------------------------
  Atom         X              Y              Z     
---------------------------------------------------
   1      -0.000659       0.000460      -0.001343
   2      -0.000003      -0.000136       0.000243
   3       0.000560      -0.000227       0.001156
   4       0.000102      -0.000096      -0.000056
---------------------------------------------------
 Number of fixed atoms: 0
 Gradient time:  CPU 11.49 s  wall 1.51 s
 ----------------------------------------------------------------
             Standard Nuclear Orientation (Angstroms)
    I     Atom           X                Y                Z
 ----------------------------------------------------------------
    1      C      -0.7331289090    -0.6760306448     0.3672980418
    2      O      -0.8942841265    -1.6586837139     1.2200097559
    3      O      -1.2525592068    -0.4452543372    -0.6740821840
    4      H      -1.5742651576    -2.2840865039     0.8968406863
 ----------------------------------------------------------------
 Nuclear Repulsion Energy =          63.39334770 hartrees
 There are       12 alpha and       11 beta electrons
 Discretize the solute cavity surface with Lebedev spheres
	Using 110 Lebedev grid points for each H atom
	Using 194 Lebedev grid points for other atoms
	Atomic van der Waals radii will be scaled by 1.20
 Remove points where switching function is < 1.0e-08
 Keep 437 surface tesserae and discard 255 interior tesserae
 Molecular Surface Area = 60.658 Angst**2

                       Distance Matrix (Angstroms)
             C (  1)   O (  2)   O (  3)
   O (  2)  1.310990
   O (  3)  1.186397  2.277796
   H (  4)  1.890442  0.978745  2.439794
 
 Requested basis set is 6-311++G(2df,2p)
 There are 30 shells and 112 basis functions
 A cutoff of  1.0D-12 yielded    462 shell pairs
 There are      6520 function pairs (      8422 Cartesian)
 Smallest overlap matrix eigenvalue = 8.32E-04
 Guess MOs from SCF MO coefficient file

 -----------------------------------------------------------------------
  General SCF calculation program by
  Eric Jon Sundstrom, Paul Horn, Yuezhi Mao, Dmitri Zuev, Alec White,
  David Stuck, Shaama M.S., Shane Yost, Joonho Lee, David Small,
  Daniel Levine, Susi Lehtola, Hugh Burton, Evgeny Epifanovsky,
  Bang C. Huynh
 -----------------------------------------------------------------------
[...]
 ---------------------------------------
  Cycle       Energy        RMS Gradient
 ---------------------------------------
    1    -189.1201965334      1.34e-02   Normal BFGS step
    2    -189.1195074198      2.23e-02  Line search: overstep
    3    -189.1213135296      2.61e-03   Normal BFGS step
    4    -189.1213816264      1.20e-03   Normal BFGS step
    5    -189.1213910976      3.80e-04   Normal BFGS step
    6    -189.1213921772      2.16e-04   Normal BFGS step
    7    -189.1213925603      6.43e-05   Normal BFGS step
    8    -189.1213925755      3.76e-05   Normal BFGS step
    9    -189.1213925796      1.50e-05   Normal BFGS step
   10    -189.1213925803      5.48e-06   Normal BFGS step
   11    -189.1213925805      1.24e-06   Normal BFGS step
   12    -189.1213925805      7.53e-07   Normal BFGS step
   13    -189.1213925805      3.92e-07   Normal BFGS step
   14    -189.1213925805      1.21e-07   Normal BFGS step
   15    -189.1213925805      2.93e-08  Convergence criterion met
 ---------------------------------------
 SCF time:   CPU 73.97s  wall 10.00s 
<S^2> =          0.752705593
(3)  G-ENP(liq) elect-nuc-pol free energy of system     -189.121392580 a.u.
(4)  G-CDS(liq) cavity-dispersion-solvent structure 
     free energy                                                5.4918 kcal/mol
(6)  G-S(liq) free energy of system                     -189.112640820 a.u.
 SCF   energy in the final basis set =     -189.1126408202
 Total energy in the final basis set =     -189.1126408202
 
 --------------------------------------------------------------
 
                    Orbital Energies (a.u.)
 --------------------------------------------------------------
 
 Alpha MOs
 -- Occupied --
-19.4107 -19.3812 -10.4978  -1.2740  -1.2015  -0.7731  -0.6457  -0.6117
 -0.5915  -0.5011  -0.4677  -0.3391
 -- Virtual --
  0.0433   0.0753   0.0761   0.0875   0.1012   0.1210   0.2085   0.2212
  0.2268   0.2385   0.2840   0.2942   0.3011   0.3299   0.3562   0.4140
  0.5230   0.5443   0.6047   0.6464   0.7145   0.7199   0.7404   0.8235
  0.8534   0.9930   1.0028   1.0684   1.0849   1.0999   1.1259   1.1464
  1.1642   1.3441   1.3909   1.5161   1.5362   1.5885   1.6069   1.7375
  1.8134   1.9659   1.9947   2.1133   2.2307   2.3240   2.3544   2.5109
  2.7316   2.7901   2.8957   2.9027   3.0587   3.1172   3.1926   3.2181
  3.3416   3.3913   3.4769   3.5579   3.6102   3.6353   3.7652   3.8070
  3.9856   4.1503   4.3460   5.0908   5.1012   5.1141   5.1380   5.1591
  5.2243   5.2434   5.2744   5.4402   5.4766   5.5526   5.5807   5.5883
  5.9879   6.1151   6.5301   6.7367   6.8529   6.8584   6.9098   7.0031
  7.0842   7.1591   7.2135   7.3004   7.3962   7.4165   7.5896   7.7265
  7.7682  25.0267  50.5200  50.6696
 
 Beta MOs
 -- Occupied --
-19.4076 -19.3740 -10.4861  -1.2618  -1.1878  -0.7504  -0.6340  -0.5831
 -0.5809  -0.4714  -0.4636
 -- Virtual --
 -0.0268   0.0486   0.0770   0.0800   0.0900   0.1167   0.1198   0.2100
  0.2186   0.2269   0.2372   0.2826   0.2931   0.2989   0.3308   0.3591
  0.4261   0.5360   0.5564   0.6072   0.6621   0.7238   0.7321   0.7567
  0.8340   0.8653   1.0048   1.0102   1.0717   1.0912   1.1018   1.1402
  1.1513   1.1657   1.3582   1.4032   1.5231   1.5396   1.5981   1.6189
  1.7513   1.8179   1.9812   2.0023   2.1210   2.2464   2.3405   2.3728
  2.5254   2.7482   2.8091   2.9433   2.9440   3.0835   3.1556   3.2297
  3.2815   3.4150   3.4166   3.5086   3.5979   3.6273   3.6616   3.7784
  3.8477   4.0029   4.1667   4.3738   5.0991   5.1079   5.1291   5.1520
  5.1681   5.2472   5.2521   5.2818   5.4516   5.4853   5.5701   5.5857
  5.5986   6.0121   6.1260   6.5472   6.7526   6.8759   6.8848   6.9270
  7.0121   7.1028   7.1749   7.2197   7.3091   7.4134   7.4398   7.6031
  7.7407   7.7850  25.0378  50.5234  50.6755
 --------------------------------------------------------------
 
          Ground-State Mulliken Net Atomic Charges

     Atom                 Charge (a.u.)    Spin (a.u.)
  --------------------------------------------------------
      1 C                     0.188043       0.740090
      2 O                    -0.237876      -0.002182
      3 O                    -0.312415       0.209986
      4 H                     0.362248       0.052106
  --------------------------------------------------------
  Sum of atomic charges =     0.000000
  Sum of spin   charges =     1.000000

 -----------------------------------------------------------------
                    Cartesian Multipole Moments
 -----------------------------------------------------------------
    Charge (ESU x 10^10)
                 0.0000
    Dipole Moment (Debye)
         X      -0.9948      Y      -2.4016      Z       1.1867
       Tot       2.8576
    Quadrupole Moments (Debye-Ang)
        XX     -14.3916     XY       5.2810     YY     -10.1516
        XZ      -3.2255     YZ      -1.0189     ZZ     -19.5140
    Octopole Moments (Debye-Ang^2)
       XXX      43.8766    XXY       5.9835    XYY       1.9314
       YYY      29.7779    XXZ       0.5015    XYZ       4.5920
       YYZ      -1.9125    XZZ      17.6760    YZZ      18.2062
       ZZZ     -18.5974
    Hexadecapole Moments (Debye-Ang^3)
      XXXX    -107.5636   XXXY     -27.8519   XXYY     -16.5082
      XYYY      -8.6308   YYYY     -91.6067   XXXZ      -0.3924
      XXYZ       1.9877   XYYZ      -8.3202   YYYZ      22.8920
      XXZZ     -34.0046   XYZZ     -14.2490   YYZZ     -38.6503
      XZZZ      10.4488   YZZZ      39.1012   ZZZZ     -94.4840
 -----------------------------------------------------------------
 Calculating analytic gradient of the SCF energy
 Gradient of CDS energy
            1           2           3           4
    1  -0.0004480   0.0002837   0.0003648  -0.0002005
    2  -0.0015276   0.0022380  -0.0003320  -0.0003784
    3   0.0010294  -0.0020710   0.0009213   0.0001204
 Gradient of SCF Energy
            1           2           3           4
    1  -0.0001102   0.0141141  -0.0001275  -0.0138763
    2  -0.0010385   0.0110044   0.0043760  -0.0143419
    3   0.0009732   0.0089697  -0.0050572  -0.0048857
 Max gradient component =       1.434E-02
 RMS gradient           =       8.513E-03
 Computing fast CPCM-SWIG gradient
 Updating gradient with PCM contributions...
 -- total gradient after adding PCM contribution --
---------------------------------------------------
  Atom         X              Y              Z     
---------------------------------------------------
   1      -0.000114       0.000000       0.000016
   2       0.000243       0.000243       0.000166
   3      -0.000032      -0.000017       0.000016
   4      -0.000097      -0.000226      -0.000198
---------------------------------------------------
 Number of fixed atoms: 0
 Gradient time:  CPU 11.16 s  wall 1.45 s
Dipole drv :
gprntSymmMtrx error report: 
 Final Hessian.
            1           2           3           4           5           6
    1   0.2797754   0.0679168   0.3057736  -0.0749286  -0.0590864  -0.0072724
    2   0.0679168   0.3072037  -0.2111506  -0.0696973  -0.1941979   0.0823081
    3   0.3057736  -0.2111506   0.7242446   0.0047630   0.0985638  -0.1291575
    4  -0.0749286  -0.0696973   0.0047630   0.2767915   0.2241777   0.1269515
    5  -0.0590864  -0.1941979   0.0985638   0.2241777   0.3928582  -0.0725308
    6  -0.0072724   0.0823081  -0.1291575   0.1269515  -0.0725308   0.2981196
    7  -0.2050925   0.0202188  -0.3104555   0.0259615   0.0289059  -0.0143619
    8   0.0264569  -0.0735889   0.1063570   0.0215662  -0.0155284   0.0656260
    9  -0.3173847   0.0968800  -0.6015193  -0.0061825   0.0766390  -0.0808469
   10   0.0002457  -0.0184383  -0.0000812  -0.2278244  -0.1939971  -0.1053172
   11  -0.0352873  -0.0394167   0.0062296  -0.1760466  -0.1831321  -0.0754032
   12   0.0188834   0.0319625   0.0064320  -0.1255320  -0.1026721  -0.0881152
            7           8           9          10          11          12
    1  -0.2050925   0.0264569  -0.3173847   0.0002457  -0.0352873   0.0188834
    2   0.0202188  -0.0735889   0.0968800  -0.0184383  -0.0394167   0.0319625
    3  -0.3104555   0.1063570  -0.6015193  -0.0000812   0.0062296   0.0064320
    4   0.0259615   0.0215662  -0.0061825  -0.2278244  -0.1760466  -0.1255320
    5   0.0289059  -0.0155284   0.0766390  -0.1939971  -0.1831321  -0.1026721
    6  -0.0143619   0.0656260  -0.0808469  -0.1053172  -0.0754032  -0.0881152
    7   0.1808089  -0.0553501   0.3229571  -0.0016778   0.0062254   0.0018603
    8  -0.0553501   0.0828228  -0.1675667   0.0073271   0.0062945  -0.0044163
    9   0.3229571  -0.1675667   0.6821298   0.0006101  -0.0059524   0.0002364
   10  -0.0016778   0.0073271   0.0006101   0.2292566   0.2051084   0.1047883
   11   0.0062254   0.0062945  -0.0059524   0.2051084   0.2162544   0.0751259
   12   0.0018603  -0.0044163   0.0002364   0.1047883   0.0751259   0.0814467
 ----------------------------------------------------------------
             Standard Nuclear Orientation (Angstroms)
    I     Atom           X                Y                Z
 ----------------------------------------------------------------
    1      C      -0.7331289090    -0.6760306448     0.3672980418
    2      O      -0.8952841265    -1.6586837139     1.2200097559
    3      O      -1.2525592068    -0.4452543372    -0.6740821840
    4      H      -1.5742651576    -2.2840865039     0.8968406863
 ----------------------------------------------------------------
 Nuclear Repulsion Energy =          63.39562229 hartrees
 There are       12 alpha and       11 beta electrons
 old dipole drv.
            1           2           3           4           5           6
    1   0.3502799   0.0004315   0.3210562  -0.3101022   0.0632380  -0.0129084
    2   0.0004922   1.1952810  -1.1776110  -0.2134896  -1.0768362   0.4942972
    3   0.3196473  -1.1801098   1.9387640   0.2948156   0.9094464  -0.9184907
            7           8           9          10          11          12
    1  -0.4603838  -0.0545464  -0.2176969   0.4202061  -0.0091210  -0.0904514
    2   0.2334445  -0.5728172   0.6845696  -0.0204467   0.4543732  -0.0012563
    3  -0.5396766   0.2501208  -1.3690012  -0.0747860   0.0205447   0.3487280
 New transposed dipole drv.
            1           2           3
    1   0.3502799   0.0004922   0.3196473
    2   0.0004315   1.1952810  -1.1801098
    3   0.3210562  -1.1776110   1.9387640
    4  -0.3101022  -0.2134896   0.2948156
    5   0.0632380  -1.0768362   0.9094464
    6  -0.0129084   0.4942972  -0.9184907
    7  -0.4603838   0.2334445  -0.5396766
    8  -0.0545464  -0.5728172   0.2501208
    9  -0.2176969   0.6845696  -1.3690012
   10   0.4202061  -0.0204467  -0.0747860
   11  -0.0091210   0.4543732   0.0205447
   12  -0.0904514  -0.0012563   0.3487280
FINAL TENSOR RESULT:
Order 2, Length 12
    Atom      X          Y          Z
     1 Order 1, Length 12
    Atom      X          Y          Z
     1    2.797754093418778e-01   6.791676749877615e-02   3.057736446498175e-01
     2   -7.492859049093764e-02  -5.908639677290260e-02  -7.272413327664031e-03
     3   -2.050925037289665e-01   2.645689311743288e-02  -3.173847414908703e-01
     4    2.456571252657494e-04  -3.528726813213785e-02   1.888342690694035e-02

Order 1, Length 12
    Atom      X          Y          Z
     1    6.791676749877615e-02   3.072036554632591e-01  -2.111505674606250e-01
     2   -6.969727903376487e-02  -1.941978774804708e-01   8.230806018652133e-02
     3    2.021882582699532e-02  -7.358893236852701e-02   9.688004881034726e-02
     4   -1.843834179914397e-02  -3.941673024079603e-02   3.196253261334869e-02

Order 1, Length 12
    Atom      X          Y          Z
     1    3.057736446498175e-01  -2.111505674606250e-01   7.242445696655802e-01
     2    4.763021639051682e-03   9.856378052578188e-02  -1.291574706668754e-01
     3   -3.104554701263413e-01   1.063570227494595e-01  -6.015192833416727e-01
     4   -8.124353162535525e-05   6.229606589835659e-03   6.432028686230856e-03


     2 Order 1, Length 12
    Atom      X          Y          Z
     1   -7.492859049093764e-02  -6.969727903376487e-02   4.763021639051682e-03
     2    2.767915088305668e-01   2.241777052708196e-01   1.269514555961636e-01
     3    2.596146224304923e-02   2.156615859801878e-02  -6.182458875695440e-03
     4   -2.278243886069624e-01  -1.760466261638514e-01  -1.255320281100544e-01

Order 1, Length 12
    Atom      X          Y          Z
     1   -5.908639677290260e-02  -1.941978774804708e-01   9.856378052578188e-02
     2    2.241777052708196e-01   3.928582382698315e-01  -7.253076420854830e-02
     3    2.890586507250724e-02  -1.552836795943237e-02   7.663899653938559e-02
     4   -1.939971462976311e-01  -1.831321400978083e-01  -1.026720917049448e-01

Order 1, Length 12
    Atom      X          Y          Z
     1   -7.272413327664031e-03   8.230806018652133e-02  -1.291574706668754e-01
     2    1.269514555961636e-01  -7.253076420854830e-02   2.981195607847378e-01
     3   -1.436186053894709e-02   6.562598482489926e-02  -8.084686806979666e-02
     4   -1.053171648229253e-01  -7.540318410146440e-02  -8.811517515399395e-02


     3 Order 1, Length 12
    Atom      X          Y          Z
     1   -2.050925037289665e-01   2.021882582699532e-02  -3.104554701263413e-01
     2    2.596146224304923e-02   2.890586507250724e-02  -1.436186053894709e-02
     3    1.808088927122287e-01  -5.535009722710900e-02   3.229571387893462e-01
     4   -1.677827864372278e-03   6.225436891247460e-03   1.860268144906427e-03

Order 1, Length 12
    Atom      X          Y          Z
     1    2.645689311743288e-02  -7.358893236852701e-02   1.063570227494595e-01
     2    2.156615859801878e-02  -1.552836795943237e-02   6.562598482489926e-02
     3   -5.535009722710900e-02   8.282278954404580e-02  -1.675666517760503e-01
     4    7.327059493508152e-03   6.294495961072981e-03  -4.416349004790468e-03

Order 1, Length 12
    Atom      X          Y          Z
     1   -3.173847414908703e-01   9.688004881034726e-02  -6.015192833416727e-01
     2   -6.182458875695440e-03   7.663899653938559e-02  -8.084686806979666e-02
     3    3.229571387893462e-01  -1.675666517760503e-01   6.821297926577102e-01
     4    6.100948778010801e-04  -5.952357160907262e-03   2.364375822543066e-04


     4 Order 1, Length 12
    Atom      X          Y          Z
     1    2.456571252657494e-04  -1.843834179914397e-02  -8.124353162535525e-05
     2   -2.278243886069624e-01  -1.939971462976311e-01  -1.053171648229253e-01
     3   -1.677827864372278e-03   7.327059493508152e-03   6.100948778010801e-04
     4    2.292565717476446e-01   2.051084436824622e-01   1.047883302186422e-01

Order 1, Length 12
    Atom      X          Y          Z
     1   -3.528726813213785e-02  -3.941673024079603e-02   6.229606589835659e-03
     2   -1.760466261638514e-01  -1.831321400978083e-01  -7.540318410146440e-02
     3    6.225436891247460e-03   6.294495961072981e-03  -5.952357160907262e-03
     4    2.051084436824622e-01   2.162544210927604e-01   7.512593258464259e-02

Order 1, Length 12
    Atom      X          Y          Z
     1    1.888342690694035e-02   3.196253261334869e-02   6.432028686230856e-03
     2   -1.255320281100544e-01  -1.026720917049448e-01  -8.811517515399395e-02
     3    1.860268144906427e-03  -4.416349004790468e-03   2.364375822543066e-04
     4    1.047883302186422e-01   7.512593258464259e-02   8.144673879599100e-02




 # Finishing finite difference calculation for IDERIV #
 ######################################################
 ######################################################
 Requested basis set is 6-311++G(2df,2p)
 There are 30 shells and 112 basis functions
 **********************************************************************
 **                                                                  **
 **                       VIBRATIONAL ANALYSIS                       **
 **                       --------------------                       **
 **                                                                  **
 **        VIBRATIONAL FREQUENCIES (CM**-1) AND NORMAL MODES         **
 **     FORCE CONSTANTS (mDYN/ANGSTROM) AND REDUCED MASSES (AMU)     **
 **                  INFRARED INTENSITIES (KM/MOL)                   **
 **                                                                  **
 **********************************************************************
 

 Mode:                 1                      2                      3
 Frequency:       553.68                 611.30                1076.07
 Force Cnst:      0.2783                 0.8825                 3.5358
 Red. Mass:       1.5409                 4.0081                 5.1828
 IR Active:          YES                    YES                    YES
 IR Intens:      194.088                 75.143                391.654
 Raman Active:       YES                    YES                    YES
               X      Y      Z        X      Y      Z        X      Y      Z
 C          0.109 -0.085 -0.075   -0.223 -0.209 -0.092    0.110  0.274 -0.140
 O         -0.081  0.060  0.056    0.091 -0.046  0.181   -0.001 -0.275  0.306
 O         -0.044  0.036  0.028    0.066  0.229 -0.160   -0.072  0.043 -0.156
 H          0.695 -0.521 -0.450    0.150 -0.419  0.758   -0.154  0.417 -0.704
 TransDip   0.316 -0.238 -0.207   -0.075 -0.221  0.150    0.014  0.433 -0.463

 Mode:                 4                      5                      6
 Frequency:      1308.68                1808.13                3611.32
 Force Cnst:      1.5433                25.5264                 8.1730
 Red. Mass:       1.5294                13.2520                 1.0637
 IR Active:          YES                    YES                    YES
 IR Intens:        0.491                708.312                157.686
 Raman Active:       YES                    YES                    YES
               X      Y      Z        X      Y      Z        X      Y      Z
 C          0.098  0.157 -0.026    0.353 -0.163  0.714   -0.002 -0.004  0.001
 O         -0.064 -0.060 -0.030   -0.006  0.024 -0.036   -0.042 -0.039 -0.020
 O         -0.015 -0.020  0.000   -0.259  0.101 -0.503    0.000  0.001 -0.001
 H          0.077 -0.588  0.777    0.002 -0.055  0.062    0.691  0.647  0.317
 TransDip   0.015  0.016  0.005    0.158 -0.430  0.719    0.258  0.305  0.048

 STANDARD THERMODYNAMIC QUANTITIES AT   298.15 K  AND     1.00 ATM

   This Molecule has  0 Imaginary Frequencies
   Zero point vibrational energy:       12.822 kcal/mol

   Atom    1 Element C  Has Mass   12.00000
   Atom    2 Element O  Has Mass   15.99491
   Atom    3 Element O  Has Mass   15.99491
   Atom    4 Element H  Has Mass    1.00783
   Molecular Mass:    44.997650 amu
   Principal axes and moments of inertia in amu*Bohr^2:
                             1           2           3
    Eigenvalues --       12.32922   152.89252   165.22173
          X               0.12995     0.69303     0.70910
          Y              -0.55819     0.64220    -0.52535
          Z               0.81947     0.32755    -0.47029
   Rotational Symmetry Number is   1
   The Molecule is an Asymmetric Top
   Translational Enthalpy:        0.889 kcal/mol
   Rotational Enthalpy:           0.889 kcal/mol
   Vibrational Enthalpy:         13.061 kcal/mol
   gas constant (RT):             0.592 kcal/mol
   Translational Entropy:        37.338  cal/mol.K
   Rotational Entropy:           20.371  cal/mol.K
   Vibrational Entropy:           1.065  cal/mol.K

   Total Enthalpy:               15.431 kcal/mol
   Total Entropy:                58.774  cal/mol.K
 Total job time:  290.23s(wall), 2235.18s(cpu) 
 Tue Jul 25 21:06:28 2023

        *************************************************************
        *                                                           *
        *  Thank you very much for using Q-Chem.  Have a nice day.  *
        *                                                           *
        *************************************************************


