
Running Job 1 of 1 Q_in.in
qchem Q_in.in_125031.0 /scratch/ari.fischer/qChem1647378.hpc-mn1/qchem125031/ 0
/usr/local/qchem-5.4.1/exe/qcprog.exe_s Q_in.in_125031.0 /scratch/ari.fischer/qChem1647378.hpc-mn1/qchem125031/
                  Welcome to Q-Chem
     A Quantum Leap Into The Future Of Chemistry


 Q-Chem 5.4, Q-Chem, Inc., Pleasanton, CA (2021)

 License issued to: Nanyang Technological University (site)

 E. Epifanovsky,  A. T. B. Gilbert,  Xintian Feng,  Joonho Lee,  Yuezhi Mao,  
 N. Mardirossian,  P. Pokhilko,  A. White,  M. Wormit,  M. P. Coons,  
 A. L. Dempwolff,  Zhengting Gan,  D. Hait,  P. R. Horn,  L. D. Jacobson,  
 I. Kaliman,  J. Kussmann,  A. W. Lange,  Ka Un Lao,  D. S. Levine,  Jie Liu,  
 S. C. McKenzie,  A. F. Morrison,  K. Nanda,  F. Plasser,  D. R. Rehn,  
 M. L. Vidal,  Zhi-Qiang You,  Ying Zhu,  B. Alam,  B. Albrecht,  
 A. Aldossary,  E. Alguire,  J. H. Andersen,  D. Barton,  K. Begam,  A. Behn,  
 Y. A. Bernard,  E. J. Berquist,  H. Burton,  A. Carreras,  K. Carter-Fenk,  
 R. Chakraborty,  A. D. Chien,  K. D. Closser,  V. Cofer-Shabica,  
 S. Dasgupta,  Jia Deng,  M. de Wergifosse,  M. Diedenhofen,  Hainam Do,  
 S. Ehlert,  Po-Tung Fang,  S. Fatehi,  Qingguo Feng,  T. Friedhoff,  
 J. Gayvert,  Qinghui Ge,  G. Gidofalvi,  M. Goldey,  J. Gomes,  
 C. Gonzalez-Espinoza,  S. Gulania,  A. Gunina,  M. W. D. Hanson-Heine,  
 P. H. P. Harbach,  A. W. Hauser,  M. F. Herbst,  M. Hernandez Vera,  
 M. Hodecker,  Z. C. Holden,  S. Houck,  Xunkun Huang,  Kerwin Hui,  
 B. C. Huynh,  M. Ivanov,  Hyunjun Ji,  Hanjie Jiang,  B. Kaduk,  S. Kaehler,  
 K. Khistyaev,  Jaehoon Kim,  P. Klunzinger,  Z. Koczor-Benda,  
 Joong Hoon Koh,  D. Kosenkov,  L. Koulias,  T. Kowalczyk,  C. M. Krauter,  
 K. Kue,  A. Kunitsa,  T. Kus,  A. Landau,  K. V. Lawler,  D. Lefrancois,  
 S. Lehtola,  Rain Li,  Yi-Pei Li,  Jiashu Liang,  M. Liebenthal,  
 Hung-Hsuan Lin,  You-Sheng Lin,  Fenglai Liu,  Kuan-Yu Liu,  
 M. Loipersberger,  A. Luenser,  A. Manjanath,  P. Manohar,  E. Mansoor,  
 S. F. Manzer,  Shan-Ping Mao,  A. V. Marenich,  T. Markovich,  S. Mason,  
 S. A. Maurer,  P. F. McLaughlin,  M. F. S. J. Menger,  J.-M. Mewes,  
 S. A. Mewes,  P. Morgante,  J. W. Mullinax,  K. J. Oosterbaan,  G. Paran,  
 Alexander C. Paul,  Suranjan K. Paul,  F. Pavosevic,  Zheng Pei,  S. Prager,  
 E. I. Proynov,  E. Ramos,  B. Rana,  A. E. Rask,  A. Rettig,  R. M. Richard,  
 F. Rob,  E. Rossomme,  T. Scheele,  M. Scheurer,  M. Schneider,  
 N. Sergueev,  S. M. Sharada,  W. Skomorowski,  D. W. Small,  C. J. Stein,  
 Yu-Chuan Su,  E. J. Sundstrom,  Zhen Tao,  J. Thirman,  T. Tsuchimochi,  
 N. M. Tubman,  S. P. Veccham,  O. Vydrov,  J. Wenzel,  J. Witte,  A. Yamada,  
 Kun Yao,  S. Yeganeh,  S. R. Yost,  A. Zech,  Igor Ying Zhang,  Xing Zhang,  
 Yu Zhang,  D. Zuev,  A. Aspuru-Guzik,  A. T. Bell,  N. A. Besley,  
 K. B. Bravaya,  B. R. Brooks,  D. Casanova,  Jeng-Da Chai,  S. Coriani,  
 C. J. Cramer,  A. E. DePrince, III,  R. A. DiStasio Jr.,  A. Dreuw,  
 B. D. Dunietz,  T. R. Furlani,  W. A. Goddard III,  S. Grimme,  
 S. Hammes-Schiffer,  T. Head-Gordon,  W. J. Hehre,  Chao-Ping Hsu,  
 T.-C. Jagau,  Yousung Jung,  A. Klamt,  Jing Kong,  D. S. Lambrecht,  
 WanZhen Liang,  N. J. Mayhall,  C. W. McCurdy,  J. B. Neaton,  
 C. Ochsenfeld,  J. A. Parkhill,  R. Peverati,  V. A. Rassolov,  Yihan Shao,  
 L. V. Slipchenko,  T. Stauch,  R. P. Steele,  J. E. Subotnik,  
 A. J. W. Thom,  A. Tkatchenko,  D. G. Truhlar,  T. Van Voorhis,  
 T. A. Wesolowski,  K. B. Whaley,  H. L. Woodcock III,  P. M. Zimmerman,  
 S. Faraji,  P. M. W. Gill,  M. Head-Gordon,  J. M. Herbert,  A. I. Krylov

 Additional authors for Version 5.4.1: 
 S. Kotaru,  Shaozhi Li,  Xiangyuan Li,  F. Matz,  A. Molle,  Haisheng Ren,  
 Yingli Su,  Hung-Yi Tsai,  C. Utku,  Fang Wang

 Contributors to earlier versions of Q-Chem not listed above: 
 R. D. Adamson,  B. Austin,  R. Baer,  J. Baker,  G. J. O. Beran,  
 K. Brandhorst,  S. T. Brown,  E. F. C. Byrd,  A. K. Chakraborty,  
 G. K. L. Chan,  Chun-Min Chang,  Yunqing Chen,  C.-L. Cheng,  
 Siu Hung Chien,  D. M. Chipman,  D. L. Crittenden,  H. Dachsel,  
 R. J. Doerksen,  A. D. Dutoi,  R. G. Edgar,  J. Fosso-Tande,  
 L. Fusti-Molnar,  D. Ghosh,  A. Ghysels,  A. Golubeva-Zadorozhnaya,  
 J. Gonthier,  M. S. Gordon,  S. R. Gwaltney,  G. Hawkins,  J. E. Herr,  
 A. Heyden,  S. Hirata,  E. G. Hohenstein,  G. Kedziora,  F. J. Keil,  
 C. Kelley,  Jihan Kim,  R. A. King,  R. Z. Khaliullin,  P. P. Korambath,  
 W. Kurlancheek,  A. Laurent,  A. M. Lee,  M. S. Lee,  S. V. Levchenko,  
 Ching Yeh Lin,  D. Liotard,  E. Livshits,  R. C. Lochan,  I. Lotan,  
 L. A. Martinez-Martinez,  P. E. Maslen,  N. Nair,  D. P. O'Neill,  
 D. Neuhauser,  E. Neuscamman,  C. M. Oana,  R. Olivares-Amaya,  R. Olson,  
 T. M. Perrine,  B. Peters,  P. A. Pieniazek,  A. Prociuk,  Y. M. Rhee,  
 J. Ritchie,  M. A. Rohrdanz,  E. Rosta,  N. J. Russ,  H. F. Schaefer III,  
 M. W. Schmidt,  N. E. Schultz,  S. Sharma,  N. Shenvi,  C. D. Sherrill,  
 A. C. Simmonett,  A. Sodt,  T. Stein,  D. Stuck,  K. S. Thanthiriwatte,  
 V. Vanovschi,  L. Vogt,  Tao Wang,  A. Warshel,  M. A. Watson,  
 C. F. Williams,  Q. Wu,  X. Xu,  Jun Yang,  W. Zhang,  Yan Zhao

 Please cite Q-Chem as follows:
 Y. Shao et al., Mol. Phys. 113, 184-215 (2015)
 DOI: 10.1080/00268976.2014.952696

 Q-Chem 5.4.1 for Intel X86 EM64T Linux

 Parts of Q-Chem use Armadillo 9.800.1 (Horizon Scraper).
 http://arma.sourceforge.net/

 Q-Chem begins on Tue Jul 25 21:01:38 2023  

 Host: 
0

     Scratch files written to /scratch/ari.fischer/qChem1647378.hpc-mn1/qchem125031//
 Aug1521 |scratch|qcdevops|jenkins|workspace|build_RNUM 8249   
 Processing $rem in /usr/local/qchem-5.4.1/config/preferences:
 Processing $rem in /home/ari.fischer/.qchemrc:
 Symmetry turned off for PCM/SM12/SMD calculation


!!********************************************.
!!******************Warning*******************.
!!Desired Analytical derivatives not available.
!!Finite difference job might take a long time.
!!********************************************.
!!********************************************.


 2-order derivative to be evaluated numerically with 1-order analytical derivatives

 Checking the input file for inconsistencies... 	...done.

--------------------------------------------------------------
User input:
--------------------------------------------------------------
$molecule
0 2
H        -1.9451317181   -1.0509905375   -0.9918420804
C        -0.8743887599   -0.5180439156    0.5240076242
O        -0.8111264072   -1.7425692644    1.1472768402
O        -1.1633289644   -0.5095861474   -0.8210477070
H        -1.6029986037   -2.2567548332    0.9421208132
H        -0.0257258467    0.1088140978    0.7643269099
$end

$rem
BASIS = 6-311++G(2df,2p)
GUI = 2
JOB_TYPE = Frequency
METHOD = wB97M-V
SOLVENT_METHOD = SMD
SCF_ALGORITHM = DIIS_GDM
MAX_SCF_CYCLES = 400
SCF_CONVERGENCE = 7
THRESH = 12
UNRESTRICTED = 1
SYMMETRY_IGNORE = 1
$end
--------------------------------------------------------------
 ----------------------------------------------------------------
             Standard Nuclear Orientation (Angstroms)
    I     Atom           X                Y                Z
 ----------------------------------------------------------------
    1      H      -1.9451317181    -1.0509905375    -0.9918420804
    2      C      -0.8743887599    -0.5180439156     0.5240076242
    3      O      -0.8111264072    -1.7425692644     1.1472768402
    4      O      -1.1633289644    -0.5095861474    -0.8210477070
    5      H      -1.6029986037    -2.2567548332     0.9421208132
    6      H      -0.0257258467     0.1088140978     0.7643269099
 ----------------------------------------------------------------
 Nuclear Repulsion Energy =          74.43004172 hartrees
 There are       13 alpha and       12 beta electrons
 Requested basis set is 6-311++G(2df,2p)
 There are 42 shells and 132 basis functions

 Total QAlloc Memory Limit 288000 MB
 Mega-Array Size       188 MB
 MEM_STATIC part       192 MB
 
 Citation of the SMD model:
 Marenich, A.V.; Cramer, C.J.; Truhlar, D.G.
 J. Phys. Chem. B 2009, 113, 6378-6396.
 iSolventCode=           1
 Solvent: water                                                           
 
 vradii
            1           2           3           4           5           6
    1   1.2000000   1.8500000   1.5200000   1.5200000   1.2000000   1.2000000
 Changing PCM_VDW_RADII to SMD_RADIUS
 Discretize the solute cavity surface with Lebedev spheres
	Using 110 Lebedev grid points for each H atom
	Using 194 Lebedev grid points for other atoms
	Atomic van der Waals radii will be scaled by 1.20
 Remove points where switching function is < 1.0e-08
 Keep 538 surface tesserae and discard 374 interior tesserae
 Molecular Surface Area = 68.002 Angst**2

                       Distance Matrix (Angstroms)
             H (  1)   C (  2)   O (  3)   O (  4)   H (  5)
   C (  2)  1.930887
   O (  3)  2.517951  1.375474
   O (  4)  0.966181  1.375766  2.349169
   H (  5)  2.304590  1.931012  0.966197  2.520847
   H (  6)  2.848402  1.082097  2.047224  2.046942  2.848739
 
 A cutoff of  1.0D-12 yielded    898 shell pairs
 There are      8972 function pairs (     11172 Cartesian)
 Smallest overlap matrix eigenvalue = 1.16E-03
 Guess from superposition of atomic densities
 Warning:  Energy on first SCF cycle will be non-variational
 SAD guess density has 25.000000 electrons

 -----------------------------------------------------------------------
  General SCF calculation program by
  Eric Jon Sundstrom, Paul Horn, Yuezhi Mao, Dmitri Zuev, Alec White,
  David Stuck, Shaama M.S., Shane Yost, Joonho Lee, David Small,
  Daniel Levine, Susi Lehtola, Hugh Burton, Evgeny Epifanovsky,
  Bang C. Huynh
 -----------------------------------------------------------------------
 Exchange:     0.1500 Hartree-Fock + 1.0000 wB97M-V + LR-HF
 Correlation:  1.0000 wB97M-V
 Using SG-2 standard quadrature grid
 Nonlocal Correlation:  VV10 with C = 0.0100 and b = 6.00 and scale = 1.00000
 Grid used for NLC:  SG-1 standard quadrature
 using 8 threads for integral computing
 -------------------------------------------------------
 OpenMP Integral computing Module                
 Release: version 1.0, May 2013, Q-Chem Inc. Pittsburgh 
 -------------------------------------------------------
 
 Citation of the SMD model:
 Marenich, A.V.; Cramer, C.J.; Truhlar, D.G.
 J. Phys. Chem. B 2009, 113, 6378-6396.
 iSolventCode=           1
 Solvent: water                                                           
 
 vradii
            1           2           3           4           5           6
    1   1.2000000   1.8500000   1.5200000   1.5200000   1.2000000   1.2000000
 -------------------------------------------------------
 OpenMP BLAS3 based DFT computing Module                
 Release: version 1.0, May 2013, Q-Chem Inc. Pittsburgh 
 -------------------------------------------------------
 A unrestricted SCF calculation will be
 performed using DIIS, GDM
 SCF converges when RMS gradient is below 1.0e-07
 ---------------------------------------
  Cycle       Energy         DIIS error
 ---------------------------------------
    1    -190.6525110211      2.08e-02  
    2    -190.2526424379      2.87e-03  Done DIIS. Switching to GDM
 ---------------------------------------
  Cycle       Energy        RMS Gradient
 ---------------------------------------
    1    -190.2526424379      7.73e-02   Descent step
    2    -190.2948120379      4.41e-02   Normal BFGS step
    3    -190.3095503300      5.71e-03   Normal BFGS step
    4    -190.3100363518      3.21e-03   Normal BFGS step
    5    -190.3101059146      9.75e-04   Normal BFGS step
    6    -190.3101125209      3.13e-04   Normal BFGS step
    7    -190.3101134262      1.02e-04   Normal BFGS step
    8    -190.3101135530      3.69e-05   Normal BFGS step
    9    -190.3101135662      1.79e-05   Normal BFGS step
   10    -190.3101135724      7.93e-06   Normal BFGS step
   11    -190.3101135728      4.03e-06   Normal BFGS step
   12    -190.3101135728      1.01e-06   Normal BFGS step
   13    -190.3101135728      3.11e-07   Normal BFGS step
   14    -190.3101135728      9.50e-08  Convergence criterion met
 ---------------------------------------
 SCF time:   CPU 99.75s  wall 12.00s 
<S^2> =          0.752313137
(3)  G-ENP(liq) elect-nuc-pol free energy of system     -190.310113573 a.u.
(4)  G-CDS(liq) cavity-dispersion-solvent structure 
     free energy                                                3.7493 kcal/mol
(6)  G-S(liq) free energy of system                     -190.304138691 a.u.
 SCF   energy in the final basis set =     -190.3041386908
 Total energy in the final basis set =     -190.3041386908
 
 --------------------------------------------------------------
 
                    Orbital Energies (a.u.)
 --------------------------------------------------------------
 
 Alpha MOs
 -- Occupied --
-19.3637 -19.3636 -10.4354  -1.2169  -1.1533  -0.7927  -0.6686  -0.6005
 -0.5639  -0.5029  -0.5021  -0.4373  -0.2709
 -- Virtual --
  0.0325   0.0475   0.0602   0.0890   0.1063   0.1286   0.1556   0.2126
  0.2249   0.2260   0.2376   0.2440   0.2807   0.2857   0.3116   0.3126
  0.3530   0.3539   0.3740   0.3964   0.5516   0.5682   0.5960   0.6232
  0.6577   0.6794   0.7163   0.7980   0.8049   0.8064   0.8503   0.8947
  0.9809   1.0520   1.0757   1.1038   1.1241   1.1574   1.1770   1.1992
  1.2492   1.2981   1.3533   1.3749   1.4738   1.4918   1.5238   1.5930
  1.6113   1.8639   1.9145   1.9389   2.0004   2.1152   2.1575   2.2715
  2.3448   2.3760   2.4156   2.4917   2.7392   2.7797   2.8809   3.0458
  3.0653   3.1815   3.2810   3.3030   3.3500   3.3582   3.4551   3.5189
  3.5577   3.6605   3.7506   3.7786   3.7875   3.8652   3.8869   4.0677
  4.1096   4.2579   4.2602   4.3023   4.4264   5.1318   5.1714   5.1898
  5.1910   5.2618   5.2861   5.3170   5.4017   5.4031   5.5339   5.5699
  5.6089   5.6463   5.7395   5.9306   6.1296   6.3441   6.4326   6.7587
  7.0410   7.0470   7.1950   7.2355   7.2565   7.2855   7.3255   7.3423
  7.5939   7.6169   7.7412   7.7658  24.7459  50.5112  50.5633
 
 Beta MOs
 -- Occupied --
-19.3602 -19.3602 -10.4224  -1.2069  -1.1449  -0.7746  -0.6614  -0.5881
 -0.5340  -0.4881  -0.4854  -0.4242
 -- Virtual --
  0.0255   0.0469   0.0492   0.0603   0.0941   0.1056   0.1310   0.1576
  0.2141   0.2253   0.2266   0.2408   0.2459   0.2815   0.2893   0.3108
  0.3123   0.3611   0.3639   0.3819   0.4055   0.5587   0.5752   0.5985
  0.6520   0.6668   0.6876   0.7292   0.8069   0.8139   0.8204   0.8566
  0.9071   0.9821   1.0648   1.0797   1.1089   1.1259   1.1621   1.1833
  1.2129   1.2555   1.3084   1.3631   1.3835   1.4792   1.4947   1.5416
  1.5982   1.6172   1.8722   1.9275   1.9468   2.0145   2.1224   2.1649
  2.2851   2.3580   2.3805   2.4242   2.5187   2.7684   2.7885   2.9608
  3.0952   3.1014   3.2339   3.3229   3.3404   3.3919   3.3959   3.5169
  3.5587   3.6116   3.6990   3.7639   3.7859   3.8055   3.8776   3.9223
  4.0779   4.1196   4.2638   4.2919   4.3144   4.4476   5.1463   5.1787
  5.2060   5.2232   5.2697   5.3042   5.3406   5.4101   5.4153   5.5465
  5.5800   5.6155   5.6537   5.7471   5.9457   6.1484   6.3540   6.4510
  6.7716   7.0540   7.0615   7.2075   7.2446   7.2678   7.2909   7.3383
  7.3571   7.6019   7.6262   7.7463   7.7748  24.7578  50.5141  50.5662
 --------------------------------------------------------------
 
          Ground-State Mulliken Net Atomic Charges

     Atom                 Charge (a.u.)    Spin (a.u.)
  --------------------------------------------------------
      1 H                     0.346881      -0.007566
      2 C                    -0.126148       0.872337
      3 O                    -0.385981       0.078489
      4 O                    -0.386467       0.079060
      5 H                     0.346560      -0.007451
      6 H                     0.205155      -0.014868
  --------------------------------------------------------
  Sum of atomic charges =    -0.000000
  Sum of spin   charges =     1.000000

 -----------------------------------------------------------------
                    Cartesian Multipole Moments
 -----------------------------------------------------------------
    Charge (ESU x 10^10)
                 0.0000
    Dipole Moment (Debye)
         X      -2.3340      Y      -1.5993      Z      -0.5744
       Tot       2.8871
    Quadrupole Moments (Debye-Ang)
        XX     -10.9584     XY       8.2046     YY     -14.6779
        XZ       1.4985     YZ       2.0851     ZZ     -21.4720
    Octopole Moments (Debye-Ang^2)
       XXX      35.8421    XXY      -1.3585    XYY       1.8953
       YYY      40.3591    XXZ      -8.8716    XYZ      -0.0834
       YYZ      -7.0455    XZZ      17.7292    YZZ      19.0313
       ZZZ     -20.7691
    Hexadecapole Moments (Debye-Ang^3)
      XXXX     -92.9819   XXXY     -11.5576   XXYY     -13.8892
      XYYY     -12.6050   YYYY    -127.0555   XXXZ      16.4503
      XXYZ      10.2917   XYYZ      -2.6522   YYYZ      30.0536
      XXZZ     -33.6216   XYZZ     -11.1401   YYZZ     -45.9722
      XZZZ      13.6145   YZZZ      41.0747   ZZZZ    -114.1014
 -----------------------------------------------------------------
 Calculating analytic gradient of the SCF energy
 Gradient of CDS energy
            1           2           3           4           5           6
    1  -0.0002177  -0.0002974  -0.0004316   0.0011371  -0.0001060  -0.0000845
    2  -0.0000722  -0.0042130   0.0051476  -0.0003353  -0.0004646  -0.0000624
    3  -0.0004532  -0.0025957  -0.0029321   0.0058285   0.0001763  -0.0000239
 Gradient of SCF Energy
            1           2           3           4           5           6
    1  -0.0151560  -0.0039779   0.0176038   0.0164554  -0.0161544   0.0012292
    2  -0.0122728  -0.0002049   0.0082483   0.0120881  -0.0088351   0.0009763
    3  -0.0011112   0.0007441   0.0062289   0.0002317  -0.0064425   0.0003490
 Max gradient component =       1.760E-02
 RMS gradient           =       9.472E-03
 Computing fast CPCM-SWIG gradient
 Updating gradient with PCM contributions...
 -- total gradient after adding PCM contribution --
---------------------------------------------------
  Atom         X              Y              Z     
---------------------------------------------------
   1      -0.000076       0.000011       0.000030
   2       0.000012      -0.000029      -0.000035
   3       0.000031       0.000020      -0.000002
   4       0.000015      -0.000026       0.000002
   5      -0.000047       0.000027       0.000050
   6       0.000066      -0.000002      -0.000044
---------------------------------------------------
 Number of fixed atoms: 0
 Gradient time:  CPU 15.52 s  wall 2.18 s
 ######################################################
 ######################################################
 # Starting finite difference calculation for IDERIV  #
 Finite diff step size:  1.88973e-03 a.u.
 ----------------------------------------------------------------
             Standard Nuclear Orientation (Angstroms)
    I     Atom           X                Y                Z
 ----------------------------------------------------------------
    1      H      -1.9441317181    -1.0509905375    -0.9918420804
    2      C      -0.8743887599    -0.5180439156     0.5240076242
    3      O      -0.8111264072    -1.7425692644     1.1472768402
    4      O      -1.1633289644    -0.5095861474    -0.8210477070
    5      H      -1.6029986037    -2.2567548332     0.9421208132
    6      H      -0.0257258467     0.1088140978     0.7643269099
 ----------------------------------------------------------------
 Nuclear Repulsion Energy =          74.43454516 hartrees
 There are       13 alpha and       12 beta electrons
 Discretize the solute cavity surface with Lebedev spheres
	Using 110 Lebedev grid points for each H atom
	Using 194 Lebedev grid points for other atoms
	Atomic van der Waals radii will be scaled by 1.20
 Remove points where switching function is < 1.0e-08
 Keep 538 surface tesserae and discard 374 interior tesserae
 Molecular Surface Area = 67.997 Angst**2

                       Distance Matrix (Angstroms)
             H (  1)   C (  2)   O (  3)   O (  4)   H (  5)
   C (  2)  1.930332
   O (  3)  2.517501  1.375474
   O (  4)  0.965372  1.375766  2.349169
   H (  5)  2.304442  1.931012  0.966197  2.520847
   H (  6)  2.847728  1.082097  2.047224  2.046942  2.848739
 
 Requested basis set is 6-311++G(2df,2p)
 There are 42 shells and 132 basis functions
 A cutoff of  1.0D-12 yielded    898 shell pairs
 There are      8972 function pairs (     11172 Cartesian)
 Smallest overlap matrix eigenvalue = 1.16E-03
 Guess MOs from SCF MO coefficient file

 -----------------------------------------------------------------------
  General SCF calculation program by
  Eric Jon Sundstrom, Paul Horn, Yuezhi Mao, Dmitri Zuev, Alec White,
  David Stuck, Shaama M.S., Shane Yost, Joonho Lee, David Small,
  Daniel Levine, Susi Lehtola, Hugh Burton, Evgeny Epifanovsky,
  Bang C. Huynh
 -----------------------------------------------------------------------
 Exchange:     0.1500 Hartree-Fock + 1.0000 wB97M-V + LR-HF
 Correlation:  1.0000 wB97M-V
 Using SG-2 standard quadrature grid
 Nonlocal Correlation:  VV10 with C = 0.0100 and b = 6.00 and scale = 1.00000
 Grid used for NLC:  SG-1 standard quadrature
 
 Citation of the SMD model:
 Marenich, A.V.; Cramer, C.J.; Truhlar, D.G.
 J. Phys. Chem. B 2009, 113, 6378-6396.
 iSolventCode=           1
 Solvent: water                                                           
 
 vradii
            1           2           3           4           5           6
    1   1.2000000   1.8500000   1.5200000   1.5200000   1.2000000   1.2000000
 -------------------------------------------------------
 OpenMP BLAS3 based DFT computing Module                
 Release: version 1.0, May 2013, Q-Chem Inc. Pittsburgh 
 -------------------------------------------------------
 A unrestricted SCF calculation will be
 performed using Roothaan-Hall, DIIS, GDM
 SCF converges when RMS gradient is below 1.0e-07
 ---------------------------------------
  Cycle       Energy         DIIS error
 ---------------------------------------
    1    -190.2852099859      5.26e-04  Roothaan Step
 ---------------------------------------
  Cycle       Energy         DIIS error
 ---------------------------------------
    1    -190.3060261200      5.59e-04  
    2    -190.3094250779      3.29e-04  Done DIIS. Switching to GDM
 ---------------------------------------
  Cycle       Energy        RMS Gradient
 ---------------------------------------
    1    -190.3094250779      7.03e-03   Normal BFGS step
    2    -190.3096275810      6.38e-03   Normal BFGS step
    3    -190.3101033331      7.29e-04   Normal BFGS step
    4    -190.3101111240      4.50e-04   Normal BFGS step
    5    -190.3101126230      8.77e-05   Normal BFGS step
    6    -190.3101126875      5.18e-05   Normal BFGS step
    7    -190.3101126974      2.68e-05   Normal BFGS step
    8    -190.3101126995      4.43e-06   Normal BFGS step
    9    -190.3101126996      3.20e-06   Normal BFGS step
   10    -190.3101126997      6.93e-07   Normal BFGS step
   11    -190.3101126997      2.62e-07   Normal BFGS step
   12    -190.3101126997      1.07e-07   Normal BFGS step
   13    -190.3101126997      3.65e-08  Convergence criterion met
 ---------------------------------------
 SCF time:   CPU 99.41s  wall 13.00s 
<S^2> =          0.752313173
(3)  G-ENP(liq) elect-nuc-pol free energy of system     -190.310112700 a.u.
(4)  G-CDS(liq) cavity-dispersion-solvent structure 
     free energy                                                3.7490 kcal/mol
(6)  G-S(liq) free energy of system                     -190.304138229 a.u.
 SCF   energy in the final basis set =     -190.3041382290
 Total energy in the final basis set =     -190.3041382290
 
 --------------------------------------------------------------
 
                    Orbital Energies (a.u.)
 --------------------------------------------------------------
 
 Alpha MOs
 -- Occupied --
-19.3637 -19.3636 -10.4354  -1.2170  -1.1534  -0.7928  -0.6687  -0.6005
 -0.5639  -0.5029  -0.5021  -0.4373  -0.2709
 -- Virtual --
  0.0325   0.0475   0.0603   0.0890   0.1063   0.1286   0.1556   0.2126
  0.2249   0.2260   0.2377   0.2440   0.2807   0.2857   0.3116   0.3126
  0.3530   0.3539   0.3740   0.3963   0.5516   0.5683   0.5963   0.6232
  0.6578   0.6794   0.7164   0.7981   0.8049   0.8064   0.8504   0.8947
  0.9809   1.0520   1.0757   1.1038   1.1241   1.1574   1.1770   1.1991
  1.2493   1.2981   1.3533   1.3749   1.4740   1.4921   1.5238   1.5930
  1.6114   1.8639   1.9146   1.9391   2.0004   2.1152   2.1574   2.2715
  2.3448   2.3759   2.4155   2.4917   2.7393   2.7802   2.8809   3.0459
  3.0653   3.1815   3.2811   3.3030   3.3500   3.3582   3.4552   3.5189
  3.5578   3.6605   3.7507   3.7786   3.7876   3.8652   3.8870   4.0680
  4.1098   4.2579   4.2611   4.3030   4.4265   5.1318   5.1714   5.1898
  5.1911   5.2620   5.2862   5.3171   5.4018   5.4031   5.5341   5.5704
  5.6094   5.6472   5.7398   5.9307   6.1300   6.3442   6.4326   6.7587
  7.0411   7.0471   7.1950   7.2371   7.2567   7.2877   7.3256   7.3424
  7.5942   7.6167   7.7411   7.7658  24.7459  50.5114  50.5636
 
 Beta MOs
 -- Occupied --
-19.3603 -19.3601 -10.4224  -1.2070  -1.1450  -0.7747  -0.6615  -0.5881
 -0.5341  -0.4881  -0.4854  -0.4243
 -- Virtual --
  0.0255   0.0469   0.0492   0.0603   0.0941   0.1056   0.1310   0.1576
  0.2142   0.2253   0.2266   0.2409   0.2459   0.2815   0.2893   0.3108
  0.3123   0.3611   0.3639   0.3819   0.4055   0.5587   0.5752   0.5987
  0.6520   0.6669   0.6876   0.7292   0.8070   0.8139   0.8204   0.8567
  0.9071   0.9821   1.0648   1.0797   1.1089   1.1259   1.1621   1.1832
  1.2129   1.2556   1.3084   1.3631   1.3836   1.4795   1.4950   1.5416
  1.5982   1.6173   1.8722   1.9277   1.9470   2.0145   2.1224   2.1648
  2.2851   2.3580   2.3803   2.4241   2.5188   2.7686   2.7890   2.9608
  3.0952   3.1014   3.2339   3.3229   3.3404   3.3919   3.3959   3.5169
  3.5588   3.6117   3.6990   3.7641   3.7859   3.8055   3.8776   3.9223
  4.0782   4.1198   4.2646   4.2922   4.3149   4.4476   5.1463   5.1787
  5.2060   5.2234   5.2699   5.3042   5.3407   5.4102   5.4153   5.5467
  5.5806   5.6160   5.6546   5.7474   5.9458   6.1489   6.3542   6.4510
  6.7715   7.0541   7.0616   7.2076   7.2464   7.2678   7.2931   7.3385
  7.3571   7.6022   7.6261   7.7462   7.7748  24.7579  50.5143  50.5665
 --------------------------------------------------------------
 
          Ground-State Mulliken Net Atomic Charges

     Atom                 Charge (a.u.)    Spin (a.u.)
  --------------------------------------------------------
      1 H                     0.346608      -0.007581
      2 C                    -0.126168       0.872332
      3 O                    -0.385965       0.078489
      4 O                    -0.386194       0.079081
      5 H                     0.346558      -0.007453
      6 H                     0.205163      -0.014868
  --------------------------------------------------------
  Sum of atomic charges =     0.000000
  Sum of spin   charges =     1.000000

 -----------------------------------------------------------------
                    Cartesian Multipole Moments
 -----------------------------------------------------------------
    Charge (ESU x 10^10)
                 0.0000
    Dipole Moment (Debye)
         X      -2.3321      Y      -1.5997      Z      -0.5741
       Tot       2.8857
    Quadrupole Moments (Debye-Ang)
        XX     -10.9657     XY       8.2029     YY     -14.6761
        XZ       1.4965     YZ       2.0851     ZZ     -21.4709
    Octopole Moments (Debye-Ang^2)
       XXX      35.8623    XXY      -1.3510    XYY       1.8948
       YYY      40.3550    XXZ      -8.8638    XYZ      -0.0813
       YYZ      -7.0462    XZZ      17.7292    YZZ      19.0298
       ZZZ     -20.7703
    Hexadecapole Moments (Debye-Ang^3)
      XXXX     -93.0277   XXXY     -11.5791   XXYY     -13.8924
      XYYY     -12.6005   YYYY    -127.0458   XXXZ      16.4291
      XXYZ      10.2833   XYYZ      -2.6528   YYYZ      30.0550
      XXZZ     -33.6250   XYZZ     -11.1398   YYZZ     -45.9686
      XZZZ      13.6165   YZZZ      41.0760   ZZZZ    -114.0949
 -----------------------------------------------------------------
 Calculating analytic gradient of the SCF energy
 Gradient of CDS energy
            1           2           3           4           5           6
    1  -0.0002176  -0.0002977  -0.0004316   0.0011374  -0.0001060  -0.0000845
    2  -0.0000724  -0.0042130   0.0051476  -0.0003352  -0.0004646  -0.0000624
    3  -0.0004532  -0.0025959  -0.0029320   0.0058287   0.0001763  -0.0000239
 Gradient of SCF Energy
            1           2           3           4           5           6
    1  -0.0145014  -0.0039880   0.0176064   0.0158019  -0.0161540   0.0012350
    2  -0.0118357  -0.0002108   0.0082474   0.0116578  -0.0088358   0.0009772
    3  -0.0009682   0.0007357   0.0062380   0.0000920  -0.0064456   0.0003481
 Max gradient component =       1.761E-02
 RMS gradient           =       9.290E-03
 Computing fast CPCM-SWIG gradient
 Updating gradient with PCM contributions...
 -- total gradient after adding PCM contribution --
---------------------------------------------------
  Atom         X              Y              Z     
---------------------------------------------------
   1       0.000565       0.000450       0.000178
   2      -0.000001      -0.000035      -0.000044
   3       0.000033       0.000018       0.000005
   4      -0.000620      -0.000457      -0.000141
   5      -0.000048       0.000027       0.000048
   6       0.000070      -0.000003      -0.000046
---------------------------------------------------
 Number of fixed atoms: 0
 Gradient time:  CPU 15.41 s  wall 2.14 s
 ----------------------------------------------------------------
             Standard Nuclear Orientation (Angstroms)
    I     Atom           X                Y                Z
 ----------------------------------------------------------------
    1      H      -1.9461317181    -1.0509905375    -0.9918420804
    2      C      -0.8743887599    -0.5180439156     0.5240076242
    3      O      -0.8111264072    -1.7425692644     1.1472768402
    4      O      -1.1633289644    -0.5095861474    -0.8210477070
    5      H      -1.6029986037    -2.2567548332     0.9421208132
    6      H      -0.0257258467     0.1088140978     0.7643269099
 ----------------------------------------------------------------
 Nuclear Repulsion Energy =          74.42554264 hartrees
 There are       13 alpha and       12 beta electrons
 Discretize the solute cavity surface with Lebedev spheres
	Using 110 Lebedev grid points for each H atom
	Using 194 Lebedev grid points for other atoms
	Atomic van der Waals radii will be scaled by 1.20
 Remove points where switching function is < 1.0e-08
 Keep 538 surface tesserae and discard 374 interior tesserae
 Molecular Surface Area = 68.007 Angst**2

                       Distance Matrix (Angstroms)
             H (  1)   C (  2)   O (  3)   O (  4)   H (  5)
   C (  2)  1.931441
   O (  3)  2.518402  1.375474
   O (  4)  0.966990  1.375766  2.349169
   H (  5)  2.304739  1.931012  0.966197  2.520847
   H (  6)  2.849076  1.082097  2.047224  2.046942  2.848739
 
 Requested basis set is 6-311++G(2df,2p)
 There are 42 shells and 132 basis functions
 A cutoff of  1.0D-12 yielded    898 shell pairs
 There are      8972 function pairs (     11172 Cartesian)
 Smallest overlap matrix eigenvalue = 1.16E-03
 Guess MOs from SCF MO coefficient file

 -----------------------------------------------------------------------
  General SCF calculation program by
  Eric Jon Sundstrom, Paul Horn, Yuezhi Mao, Dmitri Zuev, Alec White,
  David Stuck, Shaama M.S., Shane Yost, Joonho Lee, David Small,
  Daniel Levine, Susi Lehtola, Hugh Burton, Evgeny Epifanovsky,
  Bang C. Huynh
 -----------------------------------------------------------------------
 Exchange:     0.1500 Hartree-Fock + 1.0000 wB97M-V + LR-HF
 Correlation:  1.0000 wB97M-V
 Using SG-2 standard quadrature grid
 Nonlocal Correlation:  VV10 with C = 0.0100 and b = 6.00 and scale = 1.00000
 Grid used for NLC:  SG-1 standard quadrature
 
 Citation of the SMD model:
 Marenich, A.V.; Cramer, C.J.; Truhlar, D.G.
 J. Phys. Chem. B 2009, 113, 6378-6396.
 iSolventCode=           1
 Solvent: water                                                           
 
 vradii
            1           2           3           4           5           6
    1   1.2000000   1.8500000   1.5200000   1.5200000   1.2000000   1.2000000
 -------------------------------------------------------
 OpenMP BLAS3 based DFT computing Module                
 Release: version 1.0, May 2013, Q-Chem Inc. Pittsburgh 
 -------------------------------------------------------
 A unrestricted SCF calculation will be
 performed using Roothaan-Hall, DIIS, GDM
 SCF converges when RMS gradient is below 1.0e-07
 ---------------------------------------
  Cycle       Energy         DIIS error
 ---------------------------------------
    1    -190.2851864672      5.25e-04  Roothaan Step
 ---------------------------------------
  Cycle       Energy         DIIS error
 ---------------------------------------
    1    -190.3060202663      5.60e-04  
    2    -190.3094134968      3.33e-04  Done DIIS. Switching to GDM
 ---------------------------------------
  Cycle       Energy        RMS Gradient
 ---------------------------------------
    1    -190.3094134968      7.11e-03   Normal BFGS step
    2    -190.3096135843      6.43e-03   Normal BFGS step
    3    -190.3101038428      7.33e-04   Normal BFGS step
    4    -190.3101116591      4.48e-04   Normal BFGS step
    5    -190.3101131596      8.52e-05   Normal BFGS step
    6    -190.3101132235      5.04e-05   Normal BFGS step
    7    -190.3101132333      2.63e-05   Normal BFGS step
    8    -190.3101132350      6.93e-06   Normal BFGS step
    9    -190.3101132358      1.57e-06   Normal BFGS step
   10    -190.3101132359      8.16e-07   Normal BFGS step
   11    -190.3101132359      2.14e-07   Normal BFGS step
   12    -190.3101132359      1.12e-07   Normal BFGS step
   13    -190.3101132359      1.97e-08  Convergence criterion met
 ---------------------------------------
 SCF time:   CPU 101.47s  wall 13.00s 
<S^2> =          0.752313103
(3)  G-ENP(liq) elect-nuc-pol free energy of system     -190.310113236 a.u.
(4)  G-CDS(liq) cavity-dispersion-solvent structure 
     free energy                                                3.7496 kcal/mol
(6)  G-S(liq) free energy of system                     -190.304137942 a.u.
 SCF   energy in the final basis set =     -190.3041379424
 Total energy in the final basis set =     -190.3041379424
 
 --------------------------------------------------------------
 
                    Orbital Energies (a.u.)
 --------------------------------------------------------------
 
 Alpha MOs
 -- Occupied --
-19.3637 -19.3637 -10.4354  -1.2169  -1.1532  -0.7926  -0.6685  -0.6005
 -0.5638  -0.5029  -0.5020  -0.4373  -0.2709
 -- Virtual --
  0.0325   0.0475   0.0602   0.0890   0.1063   0.1286   0.1556   0.2126
  0.2248   0.2260   0.2374   0.2440   0.2807   0.2857   0.3116   0.3126
  0.3530   0.3539   0.3740   0.3964   0.5516   0.5681   0.5958   0.6232
  0.6576   0.6794   0.7163   0.7980   0.8049   0.8064   0.8501   0.8947
  0.9809   1.0519   1.0757   1.1038   1.1242   1.1574   1.1771   1.1992
  1.2491   1.2982   1.3533   1.3748   1.4735   1.4915   1.5238   1.5930
  1.6113   1.8638   1.9143   1.9388   2.0004   2.1152   2.1575   2.2715
  2.3448   2.3762   2.4157   2.4916   2.7390   2.7793   2.8809   3.0457
  3.0653   3.1815   3.2810   3.3029   3.3499   3.3581   3.4550   3.5188
  3.5576   3.6605   3.7505   3.7785   3.7875   3.8652   3.8869   4.0674
  4.1093   4.2578   4.2592   4.3015   4.4263   5.1318   5.1714   5.1898
  5.1908   5.2617   5.2861   5.3169   5.4017   5.4030   5.5337   5.5694
  5.6083   5.6454   5.7391   5.9305   6.1291   6.3440   6.4326   6.7588
  7.0409   7.0469   7.1949   7.2337   7.2564   7.2833   7.3254   7.3423
  7.5936   7.6170   7.7413   7.7658  24.7458  50.5110  50.5630
 
 Beta MOs
 -- Occupied --
-19.3602 -19.3602 -10.4224  -1.2068  -1.1448  -0.7745  -0.6612  -0.5881
 -0.5340  -0.4880  -0.4853  -0.4242
 -- Virtual --
  0.0255   0.0469   0.0492   0.0603   0.0941   0.1056   0.1310   0.1576
  0.2141   0.2252   0.2266   0.2407   0.2459   0.2815   0.2893   0.3108
  0.3123   0.3611   0.3639   0.3819   0.4055   0.5587   0.5751   0.5982
  0.6520   0.6667   0.6876   0.7291   0.8068   0.8139   0.8205   0.8564
  0.9071   0.9821   1.0648   1.0797   1.1089   1.1259   1.1621   1.1833
  1.2129   1.2554   1.3084   1.3631   1.3835   1.4790   1.4943   1.5416
  1.5982   1.6172   1.8721   1.9274   1.9467   2.0145   2.1225   2.1649
  2.2851   2.3580   2.3806   2.4243   2.5186   2.7683   2.7881   2.9608
  3.0951   3.1014   3.2339   3.3228   3.3403   3.3918   3.3958   3.5168
  3.5587   3.6115   3.6990   3.7638   3.7858   3.8055   3.8776   3.9223
  4.0776   4.1193   4.2629   4.2915   4.3139   4.4475   5.1463   5.1787
  5.2060   5.2231   5.2696   5.3042   5.3405   5.4101   5.4152   5.5463
  5.5795   5.6149   5.6528   5.7468   5.9456   6.1480   6.3539   6.4511
  6.7716   7.0539   7.0614   7.2075   7.2427   7.2678   7.2888   7.3382
  7.3571   7.6016   7.6263   7.7464   7.7748  24.7578  50.5139  50.5659
 --------------------------------------------------------------
 
          Ground-State Mulliken Net Atomic Charges

     Atom                 Charge (a.u.)    Spin (a.u.)
  --------------------------------------------------------
      1 H                     0.347154      -0.007552
      2 C                    -0.126127       0.872341
      3 O                    -0.385997       0.078488
      4 O                    -0.386739       0.079040
      5 H                     0.346562      -0.007449
      6 H                     0.205146      -0.014869
  --------------------------------------------------------
  Sum of atomic charges =    -0.000000
  Sum of spin   charges =     1.000000

 -----------------------------------------------------------------
                    Cartesian Multipole Moments
 -----------------------------------------------------------------
    Charge (ESU x 10^10)
                 0.0000
    Dipole Moment (Debye)
         X      -2.3359      Y      -1.5990      Z      -0.5746
       Tot       2.8885
    Quadrupole Moments (Debye-Ang)
        XX     -10.9511     XY       8.2063     YY     -14.6797
        XZ       1.5006     YZ       2.0851     ZZ     -21.4731
    Octopole Moments (Debye-Ang^2)
       XXX      35.8219    XXY      -1.3661    XYY       1.8958
       YYY      40.3631    XXZ      -8.8794    XYZ      -0.0854
       YYZ      -7.0448    XZZ      17.7291    YZZ      19.0329
       ZZZ     -20.7680
    Hexadecapole Moments (Debye-Ang^3)
      XXXX     -92.9360   XXXY     -11.5360   XXYY     -13.8859
      XYYY     -12.6094   YYYY    -127.0652   XXXZ      16.4715
      XXYZ      10.3000   XYYZ      -2.6516   YYYZ      30.0522
      XXZZ     -33.6182   XYZZ     -11.1403   YYZZ     -45.9759
      XZZZ      13.6125   YZZZ      41.0733   ZZZZ    -114.1078
 -----------------------------------------------------------------
 Calculating analytic gradient of the SCF energy
 Gradient of CDS energy
            1           2           3           4           5           6
    1  -0.0002177  -0.0002971  -0.0004316   0.0011368  -0.0001060  -0.0000845
    2  -0.0000721  -0.0042130   0.0051476  -0.0003355  -0.0004646  -0.0000624
    3  -0.0004531  -0.0025955  -0.0029321   0.0058282   0.0001763  -0.0000239
 Gradient of SCF Energy
            1           2           3           4           5           6
    1  -0.0158078  -0.0039679   0.0176011   0.0171061  -0.0161549   0.0012234
    2  -0.0127068  -0.0001989   0.0082492   0.0125154  -0.0088343   0.0009754
    3  -0.0012533   0.0007526   0.0062197   0.0003704  -0.0064394   0.0003500
 Max gradient component =       1.760E-02
 RMS gradient           =       9.656E-03
 Computing fast CPCM-SWIG gradient
 Updating gradient with PCM contributions...
 -- total gradient after adding PCM contribution --
---------------------------------------------------
  Atom         X              Y              Z     
---------------------------------------------------
   1      -0.000715      -0.000425      -0.000117
   2       0.000024      -0.000023      -0.000026
   3       0.000029       0.000022      -0.000009
   4       0.000647       0.000402       0.000143
   5      -0.000046       0.000026       0.000053
   6       0.000061      -0.000002      -0.000043
---------------------------------------------------
 Number of fixed atoms: 0
 Gradient time:  CPU 15.85 s  wall 2.27 s
 ----------------------------------------------------------------
             Standard Nuclear Orientation (Angstroms)
    I     Atom           X                Y                Z
 ----------------------------------------------------------------
    1      H      -1.9451317181    -1.0499905375    -0.9918420804
    2      C      -0.8743887599    -0.5180439156     0.5240076242
    3      O      -0.8111264072    -1.7425692644     1.1472768402
    4      O      -1.1633289644    -0.5095861474    -0.8210477070
    5      H      -1.6029986037    -2.2567548332     0.9421208132
    6      H      -0.0257258467     0.1088140978     0.7643269099
 ----------------------------------------------------------------
 Nuclear Repulsion Energy =          74.43260858 hartrees
 There are       13 alpha and       12 beta electrons
 Discretize the solute cavity surface with Lebedev spheres
	Using 110 Lebedev grid points for each H atom
	Using 194 Lebedev grid points for other atoms
	Atomic van der Waals radii will be scaled by 1.20
 Remove points where switching function is < 1.0e-08
 Keep 538 surface tesserae and discard 374 interior tesserae
 Molecular Surface Area = 67.999 Angst**2

                       Distance Matrix (Angstroms)
             H (  1)   C (  2)   O (  3)   O (  4)   H (  5)
   C (  2)  1.930611
   O (  3)  2.518226  1.375474
   O (  4)  0.965621  1.375766  2.349169
   H (  5)  2.305113  1.931012  0.966197  2.520847
   H (  6)  2.847995  1.082097  2.047224  2.046942  2.848739
 
 Requested basis set is 6-311++G(2df,2p)
 There are 42 shells and 132 basis functions
 A cutoff of  1.0D-12 yielded    898 shell pairs
 There are      8972 function pairs (     11172 Cartesian)
 Smallest overlap matrix eigenvalue = 1.16E-03
 Guess MOs from SCF MO coefficient file

 -----------------------------------------------------------------------
  General SCF calculation program by
  Eric Jon Sundstrom, Paul Horn, Yuezhi Mao, Dmitri Zuev, Alec White,
  David Stuck, Shaama M.S., Shane Yost, Joonho Lee, David Small,
  Daniel Levine, Susi Lehtola, Hugh Burton, Evgeny Epifanovsky,
  Bang C. Huynh
 -----------------------------------------------------------------------
 Exchange:     0.1500 Hartree-Fock + 1.0000 wB97M-V + LR-HF
 Correlation:  1.0000 wB97M-V
 Using SG-2 standard quadrature grid
 Nonlocal Correlation:  VV10 with C = 0.0100 and b = 6.00 and scale = 1.00000
 Grid used for NLC:  SG-1 standard quadrature
 
 Citation of the SMD model:
 Marenich, A.V.; Cramer, C.J.; Truhlar, D.G.
 J. Phys. Chem. B 2009, 113, 6378-6396.
 iSolventCode=           1
 Solvent: water                                                           
 
 vradii
            1           2           3           4           5           6
    1   1.2000000   1.8500000   1.5200000   1.5200000   1.2000000   1.2000000
 -------------------------------------------------------
 OpenMP BLAS3 based DFT computing Module                
 Release: version 1.0, May 2013, Q-Chem Inc. Pittsburgh 
 -------------------------------------------------------
 A unrestricted SCF calculation will be
 performed using Roothaan-Hall, DIIS, GDM
 SCF converges when RMS gradient is below 1.0e-07
 ---------------------------------------
  Cycle       Energy         DIIS error
 ---------------------------------------
    1    -190.2852119607      5.26e-04  Roothaan Step
 ---------------------------------------
  Cycle       Energy         DIIS error
 ---------------------------------------
    1    -190.3060263065      5.59e-04  
    2    -190.3094271669      3.29e-04  Done DIIS. Switching to GDM
 ---------------------------------------
  Cycle       Energy        RMS Gradient
 ---------------------------------------
    1    -190.3094271669      7.01e-03   Normal BFGS step
    2    -190.3096301655      6.38e-03   Normal BFGS step
    3    -190.3101037477      7.29e-04   Normal BFGS step
    4    -190.3101115429      4.50e-04   Normal BFGS step
    5    -190.3101130440      8.79e-05   Normal BFGS step
    6    -190.3101131086      5.18e-05   Normal BFGS step
    7    -190.3101131184      2.69e-05   Normal BFGS step
    8    -190.3101131204      5.60e-06   Normal BFGS step
    9    -190.3101131207      2.74e-06   Normal BFGS step
   10    -190.3101131208      7.42e-07   Normal BFGS step
   11    -190.3101131208      2.78e-07   Normal BFGS step
   12    -190.3101131208      1.09e-07   Normal BFGS step
   13    -190.3101131208      4.48e-08  Convergence criterion met
 ---------------------------------------
 SCF time:   CPU 101.27s  wall 12.00s 
<S^2> =          0.752312941
(3)  G-ENP(liq) elect-nuc-pol free energy of system     -190.310113121 a.u.
(4)  G-CDS(liq) cavity-dispersion-solvent structure 
     free energy                                                3.7492 kcal/mol
(6)  G-S(liq) free energy of system                     -190.304138375 a.u.
 SCF   energy in the final basis set =     -190.3041383751
 Total energy in the final basis set =     -190.3041383751
 
 --------------------------------------------------------------
 
                    Orbital Energies (a.u.)
 --------------------------------------------------------------
 
 Alpha MOs
 -- Occupied --
-19.3637 -19.3636 -10.4354  -1.2170  -1.1533  -0.7928  -0.6686  -0.6005
 -0.5639  -0.5029  -0.5021  -0.4373  -0.2709
 -- Virtual --
  0.0325   0.0475   0.0602   0.0890   0.1063   0.1286   0.1556   0.2126
  0.2249   0.2260   0.2376   0.2441   0.2807   0.2857   0.3116   0.3126
  0.3530   0.3539   0.3740   0.3964   0.5516   0.5683   0.5962   0.6232
  0.6577   0.6794   0.7164   0.7980   0.8049   0.8065   0.8503   0.8947
  0.9808   1.0520   1.0757   1.1038   1.1241   1.1574   1.1770   1.1992
  1.2493   1.2981   1.3534   1.3748   1.4739   1.4920   1.5238   1.5930
  1.6114   1.8638   1.9145   1.9390   2.0005   2.1152   2.1574   2.2715
  2.3448   2.3758   2.4156   2.4917   2.7394   2.7799   2.8809   3.0457
  3.0654   3.1815   3.2810   3.3029   3.3501   3.3582   3.4551   3.5189
  3.5578   3.6605   3.7506   3.7786   3.7875   3.8653   3.8869   4.0680
  4.1097   4.2579   4.2608   4.3029   4.4264   5.1318   5.1714   5.1899
  5.1911   5.2619   5.2863   5.3169   5.4018   5.4031   5.5339   5.5702
  5.6092   5.6469   5.7397   5.9308   6.1300   6.3442   6.4326   6.7587
  7.0411   7.0471   7.1950   7.2366   7.2566   7.2870   7.3255   7.3424
  7.5942   7.6168   7.7411   7.7658  24.7459  50.5114  50.5635
 
 Beta MOs
 -- Occupied --
-19.3602 -19.3601 -10.4224  -1.2070  -1.1450  -0.7747  -0.6614  -0.5881
 -0.5341  -0.4881  -0.4854  -0.4243
 -- Virtual --
  0.0255   0.0469   0.0492   0.0603   0.0941   0.1056   0.1310   0.1576
  0.2142   0.2253   0.2266   0.2409   0.2459   0.2815   0.2893   0.3108
  0.3123   0.3611   0.3639   0.3819   0.4055   0.5587   0.5752   0.5986
  0.6520   0.6669   0.6876   0.7292   0.8069   0.8140   0.8205   0.8565
  0.9071   0.9820   1.0648   1.0796   1.1089   1.1259   1.1621   1.1833
  1.2129   1.2555   1.3084   1.3632   1.3835   1.4794   1.4949   1.5416
  1.5983   1.6173   1.8722   1.9275   1.9469   2.0146   2.1224   2.1649
  2.2851   2.3580   2.3803   2.4242   2.5187   2.7687   2.7887   2.9608
  3.0951   3.1015   3.2340   3.3229   3.3403   3.3920   3.3959   3.5169
  3.5588   3.6117   3.6989   3.7640   3.7859   3.8055   3.8777   3.9223
  4.0782   4.1197   4.2644   4.2921   4.3148   4.4476   5.1463   5.1787
  5.2061   5.2234   5.2698   5.3043   5.3406   5.4102   5.4153   5.5465
  5.5803   5.6158   5.6543   5.7474   5.9459   6.1488   6.3541   6.4510
  6.7716   7.0541   7.0616   7.2075   7.2459   7.2678   7.2924   7.3384
  7.3572   7.6021   7.6261   7.7463   7.7748  24.7578  50.5143  50.5664
 --------------------------------------------------------------
 
          Ground-State Mulliken Net Atomic Charges

     Atom                 Charge (a.u.)    Spin (a.u.)
  --------------------------------------------------------
      1 H                     0.346719      -0.007580
      2 C                    -0.126133       0.872373
      3 O                    -0.385969       0.078501
      4 O                    -0.386341       0.079026
      5 H                     0.346564      -0.007451
      6 H                     0.205160      -0.014869
  --------------------------------------------------------
  Sum of atomic charges =    -0.000000
  Sum of spin   charges =     1.000000

 -----------------------------------------------------------------
                    Cartesian Multipole Moments
 -----------------------------------------------------------------
    Charge (ESU x 10^10)
                 0.0000
    Dipole Moment (Debye)
         X      -2.3344      Y      -1.5974      Z      -0.5740
       Tot       2.8862
    Quadrupole Moments (Debye-Ang)
        XX     -10.9566     XY       8.2006     YY     -14.6818
        XZ       1.4984     YZ       2.0828     ZZ     -21.4715
    Octopole Moments (Debye-Ang^2)
       XXX      35.8360    XXY      -1.3514    XYY       1.9036
       YYY      40.3637    XXZ      -8.8725    XYZ      -0.0789
       YYZ      -7.0405    XZZ      17.7278    YZZ      19.0328
       ZZZ     -20.7696
    Hexadecapole Moments (Debye-Ang^3)
      XXXX     -92.9629   XXXY     -11.5690   XXYY     -13.9044
      XYYY     -12.6155   YYYY    -127.0573   XXXZ      16.4544
      XXYZ      10.2838   XYYZ      -2.6616   YYYZ      30.0470
      XXZZ     -33.6177   XYZZ     -11.1431   YYZZ     -45.9754
      XZZZ      13.6164   YZZZ      41.0743   ZZZZ    -114.0981
 -----------------------------------------------------------------
 Calculating analytic gradient of the SCF energy
 Gradient of CDS energy
            1           2           3           4           5           6
    1  -0.0002178  -0.0002972  -0.0004316   0.0011371  -0.0001060  -0.0000845
    2  -0.0000721  -0.0042131   0.0051476  -0.0003354  -0.0004647  -0.0000624
    3  -0.0004533  -0.0025953  -0.0029321   0.0058284   0.0001762  -0.0000239
 Gradient of SCF Energy
            1           2           3           4           5           6
    1  -0.0147200  -0.0039800   0.0176041   0.0160172  -0.0161528   0.0012315
    2  -0.0119444  -0.0002020   0.0082423   0.0117548  -0.0088315   0.0009808
    3  -0.0010281   0.0007474   0.0062258   0.0001420  -0.0064368   0.0003496
 Max gradient component =       1.760E-02
 RMS gradient           =       9.343E-03
 Computing fast CPCM-SWIG gradient
 Updating gradient with PCM contributions...
 -- total gradient after adding PCM contribution --
---------------------------------------------------
  Atom         X              Y              Z     
---------------------------------------------------
   1       0.000362       0.000323       0.000115
   2       0.000009      -0.000028      -0.000033
   3       0.000035       0.000017      -0.000002
   4      -0.000426      -0.000339      -0.000089
   5      -0.000049       0.000025       0.000053
   6       0.000067       0.000001      -0.000044
---------------------------------------------------
 Number of fixed atoms: 0
 Gradient time:  CPU 15.68 s  wall 2.18 s
 ----------------------------------------------------------------
             Standard Nuclear Orientation (Angstroms)
    I     Atom           X                Y                Z
 ----------------------------------------------------------------
    1      H      -1.9451317181    -1.0519905375    -0.9918420804
    2      C      -0.8743887599    -0.5180439156     0.5240076242
    3      O      -0.8111264072    -1.7425692644     1.1472768402
    4      O      -1.1633289644    -0.5095861474    -0.8210477070
    5      H      -1.6029986037    -2.2567548332     0.9421208132
    6      H      -0.0257258467     0.1088140978     0.7643269099
 ----------------------------------------------------------------
 Nuclear Repulsion Energy =          74.42747403 hartrees
 There are       13 alpha and       12 beta electrons
 Discretize the solute cavity surface with Lebedev spheres
	Using 110 Lebedev grid points for each H atom
	Using 194 Lebedev grid points for other atoms
	Atomic van der Waals radii will be scaled by 1.20
 Remove points where switching function is < 1.0e-08
 Keep 538 surface tesserae and discard 374 interior tesserae
 Molecular Surface Area = 68.005 Angst**2

                       Distance Matrix (Angstroms)
             H (  1)   C (  2)   O (  3)   O (  4)   H (  5)
   C (  2)  1.931163
   O (  3)  2.517677  1.375474
   O (  4)  0.966741  1.375766  2.349169
   H (  5)  2.304067  1.931012  0.966197  2.520847
   H (  6)  2.848810  1.082097  2.047224  2.046942  2.848739
 
 Requested basis set is 6-311++G(2df,2p)
 There are 42 shells and 132 basis functions
 A cutoff of  1.0D-12 yielded    898 shell pairs
 There are      8972 function pairs (     11172 Cartesian)
 Smallest overlap matrix eigenvalue = 1.16E-03
 Guess MOs from SCF MO coefficient file

 -----------------------------------------------------------------------
  General SCF calculation program by
  Eric Jon Sundstrom, Paul Horn, Yuezhi Mao, Dmitri Zuev, Alec White,
  David Stuck, Shaama M.S., Shane Yost, Joonho Lee, David Small,
  Daniel Levine, Susi Lehtola, Hugh Burton, Evgeny Epifanovsky,
  Bang C. Huynh
 -----------------------------------------------------------------------
 Exchange:     0.1500 Hartree-Fock + 1.0000 wB97M-V + LR-HF
 Correlation:  1.0000 wB97M-V
 Using SG-2 standard quadrature grid
 Nonlocal Correlation:  VV10 with C = 0.0100 and b = 6.00 and scale = 1.00000
 Grid used for NLC:  SG-1 standard quadrature
 
 Citation of the SMD model:
 Marenich, A.V.; Cramer, C.J.; Truhlar, D.G.
 J. Phys. Chem. B 2009, 113, 6378-6396.
 iSolventCode=           1
 Solvent: water                                                           
 
 vradii
            1           2           3           4           5           6
    1   1.2000000   1.8500000   1.5200000   1.5200000   1.2000000   1.2000000
 -------------------------------------------------------
 OpenMP BLAS3 based DFT computing Module                
 Release: version 1.0, May 2013, Q-Chem Inc. Pittsburgh 
 -------------------------------------------------------
 A unrestricted SCF calculation will be
 performed using Roothaan-Hall, DIIS, GDM
 SCF converges when RMS gradient is below 1.0e-07
 ---------------------------------------
  Cycle       Energy         DIIS error
 ---------------------------------------
    1    -190.2851858006      5.25e-04  Roothaan Step
 ---------------------------------------
  Cycle       Energy         DIIS error
 ---------------------------------------
    1    -190.3060197322      5.60e-04  
    2    -190.3094155264      3.32e-04  Done DIIS. Switching to GDM
 ---------------------------------------
  Cycle       Energy        RMS Gradient
 ---------------------------------------
    1    -190.3094155264      7.10e-03   Normal BFGS step
    2    -190.3096161068      6.41e-03   Normal BFGS step
    3    -190.3101040398      7.32e-04   Normal BFGS step
    4    -190.3101118559      4.49e-04   Normal BFGS step
    5    -190.3101133572      8.73e-05   Normal BFGS step
    6    -190.3101134217      5.15e-05   Normal BFGS step
    7    -190.3101134316      2.68e-05   Normal BFGS step
    8    -190.3101134333      7.03e-06   Normal BFGS step
    9    -190.3101134341      1.86e-06   Normal BFGS step
   10    -190.3101134341      8.32e-07   Normal BFGS step
   11    -190.3101134341      1.99e-07   Normal BFGS step
   12    -190.3101134341      1.12e-07   Normal BFGS step
   13    -190.3101134341      3.38e-08  Convergence criterion met
 ---------------------------------------
 SCF time:   CPU 100.78s  wall 13.00s 
<S^2> =          0.752313336
(3)  G-ENP(liq) elect-nuc-pol free energy of system     -190.310113434 a.u.
(4)  G-CDS(liq) cavity-dispersion-solvent structure 
     free energy                                                3.7494 kcal/mol
(6)  G-S(liq) free energy of system                     -190.304138415 a.u.
 SCF   energy in the final basis set =     -190.3041384154
 Total energy in the final basis set =     -190.3041384154
 
 --------------------------------------------------------------
 
                    Orbital Energies (a.u.)
 --------------------------------------------------------------
 
 Alpha MOs
 -- Occupied --
-19.3637 -19.3637 -10.4354  -1.2169  -1.1532  -0.7926  -0.6685  -0.6005
 -0.5638  -0.5029  -0.5021  -0.4373  -0.2709
 -- Virtual --
  0.0325   0.0475   0.0602   0.0890   0.1063   0.1286   0.1556   0.2125
  0.2248   0.2260   0.2375   0.2440   0.2807   0.2857   0.3116   0.3126
  0.3530   0.3539   0.3741   0.3964   0.5516   0.5681   0.5958   0.6232
  0.6576   0.6794   0.7163   0.7980   0.8049   0.8064   0.8503   0.8947
  0.9810   1.0520   1.0757   1.1038   1.1242   1.1574   1.1770   1.1992
  1.2492   1.2981   1.3533   1.3749   1.4736   1.4915   1.5238   1.5929
  1.6113   1.8639   1.9145   1.9389   2.0003   2.1152   2.1575   2.2715
  2.3448   2.3762   2.4156   2.4916   2.7389   2.7796   2.8809   3.0459
  3.0652   3.1815   3.2810   3.3030   3.3498   3.3581   3.4551   3.5189
  3.5576   3.6605   3.7505   3.7785   3.7875   3.8651   3.8869   4.0674
  4.1095   4.2578   4.2596   4.3016   4.4263   5.1317   5.1714   5.1897
  5.1909   5.2618   5.2860   5.3171   5.4016   5.4030   5.5339   5.5696
  5.6085   5.6457   5.7392   5.9304   6.1292   6.3441   6.4326   6.7587
  7.0410   7.0469   7.1950   7.2343   7.2565   7.2840   7.3254   7.3422
  7.5937   7.6169   7.7412   7.7658  24.7459  50.5110  50.5631
 
 Beta MOs
 -- Occupied --
-19.3602 -19.3602 -10.4224  -1.2069  -1.1448  -0.7745  -0.6613  -0.5881
 -0.5340  -0.4881  -0.4853  -0.4242
 -- Virtual --
  0.0255   0.0469   0.0492   0.0603   0.0941   0.1056   0.1310   0.1576
  0.2141   0.2253   0.2266   0.2407   0.2459   0.2815   0.2893   0.3108
  0.3123   0.3611   0.3639   0.3819   0.4055   0.5587   0.5751   0.5983
  0.6520   0.6668   0.6876   0.7291   0.8069   0.8138   0.8204   0.8566
  0.9071   0.9822   1.0648   1.0797   1.1089   1.1260   1.1621   1.1833
  1.2129   1.2554   1.3084   1.3630   1.3836   1.4791   1.4944   1.5416
  1.5982   1.6172   1.8722   1.9275   1.9468   2.0143   2.1224   2.1649
  2.2851   2.3580   2.3807   2.4242   2.5187   2.7682   2.7884   2.9608
  3.0952   3.1013   3.2339   3.3229   3.3404   3.3917   3.3958   3.5168
  3.5587   3.6115   3.6990   3.7639   3.7858   3.8055   3.8775   3.9223
  4.0776   4.1195   4.2632   4.2916   4.3139   4.4475   5.1463   5.1788
  5.2060   5.2231   5.2697   5.3041   5.3406   5.4101   5.4152   5.5465
  5.5797   5.6151   5.6531   5.7468   5.9455   6.1481   6.3540   6.4511
  6.7716   7.0540   7.0614   7.2076   7.2433   7.2678   7.2894   7.3383
  7.3570   7.6017   7.6263   7.7464   7.7748  24.7578  50.5139  50.5660
 --------------------------------------------------------------
 
          Ground-State Mulliken Net Atomic Charges

     Atom                 Charge (a.u.)    Spin (a.u.)
  --------------------------------------------------------
      1 H                     0.347043      -0.007553
      2 C                    -0.126163       0.872301
      3 O                    -0.385993       0.078476
      4 O                    -0.386592       0.079095
      5 H                     0.346556      -0.007451
      6 H                     0.205149      -0.014868
  --------------------------------------------------------
  Sum of atomic charges =    -0.000000
  Sum of spin   charges =     1.000000

 -----------------------------------------------------------------
                    Cartesian Multipole Moments
 -----------------------------------------------------------------
    Charge (ESU x 10^10)
                -0.0000
    Dipole Moment (Debye)
         X      -2.3337      Y      -1.6012      Z      -0.5748
       Tot       2.8880
    Quadrupole Moments (Debye-Ang)
        XX     -10.9603     XY       8.2086     YY     -14.6740
        XZ       1.4987     YZ       2.0874     ZZ     -21.4725
    Octopole Moments (Debye-Ang^2)
       XXX      35.8483    XXY      -1.3657    XYY       1.8870
       YYY      40.3545    XXZ      -8.8708    XYZ      -0.0878
       YYZ      -7.0505    XZZ      17.7305    YZZ      19.0299
       ZZZ     -20.7686
    Hexadecapole Moments (Debye-Ang^3)
      XXXX     -93.0010   XXXY     -11.5462   XXYY     -13.8739
      XYYY     -12.5944   YYYY    -127.0537   XXXZ      16.4462
      XXYZ      10.2995   XYYZ      -2.6427   YYYZ      30.0602
      XXZZ     -33.6255   XYZZ     -11.1371   YYZZ     -45.9691
      XZZZ      13.6126   YZZZ      41.0750   ZZZZ    -114.1047
 -----------------------------------------------------------------
 Calculating analytic gradient of the SCF energy
 Gradient of CDS energy
            1           2           3           4           5           6
    1  -0.0002175  -0.0002976  -0.0004316   0.0011372  -0.0001060  -0.0000845
    2  -0.0000724  -0.0042130   0.0051476  -0.0003353  -0.0004645  -0.0000624
    3  -0.0004530  -0.0025961  -0.0029320   0.0058286   0.0001764  -0.0000239
 Gradient of SCF Energy
            1           2           3           4           5           6
    1  -0.0155902  -0.0039758   0.0176034   0.0168919  -0.0161561   0.0012269
    2  -0.0126011  -0.0002077   0.0082542   0.0124213  -0.0088386   0.0009718
    3  -0.0011940   0.0007409   0.0062319   0.0003210  -0.0064482   0.0003485
 Max gradient component =       1.760E-02
 RMS gradient           =       9.602E-03
 Computing fast CPCM-SWIG gradient
 Updating gradient with PCM contributions...
 -- total gradient after adding PCM contribution --
---------------------------------------------------
  Atom         X              Y              Z     
---------------------------------------------------
   1      -0.000513      -0.000302      -0.000055
   2       0.000014      -0.000031      -0.000038
   3       0.000027       0.000023      -0.000002
   4       0.000454       0.000288       0.000092
   5      -0.000046       0.000028       0.000047
   6       0.000064      -0.000006      -0.000044
---------------------------------------------------
 Number of fixed atoms: 0
 Gradient time:  CPU 15.77 s  wall 2.23 s
 ----------------------------------------------------------------
             Standard Nuclear Orientation (Angstroms)
    I     Atom           X                Y                Z
 ----------------------------------------------------------------
    1      H      -1.9451317181    -1.0509905375    -0.9908420804
    2      C      -0.8743887599    -0.5180439156     0.5240076242
    3      O      -0.8111264072    -1.7425692644     1.1472768402
    4      O      -1.1633289644    -0.5095861474    -0.8210477070
    5      H      -1.6029986037    -2.2567548332     0.9421208132
    6      H      -0.0257258467     0.1088140978     0.7643269099
 ----------------------------------------------------------------
 Nuclear Repulsion Energy =          74.43220126 hartrees
 There are       13 alpha and       12 beta electrons
 Discretize the solute cavity surface with Lebedev spheres
	Using 110 Lebedev grid points for each H atom
	Using 194 Lebedev grid points for other atoms
	Atomic van der Waals radii will be scaled by 1.20
 Remove points where switching function is < 1.0e-08
 Keep 538 surface tesserae and discard 374 interior tesserae
 Molecular Surface Area = 67.997 Angst**2

                       Distance Matrix (Angstroms)
             H (  1)   C (  2)   O (  3)   O (  4)   H (  5)
   C (  2)  1.930102
   O (  3)  2.517102  1.375474
   O (  4)  0.966004  1.375766  2.349169
   H (  5)  2.303751  1.931012  0.966197  2.520847
   H (  6)  2.847786  1.082097  2.047224  2.046942  2.848739
 
 Requested basis set is 6-311++G(2df,2p)
 There are 42 shells and 132 basis functions
 A cutoff of  1.0D-12 yielded    898 shell pairs
 There are      8972 function pairs (     11172 Cartesian)
 Smallest overlap matrix eigenvalue = 1.16E-03
 Guess MOs from SCF MO coefficient file

 -----------------------------------------------------------------------
  General SCF calculation program by
  Eric Jon Sundstrom, Paul Horn, Yuezhi Mao, Dmitri Zuev, Alec White,
  David Stuck, Shaama M.S., Shane Yost, Joonho Lee, David Small,
  Daniel Levine, Susi Lehtola, Hugh Burton, Evgeny Epifanovsky,
  Bang C. Huynh
 -----------------------------------------------------------------------
 Exchange:     0.1500 Hartree-Fock + 1.0000 wB97M-V + LR-HF
 Correlation:  1.0000 wB97M-V
 Using SG-2 standard quadrature grid
 Nonlocal Correlation:  VV10 with C = 0.0100 and b = 6.00 and scale = 1.00000
 Grid used for NLC:  SG-1 standard quadrature
 
 Citation of the SMD model:
 Marenich, A.V.; Cramer, C.J.; Truhlar, D.G.
 J. Phys. Chem. B 2009, 113, 6378-6396.
 iSolventCode=           1
 Solvent: water                                                           
 
 vradii
            1           2           3           4           5           6
    1   1.2000000   1.8500000   1.5200000   1.5200000   1.2000000   1.2000000
 -------------------------------------------------------
 OpenMP BLAS3 based DFT computing Module                
 Release: version 1.0, May 2013, Q-Chem Inc. Pittsburgh 
 -------------------------------------------------------
 A unrestricted SCF calculation will be
 performed using Roothaan-Hall, DIIS, GDM
 SCF converges when RMS gradient is below 1.0e-07
 ---------------------------------------
  Cycle       Energy         DIIS error
 ---------------------------------------
    1    -190.2851980052      5.26e-04  Roothaan Step
 ---------------------------------------
  Cycle       Energy         DIIS error
 ---------------------------------------
    1    -190.3060225380      5.60e-04  
    2    -190.3094235127      3.30e-04  Done DIIS. Switching to GDM
 ---------------------------------------
  Cycle       Energy        RMS Gradient
 ---------------------------------------
    1    -190.3094235127      7.03e-03   Normal BFGS step
    2    -190.3096258772      6.39e-03   Normal BFGS step
    3    -190.3101031600      7.30e-04   Normal BFGS step
    4    -190.3101109592      4.49e-04   Normal BFGS step
    5    -190.3101124583      8.70e-05   Normal BFGS step
    6    -190.3101125228      5.14e-05   Normal BFGS step
    7    -190.3101125326      2.67e-05   Normal BFGS step
    8    -190.3101125347      4.76e-06   Normal BFGS step
    9    -190.3101125348      2.19e-06   Normal BFGS step
   10    -190.3101125349      6.59e-07   Normal BFGS step
   11    -190.3101125349      2.29e-07   Normal BFGS step
   12    -190.3101125349      7.26e-08  Convergence criterion met
 ---------------------------------------
 SCF time:   CPU 94.48s  wall 12.00s 
<S^2> =          0.752313039
(3)  G-ENP(liq) elect-nuc-pol free energy of system     -190.310112535 a.u.
(4)  G-CDS(liq) cavity-dispersion-solvent structure 
     free energy                                                3.7488 kcal/mol
(6)  G-S(liq) free energy of system                     -190.304138509 a.u.
 SCF   energy in the final basis set =     -190.3041385091
 Total energy in the final basis set =     -190.3041385091
 
 --------------------------------------------------------------
 
                    Orbital Energies (a.u.)
 --------------------------------------------------------------
 
 Alpha MOs
 -- Occupied --
-19.3637 -19.3636 -10.4354  -1.2170  -1.1533  -0.7927  -0.6685  -0.6005
 -0.5639  -0.5029  -0.5021  -0.4373  -0.2709
 -- Virtual --
  0.0325   0.0475   0.0603   0.0890   0.1063   0.1286   0.1556   0.2126
  0.2249   0.2260   0.2376   0.2440   0.2807   0.2857   0.3115   0.3126
  0.3530   0.3539   0.3740   0.3964   0.5516   0.5682   0.5960   0.6232
  0.6577   0.6795   0.7163   0.7980   0.8049   0.8064   0.8503   0.8947
  0.9810   1.0520   1.0756   1.1038   1.1242   1.1573   1.1770   1.1992
  1.2493   1.2982   1.3534   1.3749   1.4739   1.4919   1.5238   1.5930
  1.6114   1.8638   1.9145   1.9390   2.0003   2.1155   2.1575   2.2715
  2.3448   2.3762   2.4156   2.4917   2.7393   2.7798   2.8809   3.0459
  3.0653   3.1815   3.2810   3.3031   3.3500   3.3582   3.4550   3.5189
  3.5576   3.6606   3.7506   3.7785   3.7875   3.8652   3.8870   4.0678
  4.1097   4.2578   4.2603   4.3023   4.4263   5.1318   5.1714   5.1898
  5.1910   5.2620   5.2863   5.3170   5.4017   5.4031   5.5343   5.5699
  5.6094   5.6465   5.7395   5.9304   6.1296   6.3440   6.4326   6.7587
  7.0411   7.0470   7.1949   7.2358   7.2566   7.2860   7.3258   7.3424
  7.5939   7.6166   7.7412   7.7659  24.7459  50.5113  50.5634
 
 Beta MOs
 -- Occupied --
-19.3603 -19.3602 -10.4224  -1.2070  -1.1449  -0.7746  -0.6613  -0.5881
 -0.5341  -0.4881  -0.4854  -0.4243
 -- Virtual --
  0.0255   0.0469   0.0492   0.0603   0.0941   0.1056   0.1310   0.1576
  0.2141   0.2253   0.2266   0.2409   0.2459   0.2815   0.2893   0.3108
  0.3123   0.3611   0.3639   0.3819   0.4055   0.5587   0.5752   0.5985
  0.6520   0.6669   0.6876   0.7291   0.8069   0.8140   0.8205   0.8565
  0.9071   0.9822   1.0648   1.0796   1.1089   1.1259   1.1620   1.1833
  1.2129   1.2555   1.3084   1.3631   1.3836   1.4794   1.4947   1.5416
  1.5983   1.6172   1.8722   1.9275   1.9469   2.0143   2.1227   2.1649
  2.2851   2.3580   2.3806   2.4243   2.5188   2.7686   2.7886   2.9608
  3.0952   3.1014   3.2339   3.3229   3.3405   3.3918   3.3959   3.5168
  3.5587   3.6115   3.6990   3.7639   3.7858   3.8055   3.8776   3.9224
  4.0780   4.1197   4.2638   4.2919   4.3143   4.4475   5.1463   5.1788
  5.2060   5.2233   5.2699   5.3044   5.3405   5.4101   5.4153   5.5468
  5.5800   5.6160   5.6539   5.7472   5.9456   6.1484   6.3539   6.4511
  6.7715   7.0541   7.0615   7.2075   7.2450   7.2679   7.2914   7.3387
  7.3571   7.6018   7.6259   7.7463   7.7749  24.7579  50.5142  50.5663
 --------------------------------------------------------------
 
          Ground-State Mulliken Net Atomic Charges

     Atom                 Charge (a.u.)    Spin (a.u.)
  --------------------------------------------------------
      1 H                     0.346785      -0.007584
      2 C                    -0.126183       0.872357
      3 O                    -0.385957       0.078484
      4 O                    -0.386318       0.079051
      5 H                     0.346550      -0.007450
      6 H                     0.205124      -0.014858
  --------------------------------------------------------
  Sum of atomic charges =     0.000000
  Sum of spin   charges =     1.000000

 -----------------------------------------------------------------
                    Cartesian Multipole Moments
 -----------------------------------------------------------------
    Charge (ESU x 10^10)
                 0.0000
    Dipole Moment (Debye)
         X      -2.3337      Y      -1.5991      Z      -0.5724
       Tot       2.8863
    Quadrupole Moments (Debye-Ang)
        XX     -10.9588     XY       8.2041     YY     -14.6776
        XZ       1.4938     YZ       2.0822     ZZ     -21.4757
    Octopole Moments (Debye-Ang^2)
       XXX      35.8422    XXY      -1.3579    XYY       1.8954
       YYY      40.3583    XXZ      -8.8626    XYZ      -0.0780
       YYZ      -7.0427    XZZ      17.7379    YZZ      19.0360
       ZZZ     -20.7637
    Hexadecapole Moments (Debye-Ang^3)
      XXXX     -92.9800   XXXY     -11.5582   XXYY     -13.8890
      XYYY     -12.6047   YYYY    -127.0525   XXXZ      16.4339
      XXYZ      10.2815   XYYZ      -2.6573   YYYZ      30.0504
      XXZZ     -33.6388   XYZZ     -11.1502   YYZZ     -45.9756
      XZZZ      13.6022   YZZZ      41.0669   ZZZZ    -114.1034
 -----------------------------------------------------------------
 Calculating analytic gradient of the SCF energy
 Gradient of CDS energy
            1           2           3           4           5           6
    1  -0.0002177  -0.0002976  -0.0004316   0.0011374  -0.0001060  -0.0000845
    2  -0.0000724  -0.0042130   0.0051476  -0.0003353  -0.0004645  -0.0000624
    3  -0.0004531  -0.0025973  -0.0029321   0.0058301   0.0001763  -0.0000239
 Gradient of SCF Energy
            1           2           3           4           5           6
    1  -0.0150081  -0.0040508   0.0176110   0.0163770  -0.0161583   0.0012292
    2  -0.0121867  -0.0002569   0.0082485   0.0120480  -0.0088321   0.0009792
    3  -0.0009596   0.0007103   0.0062367   0.0001199  -0.0064466   0.0003393
 Max gradient component =       1.761E-02
 RMS gradient           =       9.444E-03
 Computing fast CPCM-SWIG gradient
 Updating gradient with PCM contributions...
 -- total gradient after adding PCM contribution --
---------------------------------------------------
  Atom         X              Y              Z     
---------------------------------------------------
   1       0.000071       0.000095       0.000163
   2      -0.000062      -0.000080      -0.000071
   3       0.000034       0.000018       0.000004
   4      -0.000061      -0.000064      -0.000088
   5      -0.000048       0.000032       0.000046
   6       0.000065      -0.000001      -0.000054
---------------------------------------------------
 Number of fixed atoms: 0
 Gradient time:  CPU 16.13 s  wall 2.31 s
 ----------------------------------------------------------------
             Standard Nuclear Orientation (Angstroms)
    I     Atom           X                Y                Z
 ----------------------------------------------------------------
    1      H      -1.9451317181    -1.0509905375    -0.9928420804
    2      C      -0.8743887599    -0.5180439156     0.5240076242
    3      O      -0.8111264072    -1.7425692644     1.1472768402
    4      O      -1.1633289644    -0.5095861474    -0.8210477070
    5      H      -1.6029986037    -2.2567548332     0.9421208132
    6      H      -0.0257258467     0.1088140978     0.7643269099
 ----------------------------------------------------------------
 Nuclear Repulsion Energy =          74.42787866 hartrees
 There are       13 alpha and       12 beta electrons
 Discretize the solute cavity surface with Lebedev spheres
	Using 110 Lebedev grid points for each H atom
	Using 194 Lebedev grid points for other atoms
	Atomic van der Waals radii will be scaled by 1.20
 Remove points where switching function is < 1.0e-08
 Keep 538 surface tesserae and discard 374 interior tesserae
 Molecular Surface Area = 68.007 Angst**2

                       Distance Matrix (Angstroms)
             H (  1)   C (  2)   O (  3)   O (  4)   H (  5)
   C (  2)  1.931672
   O (  3)  2.518801  1.375474
   O (  4)  0.966358  1.375766  2.349169
   H (  5)  2.305429  1.931012  0.966197  2.520847
   H (  6)  2.849019  1.082097  2.047224  2.046942  2.848739
 
 Requested basis set is 6-311++G(2df,2p)
 There are 42 shells and 132 basis functions
 A cutoff of  1.0D-12 yielded    898 shell pairs
 There are      8972 function pairs (     11172 Cartesian)
 Smallest overlap matrix eigenvalue = 1.16E-03
 Guess MOs from SCF MO coefficient file

 -----------------------------------------------------------------------
  General SCF calculation program by
  Eric Jon Sundstrom, Paul Horn, Yuezhi Mao, Dmitri Zuev, Alec White,
  David Stuck, Shaama M.S., Shane Yost, Joonho Lee, David Small,
  Daniel Levine, Susi Lehtola, Hugh Burton, Evgeny Epifanovsky,
  Bang C. Huynh
 -----------------------------------------------------------------------
 Exchange:     0.1500 Hartree-Fock + 1.0000 wB97M-V + LR-HF
 Correlation:  1.0000 wB97M-V
 Using SG-2 standard quadrature grid
 Nonlocal Correlation:  VV10 with C = 0.0100 and b = 6.00 and scale = 1.00000
 Grid used for NLC:  SG-1 standard quadrature
 
 Citation of the SMD model:
 Marenich, A.V.; Cramer, C.J.; Truhlar, D.G.
 J. Phys. Chem. B 2009, 113, 6378-6396.
 iSolventCode=           1
 Solvent: water                                                           
 
 vradii
            1           2           3           4           5           6
    1   1.2000000   1.8500000   1.5200000   1.5200000   1.2000000   1.2000000
 -------------------------------------------------------
 OpenMP BLAS3 based DFT computing Module                
 Release: version 1.0, May 2013, Q-Chem Inc. Pittsburgh 
 -------------------------------------------------------
 A unrestricted SCF calculation will be
 performed using Roothaan-Hall, DIIS, GDM
 SCF converges when RMS gradient is below 1.0e-07
 ---------------------------------------
  Cycle       Energy         DIIS error
 ---------------------------------------
    1    -190.2852048613      5.25e-04  Roothaan Step
 ---------------------------------------
  Cycle       Energy         DIIS error
 ---------------------------------------
    1    -190.3060240933      5.60e-04  
    2    -190.3094200373      3.31e-04  Done DIIS. Switching to GDM
 ---------------------------------------
  Cycle       Energy        RMS Gradient
 ---------------------------------------
    1    -190.3094200373      7.07e-03   Normal BFGS step
    2    -190.3096215438      6.41e-03   Normal BFGS step
    3    -190.3101049627      7.30e-04   Normal BFGS step
    4    -190.3101127792      4.50e-04   Normal BFGS step
    5    -190.3101142831      8.66e-05   Normal BFGS step
    6    -190.3101143474      5.12e-05   Normal BFGS step
    7    -190.3101143572      2.66e-05   Normal BFGS step
    8    -190.3101143591      5.46e-06   Normal BFGS step
    9    -190.3101143594      2.79e-06   Normal BFGS step
   10    -190.3101143595      7.53e-07   Normal BFGS step
   11    -190.3101143595      2.81e-07   Normal BFGS step
   12    -190.3101143595      1.09e-07   Normal BFGS step
   13    -190.3101143595      4.51e-08  Convergence criterion met
 ---------------------------------------
 SCF time:   CPU 101.23s  wall 13.00s 
<S^2> =          0.752313238
(3)  G-ENP(liq) elect-nuc-pol free energy of system     -190.310114360 a.u.
(4)  G-CDS(liq) cavity-dispersion-solvent structure 
     free energy                                                3.7498 kcal/mol
(6)  G-S(liq) free energy of system                     -190.304138621 a.u.
 SCF   energy in the final basis set =     -190.3041386211
 Total energy in the final basis set =     -190.3041386211
 
 --------------------------------------------------------------
 
                    Orbital Energies (a.u.)
 --------------------------------------------------------------
 
 Alpha MOs
 -- Occupied --
-19.3637 -19.3636 -10.4354  -1.2169  -1.1532  -0.7927  -0.6686  -0.6005
 -0.5638  -0.5028  -0.5021  -0.4373  -0.2709
 -- Virtual --
  0.0325   0.0475   0.0602   0.0890   0.1063   0.1286   0.1556   0.2126
  0.2249   0.2260   0.2375   0.2440   0.2807   0.2857   0.3116   0.3126
  0.3530   0.3539   0.3740   0.3964   0.5517   0.5682   0.5960   0.6233
  0.6576   0.6794   0.7164   0.7980   0.8049   0.8064   0.8503   0.8947
  0.9808   1.0519   1.0757   1.1038   1.1241   1.1575   1.1770   1.1992
  1.2492   1.2981   1.3533   1.3748   1.4736   1.4917   1.5238   1.5930
  1.6113   1.8639   1.9145   1.9389   2.0005   2.1150   2.1575   2.2715
  2.3448   2.3759   2.4156   2.4916   2.7390   2.7797   2.8809   3.0457
  3.0653   3.1815   3.2810   3.3028   3.3500   3.3582   3.4552   3.5189
  3.5578   3.6604   3.7506   3.7786   3.7876   3.8652   3.8868   4.0676
[...]
   15   0.0939033   0.0352786   0.0400448   0.0000831   0.0026711   0.0001140
   16   0.0021556   0.0017667   0.0000831   0.2232889   0.1510862   0.0662777
   17   0.0009257  -0.0035127   0.0026711   0.1510862   0.1534306   0.0287224
   18  -0.0010038   0.0030974   0.0001140   0.0662777   0.0287224   0.0704097
 ----------------------------------------------------------------
             Standard Nuclear Orientation (Angstroms)
    I     Atom           X                Y                Z
 ----------------------------------------------------------------
    1      H      -1.9451317181    -1.0509905375    -0.9918420804
    2      C      -0.8743887599    -0.5180439156     0.5240076242
    3      O      -0.8111264072    -1.7425692644     1.1472768402
    4      O      -1.1633289644    -0.5095861474    -0.8210477070
    5      H      -1.6029986037    -2.2567548332     0.9421208132
    6      H      -0.0257258467     0.1088140978     0.7643269099
 ----------------------------------------------------------------
 Nuclear Repulsion Energy =          74.43004172 hartrees
 There are       13 alpha and       12 beta electrons
 old dipole drv.
            1           2           3           4           5           6
    1   0.3975531  -0.0657766   0.0684738   0.1783993   0.0272586   0.3415958
    2  -0.0725200   0.3942580   0.0471825   0.0761804   1.1565830  -0.5466426
    3   0.0506721   0.0843260   0.4056722   0.3750366  -0.5371914   1.6024959
            7           8           9          10          11          12
    1  -0.4145647   0.0435606   0.0096564  -0.4987611   0.0137396  -0.3048637
    2   0.0263797  -1.4566612   0.2209009   0.1146585  -0.6376707   0.1807828
    3   0.0200970   0.6127630  -0.8686643  -0.2646024  -0.1964727  -1.6025181
           13          14          15          16          17          18
    1   0.3435140   0.0202487  -0.0959277  -0.0061474  -0.0390382  -0.0189465
    2   0.0119398   0.4621189   0.0357661  -0.1566394   0.0813751   0.0620078
    3  -0.0890662  -0.0045879   0.3936957  -0.0921319   0.0411682   0.0693282
 New transposed dipole drv.
            1           2           3
    1   0.3975531  -0.0725200   0.0506721
    2  -0.0657766   0.3942580   0.0843260
    3   0.0684738   0.0471825   0.4056722
    4   0.1783993   0.0761804   0.3750366
    5   0.0272586   1.1565830  -0.5371914
    6   0.3415958  -0.5466426   1.6024959
    7  -0.4145647   0.0263797   0.0200970
    8   0.0435606  -1.4566612   0.6127630
    9   0.0096564   0.2209009  -0.8686643
   10  -0.4987611   0.1146585  -0.2646024
   11   0.0137396  -0.6376707  -0.1964727
   12  -0.3048637   0.1807828  -1.6025181
   13   0.3435140   0.0119398  -0.0890662
   14   0.0202487   0.4621189  -0.0045879
   15  -0.0959277   0.0357661   0.3936957
   16  -0.0061474  -0.1566394  -0.0921319
   17  -0.0390382   0.0813751   0.0411682
   18  -0.0189465   0.0620078   0.0693282
FINAL TENSOR RESULT:
Order 2, Length 18
    Atom      X          Y          Z
     1 Order 1, Length 18
    Atom      X          Y          Z
     1    3.388644644918286e-01   2.314999197524176e-01   7.797878544823508e-02
     2   -6.491756830517443e-03  -3.144331938619087e-03  -4.637948204619718e-03
     3    1.157087530908832e-03  -1.041126403310748e-03   3.719939133420723e-03
     4   -3.352370887939686e-01  -2.272862897959788e-01  -7.515344385398398e-02
     5   -5.622099648853158e-04   2.188859423772762e-04  -1.195362377875204e-03
     6    2.269489293948390e-03  -2.470087909215069e-04  -7.119757030805083e-04

Order 1, Length 18
    Atom      X          Y          Z
     1    2.314999197524176e-01   1.655039368661108e-01   4.481049604751974e-02
     2   -1.204564095326905e-03   8.269864151431660e-04   1.445861283987838e-03
     3    2.185881243464785e-03  -1.753063477327070e-03   3.625278942242530e-05
     4   -2.328313479227180e-01  -1.658022671258262e-01  -4.795138890189138e-02
     5   -6.305714334821806e-04  -5.532864732480886e-04   1.639093737407215e-03
     6    9.806209980328673e-04   1.777718654552289e-03   1.964309167974474e-05

Order 1, Length 18
    Atom      X          Y          Z
     1    7.797878544823508e-02   4.481049604751974e-02   7.038383965243832e-02
     2   -3.872600405483941e-02  -2.686486214429013e-02  -1.872506747089516e-02
     3    1.488962382052022e-03  -1.166706686846915e-03   3.297097189908510e-03
     4   -4.021687610614484e-02  -2.021209014680392e-02  -4.742041373211776e-02
     5   -4.550005533233767e-05   2.673561487459002e-03  -2.226658284334270e-03
     6   -4.794747856165112e-04   7.596440112148823e-04  -5.308890268767555e-03


     2 Order 1, Length 18
    Atom      X          Y          Z
     1   -6.491756830517443e-03  -1.204564095326905e-03  -3.872600405483941e-02
     2    3.672493913153421e-01   1.936079421266833e-01   1.306611760063756e-01
     3   -6.643476274746837e-02  -3.039331578847654e-03  -2.809871214745636e-02
     4   -6.539476012810477e-02  -3.343131257939266e-02  -3.525156817685259e-02
     5    3.382010819568981e-03  -3.377707122452410e-02   1.486213537511033e-02
     6   -2.323102299314133e-01  -1.221559184031467e-01  -4.344721274529899e-02

Order 1, Length 18
    Atom      X          Y          Z
     1   -3.144331938619087e-03   8.269864151431660e-04  -2.686486214429013e-02
     2    1.936079421266833e-01   4.901921978220081e-01   9.520023017876952e-03
     3   -9.659043236768442e-03  -2.470500202082614e-01   5.218188021232247e-02
     4   -3.013907328731775e-02  -7.818947138861194e-02  -2.346573699103769e-02
     5    2.564319946731040e-03  -3.032536390603309e-02   1.656921007153157e-02
     6   -1.532289668819829e-01  -1.354545740588531e-01  -2.793928116201367e-02

Order 1, Length 18
    Atom      X          Y          Z
     1   -4.637948204619718e-03   1.445861283987838e-03  -1.872506747089516e-02
     2    1.306611760063756e-01   9.520023017876952e-03   4.022681843209116e-01
     3   -2.311558324807746e-02   5.781770362843516e-02  -8.019686039148916e-02
     4   -4.233844312909888e-02  -3.001382840651187e-02  -2.498654464529051e-01
     5    2.309429147441220e-03  -5.235145437262434e-03   3.061754944706427e-03
     6   -6.287849216042092e-02  -3.353480321703427e-02  -5.654276893374284e-02


     3 Order 1, Length 18
    Atom      X          Y          Z
     1    1.157087530908832e-03   2.185881243464785e-03   1.488962382052022e-03
     2   -6.643476274746837e-02  -9.659043236768442e-03  -2.311558324807746e-02
     3    4.080249518558370e-01   2.154326337590153e-01   1.280688044786907e-01
     4    4.938400883900252e-03   5.294614354371832e-03  -9.535049861757735e-03
     5   -3.543831972029045e-01  -1.847467997144729e-01  -1.090864816757775e-01
     6    6.697483888220503e-03  -2.850715523171774e-02   1.217933916591654e-02

Order 1, Length 18
    Atom      X          Y          Z
     1   -1.041126403310748e-03  -1.753063477327070e-03  -1.166706686846915e-03
     2   -3.039331578847654e-03  -2.470500202082614e-01   5.781770362843516e-02
     3    2.154326337590153e-01   4.181254805135529e-01  -6.882607591487933e-02
     4    7.492400197429623e-03   4.039117657144551e-03   5.168145608238489e-02
     5   -2.203787690769927e-01  -1.529551428480482e-01  -5.409003708621560e-02
     6    1.534174559855106e-03  -2.040625271500563e-02   1.458357513777123e-02

Order 1, Length 18
    Atom      X          Y          Z
     1    3.719939133420723e-03   3.625278942242530e-05   3.297097189908510e-03
     2   -2.809871214745636e-02   5.218188021232247e-02  -8.019686039148916e-02
     3    1.280688044786907e-01  -6.882607591487933e-02   1.592700251266908e-01
     4   -1.246858900834463e-02   4.977125005093160e-02  -4.498484165477677e-02
     5   -9.296396027813694e-02  -3.205524184567940e-02  -4.096679258984003e-02
     6    1.742438720171024e-03  -1.108034249046191e-03   3.581267455382707e-03


     4 Order 1, Length 18
    Atom      X          Y          Z
     1   -3.352370887939686e-01  -2.328313479227180e-01  -4.021687610614484e-02
     2   -6.539476012810477e-02  -3.013907328731775e-02  -4.233844312909888e-02
     3    4.938400883900252e-03   7.492400197429623e-03  -1.246858900834463e-02
     4    3.976356443033874e-01   2.554864176109142e-01   1.268848251385283e-01
     5    1.588532956508111e-04   1.093874737302599e-03   1.433412144695788e-03
     6   -2.101059083539902e-03  -1.102150310515826e-03  -3.329424078803755e-02

Order 1, Length 18
    Atom      X          Y          Z
     1   -2.272862897959788e-01  -1.658022671258262e-01  -2.021209014680392e-02
     2   -3.343131257939266e-02  -7.818947138861194e-02  -3.001382840651187e-02
     3    5.294614354371832e-03   4.039117657144551e-03   4.977125005093160e-02
     4    2.554864176109142e-01   2.334351656233565e-01   2.100612249085713e-02
     5    2.075176360249035e-03   2.352235708578438e-03  -2.067969393335389e-03
     6   -2.138736957666912e-03   4.165260809401612e-03  -1.848370401618995e-02

Order 1, Length 18
    Atom      X          Y          Z
     1   -7.515344385398398e-02  -4.795138890189138e-02  -4.742041373211776e-02
     2   -3.525156817685259e-02  -2.346573699103769e-02  -2.498654464529051e-01
     3   -9.535049861757735e-03   5.168145608238489e-02  -4.498484165477677e-02
     4    1.268848251385283e-01   2.100612249085713e-02   3.545518214968499e-01
     5   -2.199559553719352e-03  -3.759634083676164e-03  -2.711021226975971e-05
     6   -4.744979925198989e-03   2.489271039490911e-03  -1.225350071715207e-02


     5 Order 1, Length 18
    Atom      X          Y          Z
     1   -5.622099648853158e-04  -6.305714334821806e-04  -4.550005533233767e-05
     2    3.382010819568981e-03   2.564319946731040e-03   2.309429147441220e-03
     3   -3.543831972029045e-01  -2.203787690769927e-01  -9.296396027813694e-02
     4    1.588532956508111e-04   2.075176360249035e-03  -2.199559553719352e-03
     5    3.492488605177747e-01   2.154441534317647e-01   9.390327179127446e-02
     6    2.155609572826427e-03   9.256945716987674e-04  -1.003811958274996e-03

Order 1, Length 18
    Atom      X          Y          Z
     1    2.188859423772762e-04  -5.532864732480886e-04   2.673561487459002e-03
     2   -3.377707122452410e-02  -3.032536390603309e-02  -5.235145437262434e-03
     3   -1.847467997144729e-01  -1.529551428480482e-01  -3.205524184567940e-02
     4    1.093874737302599e-03   2.352235708578438e-03  -3.759634083676164e-03
     5    2.154441534317647e-01   1.849942026410313e-01   3.527856634590773e-02
     6    1.766676269639763e-03  -3.512655900249977e-03   3.097446786923240e-03

Order 1, Length 18
    Atom      X          Y          Z
     1   -1.195362377875204e-03   1.639093737407215e-03  -2.226658284334270e-03
     2    1.486213537511033e-02   1.656921007153157e-02   3.061754944706427e-03
     3   -1.090864816757775e-01  -5.409003708621560e-02  -4.096679258984003e-02
     4    1.433412144695788e-03  -2.067969393335389e-03  -2.711021226975971e-05
     5    9.390327179127446e-02   3.527856634590773e-02   4.004483847635144e-02
     6    8.305099720257378e-05   2.671095625107534e-03   1.140424552812353e-04


     6 Order 1, Length 18
    Atom      X          Y          Z
     1    2.269489293948390e-03   9.806209980328673e-04  -4.794747856165112e-04
     2   -2.323102299314133e-01  -1.532289668819829e-01  -6.287849216042092e-02
     3    6.697483888220503e-03   1.534174559855106e-03   1.742438720171024e-03
     4   -2.101059083539902e-03  -2.138736957666912e-03  -4.744979925198989e-03
     5    2.155609572826427e-03   1.766676269639763e-03   8.305099720257378e-05
     6    2.232889462860200e-01   1.510861830154716e-01   6.627769988869514e-02

Order 1, Length 18
    Atom      X          Y          Z
     1   -2.470087909215069e-04   1.777718654552289e-03   7.596440112148823e-04
     2   -1.221559184031467e-01  -1.354545740588531e-01  -3.353480321703427e-02
     3   -2.850715523171774e-02  -2.040625271500563e-02  -1.108034249046191e-03
     4   -1.102150310515826e-03   4.165260809401612e-03   2.489271039490911e-03
     5    9.256945716987674e-04  -3.512655900249977e-03   2.671095625107534e-03
     6    1.510861830154716e-01   1.534305742409065e-01   2.872238675114982e-02

Order 1, Length 18
    Atom      X          Y          Z
     1   -7.119757030805083e-04   1.964309167974474e-05  -5.308890268767555e-03
     2   -4.344721274529899e-02  -2.793928116201367e-02  -5.654276893374284e-02
     3    1.217933916591654e-02   1.458357513777123e-02   3.581267455382707e-03
     4   -3.329424078803755e-02  -1.848370401618995e-02  -1.225350071715207e-02
     5   -1.003811958274996e-03   3.097446786923240e-03   1.140424552812353e-04
     6    6.627769988869514e-02   2.872238675114982e-02   7.040966827995837e-02




 # Finishing finite difference calculation for IDERIV #
 ######################################################
 ######################################################
 Requested basis set is 6-311++G(2df,2p)
 There are 42 shells and 132 basis functions
 **********************************************************************
 **                                                                  **
 **                       VIBRATIONAL ANALYSIS                       **
 **                       --------------------                       **
 **                                                                  **
 **        VIBRATIONAL FREQUENCIES (CM**-1) AND NORMAL MODES         **
 **     FORCE CONSTANTS (mDYN/ANGSTROM) AND REDUCED MASSES (AMU)     **
 **                  INFRARED INTENSITIES (KM/MOL)                   **
 **                                                                  **
 **********************************************************************
 

 Mode:                 1                      2                      3
 Frequency:       242.30                 412.80                 548.05
 Force Cnst:      0.0370                 0.1226                 0.9703
 Red. Mass:       1.0710                 1.2211                 5.4830
 IR Active:          YES                    YES                    YES
 IR Intens:       51.761                346.196                 55.549
 Raman Active:       YES                    YES                    YES
               X      Y      Z        X      Y      Z        X      Y      Z
 H          0.398 -0.515 -0.102   -0.392  0.617  0.007    0.141  0.087 -0.525
 C         -0.005 -0.005  0.004   -0.085 -0.021  0.001   -0.006 -0.239 -0.149
 O          0.013 -0.024 -0.039    0.058 -0.023 -0.010    0.038 -0.062  0.340
 O         -0.011  0.042  0.004    0.057 -0.017 -0.032   -0.059  0.276 -0.201
 H         -0.349  0.279  0.602   -0.218  0.175  0.558    0.287 -0.404  0.231
 H         -0.014  0.010 -0.003   -0.202  0.095  0.098   -0.017 -0.238 -0.146
 TransDip   0.011 -0.093  0.210   -0.348  0.388  0.289    0.049 -0.192 -0.133

 Mode:                 4                      5                      6
 Frequency:       900.92                1050.97                1098.66
 Force Cnst:      0.6357                 4.3406                 2.6556
 Red. Mass:       1.3294                 6.6698                 3.7341
 IR Active:          YES                    YES                    YES
 IR Intens:       50.040                123.321                675.444
 Raman Active:       YES                    YES                    YES
               X      Y      Z        X      Y      Z        X      Y      Z
 H         -0.042 -0.053  0.203   -0.112 -0.181  0.447   -0.076 -0.118  0.331
 C          0.141 -0.047 -0.055    0.006  0.390  0.247    0.054 -0.193  0.302
 O         -0.029 -0.016  0.020    0.042 -0.300  0.134   -0.017  0.184 -0.097
 O         -0.035  0.007 -0.015   -0.041 -0.008 -0.332   -0.037  0.006 -0.202
 H         -0.102  0.150 -0.114   -0.246  0.279 -0.284    0.179 -0.230  0.218
 H         -0.527  0.610  0.480    0.280  0.144  0.047    0.109 -0.383  0.602
 TransDip  -0.010  0.190  0.123    0.049  0.298  0.188    0.125 -0.441  0.695

 Mode:                 7                      8                      9
 Frequency:      1170.86                1380.46                1393.66
 Force Cnst:      1.0011                 1.4916                 1.3296
 Red. Mass:       1.2394                 1.3285                 1.1618
 IR Active:          YES                    YES                    YES
 IR Intens:       22.115                  3.062                118.190
 Raman Active:       YES                    YES                    YES
               X      Y      Z        X      Y      Z        X      Y      Z
 H         -0.018 -0.129  0.661   -0.002 -0.136  0.671    0.003  0.018 -0.244
 C         -0.018  0.068 -0.109   -0.097 -0.096 -0.042   -0.016  0.051 -0.082
 O         -0.032 -0.022 -0.007    0.046  0.019  0.026    0.036  0.001  0.020
 O          0.031  0.021  0.011    0.041  0.040 -0.005   -0.028 -0.023  0.016
 H          0.211 -0.530  0.374   -0.193  0.521 -0.378   -0.072  0.219 -0.121
 H          0.038 -0.130  0.206   -0.020 -0.189 -0.129    0.140 -0.490  0.775
 TransDip   0.025 -0.083  0.123   -0.022  0.039  0.034   -0.053  0.184 -0.291

 Mode:                10                     11                     12
 Frequency:      3195.77                3791.83                3795.87
 Force Cnst:      6.5492                 9.0294                 9.0506
 Red. Mass:       1.0884                 1.0659                 1.0661
 IR Active:          YES                    YES                    YES
 IR Intens:       20.553                298.499                 30.029
 Raman Active:       YES                    YES                    YES
               X      Y      Z        X      Y      Z        X      Y      Z
 H         -0.017 -0.011  0.004    0.617  0.426  0.147   -0.519 -0.358 -0.121
 C         -0.064 -0.052 -0.021   -0.003 -0.002 -0.000   -0.000 -0.000  0.000
 O          0.001  0.002  0.001   -0.032 -0.022 -0.008   -0.039 -0.026 -0.010
 O          0.001  0.002  0.001   -0.038 -0.026 -0.010    0.032  0.022  0.008
 H         -0.019 -0.004 -0.007    0.522  0.350  0.130    0.623  0.414  0.156
 H          0.771  0.587  0.230    0.021  0.014  0.005    0.002  0.002 -0.001
 TransDip  -0.062 -0.116 -0.061    0.420  0.329  0.147    0.013  0.116 -0.131

 STANDARD THERMODYNAMIC QUANTITIES AT   298.15 K  AND     1.00 ATM

   This Molecule has  0 Imaginary Frequencies
   Zero point vibrational energy:       27.136 kcal/mol

   Atom    1 Element H  Has Mass    1.00783
   Atom    2 Element C  Has Mass   12.00000
   Atom    3 Element O  Has Mass   15.99491
   Atom    4 Element O  Has Mass   15.99491
   Atom    5 Element H  Has Mass    1.00783
   Atom    6 Element H  Has Mass    1.00783
   Molecular Mass:    47.013310 amu
   Principal axes and moments of inertia in amu*Bohr^2:
                             1           2           3
    Eigenvalues --       32.93647   170.14013   197.12707
          X               0.14979     0.44661     0.88210
          Y              -0.52479     0.79203    -0.31189
          Z               0.83795     0.41620    -0.35301
   Rotational Symmetry Number is   1
   The Molecule is an Asymmetric Top
   Translational Enthalpy:        0.889 kcal/mol
   Rotational Enthalpy:           0.889 kcal/mol
   Vibrational Enthalpy:         27.845 kcal/mol
   gas constant (RT):             0.592 kcal/mol
   Translational Entropy:        37.468  cal/mol.K
   Rotational Entropy:           21.629  cal/mol.K
   Vibrational Entropy:           3.613  cal/mol.K

   Total Enthalpy:               30.215 kcal/mol
   Total Entropy:                62.710  cal/mol.K
 Total job time:  563.23s(wall), 4345.61s(cpu) 
 Tue Jul 25 21:11:01 2023

        *************************************************************
        *                                                           *
        *  Thank you very much for using Q-Chem.  Have a nice day.  *
        *                                                           *
        *************************************************************


