
Running Job 1 of 1 Q_in.in
qchem Q_in.in_272721.0 /scratch/ari.fischer/qChem1647073.hpc-mn1/qchem272721/ 0
/usr/local/qchem-5.4.1/exe/qcprog.exe_s Q_in.in_272721.0 /scratch/ari.fischer/qChem1647073.hpc-mn1/qchem272721/
                  Welcome to Q-Chem
     A Quantum Leap Into The Future Of Chemistry


 Q-Chem 5.4, Q-Chem, Inc., Pleasanton, CA (2021)

 License issued to: Nanyang Technological University (site)

 E. Epifanovsky,  A. T. B. Gilbert,  Xintian Feng,  Joonho Lee,  Yuezhi Mao,  
 N. Mardirossian,  P. Pokhilko,  A. White,  M. Wormit,  M. P. Coons,  
 A. L. Dempwolff,  Zhengting Gan,  D. Hait,  P. R. Horn,  L. D. Jacobson,  
 I. Kaliman,  J. Kussmann,  A. W. Lange,  Ka Un Lao,  D. S. Levine,  Jie Liu,  
 S. C. McKenzie,  A. F. Morrison,  K. Nanda,  F. Plasser,  D. R. Rehn,  
 M. L. Vidal,  Zhi-Qiang You,  Ying Zhu,  B. Alam,  B. Albrecht,  
 A. Aldossary,  E. Alguire,  J. H. Andersen,  D. Barton,  K. Begam,  A. Behn,  
 Y. A. Bernard,  E. J. Berquist,  H. Burton,  A. Carreras,  K. Carter-Fenk,  
 R. Chakraborty,  A. D. Chien,  K. D. Closser,  V. Cofer-Shabica,  
 S. Dasgupta,  Jia Deng,  M. de Wergifosse,  M. Diedenhofen,  Hainam Do,  
 S. Ehlert,  Po-Tung Fang,  S. Fatehi,  Qingguo Feng,  T. Friedhoff,  
 J. Gayvert,  Qinghui Ge,  G. Gidofalvi,  M. Goldey,  J. Gomes,  
 C. Gonzalez-Espinoza,  S. Gulania,  A. Gunina,  M. W. D. Hanson-Heine,  
 P. H. P. Harbach,  A. W. Hauser,  M. F. Herbst,  M. Hernandez Vera,  
 M. Hodecker,  Z. C. Holden,  S. Houck,  Xunkun Huang,  Kerwin Hui,  
 B. C. Huynh,  M. Ivanov,  Hyunjun Ji,  Hanjie Jiang,  B. Kaduk,  S. Kaehler,  
 K. Khistyaev,  Jaehoon Kim,  P. Klunzinger,  Z. Koczor-Benda,  
 Joong Hoon Koh,  D. Kosenkov,  L. Koulias,  T. Kowalczyk,  C. M. Krauter,  
 K. Kue,  A. Kunitsa,  T. Kus,  A. Landau,  K. V. Lawler,  D. Lefrancois,  
 S. Lehtola,  Rain Li,  Yi-Pei Li,  Jiashu Liang,  M. Liebenthal,  
 Hung-Hsuan Lin,  You-Sheng Lin,  Fenglai Liu,  Kuan-Yu Liu,  
 M. Loipersberger,  A. Luenser,  A. Manjanath,  P. Manohar,  E. Mansoor,  
 S. F. Manzer,  Shan-Ping Mao,  A. V. Marenich,  T. Markovich,  S. Mason,  
 S. A. Maurer,  P. F. McLaughlin,  M. F. S. J. Menger,  J.-M. Mewes,  
 S. A. Mewes,  P. Morgante,  J. W. Mullinax,  K. J. Oosterbaan,  G. Paran,  
 Alexander C. Paul,  Suranjan K. Paul,  F. Pavosevic,  Zheng Pei,  S. Prager,  
 E. I. Proynov,  E. Ramos,  B. Rana,  A. E. Rask,  A. Rettig,  R. M. Richard,  
 F. Rob,  E. Rossomme,  T. Scheele,  M. Scheurer,  M. Schneider,  
 N. Sergueev,  S. M. Sharada,  W. Skomorowski,  D. W. Small,  C. J. Stein,  
 Yu-Chuan Su,  E. J. Sundstrom,  Zhen Tao,  J. Thirman,  T. Tsuchimochi,  
 N. M. Tubman,  S. P. Veccham,  O. Vydrov,  J. Wenzel,  J. Witte,  A. Yamada,  
 Kun Yao,  S. Yeganeh,  S. R. Yost,  A. Zech,  Igor Ying Zhang,  Xing Zhang,  
 Yu Zhang,  D. Zuev,  A. Aspuru-Guzik,  A. T. Bell,  N. A. Besley,  
 K. B. Bravaya,  B. R. Brooks,  D. Casanova,  Jeng-Da Chai,  S. Coriani,  
 C. J. Cramer,  A. E. DePrince, III,  R. A. DiStasio Jr.,  A. Dreuw,  
 B. D. Dunietz,  T. R. Furlani,  W. A. Goddard III,  S. Grimme,  
 S. Hammes-Schiffer,  T. Head-Gordon,  W. J. Hehre,  Chao-Ping Hsu,  
 T.-C. Jagau,  Yousung Jung,  A. Klamt,  Jing Kong,  D. S. Lambrecht,  
 WanZhen Liang,  N. J. Mayhall,  C. W. McCurdy,  J. B. Neaton,  
 C. Ochsenfeld,  J. A. Parkhill,  R. Peverati,  V. A. Rassolov,  Yihan Shao,  
 L. V. Slipchenko,  T. Stauch,  R. P. Steele,  J. E. Subotnik,  
 A. J. W. Thom,  A. Tkatchenko,  D. G. Truhlar,  T. Van Voorhis,  
 T. A. Wesolowski,  K. B. Whaley,  H. L. Woodcock III,  P. M. Zimmerman,  
 S. Faraji,  P. M. W. Gill,  M. Head-Gordon,  J. M. Herbert,  A. I. Krylov

 Additional authors for Version 5.4.1: 
 S. Kotaru,  Shaozhi Li,  Xiangyuan Li,  F. Matz,  A. Molle,  Haisheng Ren,  
 Yingli Su,  Hung-Yi Tsai,  C. Utku,  Fang Wang

 Contributors to earlier versions of Q-Chem not listed above: 
 R. D. Adamson,  B. Austin,  R. Baer,  J. Baker,  G. J. O. Beran,  
 K. Brandhorst,  S. T. Brown,  E. F. C. Byrd,  A. K. Chakraborty,  
 G. K. L. Chan,  Chun-Min Chang,  Yunqing Chen,  C.-L. Cheng,  
 Siu Hung Chien,  D. M. Chipman,  D. L. Crittenden,  H. Dachsel,  
 R. J. Doerksen,  A. D. Dutoi,  R. G. Edgar,  J. Fosso-Tande,  
 L. Fusti-Molnar,  D. Ghosh,  A. Ghysels,  A. Golubeva-Zadorozhnaya,  
 J. Gonthier,  M. S. Gordon,  S. R. Gwaltney,  G. Hawkins,  J. E. Herr,  
 A. Heyden,  S. Hirata,  E. G. Hohenstein,  G. Kedziora,  F. J. Keil,  
 C. Kelley,  Jihan Kim,  R. A. King,  R. Z. Khaliullin,  P. P. Korambath,  
 W. Kurlancheek,  A. Laurent,  A. M. Lee,  M. S. Lee,  S. V. Levchenko,  
 Ching Yeh Lin,  D. Liotard,  E. Livshits,  R. C. Lochan,  I. Lotan,  
 L. A. Martinez-Martinez,  P. E. Maslen,  N. Nair,  D. P. O'Neill,  
 D. Neuhauser,  E. Neuscamman,  C. M. Oana,  R. Olivares-Amaya,  R. Olson,  
 T. M. Perrine,  B. Peters,  P. A. Pieniazek,  A. Prociuk,  Y. M. Rhee,  
 J. Ritchie,  M. A. Rohrdanz,  E. Rosta,  N. J. Russ,  H. F. Schaefer III,  
 M. W. Schmidt,  N. E. Schultz,  S. Sharma,  N. Shenvi,  C. D. Sherrill,  
 A. C. Simmonett,  A. Sodt,  T. Stein,  D. Stuck,  K. S. Thanthiriwatte,  
 V. Vanovschi,  L. Vogt,  Tao Wang,  A. Warshel,  M. A. Watson,  
 C. F. Williams,  Q. Wu,  X. Xu,  Jun Yang,  W. Zhang,  Yan Zhao

 Please cite Q-Chem as follows:
 Y. Shao et al., Mol. Phys. 113, 184-215 (2015)
 DOI: 10.1080/00268976.2014.952696

 Q-Chem 5.4.1 for Intel X86 EM64T Linux

 Parts of Q-Chem use Armadillo 9.800.1 (Horizon Scraper).
 http://arma.sourceforge.net/

 Q-Chem begins on Tue Jul 25 18:16:28 2023  

 Host: 
0

     Scratch files written to /scratch/ari.fischer/qChem1647073.hpc-mn1/qchem272721//
 Aug1521 |scratch|qcdevops|jenkins|workspace|build_RNUM 8249   
 Processing $rem in /usr/local/qchem-5.4.1/config/preferences:
 Processing $rem in /home/ari.fischer/.qchemrc:
 Symmetry turned off for PCM/SM12/SMD calculation

 Checking the input file for inconsistencies... 	...done.

--------------------------------------------------------------
User input:
--------------------------------------------------------------
$molecule
0 2
H        -1.9482109864   -1.0479476150   -0.9925275442
C        -0.8866346159   -0.5162240520    0.5272535622
O        -0.8018558081   -1.7468677360    1.1520106482
O        -1.1557843111   -0.5069019080   -0.8292367313
H        -1.6045891373   -2.2568876969    0.9449850253
H        -0.0256254412    0.1056984077    0.7623574398
$end

$rem
BASIS = 6-311++G(2df,2p)
GUI = 2
JOB_TYPE = Optimization
METHOD = wB97M-V
SCF_ALGORITHM = DIIS_GDM
MAX_SCF_CYCLES = 400
GEOM_OPT_MAX_CYCLES = 150
SCF_CONVERGENCE = 7
THRESH = 12
UNRESTRICTED = 1
Solvent_method = SMD
$end
--------------------------------------------------------------
 ----------------------------------------------------------------
             Standard Nuclear Orientation (Angstroms)
    I     Atom           X                Y                Z
 ----------------------------------------------------------------
    1      H      -1.9482109864    -1.0479476150    -0.9925275442
    2      C      -0.8866346159    -0.5162240520     0.5272535622
    3      O      -0.8018558081    -1.7468677360     1.1520106482
    4      O      -1.1557843111    -0.5069019080    -0.8292367313
    5      H      -1.6045891373    -2.2568876969     0.9449850253
    6      H      -0.0256254412     0.1056984077     0.7623574398
 ----------------------------------------------------------------
 Nuclear Repulsion Energy =          74.05737832 hartrees
 There are       13 alpha and       12 beta electrons
 Requested basis set is 6-311++G(2df,2p)
 There are 42 shells and 132 basis functions

 Total QAlloc Memory Limit 288000 MB
 Mega-Array Size       188 MB
 MEM_STATIC part       192 MB
 
 Citation of the SMD model:
 Marenich, A.V.; Cramer, C.J.; Truhlar, D.G.
 J. Phys. Chem. B 2009, 113, 6378-6396.
 iSolventCode=           1
 Solvent: water                                                           
 
 vradii
            1           2           3           4           5           6
    1   1.2000000   1.8500000   1.5200000   1.5200000   1.2000000   1.2000000
 Changing PCM_VDW_RADII to SMD_RADIUS
 Discretize the solute cavity surface with Lebedev spheres
	Using 110 Lebedev grid points for each H atom
	Using 194 Lebedev grid points for other atoms
	Atomic van der Waals radii will be scaled by 1.20
 Remove points where switching function is < 1.0e-08
 Keep 538 surface tesserae and discard 374 interior tesserae
 Molecular Surface Area = 68.245 Angst**2
 A cutoff of  1.0D-12 yielded    898 shell pairs
 There are      8972 function pairs (     11172 Cartesian)
 Smallest overlap matrix eigenvalue = 1.16E-03

 Scale SEOQF with 1.000000e-01/1.000000e-01/1.000000e-01

 Standard Electronic Orientation quadrupole field applied
 Nucleus-field energy     =     0.0000000012 hartrees
 Guess from superposition of atomic densities
 Warning:  Energy on first SCF cycle will be non-variational
 SAD guess density has 25.000000 electrons

 -----------------------------------------------------------------------
  General SCF calculation program by
  Eric Jon Sundstrom, Paul Horn, Yuezhi Mao, Dmitri Zuev, Alec White,
  David Stuck, Shaama M.S., Shane Yost, Joonho Lee, David Small,
  Daniel Levine, Susi Lehtola, Hugh Burton, Evgeny Epifanovsky,
  Bang C. Huynh
 -----------------------------------------------------------------------
 Exchange:     0.1500 Hartree-Fock + 1.0000 wB97M-V + LR-HF
 Correlation:  1.0000 wB97M-V
 Using SG-2 standard quadrature grid
 Nonlocal Correlation:  VV10 with C = 0.0100 and b = 6.00 and scale = 1.00000
 Grid used for NLC:  SG-1 standard quadrature
 
 Citation of the SMD model:
 Marenich, A.V.; Cramer, C.J.; Truhlar, D.G.
 J. Phys. Chem. B 2009, 113, 6378-6396.
 iSolventCode=           1
 Solvent: water                                                           
 
 vradii
            1           2           3           4           5           6
    1   1.2000000   1.8500000   1.5200000   1.5200000   1.2000000   1.2000000
 using 8 threads for integral computing
 -------------------------------------------------------
 OpenMP Integral computing Module                
 Release: version 1.0, May 2013, Q-Chem Inc. Pittsburgh 
 -------------------------------------------------------
 -------------------------------------------------------
 OpenMP BLAS3 based DFT computing Module                
 Release: version 1.0, May 2013, Q-Chem Inc. Pittsburgh 
 -------------------------------------------------------
 A unrestricted SCF calculation will be
 performed using DIIS, GDM
 SCF converges when RMS gradient is below 1.0e-07
 ---------------------------------------
  Cycle       Energy         DIIS error
 ---------------------------------------
    1    -190.6186387067      2.05e-02  
    2    -190.2517848725      2.87e-03  Done DIIS. Switching to GDM
 ---------------------------------------
  Cycle       Energy        RMS Gradient
 ---------------------------------------
    1    -190.2517848725      7.61e-02   Descent step
    2    -190.2941639286      4.28e-02   Normal BFGS step
    3    -190.3090367328      6.31e-03   Normal BFGS step
    4    -190.3095409545      2.85e-03   Normal BFGS step
    5    -190.3096147761      8.87e-04   Normal BFGS step
    6    -190.3096217026      2.48e-04   Normal BFGS step
    7    -190.3096226122      1.02e-04   Normal BFGS step
    8    -190.3096227341      3.90e-05   Normal BFGS step
    9    -190.3096227495      1.63e-05   Normal BFGS step
   10    -190.3096227541      8.54e-06   Normal BFGS step
   11    -190.3096227548      3.67e-06   Normal BFGS step
   12    -190.3096227548      1.27e-06   Normal BFGS step
   13    -190.3096227548      2.95e-07   Normal BFGS step
   14    -190.3096227548      8.78e-08  Convergence criterion met
 ---------------------------------------
 SCF time:   CPU 94.20s  wall 12.00s 
<S^2> =          0.752323125
(3)  G-ENP(liq) elect-nuc-pol free energy of system     -190.309622755 a.u.
(4)  G-CDS(liq) cavity-dispersion-solvent structure 
     free energy                                                3.6384 kcal/mol
(6)  G-S(liq) free energy of system                     -190.303824618 a.u.
 SCF   energy in the final basis set =     -190.3038246177
 Total energy in the final basis set =     -190.3038246177
 
 --------------------------------------------------------------
 
                    Orbital Energies (a.u.)
 --------------------------------------------------------------
 
 Alpha MOs
 -- Occupied --
-19.3649 -19.3649 -10.4378  -1.2138  -1.1515  -0.7895  -0.6634  -0.6002
 -0.5617  -0.5052  -0.4992  -0.4369  -0.2761
 -- Virtual --
  0.0323   0.0477   0.0601   0.0888   0.1065   0.1288   0.1550   0.2112
  0.2234   0.2248   0.2364   0.2425   0.2806   0.2850   0.3102   0.3119
  0.3498   0.3504   0.3744   0.3969   0.5487   0.5648   0.5909   0.6237
  0.6553   0.6787   0.7110   0.7985   0.8011   0.8095   0.8429   0.8957
  0.9799   1.0524   1.0733   1.1036   1.1233   1.1546   1.1784   1.1974
  1.2497   1.2992   1.3546   1.3724   1.4734   1.4859   1.5210   1.5870
  1.6092   1.8543   1.9048   1.9318   1.9956   2.1240   2.1545   2.2606
  2.3382   2.3798   2.4146   2.4937   2.7368   2.7588   2.8827   3.0462
  3.0642   3.1721   3.2802   3.3027   3.3445   3.3583   3.4478   3.5117
  3.5485   3.6636   3.7494   3.7726   3.7726   3.8571   3.8806   4.0670
  4.1058   4.2350   4.2501   4.2813   4.4059   5.1284   5.1711   5.1852
  5.1897   5.2625   5.2905   5.3066   5.3974   5.3988   5.5144   5.5470
  5.6115   5.6276   5.7211   5.9046   6.1033   6.3046   6.4155   6.7349
  7.0376   7.0435   7.1888   7.1996   7.2424   7.2499   7.3331   7.3386
  7.5719   7.6033   7.7391   7.7695  24.7082  50.5031  50.5537
 
 Beta MOs
 -- Occupied --
-19.3615 -19.3615 -10.4247  -1.2038  -1.1431  -0.7714  -0.6562  -0.5870
 -0.5325  -0.4875  -0.4852  -0.4241
 -- Virtual --
  0.0241   0.0467   0.0474   0.0601   0.0932   0.1058   0.1310   0.1570
  0.2128   0.2241   0.2253   0.2396   0.2447   0.2816   0.2889   0.3102
  0.3111   0.3598   0.3616   0.3795   0.4053   0.5553   0.5722   0.5933
  0.6526   0.6641   0.6866   0.7240   0.8080   0.8164   0.8186   0.8467
  0.9083   0.9809   1.0653   1.0773   1.1087   1.1251   1.1596   1.1847
  1.2108   1.2561   1.3097   1.3647   1.3810   1.4787   1.4888   1.5389
  1.5922   1.6147   1.8629   1.9182   1.9391   2.0087   2.1318   2.1625
  2.2744   2.3511   2.3840   2.4235   2.5193   2.7670   2.7679   2.9625
  3.0941   3.0993   3.2239   3.3196   3.3408   3.3847   3.3956   3.5106
  3.5555   3.6014   3.7017   3.7657   3.7794   3.7896   3.8698   3.9166
  4.0770   4.1151   4.2388   4.2803   4.2975   4.4275   5.1430   5.1787
  5.2055   5.2200   5.2702   5.3066   5.3308   5.4058   5.4105   5.5246
  5.5568   5.6175   5.6354   5.7286   5.9192   6.1220   6.3147   6.4341
  6.7478   7.0506   7.0579   7.2010   7.2074   7.2484   7.2623   7.3457
  7.3535   7.5798   7.6127   7.7444   7.7786  24.7203  50.5060  50.5566
 --------------------------------------------------------------
 
          Ground-State Mulliken Net Atomic Charges

     Atom                 Charge (a.u.)    Spin (a.u.)
  --------------------------------------------------------
      1 H                     0.348216      -0.007756
      2 C                    -0.121685       0.869896
      3 O                    -0.387159       0.078572
      4 O                    -0.387681       0.079066
      5 H                     0.347823      -0.007623
      6 H                     0.200487      -0.012155
  --------------------------------------------------------
  Sum of atomic charges =    -0.000000
  Sum of spin   charges =     1.000000

 -----------------------------------------------------------------
                    Cartesian Multipole Moments
 -----------------------------------------------------------------
    Charge (ESU x 10^10)
                -0.0000
    Dipole Moment (Debye)
         X      -2.3749      Y      -1.5715      Z      -0.5522
       Tot       2.9008
    Quadrupole Moments (Debye-Ang)
        XX     -10.8952     XY       8.1990     YY     -14.7833
        XZ       1.4527     YZ       2.0772     ZZ     -21.5191
    Octopole Moments (Debye-Ang^2)
       XXX      35.7068    XXY      -1.3386    XYY       1.9325
       YYY      40.6431    XXZ      -8.8164    XYZ      -0.0548
       YYZ      -7.0403    XZZ      17.7042    YZZ      19.1094
       ZZZ     -20.7532
    Hexadecapole Moments (Debye-Ang^3)
      XXXX     -92.6399   XXXY     -11.3977   XXYY     -14.0016
      XYYY     -12.6576   YYYY    -128.1133   XXXZ      16.3792
      XXYZ      10.3229   XYYZ      -2.7305   YYYZ      30.3534
      XXZZ     -33.7260   XYZZ     -11.1258   YYZZ     -46.3210
      XZZZ      13.4811   YZZZ      41.3710   ZZZZ    -115.1865
 -----------------------------------------------------------------
 Calculating analytic gradient of the SCF energy
 Gradient of CDS energy
            1           2           3           4           5           6
    1  -0.0002140  -0.0002401  -0.0005041   0.0010885  -0.0000986  -0.0000317
    2  -0.0000723  -0.0042997   0.0052403  -0.0003265  -0.0004775  -0.0000644
    3  -0.0004684  -0.0026424  -0.0029638   0.0059329   0.0001812  -0.0000394
 Gradient of SCF Energy
            1           2           3           4           5           6
    1  -0.0205411  -0.0122061   0.0265777   0.0235049  -0.0220691   0.0047337
    2  -0.0158364   0.0000470   0.0069466   0.0175821  -0.0104803   0.0017410
    3  -0.0002053   0.0023394   0.0115583  -0.0053036  -0.0086017   0.0002130
 Max gradient component =       2.658E-02
 RMS gradient           =       1.354E-02
 Computing fast CPCM-SWIG gradient
 Updating gradient with PCM contributions...
 -- total gradient after adding PCM contribution --
---------------------------------------------------
  Atom         X              Y              Z     
---------------------------------------------------
   1      -0.005361      -0.003656       0.000632
   2      -0.008234       0.000246       0.001574
   3       0.008855      -0.001004       0.005294
   4       0.006927       0.005579      -0.005221
   5      -0.005830      -0.001904      -0.002074
   6       0.003642       0.000739      -0.000205
---------------------------------------------------
 Number of fixed atoms: 0
 Gradient time:  CPU 14.03 s  wall 1.92 s
 Geometry Optimization Parameters
   NAtoms,    NIC,     NZ,  NCons,   NDum,   NFix, NCnnct, MaxDiis
        6      26       0       0       0       0       0       0


** GEOMETRY OPTIMIZATION IN DELOCALIZED INTERNAL COORDINATES **
   Searching for a Minimum

   Optimization Cycle:   1

                       Coordinates (Angstroms)
     ATOM                X               Y               Z
      1  H        -1.9482109864   -1.0479476150   -0.9925275442
      2  C        -0.8866346159   -0.5162240520    0.5272535622
      3  O        -0.8018558081   -1.7468677360    1.1520106482
      4  O        -1.1557843111   -0.5069019080   -0.8292367313
      5  H        -1.6045891373   -2.2568876969    0.9449850253
      6  H        -0.0256254412    0.1056984077    0.7623574398
   Point Group: c1    Number of degrees of freedom:    12


   Energy is   -190.303824618


 Attempting to generate delocalized internal coordinates
 Initial Hessian constructed with Jon Baker's OPTIMIZE code

 12 Hessian modes will be used to form the next step
  Hessian Eigenvalues:
     0.017899    0.017927    0.049269    0.146056    0.160000    0.160000
     0.231365    0.350633    0.485641    0.486033    0.527034    0.527061

 Minimum search - taking simple RFO step
 Searching for Lamda that Minimizes Along All modes
 Value Taken    Lamda =  -0.00059288
 Step Taken.  Stepsize is  0.072076

                             Maximum     Tolerance    Cnvgd?
         Gradient           0.007265      0.000300      NO
         Displacement       0.059446      0.001200      NO
         Energy change     *********      0.000001      NO


 New Cartesian Coordinates Obtained by Inverse Iteration

 Displacement from previous Coordinates is:  0.045135
 ----------------------------------------------------------------
             Standard Nuclear Orientation (Angstroms)
    I     Atom           X                Y                Z
 ----------------------------------------------------------------
    1      H      -1.9479040189    -1.0504440484    -0.9907678470
    2      C      -0.8707058432    -0.5187116989     0.5228804295
    3      O      -0.8100759362    -1.7457580156     1.1473296254
    4      O      -1.1623588442    -0.5116109844    -0.8242645634
    5      H      -1.6052773368    -2.2563940759     0.9421627392
    6      H      -0.0263783207     0.1137882229     0.7675020162
 ----------------------------------------------------------------
 Nuclear Repulsion Energy =          74.31118744 hartrees
 There are       13 alpha and       12 beta electrons
 Discretize the solute cavity surface with Lebedev spheres
	Using 110 Lebedev grid points for each H atom
	Using 194 Lebedev grid points for other atoms
	Atomic van der Waals radii will be scaled by 1.20
 Remove points where switching function is < 1.0e-08
 Keep 538 surface tesserae and discard 374 interior tesserae
 Molecular Surface Area = 68.058 Angst**2
 Applying Cartesian multipole field
    Component          Value
    ---------          -----
     (2,0,0)        1.00000E-11
     (0,2,0)        2.00000E-11
     (0,0,2)       -3.00000E-11
 Nucleus-field energy     =     0.0000000013 hartrees
 Requested basis set is 6-311++G(2df,2p)
 There are 42 shells and 132 basis functions
 A cutoff of  1.0D-12 yielded    898 shell pairs
 There are      8972 function pairs (     11172 Cartesian)
 Smallest overlap matrix eigenvalue = 1.18E-03
 Guess MOs from SCF MO coefficient file

 -----------------------------------------------------------------------
  General SCF calculation program by
  Eric Jon Sundstrom, Paul Horn, Yuezhi Mao, Dmitri Zuev, Alec White,
  David Stuck, Shaama M.S., Shane Yost, Joonho Lee, David Small,
  Daniel Levine, Susi Lehtola, Hugh Burton, Evgeny Epifanovsky,
  Bang C. Huynh
 -----------------------------------------------------------------------
 Exchange:     0.1500 Hartree-Fock + 1.0000 wB97M-V + LR-HF
 Correlation:  1.0000 wB97M-V
 Using SG-2 standard quadrature grid
 Nonlocal Correlation:  VV10 with C = 0.0100 and b = 6.00 and scale = 1.00000
 Grid used for NLC:  SG-1 standard quadrature
 
 Citation of the SMD model:
 Marenich, A.V.; Cramer, C.J.; Truhlar, D.G.
 J. Phys. Chem. B 2009, 113, 6378-6396.
 iSolventCode=           1
 Solvent: water                                                           
 
 vradii
            1           2           3           4           5           6
    1   1.2000000   1.8500000   1.5200000   1.5200000   1.2000000   1.2000000
 -------------------------------------------------------
 OpenMP BLAS3 based DFT computing Module                
 Release: version 1.0, May 2013, Q-Chem Inc. Pittsburgh 
 -------------------------------------------------------
 A unrestricted SCF calculation will be
 performed using Roothaan-Hall, DIIS, GDM
 SCF converges when RMS gradient is below 1.0e-07
 ---------------------------------------
  Cycle       Energy         DIIS error
 ---------------------------------------
    1    -190.2850028839      5.45e-04  Roothaan Step
 ---------------------------------------
  Cycle       Energy         DIIS error
 ---------------------------------------
    1    -190.3058938085      5.59e-04  
    2    -190.3093640235      3.22e-04  Done DIIS. Switching to GDM
 ---------------------------------------
  Cycle       Energy        RMS Gradient
 ---------------------------------------
    1    -190.3093640235      6.80e-03   Normal BFGS step
    2    -190.3095773710      6.36e-03   Normal BFGS step
    3    -190.3100273215      7.37e-04   Normal BFGS step
    4    -190.3100355242      4.51e-04   Normal BFGS step
    5    -190.3100370447      7.26e-05   Normal BFGS step
    6    -190.3100371134      3.26e-05   Normal BFGS step
    7    -190.3100371232      1.61e-05   Normal BFGS step
    8    -190.3100371249      2.80e-06   Normal BFGS step
    9    -190.3100371250      2.63e-06   Normal BFGS step
   10    -190.3100371251      4.99e-07   Normal BFGS step
   11    -190.3100371251      2.34e-07   Normal BFGS step
   12    -190.3100371251      9.01e-08  Convergence criterion met
 ---------------------------------------
 SCF time:   CPU 87.19s  wall 11.00s 
<S^2> =          0.752326119
(3)  G-ENP(liq) elect-nuc-pol free energy of system     -190.310037125 a.u.
(4)  G-CDS(liq) cavity-dispersion-solvent structure 
     free energy                                                3.7141 kcal/mol
(6)  G-S(liq) free energy of system                     -190.304118339 a.u.
 SCF   energy in the final basis set =     -190.3041183387
 Total energy in the final basis set =     -190.3041183387
 
 --------------------------------------------------------------
 
                    Orbital Energies (a.u.)
 --------------------------------------------------------------
 
 Alpha MOs
 -- Occupied --
-19.3638 -19.3638 -10.4360  -1.2158  -1.1525  -0.7921  -0.6675  -0.6000
 -0.5641  -0.5028  -0.5018  -0.4371  -0.2712
 -- Virtual --
  0.0324   0.0474   0.0602   0.0890   0.1062   0.1285   0.1558   0.2124
  0.2246   0.2259   0.2373   0.2443   0.2807   0.2852   0.3115   0.3125
  0.3519   0.3523   0.3730   0.3956   0.5514   0.5684   0.5955   0.6226
  0.6573   0.6787   0.7164   0.7963   0.8055   0.8065   0.8497   0.8945
  0.9815   1.0517   1.0755   1.1035   1.1225   1.1563   1.1772   1.1995
  1.2473   1.2971   1.3508   1.3750   1.4737   1.4917   1.5230   1.5949
  1.6116   1.8610   1.9139   1.9381   1.9983   2.1149   2.1578   2.2697
  2.3434   2.3770   2.4150   2.4920   2.7401   2.7782   2.8790   3.0430
  3.0629   3.1793   3.2789   3.3024   3.3493   3.3549   3.4543   3.5169
  3.5559   3.6593   3.7480   3.7774   3.7859   3.8635   3.8854   4.0639
  4.1058   4.2553   4.2572   4.2998   4.4268   5.1320   5.1707   5.1888
  5.1896   5.2621   5.2869   5.3128   5.4006   5.4008   5.5331   5.5663
  5.6068   5.6441   5.7353   5.9245   6.1215   6.3352   6.4253   6.7491
  7.0404   7.0464   7.1938   7.2313   7.2554   7.2792   7.3257   7.3415
  7.5897   7.6152   7.7398   7.7667  24.7340  50.5097  50.5611
 
 Beta MOs
 -- Occupied --
-19.3604 -19.3603 -10.4229  -1.2058  -1.1442  -0.7738  -0.6603  -0.5876
 -0.5348  -0.4875  -0.4853  -0.4241
 -- Virtual --
  0.0255   0.0468   0.0490   0.0602   0.0941   0.1055   0.1310   0.1577
  0.2140   0.2252   0.2263   0.2406   0.2461   0.2816   0.2889   0.3107
  0.3122   0.3604   0.3632   0.3801   0.4043   0.5585   0.5752   0.5980
  0.6513   0.6666   0.6869   0.7292   0.8045   0.8149   0.8213   0.8559
  0.9069   0.9827   1.0646   1.0795   1.1085   1.1242   1.1611   1.1834
  1.2132   1.2535   1.3073   1.3605   1.3836   1.4792   1.4945   1.5409
  1.6002   1.6175   1.8694   1.9268   1.9458   2.0124   2.1220   2.1652
  2.2833   2.3567   2.3814   2.4235   2.5193   2.7689   2.7869   2.9592
  3.0930   3.0994   3.2321   3.3208   3.3401   3.3904   3.3927   3.5170
  3.5572   3.6099   3.6979   3.7612   3.7847   3.8040   3.8757   3.9209
  4.0741   4.1158   4.2607   4.2884   4.3126   4.4480   5.1462   5.1780
  5.2055   5.2221   5.2700   5.3043   5.3370   5.4091   5.4121   5.5460
  5.5765   5.6133   5.6514   5.7429   5.9395   6.1404   6.3450   6.4435
  6.7619   7.0533   7.0608   7.2063   7.2402   7.2668   7.2847   7.3385
  7.3562   7.5977   7.6245   7.7449   7.7756  24.7461  50.5126  50.5640
 --------------------------------------------------------------
 
          Ground-State Mulliken Net Atomic Charges

     Atom                 Charge (a.u.)    Spin (a.u.)
  --------------------------------------------------------
      1 H                     0.347298      -0.007482
      2 C                    -0.123623       0.873501
      3 O                    -0.388003       0.077826
      4 O                    -0.388524       0.078318
      5 H                     0.346937      -0.007352
      6 H                     0.205914      -0.014811
  --------------------------------------------------------
  Sum of atomic charges =    -0.000000
  Sum of spin   charges =     1.000000

 -----------------------------------------------------------------
                    Cartesian Multipole Moments
 -----------------------------------------------------------------
    Charge (ESU x 10^10)
                 0.0000
    Dipole Moment (Debye)
         X      -2.3434      Y      -1.5660      Z      -0.5537
       Tot       2.8724
    Quadrupole Moments (Debye-Ang)
        XX     -10.9208     XY       8.1954     YY     -14.7405
        XZ       1.4791     YZ       2.0937     ZZ     -21.4907
    Octopole Moments (Debye-Ang^2)
       XXX      35.6347    XXY      -1.3511    XYY       1.8902
       YYY      40.6287    XXZ      -8.8252    XYZ      -0.0731
       YYZ      -7.0475    XZZ      17.7153    YZZ      19.1242
       ZZZ     -20.6542
    Hexadecapole Moments (Debye-Ang^3)
      XXXX     -92.3529   XXXY     -11.4857   XXYY     -13.8737
      XYYY     -12.7209   YYYY    -127.9688   XXXZ      16.3023
      XXYZ      10.2721   XYYZ      -2.7054   YYYZ      30.1772
      XXZZ     -33.5843   XYZZ     -11.1902   YYZZ     -46.1775
      XZZZ      13.4373   YZZZ      41.0999   ZZZZ    -114.3276
 -----------------------------------------------------------------
 Calculating analytic gradient of the SCF energy
 Gradient of CDS energy
            1           2           3           4           5           6
    1  -0.0002195  -0.0003202  -0.0004256   0.0011538  -0.0001066  -0.0000820
    2  -0.0000710  -0.0042608   0.0051944  -0.0003335  -0.0004677  -0.0000614
    3  -0.0004570  -0.0026155  -0.0029589   0.0058761   0.0001790  -0.0000238
 Gradient of SCF Energy
            1           2           3           4           5           6
    1  -0.0159187  -0.0031408   0.0180186   0.0163883  -0.0169145   0.0015671
    2  -0.0126314   0.0009500   0.0066574   0.0122816  -0.0091582   0.0019005
    3  -0.0011398   0.0012924   0.0072224  -0.0016615  -0.0065797   0.0008662
 Max gradient component =       1.802E-02
 RMS gradient           =       9.690E-03
 Computing fast CPCM-SWIG gradient
 Updating gradient with PCM contributions...
 -- total gradient after adding PCM contribution --
---------------------------------------------------
  Atom         X              Y              Z     
---------------------------------------------------
   1      -0.000786      -0.000428      -0.000104
   2       0.000928       0.001212       0.000553
   3       0.000400      -0.001486       0.001023
   4      -0.000122       0.000251      -0.001806
   5      -0.000767      -0.000405      -0.000108
   6       0.000347       0.000855       0.000441
---------------------------------------------------
 Number of fixed atoms: 0
 Gradient time:  CPU 14.26 s  wall 1.94 s
 Geometry Optimization Parameters
   NAtoms,    NIC,     NZ,  NCons,   NDum,   NFix, NCnnct, MaxDiis
        6      26       0       0       0       0       0       0

 Cartesian Hessian Update
 Hessian updated using BFGS update


** GEOMETRY OPTIMIZATION IN DELOCALIZED INTERNAL COORDINATES **
   Searching for a Minimum

   Optimization Cycle:   2

                       Coordinates (Angstroms)
     ATOM                X               Y               Z
      1  H        -1.9479040189   -1.0504440484   -0.9907678470
      2  C        -0.8707058432   -0.5187116989    0.5228804295
      3  O        -0.8100759362   -1.7457580156    1.1473296254
      4  O        -1.1623588442   -0.5116109844   -0.8242645634
      5  H        -1.6052773368   -2.2563940759    0.9421627392
      6  H        -0.0263783207    0.1137882229    0.7675020162
   Point Group: c1    Number of degrees of freedom:    12


   Energy is   -190.304118339

 Hessian updated using BFGS update

 11 Hessian modes will be used to form the next step
  Hessian Eigenvalues:
     0.017816    0.017918    0.059816    0.146056    0.157724    0.236726
     0.334497    0.421560    0.485835    0.524082    0.527049

 Minimum search - taking simple RFO step
 Searching for Lamda that Minimizes Along All modes
 Value Taken    Lamda =  -0.00004430
 Step Taken.  Stepsize is  0.018965

                             Maximum     Tolerance    Cnvgd?
         Gradient           0.002599      0.000300      NO
         Displacement       0.014364      0.001200      NO
         Energy change     -0.000294      0.000001      NO


 New Cartesian Coordinates Obtained by Inverse Iteration

 Displacement from previous Coordinates is:  0.018322
 ----------------------------------------------------------------
             Standard Nuclear Orientation (Angstroms)
    I     Atom           X                Y                Z
 ----------------------------------------------------------------
    1      H      -1.9452829914    -1.0501788768    -0.9909234860
    2      C      -0.8750054610    -0.5175885467     0.5243707634
    3      O      -0.8105731757    -1.7428591431     1.1461006802
    4      O      -1.1622526254    -0.5111539733    -0.8210579844
    5      H      -1.6029005330    -2.2558504734     0.9420745052
    6      H      -0.0266855136     0.1085004130     0.7642779215
 ----------------------------------------------------------------
 Nuclear Repulsion Energy =          74.45213412 hartrees
 There are       13 alpha and       12 beta electrons
 Discretize the solute cavity surface with Lebedev spheres
	Using 110 Lebedev grid points for each H atom
	Using 194 Lebedev grid points for other atoms
	Atomic van der Waals radii will be scaled by 1.20
 Remove points where switching function is < 1.0e-08
 Keep 538 surface tesserae and discard 374 interior tesserae
 Molecular Surface Area = 67.990 Angst**2
 Applying Cartesian multipole field
    Component          Value
    ---------          -----
     (2,0,0)        1.00000E-11
     (0,2,0)        2.00000E-11
     (0,0,2)       -3.00000E-11
 Nucleus-field energy     =     0.0000000013 hartrees
 Requested basis set is 6-311++G(2df,2p)
 There are 42 shells and 132 basis functions
 A cutoff of  1.0D-12 yielded    898 shell pairs
 There are      8972 function pairs (     11172 Cartesian)
 Smallest overlap matrix eigenvalue = 1.15E-03
 Guess MOs from SCF MO coefficient file

 -----------------------------------------------------------------------
  General SCF calculation program by
  Eric Jon Sundstrom, Paul Horn, Yuezhi Mao, Dmitri Zuev, Alec White,
  David Stuck, Shaama M.S., Shane Yost, Joonho Lee, David Small,
  Daniel Levine, Susi Lehtola, Hugh Burton, Evgeny Epifanovsky,
  Bang C. Huynh
 -----------------------------------------------------------------------
 Exchange:     0.1500 Hartree-Fock + 1.0000 wB97M-V + LR-HF
 Correlation:  1.0000 wB97M-V
 Using SG-2 standard quadrature grid
 Nonlocal Correlation:  VV10 with C = 0.0100 and b = 6.00 and scale = 1.00000
 Grid used for NLC:  SG-1 standard quadrature
 
 Citation of the SMD model:
 Marenich, A.V.; Cramer, C.J.; Truhlar, D.G.
 J. Phys. Chem. B 2009, 113, 6378-6396.
 iSolventCode=           1
 Solvent: water                                                           
 
 vradii
            1           2           3           4           5           6
    1   1.2000000   1.8500000   1.5200000   1.5200000   1.2000000   1.2000000
 -------------------------------------------------------
 OpenMP BLAS3 based DFT computing Module                
 Release: version 1.0, May 2013, Q-Chem Inc. Pittsburgh 
 -------------------------------------------------------
 A unrestricted SCF calculation will be
 performed using Roothaan-Hall, DIIS, GDM
 SCF converges when RMS gradient is below 1.0e-07
 ---------------------------------------
  Cycle       Energy         DIIS error
 ---------------------------------------
    1    -190.2852021262      5.29e-04  Roothaan Step
 ---------------------------------------
  Cycle       Energy         DIIS error
 ---------------------------------------
    1    -190.3060354746      5.59e-04  
    2    -190.3094243803      3.29e-04  Done DIIS. Switching to GDM
 ---------------------------------------
  Cycle       Energy        RMS Gradient
 ---------------------------------------
    1    -190.3094243803      6.98e-03   Normal BFGS step
    2    -190.3096233545      5.79e-03   Normal BFGS step
    3    -190.3101016637      7.21e-04   Normal BFGS step
    4    -190.3101094801      4.33e-04   Normal BFGS step
    5    -190.3101109196      1.04e-04   Normal BFGS step
    6    -190.3101109897      6.12e-05   Normal BFGS step
    7    -190.3101110014      3.06e-05   Normal BFGS step
    8    -190.3101110040      3.91e-06   Normal BFGS step
    9    -190.3101110041      3.38e-06   Normal BFGS step
   10    -190.3101110042      7.22e-07   Normal BFGS step
   11    -190.3101110042      2.54e-07   Normal BFGS step
   12    -190.3101110042      9.14e-08  Convergence criterion met
 ---------------------------------------
 SCF time:   CPU 87.74s  wall 11.00s 
<S^2> =          0.752308251
(3)  G-ENP(liq) elect-nuc-pol free energy of system     -190.310111004 a.u.
(4)  G-CDS(liq) cavity-dispersion-solvent structure 
     free energy                                                3.7492 kcal/mol
(6)  G-S(liq) free energy of system                     -190.304136252 a.u.
 SCF   energy in the final basis set =     -190.3041362522
 Total energy in the final basis set =     -190.3041362522
 
 --------------------------------------------------------------
 
                    Orbital Energies (a.u.)
 --------------------------------------------------------------
 
 Alpha MOs
 -- Occupied --
-19.3636 -19.3635 -10.4354  -1.2171  -1.1533  -0.7929  -0.6685  -0.6006
 -0.5642  -0.5030  -0.5020  -0.4370  -0.2713
 -- Virtual --
  0.0325   0.0475   0.0603   0.0890   0.1063   0.1286   0.1557   0.2127
  0.2250   0.2259   0.2377   0.2440   0.2807   0.2858   0.3115   0.3125
  0.3527   0.3544   0.3740   0.3964   0.5517   0.5684   0.5963   0.6234
  0.6579   0.6793   0.7165   0.7980   0.8050   0.8067   0.8501   0.8951
  0.9809   1.0519   1.0754   1.1037   1.1242   1.1569   1.1774   1.1989
  1.2499   1.2981   1.3548   1.3744   1.4742   1.4926   1.5244   1.5928
  1.6115   1.8641   1.9136   1.9388   2.0014   2.1159   2.1570   2.2708
  2.3446   2.3759   2.4157   2.4909   2.7395   2.7792   2.8814   3.0463
  3.0661   3.1822   3.2813   3.3028   3.3502   3.3588   3.4550   3.5180
  3.5577   3.6611   3.7508   3.7788   3.7874   3.8655   3.8882   4.0684
  4.1103   4.2595   4.2610   4.3036   4.4270   5.1317   5.1711   5.1905
  5.1920   5.2621   5.2869   5.3173   5.4016   5.4039   5.5351   5.5696
  5.6103   5.6471   5.7414   5.9319   6.1298   6.3415   6.4331   6.7587
  7.0419   7.0470   7.1942   7.2377   7.2569   7.2884   7.3261   7.3423
  7.5943   7.6158   7.7416   7.7660  24.7471  50.5119  50.5635
 
 Beta MOs
 -- Occupied --
-19.3601 -19.3601 -10.4224  -1.2071  -1.1449  -0.7748  -0.6613  -0.5882
 -0.5344  -0.4879  -0.4854  -0.4241
 -- Virtual --
  0.0254   0.0469   0.0490   0.0603   0.0940   0.1056   0.1310   0.1576
  0.2142   0.2252   0.2267   0.2410   0.2459   0.2816   0.2894   0.3107
  0.3123   0.3609   0.3643   0.3820   0.4054   0.5587   0.5754   0.5987
  0.6521   0.6671   0.6874   0.7292   0.8068   0.8144   0.8208   0.8561
  0.9075   0.9821   1.0648   1.0794   1.1088   1.1260   1.1617   1.1836
  1.2125   1.2561   1.3084   1.3646   1.3830   1.4796   1.4955   1.5422
  1.5980   1.6174   1.8725   1.9267   1.9466   2.0154   2.1231   2.1644
  2.2845   2.3578   2.3804   2.4244   2.5179   2.7688   2.7881   2.9613
  3.0956   3.1020   3.2345   3.3231   3.3403   3.3916   3.3964   3.5172
  3.5581   3.6114   3.6996   3.7641   3.7861   3.8056   3.8779   3.9236
  4.0786   4.1203   4.2646   4.2933   4.3160   4.4482   5.1461   5.1785
  5.2066   5.2241   5.2700   5.3048   5.3413   5.4100   5.4160   5.5477
  5.5797   5.6169   5.6545   5.7491   5.9470   6.1486   6.3515   6.4516
  6.7715   7.0549   7.0615   7.2067   7.2469   7.2681   7.2938   7.3389
  7.3570   7.6022   7.6252   7.7468   7.7751  24.7591  50.5148  50.5664
 --------------------------------------------------------------
 
          Ground-State Mulliken Net Atomic Charges

     Atom                 Charge (a.u.)    Spin (a.u.)
  --------------------------------------------------------
      1 H                     0.346717      -0.007586
      2 C                    -0.125884       0.872310
      3 O                    -0.385951       0.078460
      4 O                    -0.386471       0.078985
      5 H                     0.346373      -0.007462
      6 H                     0.205216      -0.014706
  --------------------------------------------------------
  Sum of atomic charges =    -0.000000
  Sum of spin   charges =     1.000000

 -----------------------------------------------------------------
                    Cartesian Multipole Moments
 -----------------------------------------------------------------
    Charge (ESU x 10^10)
                -0.0000
    Dipole Moment (Debye)
         X      -2.3377      Y      -1.5873      Z      -0.5673
       Tot       2.8820
    Quadrupole Moments (Debye-Ang)
        XX     -10.9463     XY       8.1914     YY     -14.7026
        XZ       1.4901     YZ       2.0770     ZZ     -21.4687
    Octopole Moments (Debye-Ang^2)
       XXX      35.8015    XXY      -1.3356    XYY       1.9205
       YYY      40.4424    XXZ      -8.8565    XYZ      -0.0725
       YYZ      -7.0345    XZZ      17.7210    YZZ      19.0445
       ZZZ     -20.7338
    Hexadecapole Moments (Debye-Ang^3)
      XXXX     -92.8401   XXXY     -11.5819   XXYY     -13.9286
      XYYY     -12.6906   YYYY    -127.2532   XXXZ      16.4390
      XXYZ      10.2574   XYYZ      -2.6592   YYYZ      30.0156
      XXZZ     -33.5921   XYZZ     -11.1516   YYZZ     -45.9791
      XZZZ      13.5855   YZZZ      41.0064   ZZZZ    -113.9983
 -----------------------------------------------------------------
 Calculating analytic gradient of the SCF energy
 Gradient of CDS energy
            1           2           3           4           5           6
    1  -0.0002176  -0.0002839  -0.0004365   0.0011301  -0.0001058  -0.0000863
    2  -0.0000722  -0.0042211   0.0051505  -0.0003287  -0.0004649  -0.0000637
    3  -0.0004535  -0.0026012  -0.0029275   0.0058304   0.0001763  -0.0000244
 Gradient of SCF Energy
            1           2           3           4           5           6
    1  -0.0147995  -0.0038303   0.0173174   0.0162650  -0.0157896   0.0008370
    2  -0.0119317   0.0004329   0.0079047   0.0114763  -0.0084769   0.0005947
    3  -0.0009303   0.0011048   0.0057845   0.0001821  -0.0063231   0.0001821
 Max gradient component =       1.732E-02
 RMS gradient           =       9.228E-03
 Computing fast CPCM-SWIG gradient
 Updating gradient with PCM contributions...
 -- total gradient after adding PCM contribution --
---------------------------------------------------
  Atom         X              Y              Z     
---------------------------------------------------
   1       0.000300       0.000294       0.000187
   2       0.000173       0.000618       0.000329
   3      -0.000259      -0.000292      -0.000400
   4      -0.000205      -0.000569      -0.000031
   5       0.000323       0.000348       0.000136
   6      -0.000332      -0.000401      -0.000221
---------------------------------------------------
 Number of fixed atoms: 0
 Gradient time:  CPU 13.98 s  wall 1.90 s
 Geometry Optimization Parameters
   NAtoms,    NIC,     NZ,  NCons,   NDum,   NFix, NCnnct, MaxDiis
        6      26       0       0       0       0       0       0

 Cartesian Hessian Update
 Hessian updated using BFGS update


** GEOMETRY OPTIMIZATION IN DELOCALIZED INTERNAL COORDINATES **
   Searching for a Minimum

   Optimization Cycle:   3

                       Coordinates (Angstroms)
     ATOM                X               Y               Z
      1  H        -1.9452829914   -1.0501788768   -0.9909234860
      2  C        -0.8750054610   -0.5175885467    0.5243707634
      3  O        -0.8105731757   -1.7428591431    1.1461006802
      4  O        -1.1622526254   -0.5111539733   -0.8210579844
      5  H        -1.6029005330   -2.2558504734    0.9420745052
      6  H        -0.0266855136    0.1085004130    0.7642779215
   Point Group: c1    Number of degrees of freedom:    12


   Energy is   -190.304136252

 Hessian updated using BFGS update

 12 Hessian modes will be used to form the next step
  Hessian Eigenvalues:
     0.017452    0.017918    0.066809    0.146055    0.155322    0.160000
     0.227205    0.363057    0.442855    0.485838    0.527048    0.531471

 Minimum search - taking simple RFO step
 Searching for Lamda that Minimizes Along All modes
 Value Taken    Lamda =  -0.00000437
 Step Taken.  Stepsize is  0.005810

                             Maximum     Tolerance    Cnvgd?
         Gradient           0.000629      0.000300      NO
         Displacement       0.003930      0.001200      NO
         Energy change     -0.000018      0.000001      NO


 New Cartesian Coordinates Obtained by Inverse Iteration

 Displacement from previous Coordinates is:  0.005340
 ----------------------------------------------------------------
             Standard Nuclear Orientation (Angstroms)
    I     Atom           X                Y                Z
 ----------------------------------------------------------------
    1      H      -1.9453820473    -1.0501568086    -0.9921151456
    2      C      -0.8744450039    -0.5183351885     0.5238222376
    3      O      -0.8108212726    -1.7428014420     1.1472931139
    4      O      -1.1629271767    -0.5098773373    -0.8213791396
    5      H      -1.6028662476    -2.2567792849     0.9428113563
    6      H      -0.0262585519     0.1088194610     0.7644099774
 ----------------------------------------------------------------
 Nuclear Repulsion Energy =          74.42800835 hartrees
 There are       13 alpha and       12 beta electrons
 Discretize the solute cavity surface with Lebedev spheres
	Using 110 Lebedev grid points for each H atom
	Using 194 Lebedev grid points for other atoms
	Atomic van der Waals radii will be scaled by 1.20
 Remove points where switching function is < 1.0e-08
 Keep 538 surface tesserae and discard 374 interior tesserae
 Molecular Surface Area = 68.002 Angst**2
 Applying Cartesian multipole field
    Component          Value
    ---------          -----
     (2,0,0)        1.00000E-11
     (0,2,0)        2.00000E-11
     (0,0,2)       -3.00000E-11
 Nucleus-field energy     =     0.0000000013 hartrees
 Requested basis set is 6-311++G(2df,2p)
 There are 42 shells and 132 basis functions
 A cutoff of  1.0D-12 yielded    898 shell pairs
 There are      8972 function pairs (     11172 Cartesian)
 Smallest overlap matrix eigenvalue = 1.16E-03
 Guess MOs from SCF MO coefficient file

 -----------------------------------------------------------------------
  General SCF calculation program by
  Eric Jon Sundstrom, Paul Horn, Yuezhi Mao, Dmitri Zuev, Alec White,
  David Stuck, Shaama M.S., Shane Yost, Joonho Lee, David Small,
  Daniel Levine, Susi Lehtola, Hugh Burton, Evgeny Epifanovsky,
  Bang C. Huynh
 -----------------------------------------------------------------------
 Exchange:     0.1500 Hartree-Fock + 1.0000 wB97M-V + LR-HF
 Correlation:  1.0000 wB97M-V
 Using SG-2 standard quadrature grid
 Nonlocal Correlation:  VV10 with C = 0.0100 and b = 6.00 and scale = 1.00000
 Grid used for NLC:  SG-1 standard quadrature
 
 Citation of the SMD model:
 Marenich, A.V.; Cramer, C.J.; Truhlar, D.G.
 J. Phys. Chem. B 2009, 113, 6378-6396.
 iSolventCode=           1
 Solvent: water                                                           
 
 vradii
            1           2           3           4           5           6
    1   1.2000000   1.8500000   1.5200000   1.5200000   1.2000000   1.2000000
 -------------------------------------------------------
 OpenMP BLAS3 based DFT computing Module                
 Release: version 1.0, May 2013, Q-Chem Inc. Pittsburgh 
 -------------------------------------------------------
 A unrestricted SCF calculation will be
 performed using Roothaan-Hall, DIIS, GDM
 SCF converges when RMS gradient is below 1.0e-07
 ---------------------------------------
  Cycle       Energy         DIIS error
 ---------------------------------------
    1    -190.2852160830      5.24e-04  Roothaan Step
 ---------------------------------------
  Cycle       Energy         DIIS error
 ---------------------------------------
    1    -190.3060277599      5.59e-04  
    2    -190.3094188357      3.31e-04  Done DIIS. Switching to GDM
 ---------------------------------------
  Cycle       Energy        RMS Gradient
 ---------------------------------------
    1    -190.3094188357      7.07e-03   Normal BFGS step
    2    -190.3096201503      6.42e-03   Normal BFGS step
    3    -190.3101026242      7.30e-04   Normal BFGS step
    4    -190.3101104089      4.51e-04   Normal BFGS step
    5    -190.3101119128      8.49e-05   Normal BFGS step
    6    -190.3101119763      5.01e-05   Normal BFGS step
    7    -190.3101119859      2.61e-05   Normal BFGS step
    8    -190.3101119879      4.55e-06   Normal BFGS step
    9    -190.3101119880      3.12e-06   Normal BFGS step
   10    -190.3101119881      6.89e-07   Normal BFGS step
   11    -190.3101119881      2.51e-07   Normal BFGS step
   12    -190.3101119881      1.02e-07   Normal BFGS step
   13    -190.3101119881      3.10e-08  Convergence criterion met
 ---------------------------------------
 SCF time:   CPU 93.24s  wall 12.00s 
<S^2> =          0.752312824
(3)  G-ENP(liq) elect-nuc-pol free energy of system     -190.310111988 a.u.
(4)  G-CDS(liq) cavity-dispersion-solvent structure 
     free energy                                                3.7484 kcal/mol
(6)  G-S(liq) free energy of system                     -190.304138519 a.u.
 SCF   energy in the final basis set =     -190.3041385193
 Total energy in the final basis set =     -190.3041385193
 
 --------------------------------------------------------------
 
                    Orbital Energies (a.u.)
 --------------------------------------------------------------
 
 Alpha MOs
 -- Occupied --
-19.3637 -19.3636 -10.4354  -1.2169  -1.1533  -0.7927  -0.6685  -0.6005
 -0.5639  -0.5030  -0.5020  -0.4373  -0.2710
 -- Virtual --
  0.0325   0.0475   0.0602   0.0890   0.1063   0.1286   0.1556   0.2126
  0.2249   0.2260   0.2376   0.2441   0.2807   0.2857   0.3116   0.3126
  0.3530   0.3539   0.3740   0.3964   0.5517   0.5683   0.5961   0.6232
  0.6577   0.6795   0.7164   0.7980   0.8050   0.8066   0.8500   0.8948
  0.9807   1.0520   1.0756   1.1038   1.1241   1.1574   1.1771   1.1992
  1.2492   1.2983   1.3534   1.3748   1.4738   1.4920   1.5239   1.5931
  1.6114   1.8636   1.9143   1.9388   2.0006   2.1155   2.1575   2.2714
  2.3447   2.3758   2.4158   2.4916   2.7396   2.7794   2.8809   3.0455
  3.0656   3.1814   3.2810   3.3029   3.3503   3.3582   3.4549   3.5188
  3.5578   3.6604   3.7505   3.7785   3.7874   3.8653   3.8872   4.0680
  4.1095   4.2580   4.2603   4.3026   4.4264   5.1318   5.1714   5.1899
  5.1912   5.2618   5.2866   5.3167   5.4018   5.4031   5.5337   5.5698
  5.6093   5.6465   5.7395   5.9306   6.1298   6.3439   6.4326   6.7586
  7.0410   7.0470   7.1949   7.2359   7.2564   7.2860   7.3256   7.3425
  7.5939   7.6167   7.7412   7.7659  24.7458  50.5113  50.5633
 
 Beta MOs
 -- Occupied --
-19.3602 -19.3602 -10.4224  -1.2069  -1.1449  -0.7746  -0.6613  -0.5881
 -0.5342  -0.4879  -0.4854  -0.4243
 -- Virtual --
  0.0255   0.0469   0.0492   0.0603   0.0941   0.1056   0.1310   0.1576
  0.2142   0.2252   0.2266   0.2408   0.2459   0.2815   0.2894   0.3108
  0.3123   0.3611   0.3639   0.3818   0.4055   0.5587   0.5752   0.5985
  0.6520   0.6668   0.6876   0.7292   0.8068   0.8142   0.8206   0.8563
  0.9072   0.9818   1.0648   1.0796   1.1089   1.1258   1.1621   1.1833
  1.2129   1.2554   1.3085   1.3632   1.3834   1.4793   1.4948   1.5417
  1.5984   1.6172   1.8719   1.9274   1.9467   2.0146   2.1227   2.1650
  2.2850   2.3579   2.3803   2.4244   2.5187   2.7689   2.7882   2.9608
  3.0949   3.1016   3.2339   3.3228   3.3403   3.3920   3.3959   3.5168
  3.5587   3.6116   3.6989   3.7639   3.7858   3.8054   3.8777   3.9226
  4.0782   4.1195   4.2639   4.2920   4.3147   4.4476   5.1463   5.1788
  5.2061   5.2235   5.2697   5.3046   5.3403   5.4102   5.4153   5.5463
  5.5799   5.6159   5.6539   5.7471   5.9457   6.1487   6.3538   6.4511
  6.7714   7.0540   7.0615   7.2074   7.2451   7.2677   7.2914   7.3385
  7.3573   7.6018   7.6260   7.7463   7.7749  24.7578  50.5142  50.5662
 --------------------------------------------------------------
 
          Ground-State Mulliken Net Atomic Charges

     Atom                 Charge (a.u.)    Spin (a.u.)
  --------------------------------------------------------
      1 H                     0.346873      -0.007579
      2 C                    -0.126107       0.872476
      3 O                    -0.385984       0.078449
      4 O                    -0.386487       0.078996
      5 H                     0.346542      -0.007460
      6 H                     0.205164      -0.014883
  --------------------------------------------------------
  Sum of atomic charges =     0.000000
  Sum of spin   charges =     1.000000

 -----------------------------------------------------------------
                    Cartesian Multipole Moments
 -----------------------------------------------------------------
    Charge (ESU x 10^10)
                 0.0000
    Dipole Moment (Debye)
         X      -2.3365      Y      -1.5959      Z      -0.5723
       Tot       2.8868
    Quadrupole Moments (Debye-Ang)
        XX     -10.9525     XY       8.2008     YY     -14.6847
        XZ       1.4962     YZ       2.0803     ZZ     -21.4690
    Octopole Moments (Debye-Ang^2)
       XXX      35.8185    XXY      -1.3485    XYY       1.9001
       YYY      40.3866    XXZ      -8.8692    XYZ      -0.0743
       YYZ      -7.0311    XZZ      17.7163    YZZ      19.0334
       ZZZ     -20.7554
    Hexadecapole Moments (Debye-Ang^3)
      XXXX     -92.9049   XXXY     -11.5662   XXYY     -13.9036
      XYYY     -12.6212   YYYY    -127.1269   XXXZ      16.4493
      XXYZ      10.2788   XYYZ      -2.6772   YYYZ      30.0337
      XXZZ     -33.5978   XYZZ     -11.1306   YYZZ     -45.9738
      XZZZ      13.5978   YZZZ      41.0668   ZZZZ    -114.1112
 -----------------------------------------------------------------
 Calculating analytic gradient of the SCF energy
 Gradient of CDS energy
            1           2           3           4           5           6
    1  -0.0002177  -0.0002933  -0.0004333   0.0011351  -0.0001059  -0.0000847
    2  -0.0000721  -0.0042132   0.0051484  -0.0003356  -0.0004648  -0.0000627
    3  -0.0004535  -0.0025955  -0.0029336   0.0058302   0.0001764  -0.0000240
 Gradient of SCF Energy
            1           2           3           4           5           6
    1  -0.0150819  -0.0039491   0.0175498   0.0163986  -0.0160704   0.0011530
    2  -0.0121746  -0.0001700   0.0081446   0.0120262  -0.0087517   0.0009255
    3  -0.0010739   0.0007566   0.0062324   0.0001523  -0.0063984   0.0003309
 Max gradient component =       1.755E-02
 RMS gradient           =       9.422E-03
 Computing fast CPCM-SWIG gradient
 Updating gradient with PCM contributions...
 -- total gradient after adding PCM contribution --
---------------------------------------------------
  Atom         X              Y              Z     
---------------------------------------------------
   1       0.000006       0.000085       0.000061
   2       0.000042       0.000005      -0.000023
   3      -0.000022      -0.000074       0.000021
   4      -0.000054      -0.000059      -0.000074
   5       0.000037       0.000098       0.000079
   6      -0.000009      -0.000055      -0.000064
---------------------------------------------------
 Number of fixed atoms: 0
 Gradient time:  CPU 14.66 s  wall 2.01 s
 Geometry Optimization Parameters
   NAtoms,    NIC,     NZ,  NCons,   NDum,   NFix, NCnnct, MaxDiis
        6      26       0       0       0       0       0       0

 Cartesian Hessian Update
 Hessian updated using BFGS update


** GEOMETRY OPTIMIZATION IN DELOCALIZED INTERNAL COORDINATES **
   Searching for a Minimum

   Optimization Cycle:   4

                       Coordinates (Angstroms)
     ATOM                X               Y               Z
      1  H        -1.9453820473   -1.0501568086   -0.9921151456
      2  C        -0.8744450039   -0.5183351885    0.5238222376
      3  O        -0.8108212726   -1.7428014420    1.1472931139
      4  O        -1.1629271767   -0.5098773373   -0.8213791396
      5  H        -1.6028662476   -2.2567792849    0.9428113563
      6  H        -0.0262585519    0.1088194610    0.7644099774
   Point Group: c1    Number of degrees of freedom:    12


   Energy is   -190.304138519

 Hessian updated using BFGS update

 12 Hessian modes will be used to form the next step
  Hessian Eigenvalues:
     0.015972    0.017918    0.068015    0.146046    0.154860    0.160000
     0.253314    0.348708    0.454019    0.485809    0.500985    0.527048

 Minimum search - taking simple RFO step
 Searching for Lamda that Minimizes Along All modes
 Value Taken    Lamda =  -0.00000026
 Step Taken.  Stepsize is  0.003347

                             Maximum     Tolerance    Cnvgd?
         Gradient           0.000111      0.000300     YES
         Displacement       0.002448      0.001200      NO
         Energy change     -0.000002      0.000001      NO


 New Cartesian Coordinates Obtained by Inverse Iteration

 Displacement from previous Coordinates is:  0.002831
 ----------------------------------------------------------------
             Standard Nuclear Orientation (Angstroms)
    I     Atom           X                Y                Z
 ----------------------------------------------------------------
    1      H      -1.9451317181    -1.0509905375    -0.9918420804
    2      C      -0.8743887599    -0.5180439156     0.5240076242
    3      O      -0.8111264072    -1.7425692644     1.1472768402
    4      O      -1.1633289644    -0.5095861474    -0.8210477070
    5      H      -1.6029986037    -2.2567548332     0.9421208132
    6      H      -0.0257258467     0.1088140978     0.7643269099
 ----------------------------------------------------------------
 Nuclear Repulsion Energy =          74.43004172 hartrees
 There are       13 alpha and       12 beta electrons
 Discretize the solute cavity surface with Lebedev spheres
	Using 110 Lebedev grid points for each H atom
	Using 194 Lebedev grid points for other atoms
	Atomic van der Waals radii will be scaled by 1.20
 Remove points where switching function is < 1.0e-08
 Keep 538 surface tesserae and discard 374 interior tesserae
 Molecular Surface Area = 68.002 Angst**2
 Applying Cartesian multipole field
    Component          Value
    ---------          -----
     (2,0,0)        1.00000E-11
     (0,2,0)        2.00000E-11
     (0,0,2)       -3.00000E-11
 Nucleus-field energy     =     0.0000000013 hartrees
 Requested basis set is 6-311++G(2df,2p)
 There are 42 shells and 132 basis functions
 A cutoff of  1.0D-12 yielded    898 shell pairs
 There are      8972 function pairs (     11172 Cartesian)
 Smallest overlap matrix eigenvalue = 1.16E-03
 Guess MOs from SCF MO coefficient file

 -----------------------------------------------------------------------
  General SCF calculation program by
  Eric Jon Sundstrom, Paul Horn, Yuezhi Mao, Dmitri Zuev, Alec White,
  David Stuck, Shaama M.S., Shane Yost, Joonho Lee, David Small,
  Daniel Levine, Susi Lehtola, Hugh Burton, Evgeny Epifanovsky,
  Bang C. Huynh
 -----------------------------------------------------------------------
 Exchange:     0.1500 Hartree-Fock + 1.0000 wB97M-V + LR-HF
 Correlation:  1.0000 wB97M-V
 Using SG-2 standard quadrature grid
 Nonlocal Correlation:  VV10 with C = 0.0100 and b = 6.00 and scale = 1.00000
 Grid used for NLC:  SG-1 standard quadrature
 
 Citation of the SMD model:
 Marenich, A.V.; Cramer, C.J.; Truhlar, D.G.
 J. Phys. Chem. B 2009, 113, 6378-6396.
 iSolventCode=           1
 Solvent: water                                                           
 
 vradii
            1           2           3           4           5           6
    1   1.2000000   1.8500000   1.5200000   1.5200000   1.2000000   1.2000000
 -------------------------------------------------------
 OpenMP BLAS3 based DFT computing Module                
 Release: version 1.0, May 2013, Q-Chem Inc. Pittsburgh 
 -------------------------------------------------------
 A unrestricted SCF calculation will be
 performed using Roothaan-Hall, DIIS, GDM
 SCF converges when RMS gradient is below 1.0e-07
 ---------------------------------------
  Cycle       Energy         DIIS error
 ---------------------------------------
    1    -190.2852006311      5.25e-04  Roothaan Step
 ---------------------------------------
  Cycle       Energy         DIIS error
 ---------------------------------------
    1    -190.3060227235      5.60e-04  
    2    -190.3094198792      3.31e-04  Done DIIS. Switching to GDM
 ---------------------------------------
  Cycle       Energy        RMS Gradient
 ---------------------------------------
    1    -190.3094198792      7.07e-03   Normal BFGS step
    2    -190.3096212547      6.42e-03   Normal BFGS step
    3    -190.3101041977      7.31e-04   Normal BFGS step
    4    -190.3101119988      4.49e-04   Normal BFGS step
    5    -190.3101134965      8.65e-05   Normal BFGS step
    6    -190.3101135606      5.12e-05   Normal BFGS step
    7    -190.3101135704      2.66e-05   Normal BFGS step
    8    -190.3101135724      4.55e-06   Normal BFGS step
    9    -190.3101135725      3.20e-06   Normal BFGS step
   10    -190.3101135726      6.94e-07   Normal BFGS step
   11    -190.3101135726      2.54e-07   Normal BFGS step
   12    -190.3101135726      1.02e-07   Normal BFGS step
   13    -190.3101135726      3.21e-08  Convergence criterion met
 ---------------------------------------
 SCF time:   CPU 91.71s  wall 12.00s 
<S^2> =          0.752313138
(3)  G-ENP(liq) elect-nuc-pol free energy of system     -190.310113573 a.u.
(4)  G-CDS(liq) cavity-dispersion-solvent structure 
     free energy                                                3.7493 kcal/mol
(6)  G-S(liq) free energy of system                     -190.304138691 a.u.
 SCF   energy in the final basis set =     -190.3041386906
 Total energy in the final basis set =     -190.3041386906
 
 --------------------------------------------------------------
 
                    Orbital Energies (a.u.)
 --------------------------------------------------------------
 
 Alpha MOs
 -- Occupied --
-19.3637 -19.3636 -10.4354  -1.2169  -1.1533  -0.7927  -0.6686  -0.6005
 -0.5639  -0.5029  -0.5021  -0.4373  -0.2709
 -- Virtual --
  0.0325   0.0475   0.0602   0.0890   0.1063   0.1286   0.1556   0.2126
  0.2249   0.2260   0.2376   0.2440   0.2807   0.2857   0.3116   0.3126
  0.3530   0.3539   0.3740   0.3964   0.5516   0.5682   0.5960   0.6232
  0.6577   0.6794   0.7163   0.7980   0.8049   0.8064   0.8503   0.8947
  0.9809   1.0520   1.0757   1.1038   1.1241   1.1574   1.1770   1.1992
  1.2492   1.2981   1.3533   1.3749   1.4738   1.4918   1.5238   1.5930
  1.6113   1.8639   1.9145   1.9389   2.0004   2.1152   2.1575   2.2715
  2.3448   2.3760   2.4156   2.4917   2.7392   2.7797   2.8809   3.0458
  3.0653   3.1815   3.2810   3.3030   3.3500   3.3582   3.4551   3.5189
  3.5577   3.6605   3.7506   3.7786   3.7875   3.8652   3.8869   4.0677
  4.1096   4.2579   4.2602   4.3023   4.4264   5.1318   5.1714   5.1898
  5.1910   5.2618   5.2861   5.3170   5.4017   5.4031   5.5339   5.5699
  5.6089   5.6463   5.7395   5.9306   6.1296   6.3441   6.4326   6.7587
  7.0410   7.0470   7.1950   7.2355   7.2565   7.2855   7.3255   7.3423
  7.5939   7.6169   7.7412   7.7658  24.7459  50.5112  50.5633
 
 Beta MOs
 -- Occupied --
-19.3602 -19.3602 -10.4224  -1.2069  -1.1449  -0.7746  -0.6614  -0.5881
 -0.5340  -0.4881  -0.4854  -0.4242
 -- Virtual --
  0.0255   0.0469   0.0492   0.0603   0.0941   0.1056   0.1310   0.1576
  0.2141   0.2253   0.2266   0.2408   0.2459   0.2815   0.2893   0.3108
  0.3123   0.3611   0.3639   0.3819   0.4055   0.5587   0.5752   0.5985
  0.6520   0.6668   0.6876   0.7292   0.8069   0.8139   0.8204   0.8566
  0.9071   0.9821   1.0648   1.0797   1.1089   1.1259   1.1621   1.1833
  1.2129   1.2555   1.3084   1.3631   1.3835   1.4792   1.4947   1.5416
  1.5982   1.6172   1.8722   1.9275   1.9468   2.0145   2.1224   2.1649
  2.2851   2.3580   2.3805   2.4242   2.5187   2.7684   2.7885   2.9608
  3.0952   3.1014   3.2339   3.3229   3.3404   3.3919   3.3959   3.5169
  3.5587   3.6116   3.6990   3.7639   3.7859   3.8055   3.8776   3.9223
  4.0779   4.1196   4.2638   4.2919   4.3144   4.4476   5.1463   5.1787
  5.2060   5.2232   5.2697   5.3042   5.3406   5.4101   5.4153   5.5465
  5.5800   5.6155   5.6537   5.7471   5.9457   6.1484   6.3540   6.4510
  6.7716   7.0540   7.0615   7.2075   7.2446   7.2678   7.2909   7.3383
  7.3571   7.6019   7.6262   7.7463   7.7748  24.7578  50.5141  50.5662
 --------------------------------------------------------------
 
          Ground-State Mulliken Net Atomic Charges

     Atom                 Charge (a.u.)    Spin (a.u.)
  --------------------------------------------------------
      1 H                     0.346881      -0.007566
      2 C                    -0.126148       0.872337
      3 O                    -0.385981       0.078489
      4 O                    -0.386467       0.079060
      5 H                     0.346560      -0.007451
      6 H                     0.205154      -0.014868
  --------------------------------------------------------
  Sum of atomic charges =     0.000000
  Sum of spin   charges =     1.000000

 -----------------------------------------------------------------
                    Cartesian Multipole Moments
 -----------------------------------------------------------------
    Charge (ESU x 10^10)
                 0.0000
    Dipole Moment (Debye)
         X      -2.3340      Y      -1.5993      Z      -0.5744
       Tot       2.8871
    Quadrupole Moments (Debye-Ang)
        XX     -10.9584     XY       8.2046     YY     -14.6779
        XZ       1.4985     YZ       2.0851     ZZ     -21.4720
    Octopole Moments (Debye-Ang^2)
       XXX      35.8421    XXY      -1.3585    XYY       1.8953
       YYY      40.3591    XXZ      -8.8716    XYZ      -0.0834
       YYZ      -7.0455    XZZ      17.7292    YZZ      19.0313
       ZZZ     -20.7691
    Hexadecapole Moments (Debye-Ang^3)
      XXXX     -92.9819   XXXY     -11.5576   XXYY     -13.8892
      XYYY     -12.6050   YYYY    -127.0555   XXXZ      16.4503
      XXYZ      10.2917   XYYZ      -2.6522   YYYZ      30.0536
      XXZZ     -33.6216   XYZZ     -11.1401   YYZZ     -45.9722
      XZZZ      13.6145   YZZZ      41.0747   ZZZZ    -114.1014
 -----------------------------------------------------------------
 Calculating analytic gradient of the SCF energy
 Gradient of CDS energy
            1           2           3           4           5           6
    1  -0.0002177  -0.0002974  -0.0004316   0.0011371  -0.0001060  -0.0000845
    2  -0.0000722  -0.0042130   0.0051476  -0.0003353  -0.0004646  -0.0000624
    3  -0.0004532  -0.0025957  -0.0029321   0.0058285   0.0001763  -0.0000239
 Gradient of SCF Energy
            1           2           3           4           5           6
    1  -0.0151560  -0.0039779   0.0176038   0.0164554  -0.0161544   0.0012292
    2  -0.0122728  -0.0002049   0.0082483   0.0120881  -0.0088351   0.0009763
    3  -0.0011112   0.0007441   0.0062289   0.0002317  -0.0064425   0.0003490
 Max gradient component =       1.760E-02
 RMS gradient           =       9.472E-03
 Computing fast CPCM-SWIG gradient
 Updating gradient with PCM contributions...
 -- total gradient after adding PCM contribution --
---------------------------------------------------
  Atom         X              Y              Z     
---------------------------------------------------
   1      -0.000076       0.000011       0.000030
   2       0.000012      -0.000029      -0.000035
   3       0.000031       0.000020      -0.000002
   4       0.000015      -0.000026       0.000002
   5      -0.000047       0.000027       0.000050
   6       0.000066      -0.000002      -0.000044
---------------------------------------------------
 Number of fixed atoms: 0
 Gradient time:  CPU 14.33 s  wall 1.96 s
 Geometry Optimization Parameters
   NAtoms,    NIC,     NZ,  NCons,   NDum,   NFix, NCnnct, MaxDiis
        6      26       0       0       0       0       0       0

 Cartesian Hessian Update
 Hessian updated using BFGS update


** GEOMETRY OPTIMIZATION IN DELOCALIZED INTERNAL COORDINATES **
   Searching for a Minimum

   Optimization Cycle:   5

                       Coordinates (Angstroms)
     ATOM                X               Y               Z
      1  H        -1.9451317181   -1.0509905375   -0.9918420804
      2  C        -0.8743887599   -0.5180439156    0.5240076242
      3  O        -0.8111264072   -1.7425692644    1.1472768402
      4  O        -1.1633289644   -0.5095861474   -0.8210477070
      5  H        -1.6029986037   -2.2567548332    0.9421208132
      6  H        -0.0257258467    0.1088140978    0.7643269099
   Point Group: c1    Number of degrees of freedom:    12


   Energy is   -190.304138691

 Hessian updated using BFGS update

 12 Hessian modes will be used to form the next step
  Hessian Eigenvalues:
     0.008554    0.017931    0.067778    0.146020    0.155279    0.160001
     0.262876    0.373446    0.453503    0.485765    0.527048    0.593820

 Minimum search - taking simple RFO step
 Searching for Lamda that Minimizes Along All modes
 Value Taken    Lamda =  -0.00000010
 Step Taken.  Stepsize is  0.003266

                             Maximum     Tolerance    Cnvgd?
         Gradient           0.000029      0.000300     YES
         Displacement       0.002477      0.001200      NO
         Energy change     -0.000000      0.000001     YES


                       Distance Matrix (Angstroms)
             H (  1)   C (  2)   O (  3)   O (  4)   H (  5)
   C (  2)  1.930887
   O (  3)  2.517951  1.375474
   O (  4)  0.966181  1.375766  2.349169
   H (  5)  2.304590  1.931012  0.966197  2.520847
   H (  6)  2.848402  1.082097  2.047224  2.046942  2.848739
 
 Final energy is   -190.304138690580     


 ******************************
 **  OPTIMIZATION CONVERGED  **
 ******************************

                       Coordinates (Angstroms)
     ATOM                X               Y               Z
      1  H        -1.9451317181   -1.0509905375   -0.9918420804
      2  C        -0.8743887599   -0.5180439156    0.5240076242
      3  O        -0.8111264072   -1.7425692644    1.1472768402
      4  O        -1.1633289644   -0.5095861474   -0.8210477070
      5  H        -1.6029986037   -2.2567548332    0.9421208132
      6  H        -0.0257258467    0.1088140978    0.7643269099

Z-matrix Print:
$molecule
0 2
C 
H  1 1.082097
O  1 1.375474 2 112.272980
H  3 0.966197 1 109.868490 2 177.393328 0
O  1 1.375766 2 112.227346 3 -134.604143 0
H  5 0.966181 1 109.835721 2 -177.794804 0
$end

 
 --------------------------------------------------------------
 
                    Orbital Energies (a.u.)
 --------------------------------------------------------------
 
 Alpha MOs
 -- Occupied --
-19.3637 -19.3636 -10.4354  -1.2169  -1.1533  -0.7927  -0.6686  -0.6005
 -0.5639  -0.5029  -0.5021  -0.4373  -0.2709
 -- Virtual --
  0.0325   0.0475   0.0602   0.0890   0.1063   0.1286   0.1556   0.2126
  0.2249   0.2260   0.2376   0.2440   0.2807   0.2857   0.3116   0.3126
  0.3530   0.3539   0.3740   0.3964   0.5516   0.5682   0.5960   0.6232
  0.6577   0.6794   0.7163   0.7980   0.8049   0.8064   0.8503   0.8947
  0.9809   1.0520   1.0757   1.1038   1.1241   1.1574   1.1770   1.1992
  1.2492   1.2981   1.3533   1.3749   1.4738   1.4918   1.5238   1.5930
  1.6113   1.8639   1.9145   1.9389   2.0004   2.1152   2.1575   2.2715
  2.3448   2.3760   2.4156   2.4917   2.7392   2.7797   2.8809   3.0458
  3.0653   3.1815   3.2810   3.3030   3.3500   3.3582   3.4551   3.5189
  3.5577   3.6605   3.7506   3.7786   3.7875   3.8652   3.8869   4.0677
  4.1096   4.2579   4.2602   4.3023   4.4264   5.1318   5.1714   5.1898
  5.1910   5.2618   5.2861   5.3170   5.4017   5.4031   5.5339   5.5699
  5.6089   5.6463   5.7395   5.9306   6.1296   6.3441   6.4326   6.7587
  7.0410   7.0470   7.1950   7.2355   7.2565   7.2855   7.3255   7.3423
  7.5939   7.6169   7.7412   7.7658  24.7459  50.5112  50.5633
 
 Beta MOs
 -- Occupied --
-19.3602 -19.3602 -10.4224  -1.2069  -1.1449  -0.7746  -0.6614  -0.5881
 -0.5340  -0.4881  -0.4854  -0.4242
 -- Virtual --
  0.0255   0.0469   0.0492   0.0603   0.0941   0.1056   0.1310   0.1576
  0.2141   0.2253   0.2266   0.2408   0.2459   0.2815   0.2893   0.3108
  0.3123   0.3611   0.3639   0.3819   0.4055   0.5587   0.5752   0.5985
  0.6520   0.6668   0.6876   0.7292   0.8069   0.8139   0.8204   0.8566
  0.9071   0.9821   1.0648   1.0797   1.1089   1.1259   1.1621   1.1833
  1.2129   1.2555   1.3084   1.3631   1.3835   1.4792   1.4947   1.5416
  1.5982   1.6172   1.8722   1.9275   1.9468   2.0145   2.1224   2.1649
  2.2851   2.3580   2.3805   2.4242   2.5187   2.7684   2.7885   2.9608
  3.0952   3.1014   3.2339   3.3229   3.3404   3.3919   3.3959   3.5169
  3.5587   3.6116   3.6990   3.7639   3.7859   3.8055   3.8776   3.9223
  4.0779   4.1196   4.2638   4.2919   4.3144   4.4476   5.1463   5.1787
  5.2060   5.2232   5.2697   5.3042   5.3406   5.4101   5.4153   5.5465
  5.5800   5.6155   5.6537   5.7471   5.9457   6.1484   6.3540   6.4510
  6.7716   7.0540   7.0615   7.2075   7.2446   7.2678   7.2909   7.3383
  7.3571   7.6019   7.6262   7.7463   7.7748  24.7578  50.5141  50.5662
 --------------------------------------------------------------
 
          Ground-State Mulliken Net Atomic Charges

     Atom                 Charge (a.u.)    Spin (a.u.)
  --------------------------------------------------------
      1 H                     0.346881      -0.007566
      2 C                    -0.126148       0.872337
      3 O                    -0.385981       0.078489
      4 O                    -0.386467       0.079060
      5 H                     0.346560      -0.007451
      6 H                     0.205154      -0.014868
  --------------------------------------------------------
  Sum of atomic charges =     0.000000
  Sum of spin   charges =     1.000000

 -----------------------------------------------------------------
                    Cartesian Multipole Moments
 -----------------------------------------------------------------
    Charge (ESU x 10^10)
                 0.0000
    Dipole Moment (Debye)
         X      -2.3340      Y      -1.5993      Z      -0.5744
       Tot       2.8871
    Quadrupole Moments (Debye-Ang)
        XX     -10.9584     XY       8.2046     YY     -14.6779
        XZ       1.4985     YZ       2.0851     ZZ     -21.4720
    Octopole Moments (Debye-Ang^2)
       XXX      35.8421    XXY      -1.3585    XYY       1.8953
       YYY      40.3591    XXZ      -8.8716    XYZ      -0.0834
       YYZ      -7.0455    XZZ      17.7292    YZZ      19.0313
       ZZZ     -20.7691
    Hexadecapole Moments (Debye-Ang^3)
      XXXX     -92.9819   XXXY     -11.5576   XXYY     -13.8892
      XYYY     -12.6050   YYYY    -127.0555   XXXZ      16.4503
      XXYZ      10.2917   XYYZ      -2.6522   YYYZ      30.0536
      XXZZ     -33.6216   XYZZ     -11.1401   YYZZ     -45.9722
      XZZZ      13.6145   YZZZ      41.0747   ZZZZ    -114.1014
 -----------------------------------------------------------------
 Total job time:  70.41s(wall), 538.89s(cpu) 
 Tue Jul 25 18:17:38 2023

        *************************************************************
        *                                                           *
        *  Thank you very much for using Q-Chem.  Have a nice day.  *
        *                                                           *
        *************************************************************


