
Running Job 1 of 1 Q_in.in
qchem Q_in.in_258358.0 /scratch/ari.fischer/qChem1854171.hpc-mn1/qchem258358/ 0
/usr/local/qchem-5.4.1/exe/qcprog.exe_s Q_in.in_258358.0 /scratch/ari.fischer/qChem1854171.hpc-mn1/qchem258358/
                  Welcome to Q-Chem
     A Quantum Leap Into The Future Of Chemistry


 Q-Chem 5.4, Q-Chem, Inc., Pleasanton, CA (2021)

 License issued to: Nanyang Technological University (site)

 E. Epifanovsky,  A. T. B. Gilbert,  Xintian Feng,  Joonho Lee,  Yuezhi Mao,  
 N. Mardirossian,  P. Pokhilko,  A. White,  M. Wormit,  M. P. Coons,  
 A. L. Dempwolff,  Zhengting Gan,  D. Hait,  P. R. Horn,  L. D. Jacobson,  
 I. Kaliman,  J. Kussmann,  A. W. Lange,  Ka Un Lao,  D. S. Levine,  Jie Liu,  
 S. C. McKenzie,  A. F. Morrison,  K. Nanda,  F. Plasser,  D. R. Rehn,  
 M. L. Vidal,  Zhi-Qiang You,  Ying Zhu,  B. Alam,  B. Albrecht,  
 A. Aldossary,  E. Alguire,  J. H. Andersen,  D. Barton,  K. Begam,  A. Behn,  
 Y. A. Bernard,  E. J. Berquist,  H. Burton,  A. Carreras,  K. Carter-Fenk,  
 R. Chakraborty,  A. D. Chien,  K. D. Closser,  V. Cofer-Shabica,  
 S. Dasgupta,  Jia Deng,  M. de Wergifosse,  M. Diedenhofen,  Hainam Do,  
 S. Ehlert,  Po-Tung Fang,  S. Fatehi,  Qingguo Feng,  T. Friedhoff,  
 J. Gayvert,  Qinghui Ge,  G. Gidofalvi,  M. Goldey,  J. Gomes,  
 C. Gonzalez-Espinoza,  S. Gulania,  A. Gunina,  M. W. D. Hanson-Heine,  
 P. H. P. Harbach,  A. W. Hauser,  M. F. Herbst,  M. Hernandez Vera,  
 M. Hodecker,  Z. C. Holden,  S. Houck,  Xunkun Huang,  Kerwin Hui,  
 B. C. Huynh,  M. Ivanov,  Hyunjun Ji,  Hanjie Jiang,  B. Kaduk,  S. Kaehler,  
 K. Khistyaev,  Jaehoon Kim,  P. Klunzinger,  Z. Koczor-Benda,  
 Joong Hoon Koh,  D. Kosenkov,  L. Koulias,  T. Kowalczyk,  C. M. Krauter,  
 K. Kue,  A. Kunitsa,  T. Kus,  A. Landau,  K. V. Lawler,  D. Lefrancois,  
 S. Lehtola,  Rain Li,  Yi-Pei Li,  Jiashu Liang,  M. Liebenthal,  
 Hung-Hsuan Lin,  You-Sheng Lin,  Fenglai Liu,  Kuan-Yu Liu,  
 M. Loipersberger,  A. Luenser,  A. Manjanath,  P. Manohar,  E. Mansoor,  
 S. F. Manzer,  Shan-Ping Mao,  A. V. Marenich,  T. Markovich,  S. Mason,  
 S. A. Maurer,  P. F. McLaughlin,  M. F. S. J. Menger,  J.-M. Mewes,  
 S. A. Mewes,  P. Morgante,  J. W. Mullinax,  K. J. Oosterbaan,  G. Paran,  
 Alexander C. Paul,  Suranjan K. Paul,  F. Pavosevic,  Zheng Pei,  S. Prager,  
 E. I. Proynov,  E. Ramos,  B. Rana,  A. E. Rask,  A. Rettig,  R. M. Richard,  
 F. Rob,  E. Rossomme,  T. Scheele,  M. Scheurer,  M. Schneider,  
 N. Sergueev,  S. M. Sharada,  W. Skomorowski,  D. W. Small,  C. J. Stein,  
 Yu-Chuan Su,  E. J. Sundstrom,  Zhen Tao,  J. Thirman,  T. Tsuchimochi,  
 N. M. Tubman,  S. P. Veccham,  O. Vydrov,  J. Wenzel,  J. Witte,  A. Yamada,  
 Kun Yao,  S. Yeganeh,  S. R. Yost,  A. Zech,  Igor Ying Zhang,  Xing Zhang,  
 Yu Zhang,  D. Zuev,  A. Aspuru-Guzik,  A. T. Bell,  N. A. Besley,  
 K. B. Bravaya,  B. R. Brooks,  D. Casanova,  Jeng-Da Chai,  S. Coriani,  
 C. J. Cramer,  A. E. DePrince, III,  R. A. DiStasio Jr.,  A. Dreuw,  
 B. D. Dunietz,  T. R. Furlani,  W. A. Goddard III,  S. Grimme,  
 S. Hammes-Schiffer,  T. Head-Gordon,  W. J. Hehre,  Chao-Ping Hsu,  
 T.-C. Jagau,  Yousung Jung,  A. Klamt,  Jing Kong,  D. S. Lambrecht,  
 WanZhen Liang,  N. J. Mayhall,  C. W. McCurdy,  J. B. Neaton,  
 C. Ochsenfeld,  J. A. Parkhill,  R. Peverati,  V. A. Rassolov,  Yihan Shao,  
 L. V. Slipchenko,  T. Stauch,  R. P. Steele,  J. E. Subotnik,  
 A. J. W. Thom,  A. Tkatchenko,  D. G. Truhlar,  T. Van Voorhis,  
 T. A. Wesolowski,  K. B. Whaley,  H. L. Woodcock III,  P. M. Zimmerman,  
 S. Faraji,  P. M. W. Gill,  M. Head-Gordon,  J. M. Herbert,  A. I. Krylov

 Additional authors for Version 5.4.1: 
 S. Kotaru,  Shaozhi Li,  Xiangyuan Li,  F. Matz,  A. Molle,  Haisheng Ren,  
 Yingli Su,  Hung-Yi Tsai,  C. Utku,  Fang Wang

 Contributors to earlier versions of Q-Chem not listed above: 
 R. D. Adamson,  B. Austin,  R. Baer,  J. Baker,  G. J. O. Beran,  
 K. Brandhorst,  S. T. Brown,  E. F. C. Byrd,  A. K. Chakraborty,  
 G. K. L. Chan,  Chun-Min Chang,  Yunqing Chen,  C.-L. Cheng,  
 Siu Hung Chien,  D. M. Chipman,  D. L. Crittenden,  H. Dachsel,  
 R. J. Doerksen,  A. D. Dutoi,  R. G. Edgar,  J. Fosso-Tande,  
 L. Fusti-Molnar,  D. Ghosh,  A. Ghysels,  A. Golubeva-Zadorozhnaya,  
 J. Gonthier,  M. S. Gordon,  S. R. Gwaltney,  G. Hawkins,  J. E. Herr,  
 A. Heyden,  S. Hirata,  E. G. Hohenstein,  G. Kedziora,  F. J. Keil,  
 C. Kelley,  Jihan Kim,  R. A. King,  R. Z. Khaliullin,  P. P. Korambath,  
 W. Kurlancheek,  A. Laurent,  A. M. Lee,  M. S. Lee,  S. V. Levchenko,  
 Ching Yeh Lin,  D. Liotard,  E. Livshits,  R. C. Lochan,  I. Lotan,  
 L. A. Martinez-Martinez,  P. E. Maslen,  N. Nair,  D. P. O'Neill,  
 D. Neuhauser,  E. Neuscamman,  C. M. Oana,  R. Olivares-Amaya,  R. Olson,  
 T. M. Perrine,  B. Peters,  P. A. Pieniazek,  A. Prociuk,  Y. M. Rhee,  
 J. Ritchie,  M. A. Rohrdanz,  E. Rosta,  N. J. Russ,  H. F. Schaefer III,  
 M. W. Schmidt,  N. E. Schultz,  S. Sharma,  N. Shenvi,  C. D. Sherrill,  
 A. C. Simmonett,  A. Sodt,  T. Stein,  D. Stuck,  K. S. Thanthiriwatte,  
 V. Vanovschi,  L. Vogt,  Tao Wang,  A. Warshel,  M. A. Watson,  
 C. F. Williams,  Q. Wu,  X. Xu,  Jun Yang,  W. Zhang,  Yan Zhao

 Please cite Q-Chem as follows:
 Y. Shao et al., Mol. Phys. 113, 184-215 (2015)
 DOI: 10.1080/00268976.2014.952696

 Q-Chem 5.4.1 for Intel X86 EM64T Linux

 Parts of Q-Chem use Armadillo 9.800.1 (Horizon Scraper).
 http://arma.sourceforge.net/

 Q-Chem begins on Thu Dec  7 15:59:44 2023  

 Host: 
0

     Scratch files written to /scratch/ari.fischer/qChem1854171.hpc-mn1/qchem258358//
 Aug1521 |scratch|qcdevops|jenkins|workspace|build_RNUM 8249   
 Processing $rem in /usr/local/qchem-5.4.1/config/preferences:
 Processing $rem in /home/ari.fischer/.qchemrc:
 Symmetry turned off for PCM/SM12/SMD calculation

 Checking the input file for inconsistencies... 	...done.

--------------------------------------------------------------
User input:
--------------------------------------------------------------
$molecule
-1 2
C         0.2893629763    0.0315406487    0.5566337965
O         0.6541680611   -1.1565349345    0.4174602413
C        -1.2484564108    0.2451230646    0.4406601187
O        -1.9097781564   -0.9131982675    0.1604466214
O        -1.5417753257    1.2702625386   -0.4185445904
O         0.9759381516    1.0444137214    0.7745928551
O        -1.7384232270    0.7473130169    1.7662032033
O        -1.5108119417   -0.1144755690    2.7119986494
H        -1.2217318192   -1.6053856353    0.1817768981
H        -2.4856635083    1.2394733162   -0.6302879932
$end

$rem
BASIS = def2-TZVPPD
JOB_TYPE = SP
METHOD = wB97M-V
SCF_ALGORITHM = DIIS_GDM
MAX_SCF_CYCLES = 400
SCF_CONVERGENCE = 7
THRESH = 12
Solvent_method = SMD
$end
--------------------------------------------------------------
 ----------------------------------------------------------------
             Standard Nuclear Orientation (Angstroms)
    I     Atom           X                Y                Z
 ----------------------------------------------------------------
    1      C       0.2893629763     0.0315406487     0.5566337965
    2      O       0.6541680611    -1.1565349345     0.4174602413
    3      C      -1.2484564108     0.2451230646     0.4406601187
    4      O      -1.9097781564    -0.9131982675     0.1604466214
    5      O      -1.5417753257     1.2702625386    -0.4185445904
    6      O       0.9759381516     1.0444137214     0.7745928551
    7      O      -1.7384232270     0.7473130169     1.7662032033
    8      O      -1.5108119417    -0.1144755690     2.7119986494
    9      H      -1.2217318192    -1.6053856353     0.1817768981
   10      H      -2.4856635083     1.2394733162    -0.6302879932
 ----------------------------------------------------------------
 Nuclear Repulsion Energy =         403.67858861 hartrees
 There are       32 alpha and       31 beta electrons
 Requested basis set is def2-TZVPPD
 There are 124 shells and 348 basis functions

 Total QAlloc Memory Limit 288000 MB
 Mega-Array Size       188 MB
 MEM_STATIC part       192 MB
 
 Citation of the SMD model:
 Marenich, A.V.; Cramer, C.J.; Truhlar, D.G.
 J. Phys. Chem. B 2009, 113, 6378-6396.
 iSolventCode=           1
 Solvent: water                                                           
 
 vradii
            1           2           3           4           5           6
    1   1.8500000   1.5200000   1.8500000   1.5200000   1.5200000   1.5200000
            7           8           9          10
    1   1.5200000   1.5200000   1.2000000   1.2000000
 Changing PCM_VDW_RADII to SMD_RADIUS
 Discretize the solute cavity surface with Lebedev spheres
	Using 110 Lebedev grid points for each H atom
	Using 194 Lebedev grid points for other atoms
	Atomic van der Waals radii will be scaled by 1.20
 Remove points where switching function is < 1.0e-08
 Keep 960 surface tesserae and discard 812 interior tesserae
 Molecular Surface Area = 114.611 Angst**2

                       Distance Matrix (Angstroms)
             C (  1)   O (  2)   C (  3)   O (  4)   O (  5)   O (  6)
   O (  2)  1.250590
   C (  3)  1.556906  2.363295
   O (  4)  2.426050  2.588260  1.362929
   O (  5)  2.416293  3.377931  1.369372  2.288702
   O (  6)  1.242901  2.252833  2.387113  3.540731  2.795258
   O (  7)  2.467246  3.341891  1.499776  2.316272  2.255054  2.905050
   O (  8)  2.812036  3.322338  2.314545  2.703248  3.423267  3.358644
   H (  9)  2.259082  1.943197  1.868721  0.976210  2.955024  3.493225
   H ( 10)  3.250947  4.086218  1.914770  2.364508  0.967837  3.740912
             O (  7)   O (  8)   H (  9)
   O (  8)  1.299621
   H (  9)  2.883152  2.951000
   H ( 10)  2.558077  3.735558  3.217172
 
 A cutoff of  1.0D-12 yielded   7335 shell pairs
 There are     58619 function pairs (     76653 Cartesian)
 Smallest overlap matrix eigenvalue = 6.33E-06

 Scale SEOQF with 1.000000e-01/1.000000e-01/1.000000e-01

 Standard Electronic Orientation quadrupole field applied
 Nucleus-field energy     =    -0.0000000025 hartrees
 Guess from superposition of atomic densities
 Warning:  Energy on first SCF cycle will be non-variational
 SAD guess density has 62.000000 electrons

 -----------------------------------------------------------------------
  General SCF calculation program by
  Eric Jon Sundstrom, Paul Horn, Yuezhi Mao, Dmitri Zuev, Alec White,
  David Stuck, Shaama M.S., Shane Yost, Joonho Lee, David Small,
  Daniel Levine, Susi Lehtola, Hugh Burton, Evgeny Epifanovsky,
  Bang C. Huynh
 -----------------------------------------------------------------------
 Exchange:     0.1500 Hartree-Fock + 1.0000 wB97M-V + LR-HF
 Correlation:  1.0000 wB97M-V
 Using SG-2 standard quadrature grid
 Nonlocal Correlation:  VV10 with C = 0.0100 and b = 6.00 and scale = 1.00000
 Grid used for NLC:  SG-1 standard quadrature
 
 Citation of the SMD model:
 Marenich, A.V.; Cramer, C.J.; Truhlar, D.G.
 J. Phys. Chem. B 2009, 113, 6378-6396.
 iSolventCode=           1
 Solvent: water                                                           
 
 vradii
            1           2           3           4           5           6
    1   1.8500000   1.5200000   1.8500000   1.5200000   1.5200000   1.5200000
            7           8           9          10
    1   1.5200000   1.5200000   1.2000000   1.2000000
 using 4 threads for integral computing
 -------------------------------------------------------
 OpenMP Integral computing Module                
 Release: version 1.0, May 2013, Q-Chem Inc. Pittsburgh 
 -------------------------------------------------------
 -------------------------------------------------------
 OpenMP BLAS3 based DFT computing Module                
 Release: version 1.0, May 2013, Q-Chem Inc. Pittsburgh 
 -------------------------------------------------------
 A unrestricted SCF calculation will be
 performed using DIIS, GDM
 SCF converges when RMS gradient is below 1.0e-07
 ---------------------------------------
  Cycle       Energy         DIIS error
 ---------------------------------------
    1    -530.0035670474      1.25e-02  
    2    -528.6489035313      2.42e-03  Done DIIS. Switching to GDM
 ---------------------------------------
  Cycle       Energy        RMS Gradient
 ---------------------------------------
    1    -528.6489035313      1.51e-01   Descent step
    2    -528.8744709036      4.09e-02   Normal BFGS step
    3    -528.9132089265      2.49e-02   Normal BFGS step
    4    -528.9144638782      1.53e-02   Normal BFGS step
    5    -528.9168360770      6.77e-03   Normal BFGS step
    6    -528.9170288131      4.38e-03   Normal BFGS step
    7    -528.9171372486      1.93e-03   Normal BFGS step
    8    -528.9171603267      2.09e-03   Normal BFGS step
    9    -528.9171686436      1.58e-03   Normal BFGS step
   10    -528.9171746754      7.27e-04   Normal BFGS step
   11    -528.9171787832      7.60e-04   Normal BFGS step
   12    -528.9171814594      5.96e-04   Normal BFGS step
   13    -528.9171826684      2.50e-04   Normal BFGS step
   14    -528.9171828923      3.31e-05   Normal BFGS step
   15    -528.9171829225      2.47e-05   Normal BFGS step
   16    -528.9171829303      8.50e-06   Normal BFGS step
   17    -528.9171829311      2.84e-06   Normal BFGS step
   18    -528.9171829313      1.21e-06   Normal BFGS step
   19    -528.9171829314      5.22e-07   Normal BFGS step
   20    -528.9171829314      1.76e-07   Normal BFGS step
   21    -528.9171829316      6.54e-08  Convergence criterion met
 ---------------------------------------
 SCF time:   CPU 2068.45s  wall 520.00s 
<S^2> =          0.753940711
(3)  G-ENP(liq) elect-nuc-pol free energy of system     -528.917182932 a.u.
(4)  G-CDS(liq) cavity-dispersion-solvent structure 
     free energy                                                3.9645 kcal/mol
(6)  G-S(liq) free energy of system                     -528.910865046 a.u.
 SCF   energy in the final basis set =     -528.9108650460
 Total energy in the final basis set =     -528.9108650460
 
 --------------------------------------------------------------
 
                    Orbital Energies (a.u.)
 --------------------------------------------------------------
 
 Alpha MOs
 -- Occupied --
-19.4562 -19.4160 -19.3642 -19.3578 -19.3019 -19.2969 -10.5107 -10.4557
 -1.3461  -1.2350  -1.1812  -1.1630  -1.0969  -0.9918  -0.8085  -0.7164
 -0.6745  -0.6650  -0.6112  -0.6066  -0.5873  -0.5458  -0.5272  -0.5249
 -0.5089  -0.4756  -0.4345  -0.4138  -0.3989  -0.3836  -0.3740  -0.3656
 -- Virtual --
  0.0405   0.0579   0.0631   0.0668   0.0893   0.0941   0.0962   0.1056
  0.1104   0.1184   0.1429   0.1439   0.1488   0.1510   0.1560   0.1637
  0.1650   0.1831   0.1992   0.2039   0.2095   0.2279   0.2332   0.2421
  0.2492   0.2595   0.2781   0.2834   0.2897   0.2987   0.3051   0.3137
  0.3162   0.3281   0.3362   0.3599   0.3654   0.3751   0.3842   0.3912
  0.3931   0.4003   0.4083   0.4148   0.4207   0.4347   0.4403   0.4460
  0.4600   0.4663   0.4829   0.4910   0.4992   0.5095   0.5239   0.5341
  0.5362   0.5430   0.5527   0.5719   0.5781   0.5907   0.5930   0.6013
  0.6098   0.6205   0.6236   0.6335   0.6442   0.6587   0.6628   0.6844
  0.6913   0.7026   0.7082   0.7195   0.7293   0.7342   0.7416   0.7628
  0.7669   0.7723   0.7959   0.8047   0.8103   0.8269   0.8352   0.8422
  0.8647   0.8813   0.8916   0.9040   0.9356   0.9424   0.9497   0.9568
  0.9746   0.9894   1.0231   1.0286   1.0529   1.0671   1.0815   1.0951
  1.1100   1.1244   1.1302   1.1433   1.1557   1.1779   1.1952   1.2137
  1.2261   1.2491   1.2724   1.3036   1.3143   1.3185   1.3368   1.3498
  1.3645   1.3831   1.4057   1.4208   1.4297   1.4517   1.4943   1.5222
  1.5357   1.5853   1.6252   1.6630   1.7172   1.7371   1.7975   1.8330
  1.8428   1.8624   1.8941   1.9220   1.9386   1.9537   1.9805   1.9863
  2.0603   2.0817   2.0974   2.1091   2.1498   2.1889   2.1984   2.2492
  2.2541   2.2716   2.3121   2.3193   2.3429   2.3907   2.4048   2.4144
  2.4399   2.4576   2.4698   2.5350   2.5705   2.5924   2.6102   2.6927
  2.7590   2.8062   2.8729   2.8894   2.9224   2.9670   3.0250   3.0299
  3.0716   3.0994   3.1116   3.1372   3.1689   3.2080   3.2264   3.2373
  3.2790   3.3087   3.3171   3.3273   3.3513   3.3748   3.3923   3.4243
  3.4459   3.4513   3.4801   3.5117   3.5506   3.5634   3.5800   3.5972
  3.6111   3.6269   3.6394   3.6651   3.6796   3.7200   3.7536   3.7729
  3.7864   3.8227   3.8507   3.8728   3.9425   4.0081   4.0440   4.0823
  4.0937   4.1677   4.1935   4.2197   4.2965   4.3470   4.4071   4.4485
  4.4938   4.5535   4.5822   4.6426   4.6813   4.7803   4.8002   4.8525
  4.8764   4.9065   4.9735   5.0062   5.1001   5.1435   5.1852   5.2376
  5.2515   5.2825   5.2907   5.3108   5.3284   5.3439   5.4485   5.4638
  5.5310   5.5491   5.6189   5.6403   5.6506   5.6819   5.6943   5.7256
  5.7628   5.8305   5.8716   5.9961   6.1031   6.1598   6.1853   6.2548
  6.2943   6.3183   6.3266   6.3364   6.4771   6.5000   6.5426   6.5774
  6.5960   6.5992   6.6370   6.6548   6.6806   6.6945   6.7205   6.7311
  6.7475   6.7850   6.8010   6.8078   6.8350   6.8811   6.9420   6.9510
  7.0105   7.0533   7.0683   7.1183   7.1476   7.1970   7.2318   7.2337
  7.3175   7.3378   7.3729   7.4150   7.4586   7.5327   7.5559   7.5880
  7.6919   7.7665   7.7852   8.6997  23.2868  24.0322  44.4196  44.6291
 44.6777  44.7611  44.9005  44.9760
 
 Beta MOs
 -- Occupied --
-19.4459 -19.3971 -19.3643 -19.3577 -19.3017 -19.2969 -10.5111 -10.4556
 -1.3219  -1.2315  -1.1810  -1.1629  -1.0968  -0.9569  -0.8021  -0.7104
 -0.6710  -0.6547  -0.6024  -0.5776  -0.5507  -0.5412  -0.5249  -0.5180
 -0.5036  -0.4695  -0.4316  -0.3939  -0.3835  -0.3739  -0.3640
 -- Virtual --
 -0.0290   0.0408   0.0581   0.0635   0.0673   0.0899   0.0942   0.0968
  0.1058   0.1113   0.1196   0.1429   0.1444   0.1490   0.1521   0.1560
  0.1649   0.1662   0.1838   0.2017   0.2041   0.2114   0.2293   0.2389
  0.2459   0.2495   0.2610   0.2793   0.2853   0.2903   0.3013   0.3061
  0.3145   0.3186   0.3285   0.3367   0.3617   0.3683   0.3762   0.3850
  0.3930   0.3944   0.4004   0.4086   0.4154   0.4223   0.4352   0.4407
  0.4463   0.4607   0.4688   0.4840   0.4915   0.4999   0.5102   0.5257
  0.5356   0.5379   0.5440   0.5532   0.5731   0.5786   0.5925   0.5950
  0.6019   0.6102   0.6217   0.6237   0.6341   0.6445   0.6596   0.6631
  0.6856   0.6918   0.7036   0.7088   0.7197   0.7297   0.7350   0.7420
  0.7637   0.7675   0.7730   0.7961   0.8054   0.8107   0.8274   0.8360
  0.8426   0.8659   0.8824   0.8942   0.9052   0.9371   0.9445   0.9514
  0.9577   0.9774   0.9915   1.0234   1.0293   1.0536   1.0680   1.0872
  1.0967   1.1142   1.1256   1.1337   1.1441   1.1568   1.1785   1.1974
  1.2158   1.2272   1.2505   1.2730   1.3048   1.3148   1.3199   1.3378
  1.3502   1.3654   1.3839   1.4088   1.4219   1.4335   1.4521   1.4969
  1.5225   1.5363   1.5882   1.6279   1.6667   1.7349   1.7416   1.8089
  1.8410   1.8525   1.8660   1.8989   1.9264   1.9465   1.9617   1.9828
  1.9882   2.0648   2.0905   2.1031   2.1131   2.1545   2.1935   2.2031
  2.2499   2.2553   2.2747   2.3147   2.3217   2.3539   2.3911   2.4064
  2.4185   2.4414   2.4650   2.4712   2.5414   2.5755   2.5955   2.6114
  2.6969   2.7596   2.8086   2.8782   2.8940   2.9244   2.9711   3.0306
  3.0482   3.0740   3.1147   3.1164   3.1553   3.1865   3.2224   3.2347
  3.2402   3.2814   3.3117   3.3188   3.3345   3.3536   3.3803   3.3971
  3.4265   3.4533   3.4551   3.4839   3.5190   3.5547   3.5657   3.5839
  3.5989   3.6123   3.6285   3.6416   3.6673   3.6816   3.7226   3.7568
  3.7771   3.7888   3.8260   3.8511   3.8744   3.9426   4.0095   4.0450
  4.0829   4.0942   4.1681   4.1940   4.2203   4.2972   4.3472   4.4079
  4.4635   4.4948   4.5564   4.5849   4.6446   4.6850   4.7829   4.8036
  4.8762   4.8837   4.9236   4.9965   5.0196   5.1096   5.1574   5.2101
  5.2442   5.2868   5.3041   5.3099   5.3220   5.3301   5.3499   5.4512
  5.4672   5.5424   5.5602   5.6309   5.6419   5.6598   5.6895   5.6979
  5.7261   5.7733   5.8395   5.8826   5.9972   6.1087   6.1654   6.1905
  6.2630   6.2964   6.3204   6.3356   6.3799   6.4988   6.5714   6.5754
  6.5936   6.6006   6.6139   6.6446   6.6614   6.7090   6.7138   6.7365
  6.7407   6.7601   6.7971   6.8019   6.8154   6.8591   6.8825   6.9428
  6.9533   7.0118   7.0594   7.0699   7.1272   7.1641   7.2043   7.2335
  7.2666   7.3193   7.3418   7.3739   7.4166   7.4599   7.5389   7.5617
  7.5899   7.7044   7.7700   7.7864   8.7173  23.2865  24.0323  44.4340
 44.6294  44.6780  44.7632  44.9048  44.9798
 --------------------------------------------------------------
 
          Ground-State Mulliken Net Atomic Charges

     Atom                 Charge (a.u.)    Spin (a.u.)
  --------------------------------------------------------
      1 C                     0.525746       0.007659
      2 O                    -0.809758       0.005036
      3 C                     1.028412      -0.009712
      4 O                    -0.566487       0.001960
      5 O                    -0.459758       0.000279
      6 O                    -0.804946       0.000385
      7 O                    -0.022437       0.300434
      8 O                    -0.362609       0.692838
      9 H                     0.280724      -0.000814
     10 H                     0.191112       0.001934
  --------------------------------------------------------
  Sum of atomic charges =    -1.000000
  Sum of spin   charges =     1.000000

 -----------------------------------------------------------------
                    Cartesian Multipole Moments
 -----------------------------------------------------------------
    Charge (ESU x 10^10)
                -4.8032
    Dipole Moment (Debye)
         X      -3.5921      Y      -0.9687      Z      -5.7805
       Tot       6.8742
    Quadrupole Moments (Debye-Ang)
        XX     -51.4547     XY      -3.0557     YY     -54.3889
        XZ       3.9098     YZ      -1.8713     ZZ     -57.6486
    Octopole Moments (Debye-Ang^2)
       XXX      87.9391    XXY       5.5302    XYY      25.3809
       YYY     -27.5631    XXZ     -54.7170    XYZ       1.8571
       YYZ     -42.1930    XZZ      47.2719    YZZ      -7.7661
       ZZZ    -136.0584
    Hexadecapole Moments (Debye-Ang^3)
      XXXX    -525.1907   XXXY     -22.6541   XXYY    -134.7094
      XYYY      30.4800   YYYY    -260.1640   XXXZ     127.3046
      XXYZ     -16.5833   XYYZ      33.8087   YYYZ     -15.1814
      XXZZ    -192.1123   XYZZ       6.3647   YYZZ    -122.7113
      XZZZ     143.6850   YZZZ     -15.6209   ZZZZ    -527.6820
 -----------------------------------------------------------------
 Total job time:  520.46s(wall), 2071.34s(cpu) 
 Thu Dec  7 16:08:25 2023

        *************************************************************
        *                                                           *
        *  Thank you very much for using Q-Chem.  Have a nice day.  *
        *                                                           *
        *************************************************************


