
Running Job 1 of 1 Q_in.in
qchem Q_in.in_208993.0 /scratch/ari.fischer/qChem1410461.hpc-mn1/qchem208993/ 0
/usr/local/qchem-5.4.1/exe/qcprog.exe_s Q_in.in_208993.0 /scratch/ari.fischer/qChem1410461.hpc-mn1/qchem208993/
                  Welcome to Q-Chem
     A Quantum Leap Into The Future Of Chemistry


 Q-Chem 5.4, Q-Chem, Inc., Pleasanton, CA (2021)

 License issued to: Nanyang Technological University (site)

 E. Epifanovsky,  A. T. B. Gilbert,  Xintian Feng,  Joonho Lee,  Yuezhi Mao,  
 N. Mardirossian,  P. Pokhilko,  A. White,  M. Wormit,  M. P. Coons,  
 A. L. Dempwolff,  Zhengting Gan,  D. Hait,  P. R. Horn,  L. D. Jacobson,  
 I. Kaliman,  J. Kussmann,  A. W. Lange,  Ka Un Lao,  D. S. Levine,  Jie Liu,  
 S. C. McKenzie,  A. F. Morrison,  K. Nanda,  F. Plasser,  D. R. Rehn,  
 M. L. Vidal,  Zhi-Qiang You,  Ying Zhu,  B. Alam,  B. Albrecht,  
 A. Aldossary,  E. Alguire,  J. H. Andersen,  D. Barton,  K. Begam,  A. Behn,  
 Y. A. Bernard,  E. J. Berquist,  H. Burton,  A. Carreras,  K. Carter-Fenk,  
 R. Chakraborty,  A. D. Chien,  K. D. Closser,  V. Cofer-Shabica,  
 S. Dasgupta,  Jia Deng,  M. de Wergifosse,  M. Diedenhofen,  Hainam Do,  
 S. Ehlert,  Po-Tung Fang,  S. Fatehi,  Qingguo Feng,  T. Friedhoff,  
 J. Gayvert,  Qinghui Ge,  G. Gidofalvi,  M. Goldey,  J. Gomes,  
 C. Gonzalez-Espinoza,  S. Gulania,  A. Gunina,  M. W. D. Hanson-Heine,  
 P. H. P. Harbach,  A. W. Hauser,  M. F. Herbst,  M. Hernandez Vera,  
 M. Hodecker,  Z. C. Holden,  S. Houck,  Xunkun Huang,  Kerwin Hui,  
 B. C. Huynh,  M. Ivanov,  Hyunjun Ji,  Hanjie Jiang,  B. Kaduk,  S. Kaehler,  
 K. Khistyaev,  Jaehoon Kim,  P. Klunzinger,  Z. Koczor-Benda,  
 Joong Hoon Koh,  D. Kosenkov,  L. Koulias,  T. Kowalczyk,  C. M. Krauter,  
 K. Kue,  A. Kunitsa,  T. Kus,  A. Landau,  K. V. Lawler,  D. Lefrancois,  
 S. Lehtola,  Rain Li,  Yi-Pei Li,  Jiashu Liang,  M. Liebenthal,  
 Hung-Hsuan Lin,  You-Sheng Lin,  Fenglai Liu,  Kuan-Yu Liu,  
 M. Loipersberger,  A. Luenser,  A. Manjanath,  P. Manohar,  E. Mansoor,  
 S. F. Manzer,  Shan-Ping Mao,  A. V. Marenich,  T. Markovich,  S. Mason,  
 S. A. Maurer,  P. F. McLaughlin,  M. F. S. J. Menger,  J.-M. Mewes,  
 S. A. Mewes,  P. Morgante,  J. W. Mullinax,  K. J. Oosterbaan,  G. Paran,  
 Alexander C. Paul,  Suranjan K. Paul,  F. Pavosevic,  Zheng Pei,  S. Prager,  
 E. I. Proynov,  E. Ramos,  B. Rana,  A. E. Rask,  A. Rettig,  R. M. Richard,  
 F. Rob,  E. Rossomme,  T. Scheele,  M. Scheurer,  M. Schneider,  
 N. Sergueev,  S. M. Sharada,  W. Skomorowski,  D. W. Small,  C. J. Stein,  
 Yu-Chuan Su,  E. J. Sundstrom,  Zhen Tao,  J. Thirman,  T. Tsuchimochi,  
 N. M. Tubman,  S. P. Veccham,  O. Vydrov,  J. Wenzel,  J. Witte,  A. Yamada,  
 Kun Yao,  S. Yeganeh,  S. R. Yost,  A. Zech,  Igor Ying Zhang,  Xing Zhang,  
 Yu Zhang,  D. Zuev,  A. Aspuru-Guzik,  A. T. Bell,  N. A. Besley,  
 K. B. Bravaya,  B. R. Brooks,  D. Casanova,  Jeng-Da Chai,  S. Coriani,  
 C. J. Cramer,  A. E. DePrince, III,  R. A. DiStasio Jr.,  A. Dreuw,  
 B. D. Dunietz,  T. R. Furlani,  W. A. Goddard III,  S. Grimme,  
 S. Hammes-Schiffer,  T. Head-Gordon,  W. J. Hehre,  Chao-Ping Hsu,  
 T.-C. Jagau,  Yousung Jung,  A. Klamt,  Jing Kong,  D. S. Lambrecht,  
 WanZhen Liang,  N. J. Mayhall,  C. W. McCurdy,  J. B. Neaton,  
 C. Ochsenfeld,  J. A. Parkhill,  R. Peverati,  V. A. Rassolov,  Yihan Shao,  
 L. V. Slipchenko,  T. Stauch,  R. P. Steele,  J. E. Subotnik,  
 A. J. W. Thom,  A. Tkatchenko,  D. G. Truhlar,  T. Van Voorhis,  
 T. A. Wesolowski,  K. B. Whaley,  H. L. Woodcock III,  P. M. Zimmerman,  
 S. Faraji,  P. M. W. Gill,  M. Head-Gordon,  J. M. Herbert,  A. I. Krylov

 Additional authors for Version 5.4.1: 
 S. Kotaru,  Shaozhi Li,  Xiangyuan Li,  F. Matz,  A. Molle,  Haisheng Ren,  
 Yingli Su,  Hung-Yi Tsai,  C. Utku,  Fang Wang

 Contributors to earlier versions of Q-Chem not listed above: 
 R. D. Adamson,  B. Austin,  R. Baer,  J. Baker,  G. J. O. Beran,  
 K. Brandhorst,  S. T. Brown,  E. F. C. Byrd,  A. K. Chakraborty,  
 G. K. L. Chan,  Chun-Min Chang,  Yunqing Chen,  C.-L. Cheng,  
 Siu Hung Chien,  D. M. Chipman,  D. L. Crittenden,  H. Dachsel,  
 R. J. Doerksen,  A. D. Dutoi,  R. G. Edgar,  J. Fosso-Tande,  
 L. Fusti-Molnar,  D. Ghosh,  A. Ghysels,  A. Golubeva-Zadorozhnaya,  
 J. Gonthier,  M. S. Gordon,  S. R. Gwaltney,  G. Hawkins,  J. E. Herr,  
 A. Heyden,  S. Hirata,  E. G. Hohenstein,  G. Kedziora,  F. J. Keil,  
 C. Kelley,  Jihan Kim,  R. A. King,  R. Z. Khaliullin,  P. P. Korambath,  
 W. Kurlancheek,  A. Laurent,  A. M. Lee,  M. S. Lee,  S. V. Levchenko,  
 Ching Yeh Lin,  D. Liotard,  E. Livshits,  R. C. Lochan,  I. Lotan,  
 L. A. Martinez-Martinez,  P. E. Maslen,  N. Nair,  D. P. O'Neill,  
 D. Neuhauser,  E. Neuscamman,  C. M. Oana,  R. Olivares-Amaya,  R. Olson,  
 T. M. Perrine,  B. Peters,  P. A. Pieniazek,  A. Prociuk,  Y. M. Rhee,  
 J. Ritchie,  M. A. Rohrdanz,  E. Rosta,  N. J. Russ,  H. F. Schaefer III,  
 M. W. Schmidt,  N. E. Schultz,  S. Sharma,  N. Shenvi,  C. D. Sherrill,  
 A. C. Simmonett,  A. Sodt,  T. Stein,  D. Stuck,  K. S. Thanthiriwatte,  
 V. Vanovschi,  L. Vogt,  Tao Wang,  A. Warshel,  M. A. Watson,  
 C. F. Williams,  Q. Wu,  X. Xu,  Jun Yang,  W. Zhang,  Yan Zhao

 Please cite Q-Chem as follows:
 Y. Shao et al., Mol. Phys. 113, 184-215 (2015)
 DOI: 10.1080/00268976.2014.952696

 Q-Chem 5.4.1 for Intel X86 EM64T Linux

 Parts of Q-Chem use Armadillo 9.800.1 (Horizon Scraper).
 http://arma.sourceforge.net/

 Q-Chem begins on Wed Jan 25 03:56:29 2023  

 Host: 
0

     Scratch files written to /scratch/ari.fischer/qChem1410461.hpc-mn1/qchem208993//
 Aug1521 |scratch|qcdevops|jenkins|workspace|build_RNUM 8249   
 Processing $rem in /usr/local/qchem-5.4.1/config/preferences:
 Processing $rem in /home/ari.fischer/.qchemrc:
 Symmetry turned off for PCM/SM12/SMD calculation


!!********************************************.
!!******************Warning*******************.
!!Desired Analytical derivatives not available.
!!Finite difference job might take a long time.
!!********************************************.
!!********************************************.


 2-order derivative to be evaluated numerically with 1-order analytical derivatives

 Checking the input file for inconsistencies... 	...done.

--------------------------------------------------------------
User input:
--------------------------------------------------------------
$molecule
0 1
C         1.8235784383   -0.0637334893    0.0002473030
O         2.3417852248    1.1510612460    0.0007760691
O         2.4376891661   -1.0978774708    0.0006843887
C         0.2881145663   -0.0022133723   -0.0008982110
O        -0.3258508336    1.0319556106   -0.0015152341
O        -0.2300177268   -1.2169567043   -0.0008235433
H         3.3109425424    1.0843720479    0.0015034206
H        -1.1991530757   -1.1507164572   -0.0014270296
$end

$rem
BASIS = 6-311++G(2df,2p)
GUI = 2
JOB_TYPE = Frequency
METHOD = wB97M-V
SOLVENT_METHOD = SMD
SCF_ALGORITHM = DIIS_GDM
MAX_SCF_CYCLES = 400
SCF_CONVERGENCE = 7
THRESH = 12
SYMMETRY_IGNORE = 1
$end
--------------------------------------------------------------
 ----------------------------------------------------------------
             Standard Nuclear Orientation (Angstroms)
    I     Atom           X                Y                Z
 ----------------------------------------------------------------
    1      C       1.8235784383    -0.0637334893     0.0002473030
    2      O       2.3417852248     1.1510612460     0.0007760691
    3      O       2.4376891661    -1.0978774708     0.0006843887
    4      C       0.2881145663    -0.0022133723    -0.0008982110
    5      O      -0.3258508336     1.0319556106    -0.0015152341
    6      O      -0.2300177268    -1.2169567043    -0.0008235433
    7      H       3.3109425424     1.0843720479     0.0015034206
    8      H      -1.1991530757    -1.1507164572    -0.0014270296
 ----------------------------------------------------------------
 Nuclear Repulsion Energy =         232.69010695 hartrees
 There are       23 alpha and       23 beta electrons
 Requested basis set is 6-311++G(2df,2p)
 There are 60 shells and 224 basis functions

 Total QAlloc Memory Limit 288000 MB
 Mega-Array Size       188 MB
 MEM_STATIC part       192 MB
 
 Citation of the SMD model:
 Marenich, A.V.; Cramer, C.J.; Truhlar, D.G.
 J. Phys. Chem. B 2009, 113, 6378-6396.
 iSolventCode=           1
 Solvent: water                                                           
 
 vradii
            1           2           3           4           5           6
    1   1.8500000   1.5200000   1.5200000   1.8500000   1.5200000   1.5200000
            7           8
    1   1.2000000   1.2000000
 Changing PCM_VDW_RADII to SMD_RADIUS
 Discretize the solute cavity surface with Lebedev spheres
	Using 110 Lebedev grid points for each H atom
	Using 194 Lebedev grid points for other atoms
	Atomic van der Waals radii will be scaled by 1.20
 Remove points where switching function is < 1.0e-08
 Keep 774 surface tesserae and discard 610 interior tesserae
 Molecular Surface Area = 95.717 Angst**2

                       Distance Matrix (Angstroms)
             C (  1)   O (  2)   O (  3)   C (  4)   O (  5)   O (  6)
   O (  2)  1.320706
   O (  3)  1.202741  2.250983
   C (  4)  1.536696  2.355336  2.412707
   O (  5)  2.412589  2.670295  3.489032  1.202688
   O (  6)  2.355246  3.495952  2.670364  1.320630  2.250953
   H (  7)  1.878936  0.971449  2.350486  3.212190  3.637172  4.223094
   H (  8)  3.212233  4.223320  3.637227  1.879102  2.350896  0.971397
             H (  7)
   H (  8)  5.033547
 
 A cutoff of  1.0D-12 yielded   1720 shell pairs
 There are     24368 function pairs (     31341 Cartesian)
 Smallest overlap matrix eigenvalue = 7.34E-05
 Guess from superposition of atomic densities
 Warning:  Energy on first SCF cycle will be non-variational
 SAD guess density has 46.000000 electrons

 -----------------------------------------------------------------------
  General SCF calculation program by
  Eric Jon Sundstrom, Paul Horn, Yuezhi Mao, Dmitri Zuev, Alec White,
  David Stuck, Shaama M.S., Shane Yost, Joonho Lee, David Small,
  Daniel Levine, Susi Lehtola, Hugh Burton, Evgeny Epifanovsky,
  Bang C. Huynh
 -----------------------------------------------------------------------
 Exchange:     0.1500 Hartree-Fock + 1.0000 wB97M-V + LR-HF
 Correlation:  1.0000 wB97M-V
 Using SG-2 standard quadrature grid
 Nonlocal Correlation:  VV10 with C = 0.0100 and b = 6.00 and scale = 1.00000
 Grid used for NLC:  SG-1 standard quadrature
 using 8 threads for integral computing
 -------------------------------------------------------
 OpenMP Integral computing Module                
 Release: version 1.0, May 2013, Q-Chem Inc. Pittsburgh 
 -------------------------------------------------------
 
 Citation of the SMD model:
 Marenich, A.V.; Cramer, C.J.; Truhlar, D.G.
 J. Phys. Chem. B 2009, 113, 6378-6396.
 iSolventCode=           1
 Solvent: water                                                           
 
 vradii
            1           2           3           4           5           6
    1   1.8500000   1.5200000   1.5200000   1.8500000   1.5200000   1.5200000
            7           8
    1   1.2000000   1.2000000
 -------------------------------------------------------
 OpenMP BLAS3 based DFT computing Module                
 Release: version 1.0, May 2013, Q-Chem Inc. Pittsburgh 
 -------------------------------------------------------
 A restricted SCF calculation will be
 performed using DIIS, GDM
 SCF converges when RMS gradient is below 1.0e-07
 ---------------------------------------
  Cycle       Energy         DIIS error
 ---------------------------------------
    1    -379.5796714123      3.65e-02  
    2    -378.1945428658      6.36e-03  Done DIIS. Switching to GDM
 ---------------------------------------
  Cycle       Energy        RMS Gradient
 ---------------------------------------
    1    -378.1945428658      2.00e-01   Descent step
    2    -378.3761850802      3.66e-02   Normal BFGS step
    3    -378.3896993502      2.15e-02   Normal BFGS step
    4    -378.3907987904      9.02e-03   Normal BFGS step
    5    -378.3916306694      6.45e-04   Normal BFGS step
    6    -378.3916401792      4.36e-04   Normal BFGS step
    7    -378.3916412118      1.75e-04   Normal BFGS step
    8    -378.3916413056      2.48e-05   Normal BFGS step
    9    -378.3916413109      8.36e-06   Normal BFGS step
   10    -378.3916413117      2.98e-06   Normal BFGS step
   11    -378.3916413117      2.76e-06   Normal BFGS step
   12    -378.3916413117      1.56e-07   Normal BFGS step
   13    -378.3916413117      1.01e-07   Normal BFGS step
   14    -378.3916413117      2.86e-08  Convergence criterion met
 ---------------------------------------
 SCF time:   CPU 248.15s  wall 32.00s 
(3)  G-ENP(liq) elect-nuc-pol free energy of system     -378.391641312 a.u.
(4)  G-CDS(liq) cavity-dispersion-solvent structure 
     free energy                                                5.8506 kcal/mol
(6)  G-S(liq) free energy of system                     -378.382317718 a.u.
 SCF   energy in the final basis set =     -378.3823177175
 Total energy in the final basis set =     -378.3823177175
 
 --------------------------------------------------------------
 
                    Orbital Energies (a.u.)
 --------------------------------------------------------------
 
 Alpha MOs
 -- Occupied --
-19.4009 -19.4009 -19.3549 -19.3549 -10.5124 -10.5123  -1.2812  -1.2559
 -1.1900  -1.1731  -0.8535  -0.7546  -0.6572  -0.6344  -0.6278  -0.6176
 -0.5625  -0.5588  -0.5205  -0.4637  -0.4595  -0.4507  -0.3966
 -- Virtual --
  0.0107   0.0319   0.0424   0.0745   0.0844   0.0863   0.1113   0.1115
  0.1366   0.1406   0.1581   0.1648   0.2082   0.2166   0.2216   0.2482
  0.2682   0.2759   0.2776   0.3001   0.3036   0.3158   0.3276   0.3350
  0.3459   0.3470   0.3523   0.3574   0.4032   0.4117   0.4175   0.4393
  0.4420   0.5328   0.5924   0.5950   0.5950   0.6362   0.6824   0.6867
  0.7117   0.7269   0.7291   0.7565   0.8392   0.8483   0.8538   0.8711
  0.8715   0.9284   0.9749   1.0530   1.0532   1.0941   1.0958   1.1096
  1.1185   1.1321   1.1405   1.1540   1.1642   1.1799   1.2202   1.2623
  1.2833   1.2835   1.3576   1.3933   1.4476   1.4756   1.5331   1.5879
  1.5902   1.5987   1.6601   1.6700   1.6847   1.7471   1.8117   1.8360
  1.8374   1.8875   1.9596   1.9951   2.0171   2.0604   2.1729   2.2797
  2.3204   2.3677   2.4187   2.4216   2.4806   2.5983   2.6228   2.6663
  2.6668   2.7182   2.7659   2.8166   2.8476   2.8713   2.9057   3.0990
  3.1128   3.1466   3.2008   3.2114   3.2841   3.3117   3.3281   3.4186
  3.4413   3.4470   3.4559   3.5023   3.5791   3.6115   3.6263   3.6606
  3.7036   3.7571   3.7734   3.8214   3.9028   3.9596   4.0325   4.0402
  4.0602   4.2015   4.2411   4.3430   4.3823   4.4239   4.7465   5.1000
  5.1069   5.1265   5.1417   5.1485   5.1526   5.1755   5.1918   5.2024
  5.2287   5.2350   5.2794   5.2797   5.2857   5.3567   5.4465   5.4597
  5.5534   5.5637   5.5733   5.5979   5.6031   5.6239   5.6643   5.8599
  5.8899   5.9057   6.0685   6.0771   6.1185   6.4700   6.4795   6.6652
  6.7953   6.8886   6.8984   6.9135   6.9819   7.0076   7.0174   7.0386
  7.0709   7.0991   7.2058   7.2217   7.2498   7.3143   7.3597   7.3834
  7.4111   7.4310   7.5156   7.5709   7.6218   7.7214   7.7526   7.8335
  7.8731   7.8814   7.9214  25.0570  25.1657  50.5576  50.5770  50.7342
 50.7453
 --------------------------------------------------------------
 
          Ground-State Mulliken Net Atomic Charges

     Atom                 Charge (a.u.)
  ----------------------------------------
      1 C                     0.367383
      2 O                    -0.284368
      3 O                    -0.454599
      4 C                     0.367361
      5 O                    -0.454580
      6 O                    -0.284317
      7 H                     0.371558
      8 H                     0.371561
  ----------------------------------------
  Sum of atomic charges =     0.000000

 -----------------------------------------------------------------
                    Cartesian Multipole Moments
 -----------------------------------------------------------------
    Charge (ESU x 10^10)
                 0.0000
    Dipole Moment (Debye)
         X      -0.0010      Y      -0.0011      Z       0.0007
       Tot       0.0017
    Quadrupole Moments (Debye-Ang)
        XX     -23.7145     XY      11.7218     YY     -40.9232
        XZ       0.0054     YZ       0.0091     ZZ     -32.3165
    Octopole Moments (Debye-Ang^2)
       XXX     -75.1202    XXY      25.5307    XYY     -43.9895
       YYY       4.0430    XXZ       0.0230    XYZ       0.0070
       YYZ       0.0110    XZZ     -34.1233    YZZ       1.0651
       ZZZ       0.0234
    Hexadecapole Moments (Debye-Ang^3)
      XXXX    -397.5360   XXXY     105.3118   XXYY    -128.7261
      XYYY      12.7979   YYYY    -225.3791   XXXZ       0.0039
      XXYZ       0.0541   XYYZ      -0.0193   YYYZ       0.0153
      XXZZ     -95.7397   XYZZ      -1.0301   YYZZ     -40.9253
      XZZZ      -0.0832   YZZZ       0.0044   ZZZZ     -28.0275
 -----------------------------------------------------------------
 Calculating analytic gradient of the SCF energy
 Gradient of CDS energy
            1           2           3           4           5           6
    1   0.0029475  -0.0013177  -0.0006481  -0.0029458   0.0006476   0.0013164
    2   0.0015208  -0.0028803   0.0010607  -0.0015185  -0.0010601   0.0028775
    3   0.0000025  -0.0000013  -0.0000004  -0.0000014   0.0000007  -0.0000001
            7           8
    1   0.0003613  -0.0003612
    2   0.0002278  -0.0002278
    3   0.0000003  -0.0000001
 Gradient of SCF Energy
            1           2           3           4           5           6
    1   0.0007848  -0.0193124   0.0004670  -0.0008456  -0.0004096   0.0192825
    2   0.0011159   0.0051562  -0.0096474  -0.0010945   0.0095798  -0.0050664
    3  -0.0000018  -0.0000095   0.0000041  -0.0000251   0.0000073   0.0000211
            7           8
    1   0.0186282  -0.0185950
    2   0.0008407  -0.0008844
    3   0.0000134  -0.0000096
 Max gradient component =       1.931E-02
 RMS gradient           =       8.367E-03
 Computing fast CPCM-SWIG gradient
 Updating gradient with PCM contributions...
 -- total gradient after adding PCM contribution --
---------------------------------------------------
  Atom         X              Y              Z     
---------------------------------------------------
   1      -0.000014       0.000030      -0.000006
   2      -0.000023       0.000048       0.000005
   3       0.000052      -0.000026       0.000004
   4      -0.000049      -0.000008      -0.000023
   5       0.000006      -0.000042       0.000010
   6      -0.000014       0.000032       0.000009
   7      -0.000023       0.000024       0.000000
   8       0.000064      -0.000058       0.000000
---------------------------------------------------
 Number of fixed atoms: 0
 Gradient time:  CPU 51.85 s  wall 7.61 s
 ######################################################
 ######################################################
 # Starting finite difference calculation for IDERIV  #
 Finite diff step size:  1.88973e-03 a.u.
 ----------------------------------------------------------------
             Standard Nuclear Orientation (Angstroms)
    I     Atom           X                Y                Z
 ----------------------------------------------------------------
    1      C       1.8245784383    -0.0637334893     0.0002473030
    2      O       2.3417852248     1.1510612460     0.0007760691
    3      O       2.4376891661    -1.0978774708     0.0006843887
    4      C       0.2881145663    -0.0022133723    -0.0008982110
    5      O      -0.3258508336     1.0319556106    -0.0015152341
    6      O      -0.2300177268    -1.2169567043    -0.0008235433
    7      H       3.3109425424     1.0843720479     0.0015034206
    8      H      -1.1991530757    -1.1507164572    -0.0014270296
 ----------------------------------------------------------------
 Nuclear Repulsion Energy =         232.68927080 hartrees
 There are       23 alpha and       23 beta electrons
 Discretize the solute cavity surface with Lebedev spheres
	Using 110 Lebedev grid points for each H atom
	Using 194 Lebedev grid points for other atoms
	Atomic van der Waals radii will be scaled by 1.20
 Remove points where switching function is < 1.0e-08
 Keep 774 surface tesserae and discard 610 interior tesserae
 Molecular Surface Area = 95.719 Angst**2

                       Distance Matrix (Angstroms)
             C (  1)   O (  2)   O (  3)   C (  4)   O (  5)   O (  6)
   O (  2)  1.320314
   O (  3)  1.202231  2.250983
   C (  4)  1.537695  2.355336  2.412707
   O (  5)  2.413480  2.670295  3.489032  1.202688
   O (  6)  2.356118  3.495952  2.670364  1.320630  2.250953
   H (  7)  1.878144  0.971449  2.350486  3.212190  3.637172  4.223094
   H (  8)  3.213174  4.223320  3.637227  1.879102  2.350896  0.971397
             H (  7)
   H (  8)  5.033547
 
 Requested basis set is 6-311++G(2df,2p)
 There are 60 shells and 224 basis functions
 A cutoff of  1.0D-12 yielded   1720 shell pairs
 There are     24368 function pairs (     31341 Cartesian)
 Smallest overlap matrix eigenvalue = 7.37E-05
 Guess MOs from SCF MO coefficient file

 -----------------------------------------------------------------------
  General SCF calculation program by
  Eric Jon Sundstrom, Paul Horn, Yuezhi Mao, Dmitri Zuev, Alec White,
  David Stuck, Shaama M.S., Shane Yost, Joonho Lee, David Small,
  Daniel Levine, Susi Lehtola, Hugh Burton, Evgeny Epifanovsky,
  Bang C. Huynh
 -----------------------------------------------------------------------
 Exchange:     0.1500 Hartree-Fock + 1.0000 wB97M-V + LR-HF
 Correlation:  1.0000 wB97M-V
 Using SG-2 standard quadrature grid
 Nonlocal Correlation:  VV10 with C = 0.0100 and b = 6.00 and scale = 1.00000
 Grid used for NLC:  SG-1 standard quadrature
 
 Citation of the SMD model:
 Marenich, A.V.; Cramer, C.J.; Truhlar, D.G.
 J. Phys. Chem. B 2009, 113, 6378-6396.
 iSolventCode=           1
 Solvent: water                                                           
 
 vradii
            1           2           3           4           5           6
    1   1.8500000   1.5200000   1.5200000   1.8500000   1.5200000   1.5200000
            7           8
    1   1.2000000   1.2000000
 -------------------------------------------------------
 OpenMP BLAS3 based DFT computing Module                
 Release: version 1.0, May 2013, Q-Chem Inc. Pittsburgh 
 -------------------------------------------------------
 A restricted SCF calculation will be
 performed using Roothaan-Hall, DIIS, GDM
 SCF converges when RMS gradient is below 1.0e-07
 ---------------------------------------
  Cycle       Energy         DIIS error
 ---------------------------------------
    1    -378.3571586939      6.86e-04  Roothaan Step
 ---------------------------------------
  Cycle       Energy         DIIS error
 ---------------------------------------
    1    -378.3857414479      8.45e-04  
    2    -378.3884526691      8.85e-04  Done DIIS. Switching to GDM
 ---------------------------------------
  Cycle       Energy        RMS Gradient
 ---------------------------------------
    1    -378.3884526691      2.01e-02   Normal BFGS step
    2    -378.3866334417      3.51e-02  Line search: overstep
    3    -378.3914725658      2.13e-03   Normal BFGS step
    4    -378.3916243861      9.01e-04   Normal BFGS step
    5    -378.3916392602      1.39e-03   Normal BFGS step
    6    -378.3916452710      1.41e-04   Normal BFGS step
    7    -378.3916456102      6.06e-05   Normal BFGS step
    8    -378.3916456412      2.89e-05   Normal BFGS step
    9    -378.3916456446      2.80e-06   Normal BFGS step
   10    -378.3916456447      1.83e-06   Normal BFGS step
   11    -378.3916456448      1.34e-06   Normal BFGS step
   12    -378.3916456448      2.92e-07   Normal BFGS step
   13    -378.3916456448      5.53e-08  Convergence criterion met
 ---------------------------------------
 SCF time:   CPU 257.89s  wall 32.00s 
(3)  G-ENP(liq) elect-nuc-pol free energy of system     -378.391645645 a.u.
(4)  G-CDS(liq) cavity-dispersion-solvent structure 
     free energy                                                5.8541 kcal/mol
(6)  G-S(liq) free energy of system                     -378.382316490 a.u.
 SCF   energy in the final basis set =     -378.3823164899
 Total energy in the final basis set =     -378.3823164899
 
 --------------------------------------------------------------
 
                    Orbital Energies (a.u.)
 --------------------------------------------------------------
 
 Alpha MOs
 -- Occupied --
-19.4009 -19.4008 -19.3549 -19.3548 -10.5123 -10.5122  -1.2813  -1.2560
 -1.1901  -1.1732  -0.8532  -0.7545  -0.6572  -0.6344  -0.6278  -0.6176
 -0.5626  -0.5589  -0.5205  -0.4637  -0.4595  -0.4507  -0.3965
 -- Virtual --
  0.0109   0.0319   0.0424   0.0745   0.0844   0.0864   0.1113   0.1114
  0.1366   0.1405   0.1580   0.1648   0.2082   0.2166   0.2216   0.2483
  0.2682   0.2758   0.2776   0.3001   0.3035   0.3158   0.3275   0.3350
  0.3459   0.3470   0.3523   0.3573   0.4030   0.4118   0.4175   0.4395
  0.4422   0.5328   0.5924   0.5950   0.5951   0.6363   0.6822   0.6867
  0.7120   0.7271   0.7291   0.7566   0.8392   0.8484   0.8538   0.8712
  0.8715   0.9285   0.9749   1.0530   1.0532   1.0940   1.0957   1.1096
  1.1184   1.1321   1.1405   1.1539   1.1642   1.1799   1.2203   1.2623
  1.2833   1.2835   1.3574   1.3936   1.4475   1.4755   1.5331   1.5878
  1.5901   1.5987   1.6602   1.6698   1.6848   1.7472   1.8117   1.8359
  1.8375   1.8877   1.9597   1.9951   2.0173   2.0605   2.1728   2.2797
  2.3207   2.3677   2.4188   2.4214   2.4808   2.5985   2.6229   2.6660
  2.6665   2.7183   2.7659   2.8168   2.8477   2.8710   2.9061   3.0993
  3.1128   3.1466   3.2006   3.2114   3.2840   3.3119   3.3283   3.4181
  3.4416   3.4474   3.4556   3.5023   3.5793   3.6118   3.6261   3.6606
  3.7036   3.7569   3.7734   3.8212   3.9029   3.9596   4.0321   4.0383
  4.0600   4.2018   4.2411   4.3424   4.3823   4.4239   4.7454   5.1000
  5.1069   5.1265   5.1417   5.1486   5.1526   5.1756   5.1921   5.2024
  5.2288   5.2351   5.2796   5.2797   5.2857   5.3569   5.4470   5.4598
  5.5534   5.5638   5.5739   5.5977   5.6030   5.6236   5.6643   5.8599
  5.8896   5.9059   6.0696   6.0779   6.1192   6.4711   6.4803   6.6666
  6.7955   6.8886   6.8984   6.9140   6.9825   7.0076   7.0174   7.0387
  7.0710   7.0991   7.2058   7.2217   7.2499   7.3143   7.3602   7.3835
  7.4109   7.4312   7.5165   7.5707   7.6217   7.7220   7.7525   7.8336
  7.8732   7.8810   7.9218  25.0576  25.1653  50.5578  50.5772  50.7346
 50.7457
 --------------------------------------------------------------
 
          Ground-State Mulliken Net Atomic Charges

     Atom                 Charge (a.u.)
  ----------------------------------------
      1 C                     0.366968
      2 O                    -0.283908
      3 O                    -0.454292
      4 C                     0.367304
      5 O                    -0.454711
      6 O                    -0.284398
      7 H                     0.371480
      8 H                     0.371558
  ----------------------------------------
  Sum of atomic charges =     0.000000

 -----------------------------------------------------------------
                    Cartesian Multipole Moments
 -----------------------------------------------------------------
    Charge (ESU x 10^10)
                 0.0000
    Dipole Moment (Debye)
         X       0.0059      Y      -0.0011      Z       0.0007
       Tot       0.0060
    Quadrupole Moments (Debye-Ang)
        XX     -23.6967     XY      11.7230     YY     -40.9207
        XZ       0.0054     YZ       0.0091     ZZ     -32.3160
    Octopole Moments (Debye-Ang^2)
       XXX     -75.0807    XXY      25.5331    XYY     -43.9825
       YYY       4.0437    XXZ       0.0230    XYZ       0.0070
       YYZ       0.0110    XZZ     -34.1222    YZZ       1.0647
       ZZZ       0.0234
    Hexadecapole Moments (Debye-Ang^3)
      XXXX    -397.5067   XXXY     105.3183   XXYY    -128.7262
      XYYY      12.8021   YYYY    -225.3595   XXXZ       0.0039
      XXYZ       0.0541   XYYZ      -0.0193   YYYZ       0.0153
      XXZZ     -95.7434   XYZZ      -1.0296   YYZZ     -40.9231
      XZZZ      -0.0832   YZZZ       0.0044   ZZZZ     -28.0271
 -----------------------------------------------------------------
 Calculating analytic gradient of the SCF energy
 Gradient of CDS energy
            1           2           3           4           5           6
    1   0.0029376  -0.0013099  -0.0006437  -0.0029475   0.0006474   0.0013163
    2   0.0015143  -0.0028684   0.0010555  -0.0015185  -0.0010602   0.0028775
    3   0.0000025  -0.0000013  -0.0000004  -0.0000014   0.0000007  -0.0000001
            7           8
    1   0.0003611  -0.0003612
    2   0.0002276  -0.0002278
    3   0.0000003  -0.0000001
 Gradient of SCF Energy
            1           2           3           4           5           6
    1   0.0021130  -0.0196569  -0.0000900  -0.0012348  -0.0004019   0.0192532
    2   0.0008274   0.0050302  -0.0091047  -0.0011151   0.0095805  -0.0050641
    3  -0.0000011  -0.0000096   0.0000038  -0.0000252   0.0000073   0.0000211
            7           8
    1   0.0185990  -0.0185816
    2   0.0007314  -0.0008855
    3   0.0000134  -0.0000096
 Max gradient component =       1.966E-02
 RMS gradient           =       8.375E-03
 Computing fast CPCM-SWIG gradient
 Updating gradient with PCM contributions...
 -- total gradient after adding PCM contribution --
---------------------------------------------------
  Atom         X              Y              Z     
---------------------------------------------------
   1       0.001312      -0.000270      -0.000005
   2      -0.000347      -0.000087       0.000004
   3      -0.000505       0.000529       0.000003
   4      -0.000426      -0.000035      -0.000023
   5       0.000009      -0.000029       0.000010
   6      -0.000035       0.000029       0.000009
   7      -0.000070      -0.000080       0.000000
   8       0.000063      -0.000058       0.000000
---------------------------------------------------
 Number of fixed atoms: 0
 Gradient time:  CPU 52.21 s  wall 7.71 s
 ----------------------------------------------------------------
             Standard Nuclear Orientation (Angstroms)
    I     Atom           X                Y                Z
 ----------------------------------------------------------------
    1      C       1.8225784383    -0.0637334893     0.0002473030
    2      O       2.3417852248     1.1510612460     0.0007760691
    3      O       2.4376891661    -1.0978774708     0.0006843887
    4      C       0.2881145663    -0.0022133723    -0.0008982110
    5      O      -0.3258508336     1.0319556106    -0.0015152341
    6      O      -0.2300177268    -1.2169567043    -0.0008235433
    7      H       3.3109425424     1.0843720479     0.0015034206
    8      H      -1.1991530757    -1.1507164572    -0.0014270296
 ----------------------------------------------------------------
 Nuclear Repulsion Energy =         232.69095003 hartrees
 There are       23 alpha and       23 beta electrons
 Discretize the solute cavity surface with Lebedev spheres
	Using 110 Lebedev grid points for each H atom
	Using 194 Lebedev grid points for other atoms
	Atomic van der Waals radii will be scaled by 1.20
 Remove points where switching function is < 1.0e-08
 Keep 774 surface tesserae and discard 610 interior tesserae
 Molecular Surface Area = 95.715 Angst**2

                       Distance Matrix (Angstroms)
             C (  1)   O (  2)   O (  3)   C (  4)   O (  5)   O (  6)
   O (  2)  1.321099
   O (  3)  1.203252  2.250983
   C (  4)  1.535697  2.355336  2.412707
   O (  5)  2.411698  2.670295  3.489032  1.202688
   O (  6)  2.354374  3.495952  2.670364  1.320630  2.250953
   H (  7)  1.879728  0.971449  2.350486  3.212190  3.637172  4.223094
   H (  8)  3.211292  4.223320  3.637227  1.879102  2.350896  0.971397
             H (  7)
   H (  8)  5.033547
 
 Requested basis set is 6-311++G(2df,2p)
 There are 60 shells and 224 basis functions
 A cutoff of  1.0D-12 yielded   1720 shell pairs
 There are     24368 function pairs (     31341 Cartesian)
 Smallest overlap matrix eigenvalue = 7.32E-05
 Guess MOs from SCF MO coefficient file

 -----------------------------------------------------------------------
  General SCF calculation program by
  Eric Jon Sundstrom, Paul Horn, Yuezhi Mao, Dmitri Zuev, Alec White,
  David Stuck, Shaama M.S., Shane Yost, Joonho Lee, David Small,
  Daniel Levine, Susi Lehtola, Hugh Burton, Evgeny Epifanovsky,
  Bang C. Huynh
 -----------------------------------------------------------------------
 Exchange:     0.1500 Hartree-Fock + 1.0000 wB97M-V + LR-HF
 Correlation:  1.0000 wB97M-V
 Using SG-2 standard quadrature grid
 Nonlocal Correlation:  VV10 with C = 0.0100 and b = 6.00 and scale = 1.00000
 Grid used for NLC:  SG-1 standard quadrature
 
 Citation of the SMD model:
 Marenich, A.V.; Cramer, C.J.; Truhlar, D.G.
 J. Phys. Chem. B 2009, 113, 6378-6396.
 iSolventCode=           1
 Solvent: water                                                           
 
 vradii
            1           2           3           4           5           6
    1   1.8500000   1.5200000   1.5200000   1.8500000   1.5200000   1.5200000
            7           8
    1   1.2000000   1.2000000
 -------------------------------------------------------
 OpenMP BLAS3 based DFT computing Module                
 Release: version 1.0, May 2013, Q-Chem Inc. Pittsburgh 
 -------------------------------------------------------
 A restricted SCF calculation will be
 performed using Roothaan-Hall, DIIS, GDM
 SCF converges when RMS gradient is below 1.0e-07
 ---------------------------------------
  Cycle       Energy         DIIS error
 ---------------------------------------
    1    -378.3571505632      6.86e-04  Roothaan Step
 ---------------------------------------
  Cycle       Energy         DIIS error
 ---------------------------------------
    1    -378.3856914115      8.50e-04  
    2    -378.3883718988      8.95e-04  Done DIIS. Switching to GDM
 ---------------------------------------
  Cycle       Energy        RMS Gradient
 ---------------------------------------
    1    -378.3883718988      2.03e-02   Normal BFGS step
    2    -378.3864986602      3.55e-02  Line search: overstep
    3    -378.3914599822      2.14e-03   Normal BFGS step
    4    -378.3916129856      8.81e-04   Normal BFGS step
    5    -378.3916279089      1.41e-03   Normal BFGS step
    6    -378.3916340854      1.41e-04   Normal BFGS step
    7    -378.3916344166      6.11e-05   Normal BFGS step
    8    -378.3916344480      2.85e-05   Normal BFGS step
    9    -378.3916344513      2.81e-06   Normal BFGS step
   10    -378.3916344515      2.42e-06   Normal BFGS step
   11    -378.3916344515      1.52e-06   Normal BFGS step
   12    -378.3916344515      2.74e-07   Normal BFGS step
   13    -378.3916344515      6.26e-08  Convergence criterion met
 ---------------------------------------
 SCF time:   CPU 257.43s  wall 32.00s 
(3)  G-ENP(liq) elect-nuc-pol free energy of system     -378.391634452 a.u.
(4)  G-CDS(liq) cavity-dispersion-solvent structure 
     free energy                                                5.8471 kcal/mol
(6)  G-S(liq) free energy of system                     -378.382316437 a.u.
 SCF   energy in the final basis set =     -378.3823164368
 Total energy in the final basis set =     -378.3823164368
 
 --------------------------------------------------------------
 
                    Orbital Energies (a.u.)
 --------------------------------------------------------------
 
 Alpha MOs
 -- Occupied --
-19.4009 -19.4008 -19.3549 -19.3549 -10.5125 -10.5123  -1.2812  -1.2558
 -1.1899  -1.1730  -0.8538  -0.7546  -0.6572  -0.6344  -0.6277  -0.6176
 -0.5624  -0.5587  -0.5206  -0.4636  -0.4595  -0.4507  -0.3967
 -- Virtual --
  0.0104   0.0319   0.0424   0.0745   0.0844   0.0863   0.1113   0.1115
  0.1366   0.1406   0.1581   0.1648   0.2082   0.2166   0.2216   0.2482
  0.2682   0.2759   0.2776   0.3001   0.3036   0.3158   0.3276   0.3350
  0.3458   0.3471   0.3523   0.3574   0.4034   0.4116   0.4176   0.4391
  0.4419   0.5328   0.5925   0.5950   0.5951   0.6361   0.6826   0.6867
  0.7115   0.7268   0.7292   0.7564   0.8392   0.8483   0.8537   0.8710
  0.8715   0.9284   0.9748   1.0529   1.0533   1.0942   1.0959   1.1096
  1.1185   1.1321   1.1405   1.1540   1.1642   1.1799   1.2202   1.2624
  1.2833   1.2836   1.3577   1.3930   1.4476   1.4756   1.5331   1.5880
  1.5903   1.5986   1.6601   1.6701   1.6846   1.7471   1.8116   1.8361
  1.8373   1.8874   1.9595   1.9950   2.0170   2.0604   2.1731   2.2797
  2.3201   2.3677   2.4187   2.4217   2.4804   2.5982   2.6227   2.6665
  2.6670   2.7180   2.7658   2.8163   2.8475   2.8716   2.9053   3.0987
  3.1127   3.1466   3.2009   3.2114   3.2842   3.3115   3.3280   3.4190
  3.4409   3.4465   3.4562   3.5024   3.5789   3.6111   3.6266   3.6606
  3.7036   3.7573   3.7734   3.8216   3.9027   3.9595   4.0329   4.0420
  4.0603   4.2013   4.2411   4.3436   4.3822   4.4239   4.7476   5.1001
  5.1068   5.1264   5.1417   5.1485   5.1526   5.1755   5.1914   5.2024
  5.2287   5.2349   5.2791   5.2798   5.2857   5.3566   5.4459   5.4596
  5.5534   5.5635   5.5728   5.5981   5.6032   5.6241   5.6644   5.8598
  5.8902   5.9056   6.0673   6.0764   6.1179   6.4686   6.4789   6.6637
  6.7950   6.8886   6.8984   6.9131   6.9814   7.0075   7.0174   7.0386
  7.0707   7.0992   7.2059   7.2217   7.2497   7.3144   7.3592   7.3833
  7.4113   7.4309   7.5148   7.5712   7.6219   7.7209   7.7526   7.8334
  7.8729   7.8818   7.9210  25.0563  25.1661  50.5574  50.5769  50.7338
 50.7450
 --------------------------------------------------------------
 
          Ground-State Mulliken Net Atomic Charges

     Atom                 Charge (a.u.)
  ----------------------------------------
      1 C                     0.367799
      2 O                    -0.284827
      3 O                    -0.454905
      4 C                     0.367416
      5 O                    -0.454448
      6 O                    -0.284236
      7 H                     0.371636
      8 H                     0.371565
  ----------------------------------------
  Sum of atomic charges =     0.000000

 -----------------------------------------------------------------
                    Cartesian Multipole Moments
 -----------------------------------------------------------------
    Charge (ESU x 10^10)
                 0.0000
    Dipole Moment (Debye)
         X      -0.0079      Y      -0.0012      Z       0.0007
       Tot       0.0080
    Quadrupole Moments (Debye-Ang)
        XX     -23.7323     XY      11.7207     YY     -40.9258
        XZ       0.0054     YZ       0.0091     ZZ     -32.3169
    Octopole Moments (Debye-Ang^2)
       XXX     -75.1596    XXY      25.5283    XYY     -43.9966
       YYY       4.0423    XXZ       0.0230    XYZ       0.0070
       YYZ       0.0110    XZZ     -34.1243    YZZ       1.0656
       ZZZ       0.0234
    Hexadecapole Moments (Debye-Ang^3)
      XXXX    -397.5649   XXXY     105.3052   XXYY    -128.7260
      XYYY      12.7936   YYYY    -225.3986   XXXZ       0.0039
      XXYZ       0.0541   XYYZ      -0.0193   YYYZ       0.0153
      XXZZ     -95.7360   XYZZ      -1.0305   YYZZ     -40.9274
      XZZZ      -0.0832   YZZZ       0.0044   ZZZZ     -28.0280
 -----------------------------------------------------------------
 Calculating analytic gradient of the SCF energy
 Gradient of CDS energy
            1           2           3           4           5           6
    1   0.0029575  -0.0013255  -0.0006525  -0.0029441   0.0006478   0.0013165
    2   0.0015273  -0.0028923   0.0010659  -0.0015184  -0.0010600   0.0028774
    3   0.0000025  -0.0000013  -0.0000005  -0.0000014   0.0000007  -0.0000001
            7           8
    1   0.0003615  -0.0003612
    2   0.0002279  -0.0002278
    3   0.0000003  -0.0000001
 Gradient of SCF Energy
            1           2           3           4           5           6
    1  -0.0005455  -0.0189679   0.0010237  -0.0004542  -0.0004170   0.0193121
    2   0.0014033   0.0052817  -0.0101880  -0.0010741   0.0095790  -0.0050684
    3  -0.0000026  -0.0000093   0.0000044  -0.0000250   0.0000074   0.0000211
            7           8
    1   0.0186572  -0.0186083
    2   0.0009499  -0.0008833
    3   0.0000135  -0.0000096
 Max gradient component =       1.931E-02
 RMS gradient           =       8.373E-03
 Computing fast CPCM-SWIG gradient
 Updating gradient with PCM contributions...
 -- total gradient after adding PCM contribution --
---------------------------------------------------
  Atom         X              Y              Z     
---------------------------------------------------
   1      -0.001342       0.000328      -0.000006
   2       0.000302       0.000183       0.000005
   3       0.000608      -0.000580       0.000004
   4       0.000331       0.000019      -0.000023
   5       0.000004      -0.000056       0.000010
   6       0.000007       0.000035       0.000009
   7       0.000025       0.000129       0.000000
   8       0.000065      -0.000058       0.000000
---------------------------------------------------
 Number of fixed atoms: 0
 Gradient time:  CPU 51.61 s  wall 7.55 s
 ----------------------------------------------------------------
             Standard Nuclear Orientation (Angstroms)
    I     Atom           X                Y                Z
 ----------------------------------------------------------------
    1      C       1.8235784383    -0.0627334893     0.0002473030
    2      O       2.3417852248     1.1510612460     0.0007760691
    3      O       2.4376891661    -1.0978774708     0.0006843887
    4      C       0.2881145663    -0.0022133723    -0.0008982110
    5      O      -0.3258508336     1.0319556106    -0.0015152341
    6      O      -0.2300177268    -1.2169567043    -0.0008235433
    7      H       3.3109425424     1.0843720479     0.0015034206
    8      H      -1.1991530757    -1.1507164572    -0.0014270296
 ----------------------------------------------------------------
 Nuclear Repulsion Energy =         232.68892624 hartrees
 There are       23 alpha and       23 beta electrons
 Discretize the solute cavity surface with Lebedev spheres
	Using 110 Lebedev grid points for each H atom
	Using 194 Lebedev grid points for other atoms
	Atomic van der Waals radii will be scaled by 1.20
 Remove points where switching function is < 1.0e-08
 Keep 774 surface tesserae and discard 610 interior tesserae
 Molecular Surface Area = 95.718 Angst**2

                       Distance Matrix (Angstroms)
             C (  1)   O (  2)   O (  3)   C (  4)   O (  5)   O (  6)
   O (  2)  1.319786
   O (  3)  1.203601  2.250983
   C (  4)  1.536657  2.355336  2.412707
   O (  5)  2.412135  2.670295  3.489032  1.202688
   O (  6)  2.355735  3.495952  2.670364  1.320630  2.250953
   H (  7)  1.878325  0.971449  2.350486  3.212190  3.637172  4.223094
   H (  8)  3.212571  4.223320  3.637227  1.879102  2.350896  0.971397
             H (  7)
   H (  8)  5.033547
 
 Requested basis set is 6-311++G(2df,2p)
 There are 60 shells and 224 basis functions
 A cutoff of  1.0D-12 yielded   1720 shell pairs
 There are     24368 function pairs (     31341 Cartesian)
 Smallest overlap matrix eigenvalue = 7.34E-05
 Guess MOs from SCF MO coefficient file

 -----------------------------------------------------------------------
  General SCF calculation program by
  Eric Jon Sundstrom, Paul Horn, Yuezhi Mao, Dmitri Zuev, Alec White,
  David Stuck, Shaama M.S., Shane Yost, Joonho Lee, David Small,
  Daniel Levine, Susi Lehtola, Hugh Burton, Evgeny Epifanovsky,
  Bang C. Huynh
 -----------------------------------------------------------------------
 Exchange:     0.1500 Hartree-Fock + 1.0000 wB97M-V + LR-HF
 Correlation:  1.0000 wB97M-V
 Using SG-2 standard quadrature grid
 Nonlocal Correlation:  VV10 with C = 0.0100 and b = 6.00 and scale = 1.00000
 Grid used for NLC:  SG-1 standard quadrature
 
 Citation of the SMD model:
 Marenich, A.V.; Cramer, C.J.; Truhlar, D.G.
 J. Phys. Chem. B 2009, 113, 6378-6396.
 iSolventCode=           1
 Solvent: water                                                           
 
 vradii
            1           2           3           4           5           6
    1   1.8500000   1.5200000   1.5200000   1.8500000   1.5200000   1.5200000
            7           8
    1   1.2000000   1.2000000
 -------------------------------------------------------
 OpenMP BLAS3 based DFT computing Module                
 Release: version 1.0, May 2013, Q-Chem Inc. Pittsburgh 
 -------------------------------------------------------
 A restricted SCF calculation will be
 performed using Roothaan-Hall, DIIS, GDM
 SCF converges when RMS gradient is below 1.0e-07
 ---------------------------------------
  Cycle       Energy         DIIS error
 ---------------------------------------
    1    -378.3571344472      6.86e-04  Roothaan Step
 ---------------------------------------
  Cycle       Energy         DIIS error
 ---------------------------------------
    1    -378.3857116384      8.47e-04  
    2    -378.3884081734      8.91e-04  Done DIIS. Switching to GDM
 ---------------------------------------
  Cycle       Energy        RMS Gradient
 ---------------------------------------
    1    -378.3884081734      2.03e-02   Normal BFGS step
    2    -378.3865503160      3.55e-02  Line search: overstep
    3    -378.3914678460      2.14e-03   Normal BFGS step
    4    -378.3916211749      9.19e-04   Normal BFGS step
    5    -378.3916361545      1.39e-03   Normal BFGS step
    6    -378.3916421785      1.43e-04   Normal BFGS step
    7    -378.3916425229      6.08e-05   Normal BFGS step
    8    -378.3916425544      2.90e-05   Normal BFGS step
    9    -378.3916425577      2.77e-06   Normal BFGS step
   10    -378.3916425579      2.18e-06   Normal BFGS step
   11    -378.3916425579      1.46e-06   Normal BFGS step
   12    -378.3916425579      2.88e-07   Normal BFGS step
   13    -378.3916425579      5.84e-08  Convergence criterion met
 ---------------------------------------
 SCF time:   CPU 256.96s  wall 33.00s 
(3)  G-ENP(liq) elect-nuc-pol free energy of system     -378.391642558 a.u.
(4)  G-CDS(liq) cavity-dispersion-solvent structure 
     free energy                                                5.8524 kcal/mol
(6)  G-S(liq) free energy of system                     -378.382316126 a.u.
 SCF   energy in the final basis set =     -378.3823161259
 Total energy in the final basis set =     -378.3823161259
 
 --------------------------------------------------------------
 
                    Orbital Energies (a.u.)
 --------------------------------------------------------------
 
 Alpha MOs
 -- Occupied --
-19.4011 -19.4009 -19.3549 -19.3547 -10.5125 -10.5123  -1.2813  -1.2560
 -1.1898  -1.1730  -0.8536  -0.7547  -0.6573  -0.6344  -0.6278  -0.6176
 -0.5625  -0.5589  -0.5204  -0.4636  -0.4594  -0.4507  -0.3966
 -- Virtual --
  0.0107   0.0319   0.0424   0.0745   0.0844   0.0863   0.1113   0.1114
  0.1366   0.1406   0.1581   0.1648   0.2081   0.2166   0.2216   0.2483
  0.2681   0.2759   0.2776   0.3001   0.3037   0.3158   0.3275   0.3351
  0.3459   0.3470   0.3523   0.3573   0.4032   0.4118   0.4175   0.4392
  0.4422   0.5327   0.5924   0.5950   0.5950   0.6362   0.6824   0.6867
  0.7117   0.7269   0.7291   0.7563   0.8394   0.8484   0.8535   0.8711
  0.8715   0.9282   0.9748   1.0530   1.0534   1.0942   1.0957   1.1095
  1.1183   1.1321   1.1406   1.1541   1.1642   1.1799   1.2203   1.2623
  1.2834   1.2836   1.3577   1.3932   1.4474   1.4756   1.5329   1.5879
  1.5902   1.5987   1.6600   1.6700   1.6847   1.7472   1.8116   1.8359
  1.8374   1.8875   1.9597   1.9951   2.0172   2.0602   2.1728   2.2796
  2.3206   2.3677   2.4190   2.4218   2.4804   2.5983   2.6226   2.6661
  2.6666   2.7180   2.7664   2.8164   2.8476   2.8720   2.9053   3.0991
  3.1126   3.1470   3.2005   3.2114   3.2843   3.3119   3.3282   3.4187
  3.4416   3.4468   3.4560   3.5023   3.5793   3.6113   3.6259   3.6605
  3.7039   3.7571   3.7735   3.8212   3.9036   3.9595   4.0323   4.0401
  4.0599   4.2014   4.2410   4.3430   4.3823   4.4238   4.7464   5.1000
  5.1069   5.1265   5.1417   5.1486   5.1527   5.1756   5.1919   5.2022
  5.2287   5.2349   5.2794   5.2797   5.2856   5.3568   5.4461   5.4597
  5.5532   5.5637   5.5734   5.5978   5.6030   5.6238   5.6647   5.8600
  5.8895   5.9056   6.0694   6.0772   6.1187   6.4692   6.4782   6.6651
  6.7957   6.8887   6.8983   6.9130   6.9817   7.0075   7.0173   7.0387
  7.0704   7.0983   7.2058   7.2217   7.2498   7.3144   7.3600   7.3836
  7.4109   7.4311   7.5158   7.5709   7.6217   7.7215   7.7527   7.8334
  7.8729   7.8816   7.9217  25.0567  25.1662  50.5578  50.5772  50.7337
 50.7447
 --------------------------------------------------------------
 
          Ground-State Mulliken Net Atomic Charges

     Atom                 Charge (a.u.)
  ----------------------------------------
      1 C                     0.367310
      2 O                    -0.283465
      3 O                    -0.455513
      4 C                     0.367261
      5 O                    -0.454532
      6 O                    -0.284371
      7 H                     0.371734
      8 H                     0.371576
  ----------------------------------------
  Sum of atomic charges =     0.000000

 -----------------------------------------------------------------
                    Cartesian Multipole Moments
 -----------------------------------------------------------------
    Charge (ESU x 10^10)
                 0.0000
    Dipole Moment (Debye)
         X      -0.0009      Y       0.0123      Z       0.0007
       Tot       0.0123
    Quadrupole Moments (Debye-Ang)
        XX     -23.7145     XY      11.7550     YY     -40.9228
        XZ       0.0054     YZ       0.0091     ZZ     -32.3172
    Octopole Moments (Debye-Ang^2)
       XXX     -75.1225    XXY      25.6113    XYY     -43.9873
       YYY       4.0600    XXZ       0.0230    XYZ       0.0070
       YYZ       0.0110    XZZ     -34.1251    YZZ       1.0705
       ZZZ       0.0234
    Hexadecapole Moments (Debye-Ang^3)
      XXXX    -397.5531   XXXY     105.5336   XXYY    -128.7169
      XYYY      12.8493   YYYY    -225.3720   XXXZ       0.0039
      XXYZ       0.0541   XYYZ      -0.0193   YYYZ       0.0153
      XXZZ     -95.7453   XYZZ      -1.0147   YYZZ     -40.9247
      XZZZ      -0.0832   YZZZ       0.0045   ZZZZ     -28.0294
 -----------------------------------------------------------------
 Calculating analytic gradient of the SCF energy
 Gradient of CDS energy
            1           2           3           4           5           6
    1   0.0029410  -0.0013056  -0.0006533  -0.0029458   0.0006472   0.0013166
    2   0.0014827  -0.0028499   0.0010706  -0.0015191  -0.0010605   0.0028774
    3   0.0000025  -0.0000013  -0.0000005  -0.0000014   0.0000007  -0.0000001
            7           8
    1   0.0003611  -0.0003612
    2   0.0002267  -0.0002278
    3   0.0000003  -0.0000001
 Gradient of SCF Energy
            1           2           3           4           5           6
    1   0.0004955  -0.0194721   0.0009499  -0.0008696  -0.0003546   0.0192178
    2   0.0027153   0.0046912  -0.0106395  -0.0012040   0.0095577  -0.0050823
    3  -0.0000020  -0.0000096   0.0000044  -0.0000251   0.0000074   0.0000211
            7           8
    1   0.0186304  -0.0185972
    2   0.0008532  -0.0008916
    3   0.0000134  -0.0000096
 Max gradient component =       1.947E-02
 RMS gradient           =       8.432E-03
 Computing fast CPCM-SWIG gradient
 Updating gradient with PCM contributions...
 -- total gradient after adding PCM contribution --
---------------------------------------------------
  Atom         X              Y              Z     
---------------------------------------------------
   1      -0.000310       0.001654      -0.000006
   2      -0.000164      -0.000408       0.000004
   3       0.000549      -0.001015       0.000004
   4      -0.000076      -0.000129      -0.000023
   5       0.000074      -0.000066       0.000010
   6      -0.000085       0.000016       0.000009
   7      -0.000050       0.000016       0.000000
   8       0.000060      -0.000068       0.000000
---------------------------------------------------
 Number of fixed atoms: 0
 Gradient time:  CPU 51.95 s  wall 7.70 s
 ----------------------------------------------------------------
             Standard Nuclear Orientation (Angstroms)
    I     Atom           X                Y                Z
 ----------------------------------------------------------------
    1      C       1.8235784383    -0.0647334893     0.0002473030
    2      O       2.3417852248     1.1510612460     0.0007760691
    3      O       2.4376891661    -1.0978774708     0.0006843887
    4      C       0.2881145663    -0.0022133723    -0.0008982110
    5      O      -0.3258508336     1.0319556106    -0.0015152341
    6      O      -0.2300177268    -1.2169567043    -0.0008235433
    7      H       3.3109425424     1.0843720479     0.0015034206
    8      H      -1.1991530757    -1.1507164572    -0.0014270296
 ----------------------------------------------------------------
 Nuclear Repulsion Energy =         232.69131594 hartrees
 There are       23 alpha and       23 beta electrons
 Discretize the solute cavity surface with Lebedev spheres
	Using 110 Lebedev grid points for each H atom
	Using 194 Lebedev grid points for other atoms
	Atomic van der Waals radii will be scaled by 1.20
 Remove points where switching function is < 1.0e-08
 Keep 774 surface tesserae and discard 610 interior tesserae
 Molecular Surface Area = 95.717 Angst**2

                       Distance Matrix (Angstroms)
             C (  1)   O (  2)   O (  3)   C (  4)   O (  5)   O (  6)
   O (  2)  1.321626
   O (  3)  1.201881  2.250983
   C (  4)  1.536737  2.355336  2.412707
   O (  5)  2.413043  2.670295  3.489032  1.202688
   O (  6)  2.354756  3.495952  2.670364  1.320630  2.250953
   H (  7)  1.879547  0.971449  2.350486  3.212190  3.637172  4.223094
   H (  8)  3.211895  4.223320  3.637227  1.879102  2.350896  0.971397
             H (  7)
   H (  8)  5.033547
 
 Requested basis set is 6-311++G(2df,2p)
 There are 60 shells and 224 basis functions
 A cutoff of  1.0D-12 yielded   1720 shell pairs
 There are     24368 function pairs (     31341 Cartesian)
 Smallest overlap matrix eigenvalue = 7.35E-05
 Guess MOs from SCF MO coefficient file

 -----------------------------------------------------------------------
  General SCF calculation program by
  Eric Jon Sundstrom, Paul Horn, Yuezhi Mao, Dmitri Zuev, Alec White,
  David Stuck, Shaama M.S., Shane Yost, Joonho Lee, David Small,
  Daniel Levine, Susi Lehtola, Hugh Burton, Evgeny Epifanovsky,
  Bang C. Huynh
 -----------------------------------------------------------------------
 Exchange:     0.1500 Hartree-Fock + 1.0000 wB97M-V + LR-HF
 Correlation:  1.0000 wB97M-V
 Using SG-2 standard quadrature grid
 Nonlocal Correlation:  VV10 with C = 0.0100 and b = 6.00 and scale = 1.00000
 Grid used for NLC:  SG-1 standard quadrature
 
 Citation of the SMD model:
 Marenich, A.V.; Cramer, C.J.; Truhlar, D.G.
 J. Phys. Chem. B 2009, 113, 6378-6396.
 iSolventCode=           1
 Solvent: water                                                           
 
 vradii
            1           2           3           4           5           6
    1   1.8500000   1.5200000   1.5200000   1.8500000   1.5200000   1.5200000
            7           8
    1   1.2000000   1.2000000
 -------------------------------------------------------
 OpenMP BLAS3 based DFT computing Module                
 Release: version 1.0, May 2013, Q-Chem Inc. Pittsburgh 
 -------------------------------------------------------
 A restricted SCF calculation will be
 performed using Roothaan-Hall, DIIS, GDM
 SCF converges when RMS gradient is below 1.0e-07
 ---------------------------------------
  Cycle       Energy         DIIS error
 ---------------------------------------
    1    -378.3571358047      6.89e-04  Roothaan Step
 ---------------------------------------
  Cycle       Energy         DIIS error
 ---------------------------------------
    1    -378.3857578837      8.44e-04  
    2    -378.3884795844      8.80e-04  Done DIIS. Switching to GDM
 ---------------------------------------
  Cycle       Energy        RMS Gradient
 ---------------------------------------
    1    -378.3884795844      1.98e-02   Normal BFGS step
    2    -378.3866917599      3.47e-02  Line search: overstep
    3    -378.3914655657      2.12e-03   Normal BFGS step
    4    -378.3916157572      8.72e-04   Normal BFGS step
    5    -378.3916304960      1.39e-03   Normal BFGS step
    6    -378.3916365588      1.39e-04   Normal BFGS step
    7    -378.3916368879      6.07e-05   Normal BFGS step
    8    -378.3916369186      2.85e-05   Normal BFGS step
    9    -378.3916369219      2.60e-06   Normal BFGS step
   10    -378.3916369221      1.23e-06   Normal BFGS step
   11    -378.3916369221      1.04e-06   Normal BFGS step
   12    -378.3916369221      3.04e-07   Normal BFGS step
   13    -378.3916369221      4.90e-08  Convergence criterion met
 ---------------------------------------
 SCF time:   CPU 256.40s  wall 32.00s 
(3)  G-ENP(liq) elect-nuc-pol free energy of system     -378.391636922 a.u.
(4)  G-CDS(liq) cavity-dispersion-solvent structure 
     free energy                                                5.8488 kcal/mol
(6)  G-S(liq) free energy of system                     -378.382316238 a.u.
 SCF   energy in the final basis set =     -378.3823162379
 Total energy in the final basis set =     -378.3823162379
 
 --------------------------------------------------------------
 
                    Orbital Energies (a.u.)
 --------------------------------------------------------------
 
 Alpha MOs
 -- Occupied --
-19.4009 -19.4007 -19.3550 -19.3549 -10.5124 -10.5122  -1.2812  -1.2558
 -1.1901  -1.1732  -0.8535  -0.7544  -0.6571  -0.6344  -0.6277  -0.6176
 -0.5625  -0.5588  -0.5206  -0.4638  -0.4596  -0.4507  -0.3967
 -- Virtual --
  0.0107   0.0319   0.0424   0.0745   0.0844   0.0863   0.1114   0.1115
  0.1366   0.1405   0.1580   0.1649   0.2082   0.2167   0.2216   0.2482
  0.2682   0.2759   0.2776   0.3001   0.3035   0.3157   0.3276   0.3350
  0.3459   0.3471   0.3523   0.3574   0.4032   0.4116   0.4175   0.4393
  0.4419   0.5328   0.5925   0.5950   0.5950   0.6362   0.6824   0.6867
  0.7118   0.7270   0.7292   0.7567   0.8390   0.8482   0.8540   0.8711
  0.8716   0.9287   0.9749   1.0529   1.0532   1.0940   1.0959   1.1097
  1.1186   1.1321   1.1404   1.1539   1.1642   1.1799   1.2202   1.2624
  1.2832   1.2835   1.3575   1.3934   1.4478   1.4756   1.5333   1.5879
  1.5902   1.5986   1.6603   1.6699   1.6847   1.7471   1.8118   1.8361
  1.8374   1.8876   1.9595   1.9951   2.0171   2.0606   2.1730   2.2798
  2.3202   2.3677   2.4185   2.4213   2.4809   2.5984   2.6230   2.6664
  2.6669   2.7183   2.7653   2.8167   2.8476   2.8707   2.9061   3.0989
  3.1129   3.1463   3.2011   3.2113   3.2839   3.3115   3.3281   3.4184
  3.4410   3.4471   3.4558   3.5024   3.5789   3.6116   3.6268   3.6607
  3.7033   3.7571   3.7733   3.8216   3.9020   3.9597   4.0326   4.0402
  4.0605   4.2016   4.2412   4.3430   4.3823   4.4240   4.7466   5.1001
  5.1068   5.1264   5.1417   5.1485   5.1526   5.1755   5.1917   5.2026
  5.2288   5.2351   5.2794   5.2798   5.2858   5.3566   5.4468   5.4598
  5.5536   5.5636   5.5733   5.5980   5.6032   5.6240   5.6640   5.8597
  5.8903   5.9059   6.0674   6.0772   6.1183   6.4705   6.4811   6.6652
  6.7948   6.8886   6.8985   6.9141   6.9821   7.0077   7.0175   7.0385
  7.0713   7.1000   7.2059   7.2216   7.2497   7.3143   7.3594   7.3832
  7.4113   7.4309   7.5155   7.5710   7.6220   7.7213   7.7524   7.8336
  7.8732   7.8812   7.9211  25.0572  25.1653  50.5574  50.5769  50.7347
 50.7460
 --------------------------------------------------------------
 
          Ground-State Mulliken Net Atomic Charges

     Atom                 Charge (a.u.)
  ----------------------------------------
      1 C                     0.367457
      2 O                    -0.285271
      3 O                    -0.453686
      4 C                     0.367461
      5 O                    -0.454627
      6 O                    -0.284263
      7 H                     0.371382
      8 H                     0.371547
  ----------------------------------------
  Sum of atomic charges =     0.000000

 -----------------------------------------------------------------
                    Cartesian Multipole Moments
 -----------------------------------------------------------------
    Charge (ESU x 10^10)
                 0.0000
    Dipole Moment (Debye)
         X      -0.0011      Y      -0.0145      Z       0.0007
       Tot       0.0146
    Quadrupole Moments (Debye-Ang)
        XX     -23.7145     XY      11.6887     YY     -40.9237
        XZ       0.0054     YZ       0.0091     ZZ     -32.3158
    Octopole Moments (Debye-Ang^2)
       XXX     -75.1179    XXY      25.4502    XYY     -43.9918
       YYY       4.0259    XXZ       0.0230    XYZ       0.0070
       YYZ       0.0110    XZZ     -34.1214    YZZ       1.0598
       ZZZ       0.0234
    Hexadecapole Moments (Debye-Ang^3)
      XXXX    -397.5192   XXXY     105.0900   XXYY    -128.7353
      XYYY      12.7464   YYYY    -225.3862   XXXZ       0.0039
      XXYZ       0.0540   XYYZ      -0.0193   YYYZ       0.0153
      XXZZ     -95.7341   XYZZ      -1.0454   YYZZ     -40.9258
      XZZZ      -0.0832   YZZZ       0.0044   ZZZZ     -28.0257
 -----------------------------------------------------------------
 Calculating analytic gradient of the SCF energy
 Gradient of CDS energy
            1           2           3           4           5           6
    1   0.0029541  -0.0013299  -0.0006429  -0.0029458   0.0006481   0.0013162
    2   0.0015591  -0.0029110   0.0010508  -0.0015178  -0.0010598   0.0028775
    3   0.0000025  -0.0000013  -0.0000004  -0.0000014   0.0000007  -0.0000001
            7           8
    1   0.0003614  -0.0003612
    2   0.0002289  -0.0002278
    3   0.0000003  -0.0000001
 Gradient of SCF Energy
            1           2           3           4           5           6
    1   0.0010805  -0.0191547  -0.0000201  -0.0008217  -0.0004645   0.0193474
    2  -0.0004849   0.0056170  -0.0086495  -0.0009851   0.0096020  -0.0050505
    3  -0.0000016  -0.0000093   0.0000037  -0.0000251   0.0000073   0.0000211
            7           8
    1   0.0186259  -0.0185927
    2   0.0008282  -0.0008772
    3   0.0000134  -0.0000096
 Max gradient component =       1.935E-02
 RMS gradient           =       8.323E-03
 Computing fast CPCM-SWIG gradient
 Updating gradient with PCM contributions...
 -- total gradient after adding PCM contribution --
---------------------------------------------------
  Atom         X              Y              Z     
---------------------------------------------------
   1       0.000288      -0.001596      -0.000005
   2       0.000116       0.000500       0.000005
   3      -0.000450       0.000969       0.000003
   4      -0.000022       0.000112      -0.000023
   5      -0.000061      -0.000018       0.000010
   6       0.000057       0.000048       0.000009
   7       0.000005       0.000033       0.000000
   8       0.000067      -0.000047       0.000000
---------------------------------------------------
 Number of fixed atoms: 0
 Gradient time:  CPU 51.66 s  wall 7.57 s
 ----------------------------------------------------------------
             Standard Nuclear Orientation (Angstroms)
    I     Atom           X                Y                Z
 ----------------------------------------------------------------
    1      C       1.8235784383    -0.0637334893     0.0012473030
    2      O       2.3417852248     1.1510612460     0.0007760691
    3      O       2.4376891661    -1.0978774708     0.0006843887
    4      C       0.2881145663    -0.0022133723    -0.0008982110
    5      O      -0.3258508336     1.0319556106    -0.0015152341
    6      O      -0.2300177268    -1.2169567043    -0.0008235433
    7      H       3.3109425424     1.0843720479     0.0015034206
    8      H      -1.1991530757    -1.1507164572    -0.0014270296
 ----------------------------------------------------------------
 Nuclear Repulsion Energy =         232.69009072 hartrees
 There are       23 alpha and       23 beta electrons
 Discretize the solute cavity surface with Lebedev spheres
	Using 110 Lebedev grid points for each H atom
	Using 194 Lebedev grid points for other atoms
	Atomic van der Waals radii will be scaled by 1.20
 Remove points where switching function is < 1.0e-08
 Keep 774 surface tesserae and discard 610 interior tesserae
 Molecular Surface Area = 95.717 Angst**2

                       Distance Matrix (Angstroms)
             C (  1)   O (  2)   O (  3)   C (  4)   O (  5)   O (  6)
   O (  2)  1.320706
   O (  3)  1.202741  2.250983
   C (  4)  1.536697  2.355336  2.412707
   O (  5)  2.412590  2.670295  3.489032  1.202688
   O (  6)  2.355246  3.495952  2.670364  1.320630  2.250953
   H (  7)  1.878935  0.971449  2.350486  3.212190  3.637172  4.223094
   H (  8)  3.212234  4.223320  3.637227  1.879102  2.350896  0.971397
             H (  7)
   H (  8)  5.033547
 
 Requested basis set is 6-311++G(2df,2p)
 There are 60 shells and 224 basis functions
 A cutoff of  1.0D-12 yielded   1720 shell pairs
 There are     24368 function pairs (     31341 Cartesian)
 Smallest overlap matrix eigenvalue = 7.34E-05
 Guess MOs from SCF MO coefficient file

 -----------------------------------------------------------------------
  General SCF calculation program by
  Eric Jon Sundstrom, Paul Horn, Yuezhi Mao, Dmitri Zuev, Alec White,
  David Stuck, Shaama M.S., Shane Yost, Joonho Lee, David Small,
  Daniel Levine, Susi Lehtola, Hugh Burton, Evgeny Epifanovsky,
  Bang C. Huynh
 -----------------------------------------------------------------------
 Exchange:     0.1500 Hartree-Fock + 1.0000 wB97M-V + LR-HF
 Correlation:  1.0000 wB97M-V
 Using SG-2 standard quadrature grid
 Nonlocal Correlation:  VV10 with C = 0.0100 and b = 6.00 and scale = 1.00000
 Grid used for NLC:  SG-1 standard quadrature
 
 Citation of the SMD model:
 Marenich, A.V.; Cramer, C.J.; Truhlar, D.G.
 J. Phys. Chem. B 2009, 113, 6378-6396.
 iSolventCode=           1
 Solvent: water                                                           
 
 vradii
            1           2           3           4           5           6
    1   1.8500000   1.5200000   1.5200000   1.8500000   1.5200000   1.5200000
            7           8
    1   1.2000000   1.2000000
 -------------------------------------------------------
 OpenMP BLAS3 based DFT computing Module                
 Release: version 1.0, May 2013, Q-Chem Inc. Pittsburgh 
 -------------------------------------------------------
 A restricted SCF calculation will be
 performed using Roothaan-Hall, DIIS, GDM
 SCF converges when RMS gradient is below 1.0e-07
 ---------------------------------------
  Cycle       Energy         DIIS error
 ---------------------------------------
    1    -378.3571842779      6.85e-04  Roothaan Step
 ---------------------------------------
  Cycle       Energy         DIIS error
 ---------------------------------------
    1    -378.3857112267      8.48e-04  
    2    -378.3884003527      8.92e-04  Done DIIS. Switching to GDM
 ---------------------------------------
  Cycle       Energy        RMS Gradient
 ---------------------------------------
    1    -378.3884003527      2.03e-02   Normal BFGS step
    2    -378.3865416380      3.55e-02  Line search: overstep
    3    -378.3914665659      2.14e-03   Normal BFGS step
    4    -378.3916195983      9.05e-04   Normal BFGS step
    5    -378.3916345454      1.40e-03   Normal BFGS step
    6    -378.3916406136      1.42e-04   Normal BFGS step
    7    -378.3916409532      6.08e-05   Normal BFGS step
    8    -378.3916409846      2.88e-05   Normal BFGS step
    9    -378.3916409880      2.61e-06   Normal BFGS step
   10    -378.3916409882      1.04e-06   Normal BFGS step
   11    -378.3916409882      3.40e-07   Normal BFGS step
   12    -378.3916409882      1.98e-07   Normal BFGS step
   13    -378.3916409882      1.07e-07   Normal BFGS step
   14    -378.3916409881      3.33e-08  Convergence criterion met
 ---------------------------------------
 SCF time:   CPU 269.88s  wall 34.00s 
(3)  G-ENP(liq) elect-nuc-pol free energy of system     -378.391640988 a.u.
(4)  G-CDS(liq) cavity-dispersion-solvent structure 
     free energy                                                5.8506 kcal/mol
(6)  G-S(liq) free energy of system                     -378.382317391 a.u.
 SCF   energy in the final basis set =     -378.3823173913
 Total energy in the final basis set =     -378.3823173913
 
 --------------------------------------------------------------
 
                    Orbital Energies (a.u.)
 --------------------------------------------------------------
 
 Alpha MOs
 -- Occupied --
-19.4009 -19.4009 -19.3549 -19.3549 -10.5124 -10.5123  -1.2812  -1.2559
 -1.1900  -1.1731  -0.8535  -0.7546  -0.6572  -0.6344  -0.6278  -0.6176
 -0.5625  -0.5588  -0.5205  -0.4637  -0.4595  -0.4507  -0.3966
 -- Virtual --
  0.0107   0.0319   0.0424   0.0745   0.0844   0.0863   0.1113   0.1115
  0.1366   0.1406   0.1581   0.1648   0.2082   0.2166   0.2216   0.2482
  0.2682   0.2759   0.2776   0.3001   0.3036   0.3158   0.3276   0.3350
  0.3459   0.3470   0.3523   0.3574   0.4032   0.4117   0.4175   0.4393
  0.4420   0.5328   0.5924   0.5949   0.5952   0.6362   0.6824   0.6867
  0.7117   0.7269   0.7291   0.7565   0.8392   0.8483   0.8538   0.8711
  0.8715   0.9284   0.9749   1.0530   1.0532   1.0941   1.0958   1.1096
  1.1185   1.1321   1.1405   1.1540   1.1642   1.1799   1.2202   1.2623
  1.2833   1.2835   1.3576   1.3933   1.4476   1.4756   1.5331   1.5879
  1.5902   1.5987   1.6601   1.6700   1.6847   1.7471   1.8117   1.8360
  1.8374   1.8875   1.9596   1.9951   2.0171   2.0604   2.1729   2.2797
  2.3204   2.3677   2.4187   2.4216   2.4806   2.5983   2.6228   2.6662
  2.6668   2.7182   2.7659   2.8166   2.8476   2.8713   2.9057   3.0990
  3.1128   3.1466   3.2008   3.2114   3.2841   3.3117   3.3281   3.4186
  3.4413   3.4470   3.4559   3.5023   3.5791   3.6115   3.6263   3.6606
  3.7036   3.7571   3.7734   3.8214   3.9028   3.9596   4.0325   4.0401
  4.0602   4.2015   4.2411   4.3430   4.3823   4.4239   4.7465   5.1000
  5.1069   5.1265   5.1417   5.1485   5.1526   5.1755   5.1918   5.2024
  5.2287   5.2350   5.2794   5.2797   5.2857   5.3567   5.4465   5.4597
  5.5534   5.5637   5.5733   5.5979   5.6031   5.6239   5.6643   5.8599
  5.8899   5.9057   6.0685   6.0771   6.1185   6.4700   6.4795   6.6652
  6.7953   6.8886   6.8984   6.9135   6.9819   7.0076   7.0174   7.0386
  7.0709   7.0991   7.2058   7.2217   7.2498   7.3143   7.3597   7.3834
  7.4111   7.4310   7.5156   7.5709   7.6218   7.7214   7.7525   7.8335
  7.8731   7.8814   7.9214  25.0570  25.1657  50.5576  50.5770  50.7342
 50.7453
 --------------------------------------------------------------
 
          Ground-State Mulliken Net Atomic Charges

     Atom                 Charge (a.u.)
  ----------------------------------------
      1 C                     0.367382
      2 O                    -0.284367
      3 O                    -0.454598
      4 C                     0.367360
      5 O                    -0.454579
      6 O                    -0.284317
      7 H                     0.371558
      8 H                     0.371562
  ----------------------------------------
  Sum of atomic charges =     0.000000

 -----------------------------------------------------------------
                    Cartesian Multipole Moments
 -----------------------------------------------------------------
    Charge (ESU x 10^10)
                 0.0000
    Dipole Moment (Debye)
         X      -0.0010      Y      -0.0011      Z       0.0030
       Tot       0.0034
    Quadrupole Moments (Debye-Ang)
        XX     -23.7145     XY      11.7218     YY     -40.9232
        XZ       0.0091     YZ       0.0091     ZZ     -32.3165
    Octopole Moments (Debye-Ang^2)
       XXX     -75.1202    XXY      25.5307    XYY     -43.9895
       YYY       4.0430    XXZ       0.0260    XYZ       0.0066
       YYZ       0.0044    XZZ     -34.1232    YZZ       1.0651
       ZZZ       0.0105
    Hexadecapole Moments (Debye-Ang^3)
      XXXX    -397.5361   XXXY     105.3118   XXYY    -128.7261
      XYYY      12.7979   YYYY    -225.3791   XXXZ      -0.0110
      XXYZ       0.0536   XYYZ      -0.0342   YYYZ       0.0151
      XXZZ     -95.7397   XYZZ      -1.0301   YYZZ     -40.9253
      XZZZ      -0.1085   YZZZ       0.0059   ZZZZ     -28.0276
 -----------------------------------------------------------------
 Calculating analytic gradient of the SCF energy
 Gradient of CDS energy
            1           2           3           4           5           6
    1   0.0029475  -0.0013177  -0.0006481  -0.0029458   0.0006476   0.0013164
    2   0.0015208  -0.0028803   0.0010607  -0.0015185  -0.0010601   0.0028775
    3   0.0000003   0.0000010   0.0000005  -0.0000024   0.0000007  -0.0000001
            7           8
    1   0.0003613  -0.0003612
    2   0.0002278  -0.0002278
    3   0.0000001  -0.0000001
 Gradient of SCF Energy
            1           2           3           4           5           6
    1   0.0007853  -0.0193125   0.0004670  -0.0008458  -0.0004097   0.0192825
    2   0.0011160   0.0051562  -0.0096474  -0.0010946   0.0095799  -0.0050663
    3   0.0003717  -0.0001313  -0.0001282  -0.0002271   0.0000485   0.0000412
            7           8
    1   0.0186281  -0.0185950
    2   0.0008406  -0.0008844
    3   0.0000218   0.0000034
 Max gradient component =       1.931E-02
 RMS gradient           =       8.368E-03
 Computing fast CPCM-SWIG gradient
 Updating gradient with PCM contributions...
 -- total gradient after adding PCM contribution --
---------------------------------------------------
  Atom         X              Y              Z     
---------------------------------------------------
   1      -0.000013       0.000030       0.000351
   2      -0.000023       0.000048      -0.000110
   3       0.000051      -0.000026      -0.000125
   4      -0.000049      -0.000008      -0.000219
   5       0.000006      -0.000042       0.000054
   6      -0.000014       0.000032       0.000031
   7      -0.000023       0.000024       0.000006
   8       0.000064      -0.000058       0.000011
---------------------------------------------------
 Number of fixed atoms: 0
 Gradient time:  CPU 52.39 s  wall 7.85 s
 ----------------------------------------------------------------
             Standard Nuclear Orientation (Angstroms)
    I     Atom           X                Y                Z
 ----------------------------------------------------------------
    1      C       1.8235784383    -0.0637334893    -0.0007526970
    2      O       2.3417852248     1.1510612460     0.0007760691
    3      O       2.4376891661    -1.0978774708     0.0006843887
    4      C       0.2881145663    -0.0022133723    -0.0008982110
    5      O      -0.3258508336     1.0319556106    -0.0015152341
    6      O      -0.2300177268    -1.2169567043    -0.0008235433
    7      H       3.3109425424     1.0843720479     0.0015034206
    8      H      -1.1991530757    -1.1507164572    -0.0014270296
 ----------------------------------------------------------------
 Nuclear Repulsion Energy =         232.69008798 hartrees
 There are       23 alpha and       23 beta electrons
 Discretize the solute cavity surface with Lebedev spheres
	Using 110 Lebedev grid points for each H atom
	Using 194 Lebedev grid points for other atoms
	Atomic van der Waals radii will be scaled by 1.20
 Remove points where switching function is < 1.0e-08
 Keep 774 surface tesserae and discard 610 interior tesserae
 Molecular Surface Area = 95.717 Angst**2

                       Distance Matrix (Angstroms)
             C (  1)   O (  2)   O (  3)   C (  4)   O (  5)   O (  6)
   O (  2)  1.320707
   O (  3)  1.202742  2.250983
   C (  4)  1.536696  2.355336  2.412707
   O (  5)  2.412588  2.670295  3.489032  1.202688
   O (  6)  2.355245  3.495952  2.670364  1.320630  2.250953
   H (  7)  1.878937  0.971449  2.350486  3.212190  3.637172  4.223094
   H (  8)  3.212233  4.223320  3.637227  1.879102  2.350896  0.971397
             H (  7)
   H (  8)  5.033547
 
 Requested basis set is 6-311++G(2df,2p)
 There are 60 shells and 224 basis functions
 A cutoff of  1.0D-12 yielded   1720 shell pairs
 There are     24368 function pairs (     31341 Cartesian)
 Smallest overlap matrix eigenvalue = 7.34E-05
 Guess MOs from SCF MO coefficient file

 -----------------------------------------------------------------------
  General SCF calculation program by
  Eric Jon Sundstrom, Paul Horn, Yuezhi Mao, Dmitri Zuev, Alec White,
  David Stuck, Shaama M.S., Shane Yost, Joonho Lee, David Small,
  Daniel Levine, Susi Lehtola, Hugh Burton, Evgeny Epifanovsky,
  Bang C. Huynh
 -----------------------------------------------------------------------
 Exchange:     0.1500 Hartree-Fock + 1.0000 wB97M-V + LR-HF
 Correlation:  1.0000 wB97M-V
 Using SG-2 standard quadrature grid
 Nonlocal Correlation:  VV10 with C = 0.0100 and b = 6.00 and scale = 1.00000
 Grid used for NLC:  SG-1 standard quadrature
 
 Citation of the SMD model:
 Marenich, A.V.; Cramer, C.J.; Truhlar, D.G.
 J. Phys. Chem. B 2009, 113, 6378-6396.
 iSolventCode=           1
 Solvent: water                                                           
 
 vradii
            1           2           3           4           5           6
    1   1.8500000   1.5200000   1.5200000   1.8500000   1.5200000   1.5200000
            7           8
    1   1.2000000   1.2000000
 -------------------------------------------------------
 OpenMP BLAS3 based DFT computing Module                
 Release: version 1.0, May 2013, Q-Chem Inc. Pittsburgh 
 -------------------------------------------------------
 A restricted SCF calculation will be
 performed using Roothaan-Hall, DIIS, GDM
 SCF converges when RMS gradient is below 1.0e-07
 ---------------------------------------
  Cycle       Energy         DIIS error
 ---------------------------------------
    1    -378.3571535379      6.86e-04  Roothaan Step
 ---------------------------------------
  Cycle       Energy         DIIS error
 ---------------------------------------
    1    -378.3857236072      8.47e-04  
    2    -378.3884235587      8.89e-04  Done DIIS. Switching to GDM
 ---------------------------------------
  Cycle       Energy        RMS Gradient
 ---------------------------------------
    1    -378.3884235587      2.02e-02   Normal BFGS step
    2    -378.3865843820      3.53e-02  Line search: overstep
    3    -378.3914673441      2.13e-03   Normal BFGS step
    4    -378.3916196223      8.95e-04   Normal BFGS step
    5    -378.3916345163      1.40e-03   Normal BFGS step
    6    -378.3916405861      1.41e-04   Normal BFGS step
    7    -378.3916409229      6.08e-05   Normal BFGS step
    8    -378.3916409542      2.87e-05   Normal BFGS step
    9    -378.3916409575      2.61e-06   Normal BFGS step
   10    -378.3916409577      1.04e-06   Normal BFGS step
[...]
     5    2.645480975684324e-01  -5.251674921928541e-01   2.632829431763805e-04
     6   -7.418155829541881e-02  -2.402114549434658e-01   1.155822008424241e-05
     7   -1.816933542798488e-03  -5.601657223780691e-03  -3.039798870137385e-06
     8   -1.438313595870672e-02  -4.479435806522090e-03  -3.406481122007137e-06

Order 1, Length 24
    Atom      X          Y          Z
     1   -6.382232796864245e-05  -1.363220978552414e-05  -1.036274381034238e-01
     2   -2.478516165390072e-05  -3.203209326201417e-06   1.175627922441807e-02
     3   -1.691206240203292e-05   7.937506508498240e-06   2.334091318791499e-02
     4    3.742093268510536e-04  -2.589958801453653e-04   1.885503093905875e-01
     5   -2.053908754622421e-04   2.870178481844343e-04  -6.831364347265764e-02
     6   -4.382366208657098e-05   8.794902934390780e-06  -6.047318525518195e-02
     7   -5.765923587776430e-06  -1.623834599299268e-06   5.826706393029929e-03
     8   -1.377274188550135e-05  -2.629549182858738e-05   2.935779332647311e-03


     5 Order 1, Length 24
    Atom      X          Y          Z
     1    1.197046799217146e-03   3.584645285425415e-02  -1.927374875584648e-05
     2   -9.527664376525781e-03  -2.829929857567679e-03  -7.383644069660442e-06
     3   -2.256421755628966e-02   9.230096271980789e-03  -1.512713473077174e-05
     4   -2.946648194128037e-01   2.645480975684324e-01  -2.053908754622421e-04
     5    2.827295752701623e-01  -3.208815722383709e-01   2.391076914894049e-04
     6    4.021987478843550e-02   8.756654287666307e-03   4.879292267444713e-06
     7    1.653115972574962e-03   8.779368374767374e-04   1.771462490581289e-06
     8    9.577413424643750e-04   4.451552995142917e-03   2.085923593884705e-06

Order 1, Length 24
    Atom      X          Y          Z
     1    7.021332331983368e-03  -1.268260327212427e-02   9.104548618176438e-06
     2   -3.553732191631521e-04   3.617440982518427e-03  -3.148525160202000e-06
     3    9.234956332397203e-03  -1.458762747344651e-03   6.364557474086436e-06
     4    2.935013387915733e-01  -5.251674921928541e-01   2.870178481844343e-04
     5   -3.208815722383709e-01   6.549238390283226e-01  -3.475609916305424e-04
     6    1.067569778412103e-03  -1.246291922585988e-01   4.300106619504816e-05
     7   -9.010896779728674e-05   1.109738426854382e-03   0.000000000000000e+00
     8    1.050044777443054e-02   4.288269790473105e-03   4.159098562338433e-06

Order 1, Length 24
    Atom      X          Y          Z
     1   -2.248423337035114e-05   3.090546633457918e-05   2.334599426925666e-02
     2   -4.447586645661391e-06  -2.918850232719599e-06  -1.567609497970042e-03
     3   -1.444032965458236e-05   6.008155598520359e-06  -3.047502018193476e-03
     4   -2.079385568433768e-04   2.632829431763805e-04  -6.831364347265764e-02
     5    2.391076914894049e-04  -3.475609916305424e-04   2.751350035182556e-02
     6    7.041750591090425e-06   4.917120932426590e-05   2.736981010558202e-02
     7    2.258851320541494e-06   1.259246972680796e-06  -6.149608702835717e-04
     8    9.276497976650677e-07  -1.475987433330133e-07  -4.683985934683166e-03


     6 Order 1, Length 24
    Atom      X          Y          Z
     1   -1.107541384764105e-02  -3.759482209043363e-02   3.129131333202388e-06
     2   -1.695879425718383e-02  -4.454768753099575e-03  -1.413157901203935e-05
     3   -9.528550102715850e-03  -3.532206008412896e-04  -6.270779310004548e-06
     4   -1.717995217638270e-01  -7.418155829541881e-02  -4.382366208657098e-05
     5    4.021987478843550e-02   1.067569778412103e-03   7.041750591090425e-06
     6    6.476043724493131e-01   4.807353440983103e-02   3.526448259863920e-04
     7    2.986325877764969e-04  -2.036805740193352e-03  -1.191974476975391e-06
     8   -4.787600231375844e-01   6.947952386048713e-02  -2.973251804943187e-04

Order 1, Length 24
    Atom      X          Y          Z
     1   -1.406455482988045e-03  -8.569418446757749e-03   7.646278280421546e-06
     2   -4.457808247366577e-03   9.116671915253375e-05  -3.775266190949490e-06
     3   -2.828448631270692e-03   3.615246150245827e-03  -4.291058002443272e-06
     4   -7.156863055788999e-02  -2.402114549434658e-01   8.794902934390780e-06
     5    8.756654287666307e-03  -1.246291922585988e-01   4.917120932426590e-05
     6    4.807353440983103e-02   4.145020189027318e-01  -8.663392426678256e-05
     7    3.003796343852880e-04  -2.428499573191957e-04  -1.543528204383075e-07
     8    2.313245664041451e-02  -4.455650234140052e-02   2.952608972333217e-05

Order 1, Length 24
    Atom      X          Y          Z
     1   -1.666690903047636e-05  -1.759805856337808e-05   1.175447221449565e-02
     2   -9.206491480287020e-06  -3.471538004497715e-06  -1.653640100675867e-04
     3   -4.055891180858258e-06  -3.057186948059567e-06  -1.566489018807280e-03
     4   -4.547200395640115e-05   1.155822008424241e-05  -6.047318525518195e-02
     5    4.879292267444713e-06   4.300106619504816e-05   2.736981010558202e-02
     6    3.526448259863920e-04  -8.663392426678256e-05   3.865239259103854e-02
     7    2.262092709271641e-07  -1.043757617207588e-06  -5.168249835374499e-05
     8   -2.823092616534425e-04   5.724533153019620e-05  -1.551739386989945e-02


     7 Order 1, Length 24
    Atom      X          Y          Z
     1   -2.518813089827592e-02  -1.438697494850012e-02  -2.272276951665626e-05
     2   -4.785327650926252e-01   2.330669349942065e-02  -3.449280618780617e-04
     3    9.584100689166636e-04   1.050558565434500e-02   5.621397560387471e-06
     4   -5.097762348874510e-04  -1.816933542798488e-03  -5.765923587776430e-06
     5    1.653115972574962e-03  -9.010896779728674e-05   2.258851320541494e-06
     6    2.986325877764969e-04   3.003796343852880e-04   2.262092709271641e-07
     7    5.012315161291528e-01  -1.770978807850546e-02   3.647248289272453e-04
     8    8.933273218543074e-05  -1.092741960700937e-04   2.607478059692757e-07

Order 1, Length 24
    Atom      X          Y          Z
     1   -5.524235687757255e-02  -4.490984462241268e-03  -3.261241284768400e-05
     2    6.965270126640585e-02  -4.461837491783838e-02   5.404816670376705e-05
     3    4.451832495795359e-03   4.282857153645668e-03   4.433220918741890e-06
     4    1.159067429416061e-04  -5.601657223780691e-03  -1.623834599299268e-06
     5    8.779368374767374e-04   1.109738426854382e-03   1.259246972680796e-06
     6   -2.036805740193352e-03  -2.428499573191957e-04  -1.043757617207588e-06
     7   -1.770978807850546e-02   4.987384237832896e-02  -2.468329335880195e-05
     8   -1.090639770784368e-04  -3.127877802546827e-04   1.788169925187978e-07

Order 1, Length 24
    Atom      X          Y          Z
     1   -2.773987047316243e-05  -3.564191883046607e-07   2.944356846148662e-03
     2   -3.380172889297142e-04   2.041554351075900e-05  -1.555690139875732e-02
     3    4.063413693799444e-06   8.206341731374114e-06  -4.684567752297344e-03
     4   -3.898425969378327e-06  -3.039798870137385e-06   5.826706393029929e-03
     5    1.771462490581289e-06   0.000000000000000e+00  -6.149608702835717e-04
     6   -1.191974476975391e-06  -1.543528204383075e-07  -5.168249835374499e-05
     7    3.647248289272453e-04  -2.468329335880195e-05   1.238138164250779e-02
     8    2.897257344755203e-07  -3.493845713998245e-07  -2.442162261923248e-04


     8 Order 1, Length 24
    Atom      X          Y          Z
     1   -5.081295421583516e-04  -1.817387270260856e-03  -3.347150738041061e-06
     2    2.990400897964650e-04   3.005343544209118e-04   4.317608034686035e-07
     3    1.651861251653258e-03  -8.891821817013615e-05   1.353822052203138e-06
     4   -2.515061688116904e-02  -1.438313595870672e-02  -1.377274188550135e-05
     5    9.577413424643750e-04   1.050044777443054e-02   9.276497976650677e-07
     6   -4.787600231375844e-01   2.313245664041451e-02  -2.823092616534425e-04
     7    8.933273218543074e-05  -1.090639770784368e-04   2.897257344755203e-07
     8    5.014209701395027e-01  -1.753507457185138e-02   2.965240509752344e-04

Order 1, Length 24
    Atom      X          Y          Z
     1    1.156308627965547e-04  -5.600483721954805e-03   3.935879944516966e-06
     2   -2.035355421649994e-03  -2.418781362556109e-04  -1.816513529147009e-06
     3    8.776873710039995e-04   1.110038729886445e-03   3.635463693353080e-08
     4   -5.524471593661730e-02  -4.479435806522090e-03  -2.629549182858738e-05
     5    4.451552995142917e-03   4.288269790473105e-03  -1.475987433330133e-07
     6    6.947952386048713e-02  -4.455650234140052e-02   5.724533153019620e-05
     7   -1.092741960700937e-04  -3.127877802546827e-04  -3.493845713998245e-07
     8   -1.753507457185138e-02   4.979284566044619e-02  -3.275552818224217e-05

Order 1, Length 24
    Atom      X          Y          Z
     1   -4.447746313246645e-06   2.409799442025298e-06   5.829086543110967e-03
     2    1.240820671781452e-06   1.909763693111688e-07  -5.186413526942421e-05
     3    5.264704161138592e-07  -3.029571861968957e-07  -6.155331563761086e-04
     4    1.136920203562497e-06  -3.406481122007137e-06   2.935779332647311e-03
     5    2.085923593884705e-06   4.159098562338433e-06  -4.683985934683166e-03
     6   -2.973251804943187e-04   2.952608972333217e-05  -1.551739386989945e-02
     7    2.607478059692757e-07   1.788169925187978e-07  -2.442162261923248e-04
     8    2.965240509752344e-04  -3.275552818224217e-05   1.234824378853624e-02




 # Finishing finite difference calculation for IDERIV #
 ######################################################
 ######################################################
 Requested basis set is 6-311++G(2df,2p)
 There are 60 shells and 224 basis functions
 **********************************************************************
 **                                                                  **
 **                       VIBRATIONAL ANALYSIS                       **
 **                       --------------------                       **
 **                                                                  **
 **        VIBRATIONAL FREQUENCIES (CM**-1) AND NORMAL MODES         **
 **     FORCE CONSTANTS (mDYN/ANGSTROM) AND REDUCED MASSES (AMU)     **
 **                  INFRARED INTENSITIES (KM/MOL)                   **
 **                                                                  **
 **********************************************************************
 

 Mode:                 1                      2                      3
 Frequency:        44.79                 271.23                 434.86
 Force Cnst:      0.0139                 0.3773                 0.9377
 Red. Mass:      11.7956                 8.7059                 8.4164
 IR Active:          YES                    YES                    YES
 IR Intens:       10.450                 11.681                  0.014
 Raman Active:       YES                    YES                    YES
               X      Y      Z        X      Y      Z        X      Y      Z
 C         -0.000  0.000  0.023   -0.028  0.137  0.000    0.117  0.031  0.010
 O          0.000  0.000 -0.421    0.346 -0.030  0.000    0.348 -0.041 -0.002
 O         -0.000 -0.000  0.427   -0.346 -0.051 -0.000    0.307  0.140 -0.004
 C         -0.000  0.000  0.023   -0.028  0.137  0.000   -0.117 -0.031  0.010
 O         -0.000  0.000  0.427   -0.345 -0.050 -0.000   -0.307 -0.140 -0.004
 O          0.000 -0.000 -0.421    0.346 -0.030  0.000   -0.348  0.041 -0.002
 H          0.000 -0.000 -0.374    0.326 -0.362 -0.001    0.330 -0.373 -0.030
 H          0.000 -0.000 -0.374    0.326 -0.363 -0.000   -0.330  0.374 -0.029
 TransDip   0.000 -0.000 -0.104    0.103 -0.037 -0.000    0.000  0.000 -0.004

 Mode:                 4                      5                      6
 Frequency:       436.55                 535.42                 604.36
 Force Cnst:      0.2808                 2.1216                 0.2392
 Red. Mass:       2.5010                12.5613                 1.1113
 IR Active:          YES                    YES                    YES
 IR Intens:       23.820                  0.000                  0.028
 Raman Active:       YES                    YES                    YES
               X      Y      Z        X      Y      Z        X      Y      Z
 C         -0.002 -0.000  0.233    0.078 -0.302  0.000   -0.000 -0.000  0.024
 O         -0.005  0.001 -0.044   -0.266 -0.267 -0.000   -0.000 -0.000  0.053
 O         -0.004 -0.002 -0.089    0.376 -0.176  0.000    0.000  0.000  0.012
 C          0.001  0.000  0.233   -0.079  0.302  0.000   -0.000  0.000 -0.022
 O          0.004  0.002 -0.089   -0.376  0.176 -0.000   -0.000  0.000 -0.013
 O          0.004 -0.001 -0.044    0.266  0.266  0.000    0.000  0.000 -0.054
 H         -0.004  0.005 -0.659   -0.240  0.175  0.000    0.000 -0.000 -0.701
 H          0.005 -0.005 -0.661    0.241 -0.176 -0.003   -0.000  0.000  0.709
 TransDip  -0.000 -0.000 -0.156   -0.000 -0.000 -0.000   -0.000 -0.000  0.005

 Mode:                 7                      8                      9
 Frequency:       635.01                 645.24                 810.59
 Force Cnst:      0.8850                 0.3913                 1.4774
 Red. Mass:       3.7251                 1.5950                 3.8162
 IR Active:          YES                    YES                    YES
 IR Intens:      232.906                459.012                  0.000
 Raman Active:       YES                    YES                    YES
               X      Y      Z        X      Y      Z        X      Y      Z
 C         -0.194  0.001 -0.002   -0.001 -0.000  0.118    0.184 -0.039 -0.000
 O          0.052 -0.140  0.001    0.000 -0.001 -0.084    0.064  0.179  0.000
 O          0.092  0.180  0.001    0.000  0.001 -0.049    0.023 -0.176  0.000
 C         -0.194  0.000 -0.002   -0.001  0.000  0.119   -0.184  0.039  0.000
 O          0.092  0.180  0.001    0.000  0.001 -0.049   -0.023  0.176 -0.000
 O          0.052 -0.140  0.001    0.000 -0.001 -0.083   -0.064 -0.179 -0.000
 H          0.020 -0.631 -0.007   -0.000 -0.003  0.697    0.091  0.623 -0.001
 H          0.020 -0.632 -0.008   -0.000 -0.003  0.684   -0.091 -0.623  0.001
 TransDip  -0.388 -0.297 -0.005   -0.003 -0.002  0.686    0.000 -0.000 -0.000

 Mode:                10                     11                     12
 Frequency:       850.57                1130.88                1191.96
 Force Cnst:      5.2359                 2.8753                 1.5165
 Red. Mass:      12.2836                 3.8159                 1.8117
 IR Active:          YES                    YES                    YES
 IR Intens:        0.000                932.065                  0.004
 Raman Active:       YES                    YES                    YES
               X      Y      Z        X      Y      Z        X      Y      Z
 C         -0.000 -0.000  0.673   -0.125 -0.136 -0.000   -0.058 -0.068 -0.000
 O          0.000  0.000 -0.135    0.046  0.235  0.000   -0.016  0.126 -0.000
 O          0.000 -0.000 -0.161    0.048 -0.094  0.000    0.036 -0.061  0.000
 C          0.000 -0.000 -0.673   -0.125 -0.136 -0.000    0.057  0.068  0.000
 O         -0.000  0.000  0.161    0.048 -0.095  0.000   -0.035  0.061 -0.000
 O         -0.000 -0.000  0.135    0.045  0.236 -0.000    0.016 -0.126  0.000
 H          0.000  0.001  0.056    0.001 -0.629  0.000   -0.054 -0.684  0.000
 H         -0.000 -0.001 -0.055    0.001 -0.632  0.000    0.054  0.685 -0.000
 TransDip  -0.000 -0.000  0.000   -0.424 -0.881 -0.000   -0.001 -0.002 -0.000

 Mode:                13                     14                     15
 Frequency:      1321.80                1435.43                1758.74
 Force Cnst:      1.8403                 5.0494                22.9791
 Red. Mass:       1.7878                 4.1594                12.6089
 IR Active:          YES                    YES                    YES
 IR Intens:       80.862                  0.000               1552.561
 Raman Active:       YES                    YES                    YES
               X      Y      Z        X      Y      Z        X      Y      Z
 C         -0.135 -0.090 -0.000   -0.267 -0.231 -0.000   -0.279  0.490 -0.000
 O          0.078  0.009  0.000    0.087  0.055  0.000    0.001 -0.046 -0.000
 O          0.017  0.016  0.000    0.016  0.056  0.000    0.207 -0.332  0.000
 C         -0.135 -0.091 -0.000    0.267  0.230  0.000   -0.277  0.488 -0.000
 O          0.017  0.016  0.000   -0.016 -0.055  0.000    0.206 -0.331  0.000
 O          0.078  0.010  0.000   -0.087 -0.055 -0.000    0.001 -0.046  0.000
 H          0.101  0.677 -0.000    0.097  0.594 -0.000    0.022  0.169  0.000
 H          0.101  0.675 -0.000   -0.097 -0.593  0.000    0.021  0.166 -0.000
 TransDip  -0.272 -0.095 -0.000    0.000  0.000 -0.000   -0.361  1.209 -0.000

 Mode:                16                     17                     18
 Frequency:      1814.23                3733.91                3734.58
 Force Cnst:     20.9834                 8.7467                 8.7509
 Red. Mass:      10.8203                 1.0648                 1.0649
 IR Active:          YES                    YES                    YES
 IR Intens:        0.012                296.067                210.683
 Raman Active:       YES                    YES                    YES
               X      Y      Z        X      Y      Z        X      Y      Z
 C          0.356 -0.414  0.000   -0.002 -0.002 -0.000    0.000  0.000  0.000
 O         -0.033  0.028 -0.000   -0.061  0.003 -0.000    0.005 -0.000  0.000
 O         -0.173  0.274 -0.000   -0.000  0.001  0.000    0.000 -0.000  0.000
 C         -0.357  0.416 -0.000   -0.000  0.000 -0.000   -0.002 -0.002 -0.000
 O          0.174 -0.276  0.000    0.000  0.000  0.000   -0.000  0.001 -0.000
 O          0.033 -0.028  0.000   -0.005  0.000 -0.000   -0.061  0.003 -0.000
 H         -0.056 -0.299 -0.000    0.993 -0.045  0.001   -0.084  0.004 -0.000
 H          0.056  0.300 -0.000    0.085 -0.004  0.000    0.994 -0.045  0.001
 TransDip  -0.001  0.003 -0.000    0.530  0.151  0.000    0.447  0.127  0.000

 STANDARD THERMODYNAMIC QUANTITIES AT   298.15 K  AND     1.00 ATM

   This Molecule has  0 Imaginary Frequencies
   Zero point vibrational energy:       30.579 kcal/mol

   Atom    1 Element C  Has Mass   12.00000
   Atom    2 Element O  Has Mass   15.99491
   Atom    3 Element O  Has Mass   15.99491
   Atom    4 Element C  Has Mass   12.00000
   Atom    5 Element O  Has Mass   15.99491
   Atom    6 Element O  Has Mass   15.99491
   Atom    7 Element H  Has Mass    1.00783
   Atom    8 Element H  Has Mass    1.00783
   Molecular Mass:    89.995300 amu
   Principal axes and moments of inertia in amu*Bohr^2:
                             1           2           3
    Eigenvalues --      296.33369   496.56503   792.89869
          X               0.99390    -0.11028    -0.00072
          Y               0.11028     0.99390     0.00010
          Z               0.00070    -0.00018     1.00000
   Rotational Symmetry Number is   1
   The Molecule is an Asymmetric Top
   Translational Enthalpy:        0.889 kcal/mol
   Rotational Enthalpy:           0.889 kcal/mol
   Vibrational Enthalpy:         32.267 kcal/mol
   gas constant (RT):             0.592 kcal/mol
   Translational Entropy:        39.404  cal/mol.K
   Rotational Entropy:           26.259  cal/mol.K
   Vibrational Entropy:          10.606  cal/mol.K

   Total Enthalpy:               34.637 kcal/mol
   Total Entropy:                76.269  cal/mol.K
 Total job time:  1997.27s(wall), 15347.00s(cpu) 
 Wed Jan 25 04:29:46 2023

        *************************************************************
        *                                                           *
        *  Thank you very much for using Q-Chem.  Have a nice day.  *
        *                                                           *
        *************************************************************


