
Running Job 1 of 1 Q_in.in
qchem Q_in.in_383746.0 /scratch/ari.fischer/qChem1912891.hpc-mn1/qchem383746/ 0
/usr/local/qchem-5.4.1/exe/qcprog.exe_s Q_in.in_383746.0 /scratch/ari.fischer/qChem1912891.hpc-mn1/qchem383746/
                  Welcome to Q-Chem
     A Quantum Leap Into The Future Of Chemistry


 Q-Chem 5.4, Q-Chem, Inc., Pleasanton, CA (2021)

 License issued to: Nanyang Technological University (site)

 E. Epifanovsky,  A. T. B. Gilbert,  Xintian Feng,  Joonho Lee,  Yuezhi Mao,  
 N. Mardirossian,  P. Pokhilko,  A. White,  M. Wormit,  M. P. Coons,  
 A. L. Dempwolff,  Zhengting Gan,  D. Hait,  P. R. Horn,  L. D. Jacobson,  
 I. Kaliman,  J. Kussmann,  A. W. Lange,  Ka Un Lao,  D. S. Levine,  Jie Liu,  
 S. C. McKenzie,  A. F. Morrison,  K. Nanda,  F. Plasser,  D. R. Rehn,  
 M. L. Vidal,  Zhi-Qiang You,  Ying Zhu,  B. Alam,  B. Albrecht,  
 A. Aldossary,  E. Alguire,  J. H. Andersen,  D. Barton,  K. Begam,  A. Behn,  
 Y. A. Bernard,  E. J. Berquist,  H. Burton,  A. Carreras,  K. Carter-Fenk,  
 R. Chakraborty,  A. D. Chien,  K. D. Closser,  V. Cofer-Shabica,  
 S. Dasgupta,  Jia Deng,  M. de Wergifosse,  M. Diedenhofen,  Hainam Do,  
 S. Ehlert,  Po-Tung Fang,  S. Fatehi,  Qingguo Feng,  T. Friedhoff,  
 J. Gayvert,  Qinghui Ge,  G. Gidofalvi,  M. Goldey,  J. Gomes,  
 C. Gonzalez-Espinoza,  S. Gulania,  A. Gunina,  M. W. D. Hanson-Heine,  
 P. H. P. Harbach,  A. W. Hauser,  M. F. Herbst,  M. Hernandez Vera,  
 M. Hodecker,  Z. C. Holden,  S. Houck,  Xunkun Huang,  Kerwin Hui,  
 B. C. Huynh,  M. Ivanov,  Hyunjun Ji,  Hanjie Jiang,  B. Kaduk,  S. Kaehler,  
 K. Khistyaev,  Jaehoon Kim,  P. Klunzinger,  Z. Koczor-Benda,  
 Joong Hoon Koh,  D. Kosenkov,  L. Koulias,  T. Kowalczyk,  C. M. Krauter,  
 K. Kue,  A. Kunitsa,  T. Kus,  A. Landau,  K. V. Lawler,  D. Lefrancois,  
 S. Lehtola,  Rain Li,  Yi-Pei Li,  Jiashu Liang,  M. Liebenthal,  
 Hung-Hsuan Lin,  You-Sheng Lin,  Fenglai Liu,  Kuan-Yu Liu,  
 M. Loipersberger,  A. Luenser,  A. Manjanath,  P. Manohar,  E. Mansoor,  
 S. F. Manzer,  Shan-Ping Mao,  A. V. Marenich,  T. Markovich,  S. Mason,  
 S. A. Maurer,  P. F. McLaughlin,  M. F. S. J. Menger,  J.-M. Mewes,  
 S. A. Mewes,  P. Morgante,  J. W. Mullinax,  K. J. Oosterbaan,  G. Paran,  
 Alexander C. Paul,  Suranjan K. Paul,  F. Pavosevic,  Zheng Pei,  S. Prager,  
 E. I. Proynov,  E. Ramos,  B. Rana,  A. E. Rask,  A. Rettig,  R. M. Richard,  
 F. Rob,  E. Rossomme,  T. Scheele,  M. Scheurer,  M. Schneider,  
 N. Sergueev,  S. M. Sharada,  W. Skomorowski,  D. W. Small,  C. J. Stein,  
 Yu-Chuan Su,  E. J. Sundstrom,  Zhen Tao,  J. Thirman,  T. Tsuchimochi,  
 N. M. Tubman,  S. P. Veccham,  O. Vydrov,  J. Wenzel,  J. Witte,  A. Yamada,  
 Kun Yao,  S. Yeganeh,  S. R. Yost,  A. Zech,  Igor Ying Zhang,  Xing Zhang,  
 Yu Zhang,  D. Zuev,  A. Aspuru-Guzik,  A. T. Bell,  N. A. Besley,  
 K. B. Bravaya,  B. R. Brooks,  D. Casanova,  Jeng-Da Chai,  S. Coriani,  
 C. J. Cramer,  A. E. DePrince, III,  R. A. DiStasio Jr.,  A. Dreuw,  
 B. D. Dunietz,  T. R. Furlani,  W. A. Goddard III,  S. Grimme,  
 S. Hammes-Schiffer,  T. Head-Gordon,  W. J. Hehre,  Chao-Ping Hsu,  
 T.-C. Jagau,  Yousung Jung,  A. Klamt,  Jing Kong,  D. S. Lambrecht,  
 WanZhen Liang,  N. J. Mayhall,  C. W. McCurdy,  J. B. Neaton,  
 C. Ochsenfeld,  J. A. Parkhill,  R. Peverati,  V. A. Rassolov,  Yihan Shao,  
 L. V. Slipchenko,  T. Stauch,  R. P. Steele,  J. E. Subotnik,  
 A. J. W. Thom,  A. Tkatchenko,  D. G. Truhlar,  T. Van Voorhis,  
 T. A. Wesolowski,  K. B. Whaley,  H. L. Woodcock III,  P. M. Zimmerman,  
 S. Faraji,  P. M. W. Gill,  M. Head-Gordon,  J. M. Herbert,  A. I. Krylov

 Additional authors for Version 5.4.1: 
 S. Kotaru,  Shaozhi Li,  Xiangyuan Li,  F. Matz,  A. Molle,  Haisheng Ren,  
 Yingli Su,  Hung-Yi Tsai,  C. Utku,  Fang Wang

 Contributors to earlier versions of Q-Chem not listed above: 
 R. D. Adamson,  B. Austin,  R. Baer,  J. Baker,  G. J. O. Beran,  
 K. Brandhorst,  S. T. Brown,  E. F. C. Byrd,  A. K. Chakraborty,  
 G. K. L. Chan,  Chun-Min Chang,  Yunqing Chen,  C.-L. Cheng,  
 Siu Hung Chien,  D. M. Chipman,  D. L. Crittenden,  H. Dachsel,  
 R. J. Doerksen,  A. D. Dutoi,  R. G. Edgar,  J. Fosso-Tande,  
 L. Fusti-Molnar,  D. Ghosh,  A. Ghysels,  A. Golubeva-Zadorozhnaya,  
 J. Gonthier,  M. S. Gordon,  S. R. Gwaltney,  G. Hawkins,  J. E. Herr,  
 A. Heyden,  S. Hirata,  E. G. Hohenstein,  G. Kedziora,  F. J. Keil,  
 C. Kelley,  Jihan Kim,  R. A. King,  R. Z. Khaliullin,  P. P. Korambath,  
 W. Kurlancheek,  A. Laurent,  A. M. Lee,  M. S. Lee,  S. V. Levchenko,  
 Ching Yeh Lin,  D. Liotard,  E. Livshits,  R. C. Lochan,  I. Lotan,  
 L. A. Martinez-Martinez,  P. E. Maslen,  N. Nair,  D. P. O'Neill,  
 D. Neuhauser,  E. Neuscamman,  C. M. Oana,  R. Olivares-Amaya,  R. Olson,  
 T. M. Perrine,  B. Peters,  P. A. Pieniazek,  A. Prociuk,  Y. M. Rhee,  
 J. Ritchie,  M. A. Rohrdanz,  E. Rosta,  N. J. Russ,  H. F. Schaefer III,  
 M. W. Schmidt,  N. E. Schultz,  S. Sharma,  N. Shenvi,  C. D. Sherrill,  
 A. C. Simmonett,  A. Sodt,  T. Stein,  D. Stuck,  K. S. Thanthiriwatte,  
 V. Vanovschi,  L. Vogt,  Tao Wang,  A. Warshel,  M. A. Watson,  
 C. F. Williams,  Q. Wu,  X. Xu,  Jun Yang,  W. Zhang,  Yan Zhao

 Please cite Q-Chem as follows:
 Y. Shao et al., Mol. Phys. 113, 184-215 (2015)
 DOI: 10.1080/00268976.2014.952696

 Q-Chem 5.4.1 for Intel X86 EM64T Linux

 Parts of Q-Chem use Armadillo 9.800.1 (Horizon Scraper).
 http://arma.sourceforge.net/

 Q-Chem begins on Mon Feb  5 12:38:33 2024  

 Host: 
0

     Scratch files written to /scratch/ari.fischer/qChem1912891.hpc-mn1/qchem383746//
 Aug1521 |scratch|qcdevops|jenkins|workspace|build_RNUM 8249   
 Processing $rem in /usr/local/qchem-5.4.1/config/preferences:
 Processing $rem in /home/ari.fischer/.qchemrc:
 Symmetry turned off for PCM/SM12/SMD calculation

 Checking the input file for inconsistencies... 	...done.

--------------------------------------------------------------
User input:
--------------------------------------------------------------
$molecule
0 2
O        -0.4628443119    1.4062765168   -0.3338263962
C         0.0001780212    0.4576397441    0.5699888494
O        -0.9991184032   -0.4100108625    0.9945623619
C         1.1585387697   -0.3123762542   -0.0500006829
O         2.0694287861    0.4823349227   -0.5845675524
O         1.2217330546   -1.5180777080   -0.0011624366
H        -1.0496509914    2.0161099922    0.1307241003
H        -0.6649513630   -1.3165348992    0.9062656099
H         2.7994759286   -0.0533732966   -0.9357000371
H         0.4330768658    0.9910550084    1.4857371922
O         1.2872704652    1.6529693057    2.5904387587
H         2.0679795783    1.7852775305    2.0246481329
$end

$rem
BASIS = def2-TZVP
JOB_TYPE = SP
METHOD = wB97M-V
SCF_ALGORITHM = DIIS_GDM
MAX_SCF_CYCLES = 400
SCF_CONVERGENCE = 7
THRESH = 12
Solvent_method = SMD
$end
--------------------------------------------------------------
 ----------------------------------------------------------------
             Standard Nuclear Orientation (Angstroms)
    I     Atom           X                Y                Z
 ----------------------------------------------------------------
    1      O      -0.4628443119     1.4062765168    -0.3338263962
    2      C       0.0001780212     0.4576397441     0.5699888494
    3      O      -0.9991184032    -0.4100108625     0.9945623619
    4      C       1.1585387697    -0.3123762542    -0.0500006829
    5      O       2.0694287861     0.4823349227    -0.5845675524
    6      O       1.2217330546    -1.5180777080    -0.0011624366
    7      H      -1.0496509914     2.0161099922     0.1307241003
    8      H      -0.6649513630    -1.3165348992     0.9062656099
    9      H       2.7994759286    -0.0533732966    -0.9357000371
   10      H       0.4330768658     0.9910550084     1.4857371922
   11      O       1.2872704652     1.6529693057     2.5904387587
   12      H       2.0679795783     1.7852775305     2.0246481329
 ----------------------------------------------------------------
 Nuclear Repulsion Energy =         325.39385223 hartrees
 There are       29 alpha and       28 beta electrons
 Requested basis set is def2-TZVP
 There are 97 shells and 247 basis functions

 Total QAlloc Memory Limit 288000 MB
 Mega-Array Size       188 MB
 MEM_STATIC part       192 MB
 
 Citation of the SMD model:
 Marenich, A.V.; Cramer, C.J.; Truhlar, D.G.
 J. Phys. Chem. B 2009, 113, 6378-6396.
 iSolventCode=           1
 Solvent: water                                                           
 
 vradii
            1           2           3           4           5           6
    1   1.5200000   1.8500000   1.5200000   1.8500000   1.5200000   1.5200000
            7           8           9          10          11          12
    1   1.2000000   1.2000000   1.2000000   1.2000000   1.5200000   1.2000000
 Changing PCM_VDW_RADII to SMD_RADIUS
 Discretize the solute cavity surface with Lebedev spheres
	Using 110 Lebedev grid points for each H atom
	Using 194 Lebedev grid points for other atoms
	Atomic van der Waals radii will be scaled by 1.20
 Remove points where switching function is < 1.0e-08
 Keep 1055 surface tesserae and discard 853 interior tesserae
 Molecular Surface Area = 123.845 Angst**2

                       Distance Matrix (Angstroms)
             O (  1)   C (  2)   O (  3)   C (  4)   O (  5)   O (  6)
   C (  2)  1.389670
   O (  3)  2.313246  1.389847
   C (  4)  2.379749  1.522863  2.399193
   O (  5)  2.707203  2.369685  3.564536  1.321760
   O (  6)  3.391211  2.392043  2.674222  1.208344  2.249578
   H (  7)  0.965425  1.929747  2.575817  3.214127  3.548629  4.203220
   H (  8)  2.998729  1.924363  0.970180  2.290829  3.596575  2.103241
   H (  9)  3.624302  3.219364  4.275795  1.882610  0.971209  2.346911
   H ( 10)  2.070240  1.144783  2.062867  2.140962  2.687491  3.021357
   O ( 11)  3.416882  2.677244  3.468470  3.294097  3.473157  4.095880
   H ( 12)  3.480103  2.855601  3.909918  3.087297  2.916448  3.966383
             H (  7)   H (  8)   H (  9)   H ( 10)   O ( 11)
   H (  8)  3.443251
   H (  9)  4.498422  4.121974
   H ( 10)  2.255057  2.620386  3.543167
   O ( 11)  3.412224  3.932628  4.199051  1.545362
   H ( 12)  3.655113  4.282631  3.560812  1.895817  0.973207
 
 A cutoff of  1.0D-12 yielded   4328 shell pairs
 There are     28362 function pairs (     36880 Cartesian)
 Smallest overlap matrix eigenvalue = 3.26E-04

 Scale SEOQF with 1.000000e-01/1.000000e-01/1.000000e-01

 Standard Electronic Orientation quadrupole field applied
 Nucleus-field energy     =     0.0000000003 hartrees
 Guess from superposition of atomic densities
 Warning:  Energy on first SCF cycle will be non-variational
 SAD guess density has 57.000000 electrons

 -----------------------------------------------------------------------
  General SCF calculation program by
  Eric Jon Sundstrom, Paul Horn, Yuezhi Mao, Dmitri Zuev, Alec White,
  David Stuck, Shaama M.S., Shane Yost, Joonho Lee, David Small,
  Daniel Levine, Susi Lehtola, Hugh Burton, Evgeny Epifanovsky,
  Bang C. Huynh
 -----------------------------------------------------------------------
 Exchange:     0.1500 Hartree-Fock + 1.0000 wB97M-V + LR-HF
 Correlation:  1.0000 wB97M-V
 Using SG-2 standard quadrature grid
 Nonlocal Correlation:  VV10 with C = 0.0100 and b = 6.00 and scale = 1.00000
 Grid used for NLC:  SG-1 standard quadrature
 
 Citation of the SMD model:
 Marenich, A.V.; Cramer, C.J.; Truhlar, D.G.
 J. Phys. Chem. B 2009, 113, 6378-6396.
 iSolventCode=           1
 Solvent: water                                                           
 
 vradii
            1           2           3           4           5           6
    1   1.5200000   1.8500000   1.5200000   1.8500000   1.5200000   1.5200000
            7           8           9          10          11          12
    1   1.2000000   1.2000000   1.2000000   1.2000000   1.5200000   1.2000000
 using 4 threads for integral computing
 -------------------------------------------------------
 OpenMP Integral computing Module                
 Release: version 1.0, May 2013, Q-Chem Inc. Pittsburgh 
 -------------------------------------------------------
 -------------------------------------------------------
 OpenMP BLAS3 based DFT computing Module                
 Release: version 1.0, May 2013, Q-Chem Inc. Pittsburgh 
 -------------------------------------------------------
 A unrestricted SCF calculation will be
 performed using DIIS, GDM
 SCF converges when RMS gradient is below 1.0e-07
 ---------------------------------------
  Cycle       Energy         DIIS error
 ---------------------------------------
    1    -456.3989396977      1.73e-02  
    2    -455.0634509876      3.23e-03  Done DIIS. Switching to GDM
 ---------------------------------------
  Cycle       Energy        RMS Gradient
 ---------------------------------------
    1    -455.0634509876      3.32e-01   Descent step
    2    -455.2923159861      6.35e-02   Normal BFGS step
    3    -455.3318002736      6.33e-02   Normal BFGS step
    4    -455.3384212536      1.75e-02   Normal BFGS step
    5    -455.3420753144      1.58e-02   Normal BFGS step
    6    -455.3432027884      9.43e-03   Normal BFGS step
    7    -455.3434749729      4.46e-03   Normal BFGS step
    8    -455.3435287019      1.65e-03   Normal BFGS step
    9    -455.3435515816      7.59e-04   Normal BFGS step
   10    -455.3435533412      3.91e-04   Normal BFGS step
   11    -455.3435541340      1.91e-04   Normal BFGS step
   12    -455.3435543307      1.84e-04   Normal BFGS step
   13    -455.3435544395      1.56e-04   Normal BFGS step
   14    -455.3435545038      1.28e-04   Normal BFGS step
   15    -455.3435545698      1.03e-04   Normal BFGS step
   16    -455.3435546300      6.94e-05   Normal BFGS step
   17    -455.3435546629      3.02e-05   Normal BFGS step
   18    -455.3435546686      5.69e-06   Normal BFGS step
   19    -455.3435546691      3.17e-06   Normal BFGS step
   20    -455.3435546692      1.34e-06   Normal BFGS step
   21    -455.3435546692      3.80e-07   Normal BFGS step
   22    -455.3435546692      1.17e-07   Normal BFGS step
   23    -455.3435546692      4.32e-08  Convergence criterion met
 ---------------------------------------
 SCF time:   CPU 668.98s  wall 172.00s 
<S^2> =          0.756245497
(3)  G-ENP(liq) elect-nuc-pol free energy of system     -455.343554669 a.u.
(4)  G-CDS(liq) cavity-dispersion-solvent structure 
     free energy                                                4.7172 kcal/mol
(6)  G-S(liq) free energy of system                     -455.336037340 a.u.
 SCF   energy in the final basis set =     -455.3360373404
 Total energy in the final basis set =     -455.3360373404
 
 --------------------------------------------------------------
 
                    Orbital Energies (a.u.)
 --------------------------------------------------------------
 
 Alpha MOs
 -- Occupied --
-19.3944 -19.3793 -19.3600 -19.3557 -19.3472 -10.5005 -10.4759  -1.2655
 -1.2155  -1.1771  -1.1485  -1.1291  -0.8616  -0.7458  -0.6841  -0.6677
 -0.6422  -0.6120  -0.5827  -0.5639  -0.5434  -0.5270  -0.5042  -0.4852
 -0.4515  -0.4495  -0.4358  -0.4197  -0.3813
 -- Virtual --
  0.0686   0.1066   0.1347   0.1424   0.1504   0.2202   0.2345   0.2693
  0.2902   0.2968   0.3092   0.3203   0.3520   0.3692   0.3753   0.3985
  0.4198   0.4233   0.4510   0.4646   0.4757   0.4897   0.5007   0.5287
  0.5413   0.5605   0.5780   0.5822   0.5950   0.6160   0.6253   0.6331
  0.6511   0.6686   0.6795   0.7054   0.7401   0.7502   0.7853   0.8309
  0.8507   0.8817   0.9116   0.9468   0.9537   0.9622   0.9951   1.0343
  1.0915   1.1185   1.1298   1.1971   1.2842   1.3403   1.3577   1.3696
  1.4027   1.4225   1.4525   1.4947   1.5130   1.5319   1.5822   1.5899
  1.6193   1.6478   1.6812   1.7013   1.7218   1.7338   1.7637   1.7793
  1.8014   1.8346   1.9115   1.9350   1.9636   1.9774   2.0291   2.0602
  2.0742   2.0965   2.1192   2.1325   2.1824   2.1863   2.2047   2.2241
  2.2630   2.2757   2.3102   2.3276   2.3390   2.3621   2.3769   2.4099
  2.4179   2.4266   2.4918   2.5437   2.5658   2.6496   2.6768   2.6886
  2.7116   2.7123   2.7500   2.8007   2.8456   2.8855   2.9073   2.9274
  2.9528   2.9723   3.0063   3.0403   3.0513   3.1029   3.1169   3.1486
  3.1682   3.1969   3.2149   3.2723   3.2756   3.3258   3.3576   3.3844
  3.4103   3.4440   3.4672   3.5564   3.6026   3.6362   3.6716   3.7616
  3.7951   3.8374   3.8561   3.8989   3.9593   3.9871   4.1166   4.1565
  4.2549   4.3130   4.4364   4.5529   4.6152   4.7601   4.9077   5.1758
  5.1928   5.2136   5.2295   5.2694   5.2809   5.3153   5.3186   5.3480
  5.3698   5.4449   5.4644   5.4717   5.4780   5.4904   5.5090   5.5632
  5.5853   5.6704   5.6886   5.7834   5.8136   5.9187   5.9368   6.0027
  6.0584   6.0924   6.1529   6.1834   6.2794   6.3150   6.3278   6.3480
  6.3758   6.4144   6.4252   6.4513   6.4890   6.5318   6.5484   6.5681
  6.5972   6.6183   6.7424   6.7648   6.7886   6.8238   6.8538   6.9010
  6.9223   6.9834   7.0046   7.0455   7.0792   7.1081   7.1888   7.2022
  7.3059   7.3148   7.4779  22.9347  23.6074  43.7754  44.1681  44.2563
 44.2747  44.4464
 
 Beta MOs
 -- Occupied --
-19.3944 -19.3591 -19.3584 -19.3546 -19.3469 -10.5005 -10.4721  -1.2650
 -1.2130  -1.1764  -1.1464  -1.0742  -0.8569  -0.7417  -0.6795  -0.6617
 -0.6363  -0.6063  -0.5704  -0.5484  -0.5424  -0.5194  -0.4837  -0.4499
 -0.4336  -0.4266  -0.4223  -0.4008
 -- Virtual --
 -0.0746   0.0721   0.1090   0.1356   0.1442   0.1534   0.2232   0.2372
  0.2702   0.2953   0.2993   0.3168   0.3215   0.3549   0.3717   0.3809
  0.4019   0.4225   0.4275   0.4535   0.4689   0.4832   0.4942   0.5067
  0.5312   0.5447   0.5648   0.5797   0.5873   0.5977   0.6175   0.6295
  0.6366   0.6534   0.6724   0.6850   0.7083   0.7413   0.7518   0.7876
  0.8318   0.8529   0.8838   0.9166   0.9493   0.9558   0.9650   0.9960
  1.0372   1.0946   1.1202   1.1338   1.1996   1.2863   1.3440   1.3653
  1.3748   1.4056   1.4317   1.4588   1.4996   1.5261   1.5395   1.5909
  1.6025   1.6231   1.6496   1.6833   1.7061   1.7294   1.7404   1.7683
  1.7838   1.8058   1.8383   1.9123   1.9377   1.9655   1.9793   2.0299
  2.0621   2.0761   2.0981   2.1219   2.1426   2.1870   2.1933   2.2078
  2.2326   2.2656   2.2773   2.3143   2.3289   2.3420   2.3674   2.3901
  2.4109   2.4260   2.4359   2.4940   2.5472   2.5620   2.6592   2.6882
  2.7048   2.7149   2.7296   2.7521   2.8052   2.8505   2.8880   2.9299
  2.9406   2.9620   2.9747   3.0085   3.0444   3.0564   3.1126   3.1206
  3.1704   3.1729   3.2008   3.2182   3.2755   3.2818   3.3320   3.3597
  3.3873   3.4129   3.4466   3.4698   3.5596   3.6056   3.6399   3.6867
  3.7737   3.7992   3.8517   3.8599   3.9018   3.9624   3.9909   4.1182
  4.1599   4.2592   4.3156   4.4378   4.5540   4.6182   4.7653   4.9102
  5.2258   5.2298   5.2449   5.2660   5.2823   5.2835   5.3209   5.3253
  5.3705   5.4000   5.4471   5.4674   5.4787   5.4922   5.4996   5.5257
  5.5836   5.6163   5.6721   5.6906   5.7882   5.8159   5.9212   5.9392
  6.0056   6.0605   6.0945   6.1549   6.2306   6.2807   6.3217   6.3506
  6.3759   6.4124   6.4200   6.4523   6.4886   6.5321   6.5390   6.5542
  6.5713   6.6144   6.6975   6.7437   6.7675   6.7907   6.8258   6.8566
  6.9027   6.9237   6.9864   7.0075   7.0744   7.1006   7.1120   7.1902
  7.2033   7.3073   7.3162   7.4784  22.9382  23.6076  43.7931  44.1686
 44.2566  44.2753  44.4471
 --------------------------------------------------------------
 
          Ground-State Mulliken Net Atomic Charges

     Atom                 Charge (a.u.)    Spin (a.u.)
  --------------------------------------------------------
      1 O                    -0.479539       0.025961
      2 C                     0.162388       0.165857
      3 O                    -0.484695       0.032800
      4 C                     0.375940       0.001856
      5 O                    -0.394935       0.000413
      6 O                    -0.414558       0.008826
      7 H                     0.395022       0.000533
      8 H                     0.373444       0.001543
      9 H                     0.403599       0.000054
     10 H                     0.174017      -0.032505
     11 O                    -0.501259       0.809959
     12 H                     0.390577      -0.015297
  --------------------------------------------------------
  Sum of atomic charges =    -0.000000
  Sum of spin   charges =     1.000000

 -----------------------------------------------------------------
                    Cartesian Multipole Moments
 -----------------------------------------------------------------
    Charge (ESU x 10^10)
                -0.0000
    Dipole Moment (Debye)
         X       2.8963      Y       1.2063      Z      -1.5079
       Tot       3.4810
    Quadrupole Moments (Debye-Ang)
        XX     -29.1982     XY       0.9820     YY     -41.2424
        XZ      -2.0415     YZ      -0.2168     ZZ     -48.6075
    Octopole Moments (Debye-Ang^2)
       XXX     -30.1454    XXY       0.9307    XYY     -38.0320
       YYY     -23.7348    XXZ     -25.5704    XYZ       3.6357
       YYZ     -17.5795    XZZ     -21.8201    YZZ     -24.6625
       ZZZ     -89.7878
    Hexadecapole Moments (Debye-Ang^3)
      XXXX    -269.5286   XXXY      -3.2722   XXYY    -104.1587
      XYYY     -10.5582   YYYY    -318.8517   XXXZ     -35.6569
      XXYZ       0.3071   XYYZ      -4.5076   YYYZ     -73.9730
      XXZZ    -105.9902   XYZZ      -6.7852   YYZZ    -129.8843
      XZZZ     -46.2730   YZZZ    -100.1402   ZZZZ    -434.3915
 -----------------------------------------------------------------
 Total job time:  172.58s(wall), 671.27s(cpu) 
 Mon Feb  5 12:41:26 2024

        *************************************************************
        *                                                           *
        *  Thank you very much for using Q-Chem.  Have a nice day.  *
        *                                                           *
        *************************************************************


