
Running Job 1 of 1 Q_in.in
qchem Q_in.in_210579.0 /scratch/ari.fischer/qChem1912860.hpc-mn1/qchem210579/ 0
/usr/local/qchem-5.4.1/exe/qcprog.exe_s Q_in.in_210579.0 /scratch/ari.fischer/qChem1912860.hpc-mn1/qchem210579/
                  Welcome to Q-Chem
     A Quantum Leap Into The Future Of Chemistry


 Q-Chem 5.4, Q-Chem, Inc., Pleasanton, CA (2021)

 License issued to: Nanyang Technological University (site)

 E. Epifanovsky,  A. T. B. Gilbert,  Xintian Feng,  Joonho Lee,  Yuezhi Mao,  
 N. Mardirossian,  P. Pokhilko,  A. White,  M. Wormit,  M. P. Coons,  
 A. L. Dempwolff,  Zhengting Gan,  D. Hait,  P. R. Horn,  L. D. Jacobson,  
 I. Kaliman,  J. Kussmann,  A. W. Lange,  Ka Un Lao,  D. S. Levine,  Jie Liu,  
 S. C. McKenzie,  A. F. Morrison,  K. Nanda,  F. Plasser,  D. R. Rehn,  
 M. L. Vidal,  Zhi-Qiang You,  Ying Zhu,  B. Alam,  B. Albrecht,  
 A. Aldossary,  E. Alguire,  J. H. Andersen,  D. Barton,  K. Begam,  A. Behn,  
 Y. A. Bernard,  E. J. Berquist,  H. Burton,  A. Carreras,  K. Carter-Fenk,  
 R. Chakraborty,  A. D. Chien,  K. D. Closser,  V. Cofer-Shabica,  
 S. Dasgupta,  Jia Deng,  M. de Wergifosse,  M. Diedenhofen,  Hainam Do,  
 S. Ehlert,  Po-Tung Fang,  S. Fatehi,  Qingguo Feng,  T. Friedhoff,  
 J. Gayvert,  Qinghui Ge,  G. Gidofalvi,  M. Goldey,  J. Gomes,  
 C. Gonzalez-Espinoza,  S. Gulania,  A. Gunina,  M. W. D. Hanson-Heine,  
 P. H. P. Harbach,  A. W. Hauser,  M. F. Herbst,  M. Hernandez Vera,  
 M. Hodecker,  Z. C. Holden,  S. Houck,  Xunkun Huang,  Kerwin Hui,  
 B. C. Huynh,  M. Ivanov,  Hyunjun Ji,  Hanjie Jiang,  B. Kaduk,  S. Kaehler,  
 K. Khistyaev,  Jaehoon Kim,  P. Klunzinger,  Z. Koczor-Benda,  
 Joong Hoon Koh,  D. Kosenkov,  L. Koulias,  T. Kowalczyk,  C. M. Krauter,  
 K. Kue,  A. Kunitsa,  T. Kus,  A. Landau,  K. V. Lawler,  D. Lefrancois,  
 S. Lehtola,  Rain Li,  Yi-Pei Li,  Jiashu Liang,  M. Liebenthal,  
 Hung-Hsuan Lin,  You-Sheng Lin,  Fenglai Liu,  Kuan-Yu Liu,  
 M. Loipersberger,  A. Luenser,  A. Manjanath,  P. Manohar,  E. Mansoor,  
 S. F. Manzer,  Shan-Ping Mao,  A. V. Marenich,  T. Markovich,  S. Mason,  
 S. A. Maurer,  P. F. McLaughlin,  M. F. S. J. Menger,  J.-M. Mewes,  
 S. A. Mewes,  P. Morgante,  J. W. Mullinax,  K. J. Oosterbaan,  G. Paran,  
 Alexander C. Paul,  Suranjan K. Paul,  F. Pavosevic,  Zheng Pei,  S. Prager,  
 E. I. Proynov,  E. Ramos,  B. Rana,  A. E. Rask,  A. Rettig,  R. M. Richard,  
 F. Rob,  E. Rossomme,  T. Scheele,  M. Scheurer,  M. Schneider,  
 N. Sergueev,  S. M. Sharada,  W. Skomorowski,  D. W. Small,  C. J. Stein,  
 Yu-Chuan Su,  E. J. Sundstrom,  Zhen Tao,  J. Thirman,  T. Tsuchimochi,  
 N. M. Tubman,  S. P. Veccham,  O. Vydrov,  J. Wenzel,  J. Witte,  A. Yamada,  
 Kun Yao,  S. Yeganeh,  S. R. Yost,  A. Zech,  Igor Ying Zhang,  Xing Zhang,  
 Yu Zhang,  D. Zuev,  A. Aspuru-Guzik,  A. T. Bell,  N. A. Besley,  
 K. B. Bravaya,  B. R. Brooks,  D. Casanova,  Jeng-Da Chai,  S. Coriani,  
 C. J. Cramer,  A. E. DePrince, III,  R. A. DiStasio Jr.,  A. Dreuw,  
 B. D. Dunietz,  T. R. Furlani,  W. A. Goddard III,  S. Grimme,  
 S. Hammes-Schiffer,  T. Head-Gordon,  W. J. Hehre,  Chao-Ping Hsu,  
 T.-C. Jagau,  Yousung Jung,  A. Klamt,  Jing Kong,  D. S. Lambrecht,  
 WanZhen Liang,  N. J. Mayhall,  C. W. McCurdy,  J. B. Neaton,  
 C. Ochsenfeld,  J. A. Parkhill,  R. Peverati,  V. A. Rassolov,  Yihan Shao,  
 L. V. Slipchenko,  T. Stauch,  R. P. Steele,  J. E. Subotnik,  
 A. J. W. Thom,  A. Tkatchenko,  D. G. Truhlar,  T. Van Voorhis,  
 T. A. Wesolowski,  K. B. Whaley,  H. L. Woodcock III,  P. M. Zimmerman,  
 S. Faraji,  P. M. W. Gill,  M. Head-Gordon,  J. M. Herbert,  A. I. Krylov

 Additional authors for Version 5.4.1: 
 S. Kotaru,  Shaozhi Li,  Xiangyuan Li,  F. Matz,  A. Molle,  Haisheng Ren,  
 Yingli Su,  Hung-Yi Tsai,  C. Utku,  Fang Wang

 Contributors to earlier versions of Q-Chem not listed above: 
 R. D. Adamson,  B. Austin,  R. Baer,  J. Baker,  G. J. O. Beran,  
 K. Brandhorst,  S. T. Brown,  E. F. C. Byrd,  A. K. Chakraborty,  
 G. K. L. Chan,  Chun-Min Chang,  Yunqing Chen,  C.-L. Cheng,  
 Siu Hung Chien,  D. M. Chipman,  D. L. Crittenden,  H. Dachsel,  
 R. J. Doerksen,  A. D. Dutoi,  R. G. Edgar,  J. Fosso-Tande,  
 L. Fusti-Molnar,  D. Ghosh,  A. Ghysels,  A. Golubeva-Zadorozhnaya,  
 J. Gonthier,  M. S. Gordon,  S. R. Gwaltney,  G. Hawkins,  J. E. Herr,  
 A. Heyden,  S. Hirata,  E. G. Hohenstein,  G. Kedziora,  F. J. Keil,  
 C. Kelley,  Jihan Kim,  R. A. King,  R. Z. Khaliullin,  P. P. Korambath,  
 W. Kurlancheek,  A. Laurent,  A. M. Lee,  M. S. Lee,  S. V. Levchenko,  
 Ching Yeh Lin,  D. Liotard,  E. Livshits,  R. C. Lochan,  I. Lotan,  
 L. A. Martinez-Martinez,  P. E. Maslen,  N. Nair,  D. P. O'Neill,  
 D. Neuhauser,  E. Neuscamman,  C. M. Oana,  R. Olivares-Amaya,  R. Olson,  
 T. M. Perrine,  B. Peters,  P. A. Pieniazek,  A. Prociuk,  Y. M. Rhee,  
 J. Ritchie,  M. A. Rohrdanz,  E. Rosta,  N. J. Russ,  H. F. Schaefer III,  
 M. W. Schmidt,  N. E. Schultz,  S. Sharma,  N. Shenvi,  C. D. Sherrill,  
 A. C. Simmonett,  A. Sodt,  T. Stein,  D. Stuck,  K. S. Thanthiriwatte,  
 V. Vanovschi,  L. Vogt,  Tao Wang,  A. Warshel,  M. A. Watson,  
 C. F. Williams,  Q. Wu,  X. Xu,  Jun Yang,  W. Zhang,  Yan Zhao

 Please cite Q-Chem as follows:
 Y. Shao et al., Mol. Phys. 113, 184-215 (2015)
 DOI: 10.1080/00268976.2014.952696

 Q-Chem 5.4.1 for Intel X86 EM64T Linux

 Parts of Q-Chem use Armadillo 9.800.1 (Horizon Scraper).
 http://arma.sourceforge.net/

 Q-Chem begins on Mon Feb  5 12:38:29 2024  

 Host: 
0

     Scratch files written to /scratch/ari.fischer/qChem1912860.hpc-mn1/qchem210579//
 Aug1521 |scratch|qcdevops|jenkins|workspace|build_RNUM 8249   
 Processing $rem in /usr/local/qchem-5.4.1/config/preferences:
 Processing $rem in /home/ari.fischer/.qchemrc:
 Symmetry turned off for PCM/SM12/SMD calculation

 Checking the input file for inconsistencies... 	...done.

--------------------------------------------------------------
User input:
--------------------------------------------------------------
$molecule
0 1
O        -0.6678554955    1.1020238419    0.2612852811
C        -0.3656352537   -0.2442880346    0.5330946241
O        -1.0087321239   -1.1308296264   -0.3381898993
C         1.1413976584   -0.4349469172    0.3500214906
O         1.8712152688    0.6730078684    0.4158507821
O         1.6501434675   -1.5191886229    0.2019956850
H        -1.3958858049    1.3819609322    0.8267715306
H        -1.8915177107   -1.3065397044    0.0066128236
H         1.2716528173    1.4364649447    0.4903475041
H        -0.6024757234   -0.4811881816    1.5723379780
$end

$rem
BASIS = 6-31G(d)
JOB_TYPE = SP
METHOD = wB97M-V
SCF_ALGORITHM = DIIS_GDM
MAX_SCF_CYCLES = 400
SCF_CONVERGENCE = 7
THRESH = 12
Solvent_method = SMD
$end
--------------------------------------------------------------
 ----------------------------------------------------------------
             Standard Nuclear Orientation (Angstroms)
    I     Atom           X                Y                Z
 ----------------------------------------------------------------
    1      O      -0.6678554955     1.1020238419     0.2612852811
    2      C      -0.3656352537    -0.2442880346     0.5330946241
    3      O      -1.0087321239    -1.1308296264    -0.3381898993
    4      C       1.1413976584    -0.4349469172     0.3500214906
    5      O       1.8712152688     0.6730078684     0.4158507821
    6      O       1.6501434675    -1.5191886229     0.2019956850
    7      H      -1.3958858049     1.3819609322     0.8267715306
    8      H      -1.8915177107    -1.3065397044     0.0066128236
    9      H       1.2716528173     1.4364649447     0.4903475041
   10      H      -0.6024757234    -0.4811881816     1.5723379780
 ----------------------------------------------------------------
 Nuclear Repulsion Energy =         252.32741783 hartrees
 There are       24 alpha and       24 beta electrons
 Requested basis set is 6-31G(d)
 There are 32 shells and 98 basis functions

 Total QAlloc Memory Limit 288000 MB
 Mega-Array Size       188 MB
 MEM_STATIC part       192 MB
 
 Citation of the SMD model:
 Marenich, A.V.; Cramer, C.J.; Truhlar, D.G.
 J. Phys. Chem. B 2009, 113, 6378-6396.
 iSolventCode=           1
 Solvent: water                                                           
 
 vradii
            1           2           3           4           5           6
    1   1.5200000   1.8500000   1.5200000   1.8500000   1.5200000   1.5200000
            7           8           9          10
    1   1.2000000   1.2000000   1.2000000   1.2000000
 Changing PCM_VDW_RADII to SMD_RADIUS
 Discretize the solute cavity surface with Lebedev spheres
	Using 110 Lebedev grid points for each H atom
	Using 194 Lebedev grid points for other atoms
	Atomic van der Waals radii will be scaled by 1.20
 Remove points where switching function is < 1.0e-08
 Keep 850 surface tesserae and discard 754 interior tesserae
 Molecular Surface Area = 100.712 Angst**2

                       Distance Matrix (Angstroms)
             O (  1)   C (  2)   O (  3)   C (  4)   O (  5)   O (  6)
   C (  2)  1.406333
   O (  3)  2.336921  1.399524
   C (  4)  2.375616  1.530038  2.362403
   O (  5)  2.579695  2.420471  3.480877  1.328357
   O (  6)  3.499627  2.407979  2.740847  1.206778  2.213669
   H (  7)  0.963415  1.947395  2.796630  3.156937  3.368296  4.252682
   H (  8)  2.713556  1.932325  0.963885  3.174300  4.271328  3.553415
   H (  9)  1.981417  2.346800  3.532369  1.881181  0.973597  2.993708
   H ( 10)  2.056622  1.091898  2.058445  2.130092  2.964587  2.833651
             H (  7)   H (  8)   H (  9)
   H (  8)  2.854181
   H (  9)  2.689222  4.214703
   H ( 10)  2.157937  2.189596  2.891445
 
 A cutoff of  1.0D-12 yielded    508 shell pairs
 There are      4961 function pairs
 Smallest overlap matrix eigenvalue = 2.43E-03

 Scale SEOQF with 1.000000e-01/1.000000e-01/1.000000e-01

 Standard Electronic Orientation quadrupole field applied
 Nucleus-field energy     =     0.0000000053 hartrees
 Guess from superposition of atomic densities
 Warning:  Energy on first SCF cycle will be non-variational
 SAD guess density has 48.000000 electrons

 -----------------------------------------------------------------------
  General SCF calculation program by
  Eric Jon Sundstrom, Paul Horn, Yuezhi Mao, Dmitri Zuev, Alec White,
  David Stuck, Shaama M.S., Shane Yost, Joonho Lee, David Small,
  Daniel Levine, Susi Lehtola, Hugh Burton, Evgeny Epifanovsky,
  Bang C. Huynh
 -----------------------------------------------------------------------
 Exchange:     0.1500 Hartree-Fock + 1.0000 wB97M-V + LR-HF
 Correlation:  1.0000 wB97M-V
 Using SG-2 standard quadrature grid
 Nonlocal Correlation:  VV10 with C = 0.0100 and b = 6.00 and scale = 1.00000
 Grid used for NLC:  SG-1 standard quadrature
 
 Citation of the SMD model:
 Marenich, A.V.; Cramer, C.J.; Truhlar, D.G.
 J. Phys. Chem. B 2009, 113, 6378-6396.
 iSolventCode=           1
 Solvent: water                                                           
 
 vradii
            1           2           3           4           5           6
    1   1.5200000   1.8500000   1.5200000   1.8500000   1.5200000   1.5200000
            7           8           9          10
    1   1.2000000   1.2000000   1.2000000   1.2000000
 using 4 threads for integral computing
 -------------------------------------------------------
 OpenMP Integral computing Module                
 Release: version 1.0, May 2013, Q-Chem Inc. Pittsburgh 
 -------------------------------------------------------
 -------------------------------------------------------
 OpenMP BLAS3 based DFT computing Module                
 Release: version 1.0, May 2013, Q-Chem Inc. Pittsburgh 
 -------------------------------------------------------
 A restricted SCF calculation will be
 performed using DIIS, GDM
 SCF converges when RMS gradient is below 1.0e-07
 ---------------------------------------
  Cycle       Energy         DIIS error
 ---------------------------------------
    1    -380.5871082750      8.09e-02  
    2    -379.2394148793      1.36e-02  
    3    -379.2320125792      1.49e-02  
    4    -379.4118200739      1.02e-03  Done DIIS. Switching to GDM
 ---------------------------------------
  Cycle       Energy        RMS Gradient
 ---------------------------------------
    1    -379.4118200739      1.41e-02   Normal BFGS step
    2    -379.4119251243      1.58e-02   Normal BFGS step
    3    -379.4129130159      1.05e-03   Normal BFGS step
    4    -379.4129224980      4.62e-04   Normal BFGS step
    5    -379.4129262696      1.47e-04   Normal BFGS step
    6    -379.4129264986      4.50e-05   Normal BFGS step
    7    -379.4129265290      9.36e-06   Normal BFGS step
    8    -379.4129265315      9.35e-06   Normal BFGS step
    9    -379.4129265320      1.57e-06   Normal BFGS step
   10    -379.4129265321      9.06e-07   Normal BFGS step
   11    -379.4129265321      4.39e-07   Normal BFGS step
   12    -379.4129265321      1.66e-07   Normal BFGS step
   13    -379.4129265321      4.20e-08  Convergence criterion met
 ---------------------------------------
 SCF time:   CPU 86.41s  wall 22.00s 
(3)  G-ENP(liq) elect-nuc-pol free energy of system     -379.412926532 a.u.
(4)  G-CDS(liq) cavity-dispersion-solvent structure 
     free energy                                                4.3442 kcal/mol
(6)  G-S(liq) free energy of system                     -379.406003568 a.u.
 SCF   energy in the final basis set =     -379.4060035685
 Total energy in the final basis set =     -379.4060035685
 
 --------------------------------------------------------------
 
                    Orbital Energies (a.u.)
 --------------------------------------------------------------
 
 Alpha MOs
 -- Occupied --
-19.3994 -19.3710 -19.3636 -19.3489 -10.4967 -10.4681  -1.2461  -1.1958
 -1.1601  -1.1331  -0.8387  -0.7274  -0.6641  -0.6481  -0.6468  -0.5687
 -0.5498  -0.5143  -0.5025  -0.4776  -0.4285  -0.4162  -0.4096  -0.3824
 -- Virtual --
  0.0899   0.1709   0.2022   0.2285   0.2541   0.2992   0.3268   0.3823
  0.4326   0.4807   0.6250   0.6504   0.6627   0.7215   0.7586   0.7676
  0.8277   0.8516   0.8827   0.9097   0.9450   0.9577   0.9941   1.0364
  1.0582   1.0797   1.0893   1.1224   1.1621   1.1776   1.1906   1.3008
  1.3152   1.4052   1.4165   1.4863   1.5428   1.5770   1.6564   1.7056
  1.7385   1.8055   1.8154   1.8761   1.8977   1.9153   1.9744   1.9832
  2.0227   2.0347   2.1238   2.1747   2.1966   2.2450   2.3029   2.4415
  2.5330   2.5785   2.6159   2.6471   2.7220   2.7533   2.8030   2.8933
  2.9144   3.0032   3.1110   3.2084   3.8599   3.8971   4.0089   4.2920
  4.3588   4.6385
 --------------------------------------------------------------
 
          Ground-State Mulliken Net Atomic Charges

     Atom                 Charge (a.u.)
  ----------------------------------------
      1 O                    -0.674889
      2 C                     0.244639
      3 O                    -0.663534
      4 C                     0.586844
      5 O                    -0.598594
      6 O                    -0.525316
      7 H                     0.471311
      8 H                     0.463030
      9 H                     0.480724
     10 H                     0.215784
  ----------------------------------------
  Sum of atomic charges =     0.000000

 -----------------------------------------------------------------
                    Cartesian Multipole Moments
 -----------------------------------------------------------------
    Charge (ESU x 10^10)
                -0.0000
    Dipole Moment (Debye)
         X      -6.2028      Y       3.9297      Z       3.9020
       Tot       8.3152
    Quadrupole Moments (Debye-Ang)
        XX     -34.5781     XY       5.8710     YY     -36.2536
        XZ      -4.6159     YZ       1.0811     ZZ     -30.9703
    Octopole Moments (Debye-Ang^2)
       XXX     -76.0618    XXY      13.1161    XYY     -24.7679
       YYY      41.0313    XXZ      -5.5133    XYZ      -0.2477
       YYZ      -3.6686    XZZ     -14.5035    YZZ       9.5460
       ZZZ     -21.8517
    Hexadecapole Moments (Debye-Ang^3)
      XXXX    -352.8932   XXXY      35.9575   XXYY     -89.7049
      XYYY      37.6755   YYYY    -227.2809   XXXZ     -34.5532
      XXYZ       2.3589   XYYZ     -12.8960   YYYZ      -0.4441
      XXZZ     -64.7855   XYZZ       2.5739   YYZZ     -44.8309
      XZZZ     -25.1294   YZZZ      -7.4957   ZZZZ     -57.9388
 -----------------------------------------------------------------
 Total job time:  23.25s(wall), 88.24s(cpu) 
 Mon Feb  5 12:38:52 2024

        *************************************************************
        *                                                           *
        *  Thank you very much for using Q-Chem.  Have a nice day.  *
        *                                                           *
        *************************************************************


