
Running Job 1 of 1 Q_in.in
qchem Q_in.in_232650.0 /scratch/ari.fischer/qChem1853788.hpc-mn1/qchem232650/ 0
/usr/local/qchem-5.4.1/exe/qcprog.exe_s Q_in.in_232650.0 /scratch/ari.fischer/qChem1853788.hpc-mn1/qchem232650/
                  Welcome to Q-Chem
     A Quantum Leap Into The Future Of Chemistry


 Q-Chem 5.4, Q-Chem, Inc., Pleasanton, CA (2021)

 License issued to: Nanyang Technological University (site)

 E. Epifanovsky,  A. T. B. Gilbert,  Xintian Feng,  Joonho Lee,  Yuezhi Mao,  
 N. Mardirossian,  P. Pokhilko,  A. White,  M. Wormit,  M. P. Coons,  
 A. L. Dempwolff,  Zhengting Gan,  D. Hait,  P. R. Horn,  L. D. Jacobson,  
 I. Kaliman,  J. Kussmann,  A. W. Lange,  Ka Un Lao,  D. S. Levine,  Jie Liu,  
 S. C. McKenzie,  A. F. Morrison,  K. Nanda,  F. Plasser,  D. R. Rehn,  
 M. L. Vidal,  Zhi-Qiang You,  Ying Zhu,  B. Alam,  B. Albrecht,  
 A. Aldossary,  E. Alguire,  J. H. Andersen,  D. Barton,  K. Begam,  A. Behn,  
 Y. A. Bernard,  E. J. Berquist,  H. Burton,  A. Carreras,  K. Carter-Fenk,  
 R. Chakraborty,  A. D. Chien,  K. D. Closser,  V. Cofer-Shabica,  
 S. Dasgupta,  Jia Deng,  M. de Wergifosse,  M. Diedenhofen,  Hainam Do,  
 S. Ehlert,  Po-Tung Fang,  S. Fatehi,  Qingguo Feng,  T. Friedhoff,  
 J. Gayvert,  Qinghui Ge,  G. Gidofalvi,  M. Goldey,  J. Gomes,  
 C. Gonzalez-Espinoza,  S. Gulania,  A. Gunina,  M. W. D. Hanson-Heine,  
 P. H. P. Harbach,  A. W. Hauser,  M. F. Herbst,  M. Hernandez Vera,  
 M. Hodecker,  Z. C. Holden,  S. Houck,  Xunkun Huang,  Kerwin Hui,  
 B. C. Huynh,  M. Ivanov,  Hyunjun Ji,  Hanjie Jiang,  B. Kaduk,  S. Kaehler,  
 K. Khistyaev,  Jaehoon Kim,  P. Klunzinger,  Z. Koczor-Benda,  
 Joong Hoon Koh,  D. Kosenkov,  L. Koulias,  T. Kowalczyk,  C. M. Krauter,  
 K. Kue,  A. Kunitsa,  T. Kus,  A. Landau,  K. V. Lawler,  D. Lefrancois,  
 S. Lehtola,  Rain Li,  Yi-Pei Li,  Jiashu Liang,  M. Liebenthal,  
 Hung-Hsuan Lin,  You-Sheng Lin,  Fenglai Liu,  Kuan-Yu Liu,  
 M. Loipersberger,  A. Luenser,  A. Manjanath,  P. Manohar,  E. Mansoor,  
 S. F. Manzer,  Shan-Ping Mao,  A. V. Marenich,  T. Markovich,  S. Mason,  
 S. A. Maurer,  P. F. McLaughlin,  M. F. S. J. Menger,  J.-M. Mewes,  
 S. A. Mewes,  P. Morgante,  J. W. Mullinax,  K. J. Oosterbaan,  G. Paran,  
 Alexander C. Paul,  Suranjan K. Paul,  F. Pavosevic,  Zheng Pei,  S. Prager,  
 E. I. Proynov,  E. Ramos,  B. Rana,  A. E. Rask,  A. Rettig,  R. M. Richard,  
 F. Rob,  E. Rossomme,  T. Scheele,  M. Scheurer,  M. Schneider,  
 N. Sergueev,  S. M. Sharada,  W. Skomorowski,  D. W. Small,  C. J. Stein,  
 Yu-Chuan Su,  E. J. Sundstrom,  Zhen Tao,  J. Thirman,  T. Tsuchimochi,  
 N. M. Tubman,  S. P. Veccham,  O. Vydrov,  J. Wenzel,  J. Witte,  A. Yamada,  
 Kun Yao,  S. Yeganeh,  S. R. Yost,  A. Zech,  Igor Ying Zhang,  Xing Zhang,  
 Yu Zhang,  D. Zuev,  A. Aspuru-Guzik,  A. T. Bell,  N. A. Besley,  
 K. B. Bravaya,  B. R. Brooks,  D. Casanova,  Jeng-Da Chai,  S. Coriani,  
 C. J. Cramer,  A. E. DePrince, III,  R. A. DiStasio Jr.,  A. Dreuw,  
 B. D. Dunietz,  T. R. Furlani,  W. A. Goddard III,  S. Grimme,  
 S. Hammes-Schiffer,  T. Head-Gordon,  W. J. Hehre,  Chao-Ping Hsu,  
 T.-C. Jagau,  Yousung Jung,  A. Klamt,  Jing Kong,  D. S. Lambrecht,  
 WanZhen Liang,  N. J. Mayhall,  C. W. McCurdy,  J. B. Neaton,  
 C. Ochsenfeld,  J. A. Parkhill,  R. Peverati,  V. A. Rassolov,  Yihan Shao,  
 L. V. Slipchenko,  T. Stauch,  R. P. Steele,  J. E. Subotnik,  
 A. J. W. Thom,  A. Tkatchenko,  D. G. Truhlar,  T. Van Voorhis,  
 T. A. Wesolowski,  K. B. Whaley,  H. L. Woodcock III,  P. M. Zimmerman,  
 S. Faraji,  P. M. W. Gill,  M. Head-Gordon,  J. M. Herbert,  A. I. Krylov

 Additional authors for Version 5.4.1: 
 S. Kotaru,  Shaozhi Li,  Xiangyuan Li,  F. Matz,  A. Molle,  Haisheng Ren,  
 Yingli Su,  Hung-Yi Tsai,  C. Utku,  Fang Wang

 Contributors to earlier versions of Q-Chem not listed above: 
 R. D. Adamson,  B. Austin,  R. Baer,  J. Baker,  G. J. O. Beran,  
 K. Brandhorst,  S. T. Brown,  E. F. C. Byrd,  A. K. Chakraborty,  
 G. K. L. Chan,  Chun-Min Chang,  Yunqing Chen,  C.-L. Cheng,  
 Siu Hung Chien,  D. M. Chipman,  D. L. Crittenden,  H. Dachsel,  
 R. J. Doerksen,  A. D. Dutoi,  R. G. Edgar,  J. Fosso-Tande,  
 L. Fusti-Molnar,  D. Ghosh,  A. Ghysels,  A. Golubeva-Zadorozhnaya,  
 J. Gonthier,  M. S. Gordon,  S. R. Gwaltney,  G. Hawkins,  J. E. Herr,  
 A. Heyden,  S. Hirata,  E. G. Hohenstein,  G. Kedziora,  F. J. Keil,  
 C. Kelley,  Jihan Kim,  R. A. King,  R. Z. Khaliullin,  P. P. Korambath,  
 W. Kurlancheek,  A. Laurent,  A. M. Lee,  M. S. Lee,  S. V. Levchenko,  
 Ching Yeh Lin,  D. Liotard,  E. Livshits,  R. C. Lochan,  I. Lotan,  
 L. A. Martinez-Martinez,  P. E. Maslen,  N. Nair,  D. P. O'Neill,  
 D. Neuhauser,  E. Neuscamman,  C. M. Oana,  R. Olivares-Amaya,  R. Olson,  
 T. M. Perrine,  B. Peters,  P. A. Pieniazek,  A. Prociuk,  Y. M. Rhee,  
 J. Ritchie,  M. A. Rohrdanz,  E. Rosta,  N. J. Russ,  H. F. Schaefer III,  
 M. W. Schmidt,  N. E. Schultz,  S. Sharma,  N. Shenvi,  C. D. Sherrill,  
 A. C. Simmonett,  A. Sodt,  T. Stein,  D. Stuck,  K. S. Thanthiriwatte,  
 V. Vanovschi,  L. Vogt,  Tao Wang,  A. Warshel,  M. A. Watson,  
 C. F. Williams,  Q. Wu,  X. Xu,  Jun Yang,  W. Zhang,  Yan Zhao

 Please cite Q-Chem as follows:
 Y. Shao et al., Mol. Phys. 113, 184-215 (2015)
 DOI: 10.1080/00268976.2014.952696

 Q-Chem 5.4.1 for Intel X86 EM64T Linux

 Parts of Q-Chem use Armadillo 9.800.1 (Horizon Scraper).
 http://arma.sourceforge.net/

 Q-Chem begins on Wed Dec  6 10:57:44 2023  

 Host: 
0

     Scratch files written to /scratch/ari.fischer/qChem1853788.hpc-mn1/qchem232650//
 Aug1521 |scratch|qcdevops|jenkins|workspace|build_RNUM 8249   
 Processing $rem in /usr/local/qchem-5.4.1/config/preferences:
 Processing $rem in /home/ari.fischer/.qchemrc:
 Symmetry turned off for PCM/SM12/SMD calculation

 Checking the input file for inconsistencies... 	...done.

--------------------------------------------------------------
User input:
--------------------------------------------------------------
$molecule
-1 2
C         0.0335825890    0.2156391192    0.2364698461
O         1.2001413651    0.0826017418    0.8943481755
H        -1.1277621868    1.3766541534   -0.6298194523
C        -0.8393693190   -0.8929137460   -0.0274891381
O        -0.5062190370   -2.0526716429    0.3744233366
O        -1.9104150558   -0.6008046154   -0.6669935653
O        -0.2722929998    1.4647120681   -0.1745756269
H         1.6345905442    0.9437645218    0.9577898244
$end

$rem
BASIS = def2-TZVPD
JOB_TYPE = SP
METHOD = wB97M-V
SCF_ALGORITHM = DIIS_GDM
MAX_SCF_CYCLES = 400
SCF_CONVERGENCE = 7
THRESH = 12
Solvent_method = SMD
$end
--------------------------------------------------------------
 ----------------------------------------------------------------
             Standard Nuclear Orientation (Angstroms)
    I     Atom           X                Y                Z
 ----------------------------------------------------------------
    1      C       0.0335825890     0.2156391192     0.2364698461
    2      O       1.2001413651     0.0826017418     0.8943481755
    3      H      -1.1277621868     1.3766541534    -0.6298194523
    4      C      -0.8393693190    -0.8929137460    -0.0274891381
    5      O      -0.5062190370    -2.0526716429     0.3744233366
    6      O      -1.9104150558    -0.6008046154    -0.6669935653
    7      O      -0.2722929998     1.4647120681    -0.1745756269
    8      H       1.6345905442     0.9437645218     0.9577898244
 ----------------------------------------------------------------
 Nuclear Repulsion Energy =         230.26877983 hartrees
 There are       24 alpha and       23 beta electrons
 Requested basis set is def2-TZVPD
 There are 92 shells and 252 basis functions

 Total QAlloc Memory Limit 288000 MB
 Mega-Array Size       188 MB
 MEM_STATIC part       192 MB
 
 Citation of the SMD model:
 Marenich, A.V.; Cramer, C.J.; Truhlar, D.G.
 J. Phys. Chem. B 2009, 113, 6378-6396.
 iSolventCode=           1
 Solvent: water                                                           
 
 vradii
            1           2           3           4           5           6
    1   1.8500000   1.5200000   1.2000000   1.8500000   1.5200000   1.5200000
            7           8
    1   1.5200000   1.2000000
 Changing PCM_VDW_RADII to SMD_RADIUS
 Discretize the solute cavity surface with Lebedev spheres
	Using 110 Lebedev grid points for each H atom
	Using 194 Lebedev grid points for other atoms
	Atomic van der Waals radii will be scaled by 1.20
 Remove points where switching function is < 1.0e-08
 Keep 774 surface tesserae and discard 610 interior tesserae
 Molecular Surface Area = 94.678 Angst**2

                       Distance Matrix (Angstroms)
             C (  1)   O (  2)   H (  3)   C (  4)   O (  5)   O (  6)
   O (  2)  1.345869
   H (  3)  1.856646  3.068679
   C (  4)  1.435482  2.441520  2.365779
   O (  5)  2.335733  2.782334  3.626995  1.271834
   O (  6)  2.293895  3.546885  2.127033  1.281184  2.272495
   O (  7)  1.350075  2.284927  0.973051  2.429323  3.567648  2.681842
   H (  8)  1.900972  0.966629  3.215352  3.234909  3.728540  4.194363
             O (  7)
   H (  8)  2.278123
 
 A cutoff of  1.0D-12 yielded   4105 shell pairs
 There are     31279 function pairs (     40862 Cartesian)
 Smallest overlap matrix eigenvalue = 4.70E-06

 Scale SEOQF with 1.000000e-01/1.000000e-01/1.000000e-01

 Standard Electronic Orientation quadrupole field applied
 Nucleus-field energy     =     0.0000000049 hartrees
 Guess from superposition of atomic densities
 Warning:  Energy on first SCF cycle will be non-variational
 SAD guess density has 46.000000 electrons

 -----------------------------------------------------------------------
  General SCF calculation program by
  Eric Jon Sundstrom, Paul Horn, Yuezhi Mao, Dmitri Zuev, Alec White,
  David Stuck, Shaama M.S., Shane Yost, Joonho Lee, David Small,
  Daniel Levine, Susi Lehtola, Hugh Burton, Evgeny Epifanovsky,
  Bang C. Huynh
 -----------------------------------------------------------------------
 Exchange:     0.1500 Hartree-Fock + 1.0000 wB97M-V + LR-HF
 Correlation:  1.0000 wB97M-V
 Using SG-2 standard quadrature grid
 Nonlocal Correlation:  VV10 with C = 0.0100 and b = 6.00 and scale = 1.00000
 Grid used for NLC:  SG-1 standard quadrature
 
 Citation of the SMD model:
 Marenich, A.V.; Cramer, C.J.; Truhlar, D.G.
 J. Phys. Chem. B 2009, 113, 6378-6396.
 iSolventCode=           1
 Solvent: water                                                           
 
 vradii
            1           2           3           4           5           6
    1   1.8500000   1.5200000   1.2000000   1.8500000   1.5200000   1.5200000
            7           8
    1   1.5200000   1.2000000
 using 4 threads for integral computing
 -------------------------------------------------------
 OpenMP Integral computing Module                
 Release: version 1.0, May 2013, Q-Chem Inc. Pittsburgh 
 -------------------------------------------------------
 -------------------------------------------------------
 OpenMP BLAS3 based DFT computing Module                
 Release: version 1.0, May 2013, Q-Chem Inc. Pittsburgh 
 -------------------------------------------------------
 A unrestricted SCF calculation will be
 performed using DIIS, GDM
 SCF converges when RMS gradient is below 1.0e-07
 ---------------------------------------
  Cycle       Energy         DIIS error
 ---------------------------------------
    1    -379.3731231481      1.54e-02  
    2    -378.2840007584      3.02e-03  Done DIIS. Switching to GDM
 ---------------------------------------
  Cycle       Energy        RMS Gradient
 ---------------------------------------
    1    -378.2840007584      2.10e-01   Descent step
    2    -378.4845133803      6.25e-02   Normal BFGS step
    3    -378.5101919192      1.43e-02   Normal BFGS step
    4    -378.5115160533      7.01e-03   Normal BFGS step
    5    -378.5118511587      6.17e-03   Normal BFGS step
    6    -378.5119245056      2.29e-03   Normal BFGS step
    7    -378.5119447386      4.59e-04   Normal BFGS step
    8    -378.5119461661      1.99e-04   Normal BFGS step
    9    -378.5119464039      1.28e-04   Normal BFGS step
   10    -378.5119465061      4.57e-05   Normal BFGS step
   11    -378.5119465122      1.55e-05   Normal BFGS step
   12    -378.5119465149      7.62e-06   Normal BFGS step
   13    -378.5119465151      4.32e-06   Normal BFGS step
   14    -378.5119465152      1.16e-06   Normal BFGS step
   15    -378.5119465152      4.53e-07   Normal BFGS step
   16    -378.5119465152      1.00e-07   Normal BFGS step
   17    -378.5119465151      2.90e-08  Convergence criterion met
 ---------------------------------------
 SCF time:   CPU 603.92s  wall 152.00s 
<S^2> =          0.753029136
(3)  G-ENP(liq) elect-nuc-pol free energy of system     -378.511946515 a.u.
(4)  G-CDS(liq) cavity-dispersion-solvent structure 
     free energy                                                4.9896 kcal/mol
(6)  G-S(liq) free energy of system                     -378.503995132 a.u.
 SCF   energy in the final basis set =     -378.5039951321
 Total energy in the final basis set =     -378.5039951321
 
 --------------------------------------------------------------
 
                    Orbital Energies (a.u.)
 --------------------------------------------------------------
 
 Alpha MOs
 -- Occupied --
-19.3738 -19.3704 -19.2772 -19.2758 -10.4447 -10.4332  -1.2383  -1.1698
 -1.1506  -1.0646  -0.8192  -0.7039  -0.6664  -0.5833  -0.5801  -0.5284
 -0.5176  -0.5092  -0.4981  -0.4642  -0.3755  -0.3753  -0.3544  -0.2416
 -- Virtual --
  0.0383   0.0608   0.0676   0.0854   0.0940   0.1082   0.1126   0.1158
  0.1204   0.1440   0.1495   0.1599   0.1660   0.1847   0.1876   0.2009
  0.2070   0.2419   0.2525   0.2613   0.2732   0.2840   0.3104   0.3200
  0.3357   0.3390   0.3460   0.3534   0.3700   0.3722   0.3733   0.3771
  0.4011   0.4108   0.4178   0.4195   0.4303   0.4530   0.4545   0.4741
  0.4858   0.4944   0.5044   0.5156   0.5218   0.5302   0.5422   0.5470
  0.5828   0.5965   0.6074   0.6081   0.6323   0.6335   0.6461   0.6495
  0.6539   0.6690   0.6748   0.6863   0.7083   0.7104   0.7197   0.7579
  0.7797   0.7823   0.8029   0.8257   0.8297   0.8307   0.8636   0.8935
  0.9018   0.9133   0.9371   0.9758   0.9941   1.0003   1.0240   1.0447
  1.0452   1.0578   1.1133   1.1193   1.1538   1.1705   1.1893   1.2543
  1.2666   1.2911   1.3014   1.3276   1.3338   1.3420   1.4796   1.5023
  1.6385   1.6675   1.6785   1.6789   1.7253   1.8179   1.8317   1.8610
  1.8656   1.8798   1.9121   1.9425   1.9826   1.9967   2.0673   2.1023
  2.1205   2.1509   2.2421   2.2516   2.2614   2.2891   2.3273   2.3306
  2.3867   2.4153   2.4201   2.4206   2.4220   2.4429   2.5860   2.6681
  2.7038   2.7249   2.7309   2.8366   2.8520   2.8562   2.9059   2.9660
  2.9842   3.0087   3.1360   3.1423   3.1671   3.1747   3.2038   3.2991
  3.3172   3.3412   3.3717   3.3878   3.3993   3.4177   3.4262   3.4695
  3.4826   3.5353   3.5746   3.5868   3.5947   3.6372   3.6563   3.6796
  3.7584   3.8069   3.9075   4.0490   4.1354   4.1432   4.2893   4.3900
  4.5333   4.7149   4.7832   4.8677   5.0052   5.0533   5.2432   5.2901
  5.3204   5.3528   5.3764   5.4146   5.4504   5.4552   5.5104   5.5178
  5.5972   5.6677   5.7067   5.7220   5.8264   5.8535   5.9797   5.9845
  6.0120   6.1233   6.2152   6.2444   6.2788   6.4227   6.4849   6.5658
  6.5941   6.6092   6.6260   6.6502   6.6597   6.7208   6.7458   6.8297
  6.8349   6.9044   6.9442   7.0078   7.0258   7.0723   7.1566   7.2596
  7.3004   7.3189   7.3712   7.4207   7.4624   7.6414  23.4005  23.8946
 44.5218  44.6215  44.6808  44.9101
 
 Beta MOs
 -- Occupied --
-19.3707 -19.3672 -19.2746 -19.2732 -10.4349 -10.4326  -1.2297  -1.1628
 -1.1458  -1.0593  -0.8000  -0.6976  -0.6594  -0.5786  -0.5506  -0.5242
 -0.5133  -0.5051  -0.4806  -0.4383  -0.3694  -0.3544  -0.3510
 -- Virtual --
  0.0370   0.0381   0.0606   0.0674   0.0861   0.0938   0.1081   0.1124
  0.1164   0.1204   0.1439   0.1494   0.1593   0.1661   0.1856   0.2008
  0.2083   0.2281   0.2429   0.2516   0.2630   0.2760   0.2837   0.3110
  0.3241   0.3368   0.3415   0.3511   0.3547   0.3716   0.3743   0.3767
  0.3822   0.4018   0.4126   0.4192   0.4255   0.4323   0.4543   0.4565
  0.4795   0.4876   0.4947   0.5047   0.5162   0.5226   0.5312   0.5431
  0.5509   0.5836   0.5971   0.6087   0.6101   0.6316   0.6341   0.6499
  0.6511   0.6546   0.6708   0.6772   0.6876   0.7112   0.7124   0.7238
  0.7588   0.7817   0.7847   0.8041   0.8271   0.8301   0.8347   0.8645
  0.9004   0.9031   0.9220   0.9371   0.9761   1.0001   1.0010   1.0373
  1.0455   1.0496   1.0597   1.1198   1.1253   1.1575   1.1712   1.1905
  1.2561   1.2681   1.3009   1.3048   1.3299   1.3364   1.3508   1.4866
  1.5082   1.6654   1.6702   1.6873   1.6926   1.7304   1.8246   1.8411
  1.8717   1.8723   1.8856   1.9216   1.9513   1.9898   2.0027   2.0885
  2.1106   2.1265   2.1563   2.2518   2.2562   2.2719   2.2981   2.3345
  2.3358   2.3919   2.4186   2.4244   2.4288   2.4302   2.4480   2.5918
  2.6776   2.7080   2.7312   2.7713   2.8390   2.8686   2.8700   2.9288
  2.9704   2.9968   3.0210   3.1479   3.1626   3.1831   3.1916   3.2170
  3.3221   3.3247   3.3489   3.3959   3.4142   3.4251   3.4335   3.4542
  3.4821   3.4902   3.5483   3.5853   3.5954   3.6023   3.6471   3.6659
  3.6882   3.7747   3.8243   3.9159   4.0575   4.1516   4.1760   4.3060
  4.3999   4.5465   4.7243   4.7892   4.9133   5.0112   5.0622   5.2490
  5.2979   5.3278   5.3608   5.3836   5.4232   5.4567   5.4619   5.5184
  5.5246   5.6058   5.6750   5.7122   5.7296   5.8327   5.8661   5.9854
  5.9958   6.0229   6.1326   6.2257   6.2541   6.2875   6.4335   6.4939
  6.5788   6.5986   6.6213   6.6322   6.6637   6.6713   6.7325   6.7563
  6.8425   6.8478   6.9119   6.9553   7.0179   7.0357   7.0774   7.1624
  7.2646   7.3037   7.3228   7.3767   7.4250   7.4663   7.6478  23.4089
 23.8973  44.5244  44.6237  44.6837  44.9126
 --------------------------------------------------------------
 
          Ground-State Mulliken Net Atomic Charges

     Atom                 Charge (a.u.)    Spin (a.u.)
  --------------------------------------------------------
      1 C                     0.237124       0.566118
      2 O                    -0.503364       0.084093
      3 H                     0.385802      -0.002314
      4 C                     0.847331       0.085713
      5 O                    -0.890391       0.094503
      6 O                    -0.920658       0.090672
      7 O                    -0.570216       0.084439
      8 H                     0.414374      -0.003225
  --------------------------------------------------------
  Sum of atomic charges =    -1.000000
  Sum of spin   charges =     1.000000

 -----------------------------------------------------------------
                    Cartesian Multipole Moments
 -----------------------------------------------------------------
    Charge (ESU x 10^10)
                -4.8032
    Dipole Moment (Debye)
         X       6.3608      Y       9.6238      Z       0.3545
       Tot      11.5413
    Quadrupole Moments (Debye-Ang)
        XX     -45.8454     XY      -5.5098     YY     -52.6700
        XZ      -2.4196     YZ       2.5400     ZZ     -38.1729
    Octopole Moments (Debye-Ang^2)
       XXX      75.0306    XXY      31.4608    XYY      25.7529
       YYY      68.5777    XXZ       6.9215    XYZ       7.5469
       YYZ      -8.4288    XZZ      18.2608    YZZ      16.8184
       ZZZ     -10.1112
    Hexadecapole Moments (Debye-Ang^3)
      XXXX    -324.4289   XXXY     -64.2799   XXYY    -103.4342
      XYYY     -73.3885   YYYY    -415.5530   XXXZ     -56.5380
      XXYZ       0.5560   XYYZ      -7.5938   YYYZ      21.0380
      XXZZ     -66.0214   XYZZ     -17.9760   YYZZ     -72.0622
      XZZZ     -47.3519   YZZZ      11.2710   ZZZZ     -97.7847
 -----------------------------------------------------------------
 Total job time:  153.03s(wall), 606.27s(cpu) 
 Wed Dec  6 11:00:17 2023

        *************************************************************
        *                                                           *
        *  Thank you very much for using Q-Chem.  Have a nice day.  *
        *                                                           *
        *************************************************************


