
Running Job 1 of 2 Q_in.in
qchem Q_in.in_74792.0 /scratch/ari.fischer/qChem1628462.hpc-mn1/qchem74792/ 0
/usr/local/qchem-5.4.1/exe/qcprog.exe_s Q_in.in_74792.0 /scratch/ari.fischer/qChem1628462.hpc-mn1/qchem74792/
                  Welcome to Q-Chem
     A Quantum Leap Into The Future Of Chemistry


 Q-Chem 5.4, Q-Chem, Inc., Pleasanton, CA (2021)

 License issued to: Nanyang Technological University (site)

 E. Epifanovsky,  A. T. B. Gilbert,  Xintian Feng,  Joonho Lee,  Yuezhi Mao,  
 N. Mardirossian,  P. Pokhilko,  A. White,  M. Wormit,  M. P. Coons,  
 A. L. Dempwolff,  Zhengting Gan,  D. Hait,  P. R. Horn,  L. D. Jacobson,  
 I. Kaliman,  J. Kussmann,  A. W. Lange,  Ka Un Lao,  D. S. Levine,  Jie Liu,  
 S. C. McKenzie,  A. F. Morrison,  K. Nanda,  F. Plasser,  D. R. Rehn,  
 M. L. Vidal,  Zhi-Qiang You,  Ying Zhu,  B. Alam,  B. Albrecht,  
 A. Aldossary,  E. Alguire,  J. H. Andersen,  D. Barton,  K. Begam,  A. Behn,  
 Y. A. Bernard,  E. J. Berquist,  H. Burton,  A. Carreras,  K. Carter-Fenk,  
 R. Chakraborty,  A. D. Chien,  K. D. Closser,  V. Cofer-Shabica,  
 S. Dasgupta,  Jia Deng,  M. de Wergifosse,  M. Diedenhofen,  Hainam Do,  
 S. Ehlert,  Po-Tung Fang,  S. Fatehi,  Qingguo Feng,  T. Friedhoff,  
 J. Gayvert,  Qinghui Ge,  G. Gidofalvi,  M. Goldey,  J. Gomes,  
 C. Gonzalez-Espinoza,  S. Gulania,  A. Gunina,  M. W. D. Hanson-Heine,  
 P. H. P. Harbach,  A. W. Hauser,  M. F. Herbst,  M. Hernandez Vera,  
 M. Hodecker,  Z. C. Holden,  S. Houck,  Xunkun Huang,  Kerwin Hui,  
 B. C. Huynh,  M. Ivanov,  Hyunjun Ji,  Hanjie Jiang,  B. Kaduk,  S. Kaehler,  
 K. Khistyaev,  Jaehoon Kim,  P. Klunzinger,  Z. Koczor-Benda,  
 Joong Hoon Koh,  D. Kosenkov,  L. Koulias,  T. Kowalczyk,  C. M. Krauter,  
 K. Kue,  A. Kunitsa,  T. Kus,  A. Landau,  K. V. Lawler,  D. Lefrancois,  
 S. Lehtola,  Rain Li,  Yi-Pei Li,  Jiashu Liang,  M. Liebenthal,  
 Hung-Hsuan Lin,  You-Sheng Lin,  Fenglai Liu,  Kuan-Yu Liu,  
 M. Loipersberger,  A. Luenser,  A. Manjanath,  P. Manohar,  E. Mansoor,  
 S. F. Manzer,  Shan-Ping Mao,  A. V. Marenich,  T. Markovich,  S. Mason,  
 S. A. Maurer,  P. F. McLaughlin,  M. F. S. J. Menger,  J.-M. Mewes,  
 S. A. Mewes,  P. Morgante,  J. W. Mullinax,  K. J. Oosterbaan,  G. Paran,  
 Alexander C. Paul,  Suranjan K. Paul,  F. Pavosevic,  Zheng Pei,  S. Prager,  
 E. I. Proynov,  E. Ramos,  B. Rana,  A. E. Rask,  A. Rettig,  R. M. Richard,  
 F. Rob,  E. Rossomme,  T. Scheele,  M. Scheurer,  M. Schneider,  
 N. Sergueev,  S. M. Sharada,  W. Skomorowski,  D. W. Small,  C. J. Stein,  
 Yu-Chuan Su,  E. J. Sundstrom,  Zhen Tao,  J. Thirman,  T. Tsuchimochi,  
 N. M. Tubman,  S. P. Veccham,  O. Vydrov,  J. Wenzel,  J. Witte,  A. Yamada,  
 Kun Yao,  S. Yeganeh,  S. R. Yost,  A. Zech,  Igor Ying Zhang,  Xing Zhang,  
 Yu Zhang,  D. Zuev,  A. Aspuru-Guzik,  A. T. Bell,  N. A. Besley,  
 K. B. Bravaya,  B. R. Brooks,  D. Casanova,  Jeng-Da Chai,  S. Coriani,  
 C. J. Cramer,  A. E. DePrince, III,  R. A. DiStasio Jr.,  A. Dreuw,  
 B. D. Dunietz,  T. R. Furlani,  W. A. Goddard III,  S. Grimme,  
 S. Hammes-Schiffer,  T. Head-Gordon,  W. J. Hehre,  Chao-Ping Hsu,  
 T.-C. Jagau,  Yousung Jung,  A. Klamt,  Jing Kong,  D. S. Lambrecht,  
 WanZhen Liang,  N. J. Mayhall,  C. W. McCurdy,  J. B. Neaton,  
 C. Ochsenfeld,  J. A. Parkhill,  R. Peverati,  V. A. Rassolov,  Yihan Shao,  
 L. V. Slipchenko,  T. Stauch,  R. P. Steele,  J. E. Subotnik,  
 A. J. W. Thom,  A. Tkatchenko,  D. G. Truhlar,  T. Van Voorhis,  
 T. A. Wesolowski,  K. B. Whaley,  H. L. Woodcock III,  P. M. Zimmerman,  
 S. Faraji,  P. M. W. Gill,  M. Head-Gordon,  J. M. Herbert,  A. I. Krylov

 Additional authors for Version 5.4.1: 
 S. Kotaru,  Shaozhi Li,  Xiangyuan Li,  F. Matz,  A. Molle,  Haisheng Ren,  
 Yingli Su,  Hung-Yi Tsai,  C. Utku,  Fang Wang

 Contributors to earlier versions of Q-Chem not listed above: 
 R. D. Adamson,  B. Austin,  R. Baer,  J. Baker,  G. J. O. Beran,  
 K. Brandhorst,  S. T. Brown,  E. F. C. Byrd,  A. K. Chakraborty,  
 G. K. L. Chan,  Chun-Min Chang,  Yunqing Chen,  C.-L. Cheng,  
 Siu Hung Chien,  D. M. Chipman,  D. L. Crittenden,  H. Dachsel,  
 R. J. Doerksen,  A. D. Dutoi,  R. G. Edgar,  J. Fosso-Tande,  
 L. Fusti-Molnar,  D. Ghosh,  A. Ghysels,  A. Golubeva-Zadorozhnaya,  
 J. Gonthier,  M. S. Gordon,  S. R. Gwaltney,  G. Hawkins,  J. E. Herr,  
 A. Heyden,  S. Hirata,  E. G. Hohenstein,  G. Kedziora,  F. J. Keil,  
 C. Kelley,  Jihan Kim,  R. A. King,  R. Z. Khaliullin,  P. P. Korambath,  
 W. Kurlancheek,  A. Laurent,  A. M. Lee,  M. S. Lee,  S. V. Levchenko,  
 Ching Yeh Lin,  D. Liotard,  E. Livshits,  R. C. Lochan,  I. Lotan,  
 L. A. Martinez-Martinez,  P. E. Maslen,  N. Nair,  D. P. O'Neill,  
 D. Neuhauser,  E. Neuscamman,  C. M. Oana,  R. Olivares-Amaya,  R. Olson,  
 T. M. Perrine,  B. Peters,  P. A. Pieniazek,  A. Prociuk,  Y. M. Rhee,  
 J. Ritchie,  M. A. Rohrdanz,  E. Rosta,  N. J. Russ,  H. F. Schaefer III,  
 M. W. Schmidt,  N. E. Schultz,  S. Sharma,  N. Shenvi,  C. D. Sherrill,  
 A. C. Simmonett,  A. Sodt,  T. Stein,  D. Stuck,  K. S. Thanthiriwatte,  
 V. Vanovschi,  L. Vogt,  Tao Wang,  A. Warshel,  M. A. Watson,  
 C. F. Williams,  Q. Wu,  X. Xu,  Jun Yang,  W. Zhang,  Yan Zhao

 Please cite Q-Chem as follows:
 Y. Shao et al., Mol. Phys. 113, 184-215 (2015)
 DOI: 10.1080/00268976.2014.952696

 Q-Chem 5.4.1 for Intel X86 EM64T Linux

 Parts of Q-Chem use Armadillo 9.800.1 (Horizon Scraper).
 http://arma.sourceforge.net/

 Q-Chem begins on Mon Jul 17 16:56:02 2023  

 Host: 
0

     Scratch files written to /scratch/ari.fischer/qChem1628462.hpc-mn1/qchem74792//
 Aug1521 |scratch|qcdevops|jenkins|workspace|build_RNUM 8249   
 Processing $rem in /usr/local/qchem-5.4.1/config/preferences:
 Processing $rem in /home/ari.fischer/.qchemrc:
 Symmetry turned off for PCM/SM12/SMD calculation


!!********************************************.
!!******************Warning*******************.
!!Desired Analytical derivatives not available.
!!Finite difference job might take a long time.
!!********************************************.
!!********************************************.


 2-order derivative to be evaluated numerically with 1-order analytical derivatives

 Checking the input file for inconsistencies... 	...done.

--------------------------------------------------------------
User input:
--------------------------------------------------------------
$molecule
-1 2
O        -0.5898693698    1.4364167686   -0.2011324283
C        -0.0505459724    0.4558973035    0.6364534286
O        -0.9992020981   -0.4709441896    1.0550590018
C         1.1382211719   -0.2198854210   -0.0797845773
O         2.1150602176    0.5155082449   -0.3422678855
O         1.0091565412   -1.4439638257   -0.3063138284
H        -1.2923185257    1.8935755434    0.2782478755
H        -0.6832252495   -1.3229325128    0.7021992984
H         0.3900654810    0.9778650496    1.5657085859
O         1.5169367837    1.7843143470    2.2297602170
H         2.0821964203    1.6320557921    1.4474164122
$end

$rem
BASIS = 6-311++G(2df,2p)
GUI = 2
JOB_TYPE = Frequency
METHOD = wB97M-V
SOLVENT_METHOD = SMD
SCF_ALGORITHM = DIIS_GDM
MAX_SCF_CYCLES = 400
SCF_CONVERGENCE = 7
THRESH = 12
SYMMETRY_IGNORE = 1
$end

--------------------------------------------------------------
 ----------------------------------------------------------------
             Standard Nuclear Orientation (Angstroms)
    I     Atom           X                Y                Z
 ----------------------------------------------------------------
    1      O      -0.5898693698     1.4364167686    -0.2011324283
    2      C      -0.0505459724     0.4558973035     0.6364534286
    3      O      -0.9992020981    -0.4709441896     1.0550590018
    4      C       1.1382211719    -0.2198854210    -0.0797845773
    5      O       2.1150602176     0.5155082449    -0.3422678855
    6      O       1.0091565412    -1.4439638257    -0.3063138284
    7      H      -1.2923185257     1.8935755434     0.2782478755
    8      H      -0.6832252495    -1.3229325128     0.7021992984
    9      H       0.3900654810     0.9778650496     1.5657085859
   10      O       1.5169367837     1.7843143470     2.2297602170
   11      H       2.0821964203     1.6320557921     1.4474164122
 ----------------------------------------------------------------
 Nuclear Repulsion Energy =         316.74259526 hartrees
 There are       29 alpha and       28 beta electrons
 Requested basis set is 6-311++G(2df,2p)
 There are 80 shells and 278 basis functions

 Total QAlloc Memory Limit 288000 MB
 Mega-Array Size       188 MB
 MEM_STATIC part       192 MB
 
 Citation of the SMD model:
 Marenich, A.V.; Cramer, C.J.; Truhlar, D.G.
 J. Phys. Chem. B 2009, 113, 6378-6396.
 iSolventCode=           1
 Solvent: water                                                           
 
 vradii
            1           2           3           4           5           6
    1   1.5200000   1.8500000   1.5200000   1.8500000   1.5200000   1.5200000
            7           8           9          10          11
    1   1.2000000   1.2000000   1.2000000   1.5200000   1.2000000
 Changing PCM_VDW_RADII to SMD_RADIUS
 Discretize the solute cavity surface with Lebedev spheres
	Using 110 Lebedev grid points for each H atom
	Using 194 Lebedev grid points for other atoms
	Atomic van der Waals radii will be scaled by 1.20
 Remove points where switching function is < 1.0e-08
 Keep 976 surface tesserae and discard 822 interior tesserae
 Molecular Surface Area = 115.136 Angst**2

                       Distance Matrix (Angstroms)
             O (  1)   C (  2)   O (  3)   C (  4)   O (  5)   O (  6)
   C (  2)  1.397798
   O (  3)  2.320258  1.390760
   C (  4)  2.396739  1.543647  2.432998
   O (  5)  2.860880  2.377246  3.553061  1.250566
   O (  6)  3.296140  2.370918  2.614117  1.251536  2.250299
   H (  7)  0.965523  1.933191  2.506054  3.240745  3.727511  4.096055
   H (  8)  2.904950  1.889138  0.974800  2.268453  3.507303  1.973804
   H (  9)  2.071779  1.153301  2.071201  2.168407  2.613380  3.122979
   O ( 10)  3.235569  2.600062  3.577299  3.081272  2.929667  4.136580
   H ( 11)  3.145779  2.567022  3.751209  2.579364  2.109675  3.699849
             H (  7)   H (  8)   H (  9)   O ( 10)
   H (  8)  3.301008
   H (  9)  2.307920  2.681654
   O ( 10)  3.422317  4.102333  1.536608
   H ( 11)  3.580880  4.115199  1.818039  0.977120
 
 A cutoff of  1.0D-12 yielded   3007 shell pairs
 There are     36514 function pairs (     46190 Cartesian)
 Smallest overlap matrix eigenvalue = 7.64E-05
 Guess from superposition of atomic densities
 Warning:  Energy on first SCF cycle will be non-variational
 SAD guess density has 56.000000 electrons

 -----------------------------------------------------------------------
  General SCF calculation program by
  Eric Jon Sundstrom, Paul Horn, Yuezhi Mao, Dmitri Zuev, Alec White,
  David Stuck, Shaama M.S., Shane Yost, Joonho Lee, David Small,
  Daniel Levine, Susi Lehtola, Hugh Burton, Evgeny Epifanovsky,
  Bang C. Huynh
 -----------------------------------------------------------------------
 Exchange:     0.1500 Hartree-Fock + 1.0000 wB97M-V + LR-HF
 Correlation:  1.0000 wB97M-V
 Using SG-2 standard quadrature grid
 Nonlocal Correlation:  VV10 with C = 0.0100 and b = 6.00 and scale = 1.00000
 Grid used for NLC:  SG-1 standard quadrature
 using 8 threads for integral computing
 -------------------------------------------------------
 OpenMP Integral computing Module                
 Release: version 1.0, May 2013, Q-Chem Inc. Pittsburgh 
 -------------------------------------------------------
 
 Citation of the SMD model:
 Marenich, A.V.; Cramer, C.J.; Truhlar, D.G.
 J. Phys. Chem. B 2009, 113, 6378-6396.
 iSolventCode=           1
 Solvent: water                                                           
 
 vradii
            1           2           3           4           5           6
    1   1.5200000   1.8500000   1.5200000   1.8500000   1.5200000   1.5200000
            7           8           9          10          11
    1   1.2000000   1.2000000   1.2000000   1.5200000   1.2000000
 -------------------------------------------------------
 OpenMP BLAS3 based DFT computing Module                
 Release: version 1.0, May 2013, Q-Chem Inc. Pittsburgh 
 -------------------------------------------------------
 A unrestricted SCF calculation will be
 performed using DIIS, GDM
 SCF converges when RMS gradient is below 1.0e-07
 ---------------------------------------
  Cycle       Energy         DIIS error
 ---------------------------------------
    1    -455.5943506046      1.46e-02  
    2    -454.5726256024      3.05e-03  Done DIIS. Switching to GDM
 ---------------------------------------
  Cycle       Energy        RMS Gradient
 ---------------------------------------
    1    -454.5726256024      2.84e-01   Descent step
    2    -454.8195412350      5.74e-02   Normal BFGS step
    3    -454.8642248914      7.13e-02   Normal BFGS step
    4    -454.8701608359      1.62e-02   Normal BFGS step
    5    -454.8746379760      1.92e-02   Normal BFGS step
    6    -454.8763299089      1.21e-02   Normal BFGS step
    7    -454.8768538944      5.62e-03   Normal BFGS step
    8    -454.8769676071      2.17e-03   Normal BFGS step
    9    -454.8769914498      8.40e-04   Normal BFGS step
   10    -454.8769985966      4.43e-04   Normal BFGS step
   11    -454.8769999564      2.55e-04   Normal BFGS step
   12    -454.8770004416      1.27e-04   Normal BFGS step
   13    -454.8770005702      1.18e-04   Normal BFGS step
   14    -454.8770006144      1.03e-04   Normal BFGS step
   15    -454.8770006450      7.66e-05   Normal BFGS step
   16    -454.8770006616      4.48e-05   Normal BFGS step
   17    -454.8770006775      3.96e-05   Normal BFGS step
   18    -454.8770006858      1.73e-05   Normal BFGS step
   19    -454.8770006873      5.88e-06   Normal BFGS step
   20    -454.8770006877      2.57e-06   Normal BFGS step
   21    -454.8770006878      8.46e-07   Normal BFGS step
   22    -454.8770006878      2.76e-07   Normal BFGS step
   23    -454.8770006878      7.38e-08  Convergence criterion met
 ---------------------------------------
 SCF time:   CPU 797.93s  wall 101.00s 
<S^2> =          0.756800520
(3)  G-ENP(liq) elect-nuc-pol free energy of system     -454.877000688 a.u.
(4)  G-CDS(liq) cavity-dispersion-solvent structure 
     free energy                                                4.1292 kcal/mol
(6)  G-S(liq) free energy of system                     -454.870420332 a.u.
 SCF   energy in the final basis set =     -454.8704203321
 Total energy in the final basis set =     -454.8704203321
 
 --------------------------------------------------------------
 
                    Orbital Energies (a.u.)
 --------------------------------------------------------------
 
 Alpha MOs
 -- Occupied --
-19.3680 -19.3544 -19.3483 -19.3011 -19.2973 -10.4562 -10.4514  -1.2185
 -1.1754  -1.1461  -1.1195  -1.0935  -0.8194  -0.6924  -0.6520  -0.6239
 -0.5956  -0.5703  -0.5420  -0.5258  -0.5208  -0.4992  -0.4894  -0.4434
 -0.4229  -0.3960  -0.3830  -0.3728  -0.3581
 -- Virtual --
  0.0325   0.0556   0.0574   0.0699   0.0895   0.1033   0.1094   0.1106
  0.1271   0.1295   0.1492   0.1619   0.1767   0.2331   0.2350   0.2373
  0.2411   0.2476   0.2640   0.2682   0.2786   0.2950   0.3116   0.3150
  0.3197   0.3293   0.3336   0.3368   0.3472   0.3501   0.3555   0.3680
  0.3702   0.3886   0.3930   0.4098   0.4165   0.4237   0.4410   0.4741
  0.5542   0.5734   0.5791   0.6015   0.6121   0.6264   0.6557   0.6875
  0.6904   0.7039   0.7264   0.7689   0.7870   0.8229   0.8391   0.8577
  0.8871   0.8910   0.9646   0.9748   1.0078   1.0427   1.0587   1.0786
  1.1083   1.1135   1.1209   1.1281   1.1440   1.1532   1.1677   1.1768
  1.1906   1.2096   1.2149   1.2469   1.2561   1.2792   1.2857   1.3202
  1.3674   1.3895   1.3968   1.4283   1.4620   1.4793   1.5123   1.5243
  1.5692   1.5905   1.6035   1.6442   1.6562   1.7105   1.7184   1.7495
  1.8012   1.8169   1.8390   1.8685   1.8992   1.9247   1.9468   2.0159
  2.0367   2.1029   2.1301   2.1488   2.2138   2.2651   2.2946   2.3478
  2.3658   2.3989   2.4436   2.4657   2.5010   2.5196   2.5810   2.6096
  2.7690   2.7916   2.8101   2.8520   2.8628   2.9327   2.9575   3.0061
  3.1300   3.1823   3.2152   3.2614   3.3410   3.3580   3.3909   3.4048
  3.4416   3.4939   3.5381   3.5787   3.6203   3.6287   3.6476   3.7173
  3.7376   3.7575   3.7855   3.8122   3.8477   3.8627   3.9245   3.9382
  3.9744   4.0224   4.0879   4.1362   4.1813   4.2129   4.2517   4.2718
  4.2958   4.3203   4.3579   4.4047   4.4651   4.7571   5.0752   5.0920
  5.1107   5.1623   5.1719   5.1797   5.1822   5.1990   5.2093   5.2176
  5.2264   5.2383   5.2413   5.2605   5.2847   5.2927   5.3015   5.3150
  5.3348   5.3639   5.3711   5.3888   5.4075   5.4328   5.4736   5.5287
  5.5515   5.5674   5.6021   5.6197   5.6266   5.6340   5.6706   5.6817
  5.7347   5.8090   5.8609   5.9969   6.0252   6.0694   6.2065   6.3223
  6.4706   6.4843   6.7409   6.8706   6.9111   6.9350   6.9791   7.0037
  7.0261   7.0547   7.0794   7.1018   7.1293   7.1486   7.1782   7.2506
  7.2590   7.2990   7.3345   7.3392   7.3495   7.3784   7.4424   7.4829
  7.5112   7.5531   7.6163   7.6509   7.7124   7.7649   7.8163   7.8238
  7.8617   7.9253  24.7613  25.2011  50.4706  50.5760  50.6173  50.7091
 50.7275
 
 Beta MOs
 -- Occupied --
-19.3534 -19.3477 -19.3471 -19.3009 -19.2972 -10.4520 -10.4513  -1.2158
 -1.1746  -1.1435  -1.0946  -1.0665  -0.8118  -0.6858  -0.6468  -0.6111
 -0.5896  -0.5513  -0.5395  -0.5214  -0.5173  -0.4912  -0.4264  -0.4158
 -0.4118  -0.3819  -0.3740  -0.3667
 -- Virtual --
 -0.0674   0.0335   0.0558   0.0583   0.0707   0.0903   0.1039   0.1098
  0.1121   0.1279   0.1300   0.1501   0.1630   0.1780   0.2350   0.2370
  0.2408   0.2421   0.2493   0.2659   0.2732   0.2794   0.2959   0.3122
  0.3159   0.3220   0.3299   0.3340   0.3377   0.3488   0.3523   0.3572
  0.3711   0.3733   0.3894   0.4001   0.4161   0.4204   0.4257   0.4435
  0.4758   0.5550   0.5775   0.5862   0.6039   0.6139   0.6294   0.6604
  0.6903   0.6923   0.7071   0.7269   0.7699   0.7880   0.8237   0.8415
  0.8591   0.8880   0.8919   0.9655   0.9783   1.0122   1.0442   1.0606
  1.0848   1.1110   1.1150   1.1229   1.1297   1.1470   1.1547   1.1721
  1.1887   1.2104   1.2119   1.2242   1.2508   1.2588   1.2820   1.2873
  1.3210   1.3736   1.3925   1.3987   1.4340   1.4650   1.4839   1.5153
  1.5261   1.5839   1.5952   1.6169   1.6491   1.6629   1.7171   1.7220
  1.7527   1.8113   1.8255   1.8482   1.8717   1.9072   1.9280   1.9516
  2.0179   2.0415   2.1049   2.1341   2.1638   2.2225   2.2674   2.3004
  2.3544   2.3715   2.4023   2.4515   2.4672   2.5032   2.5202   2.5819
  2.6125   2.7748   2.7997   2.8149   2.8494   2.8658   2.9344   2.9662
  3.0068   3.1340   3.1842   3.2168   3.2639   3.3469   3.3612   3.3946
  3.4074   3.4437   3.4978   3.5426   3.5858   3.6217   3.6322   3.6525
  3.7231   3.7414   3.7649   3.7896   3.8165   3.8517   3.8657   3.9328
  3.9427   3.9797   4.0308   4.0912   4.1387   4.1809   4.2156   4.2564
  4.2728   4.2975   4.3255   4.3590   4.3948   4.4532   4.7603   5.0885
  5.1385   5.1482   5.1712   5.1809   5.1901   5.2020   5.2144   5.2270
  5.2349   5.2414   5.2478   5.2629   5.2727   5.2964   5.3024   5.3081
  5.3397   5.3578   5.3778   5.3932   5.3974   5.4230   5.4355   5.4763
  5.5302   5.5531   5.5692   5.6039   5.6220   5.6402   5.6451   5.6799
  5.7160   5.7358   5.8119   5.8619   5.9999   6.0269   6.0710   6.2084
  6.3231   6.4722   6.4882   6.7443   6.8881   6.9409   6.9854   6.9930
  7.0253   7.0515   7.0600   7.0858   7.1277   7.1415   7.1711   7.2298
  7.2549   7.2630   7.3096   7.3374   7.3510   7.3674   7.3955   7.4551
  7.4868   7.5157   7.6042   7.6211   7.6602   7.7166   7.7667   7.8202
  7.8268   7.8625   7.9281  24.7647  25.2013  50.4846  50.5770  50.6183
 50.7093  50.7277
 --------------------------------------------------------------
 
          Ground-State Mulliken Net Atomic Charges

     Atom                 Charge (a.u.)    Spin (a.u.)
  --------------------------------------------------------
      1 O                    -0.383000       0.031277
      2 C                    -0.166410       0.193136
      3 O                    -0.417549       0.031542
      4 C                     0.446877      -0.006079
      5 O                    -0.629919       0.004148
      6 O                    -0.639937       0.007121
      7 H                     0.349937      -0.000503
      8 H                     0.313659       0.004846
      9 H                     0.277648      -0.015081
     10 O                    -0.463115       0.760457
     11 H                     0.311810      -0.010864
  --------------------------------------------------------
  Sum of atomic charges =    -1.000000
  Sum of spin   charges =     1.000000

 -----------------------------------------------------------------
                    Cartesian Multipole Moments
 -----------------------------------------------------------------
    Charge (ESU x 10^10)
                -4.8032
    Dipole Moment (Debye)
         X      -7.4677      Y       0.4572      Z      -0.0993
       Tot       7.4824
    Quadrupole Moments (Debye-Ang)
        XX     -56.9114     XY      -2.7662     YY     -50.8909
        XZ       1.1053     YZ      -4.0546     ZZ     -54.6399
    Octopole Moments (Debye-Ang^2)
       XXX    -103.9910    XXY      -6.8987    XYY     -47.1360
       YYY     -40.2429    XXZ     -15.1143    XYZ      -9.5591
       YYZ     -22.5255    XZZ     -36.9547    YZZ     -28.3443
       ZZZ     -86.1200
    Hexadecapole Moments (Debye-Ang^3)
      XXXX    -498.2559   XXXY     -40.3138   XXYY    -129.4403
      XYYY     -44.4535   YYYY    -388.3096   XXXZ      -4.3331
      XXYZ     -23.4077   XYYZ     -22.7045   YYYZ    -100.7556
      XXZZ    -146.8485   XYZZ     -34.2161   YYZZ    -143.4266
      XZZZ     -59.6091   YZZZ    -114.1901   ZZZZ    -375.7223
 -----------------------------------------------------------------
 Calculating analytic gradient of the SCF energy
 Gradient of CDS energy
            1           2           3           4           5           6
    1   0.0017769  -0.0059307   0.0038150   0.0019442  -0.0014725   0.0002389
    2  -0.0031418  -0.0006908   0.0039179  -0.0013673  -0.0010214   0.0018935
    3   0.0027721  -0.0004726  -0.0017522  -0.0013036   0.0002979   0.0003282
            7           8           9          10          11
    1  -0.0003254  -0.0002438   0.0001498  -0.0002773   0.0003248
    2   0.0003875  -0.0003230   0.0001155   0.0000045   0.0002253
    3  -0.0000787   0.0000782  -0.0000894   0.0001682   0.0000518
 Gradient of SCF Energy
            1           2           3           4           5           6
    1  -0.0088178   0.0206915  -0.0008076   0.0249618  -0.0232004   0.0016964
    2   0.0094895   0.0235907  -0.0242715  -0.0241715  -0.0106077   0.0242365
    3  -0.0047074   0.0367674  -0.0067361  -0.0071696  -0.0028548   0.0042844
            7           8           9          10          11
    1   0.0097610  -0.0075473  -0.0179910   0.0164209  -0.0151675
    2  -0.0083892   0.0266272  -0.0183669  -0.0041593   0.0060222
    3  -0.0026896   0.0094450  -0.0304353  -0.0196667   0.0237627
 Max gradient component =       3.677E-02
 RMS gradient           =       1.724E-02
 Computing fast CPCM-SWIG gradient
 Updating gradient with PCM contributions...
 -- total gradient after adding PCM contribution --
---------------------------------------------------
  Atom         X              Y              Z     
---------------------------------------------------
   1       0.000030      -0.000019       0.000003
   2       0.000011       0.000028      -0.000015
   3       0.000005       0.000044       0.000018
   4       0.000127       0.000048      -0.000022
   5      -0.000109      -0.000103       0.000036
   6      -0.000019      -0.000003       0.000049
   7      -0.000004       0.000009      -0.000022
   8      -0.000017       0.000002       0.000029
   9       0.000014      -0.000012      -0.000017
  10      -0.000025      -0.000007      -0.000053
  11      -0.000012       0.000013      -0.000006
---------------------------------------------------
 Number of fixed atoms: 0
 Gradient time:  CPU 93.07 s  wall 13.73 s
 ######################################################
 ######################################################
 # Starting finite difference calculation for IDERIV  #
 Finite diff step size:  1.88973e-03 a.u.
 ----------------------------------------------------------------
             Standard Nuclear Orientation (Angstroms)
    I     Atom           X                Y                Z
 ----------------------------------------------------------------
    1      O      -0.5888693698     1.4364167686    -0.2011324283
    2      C      -0.0505459724     0.4558973035     0.6364534286
    3      O      -0.9992020981    -0.4709441896     1.0550590018
    4      C       1.1382211719    -0.2198854210    -0.0797845773
    5      O       2.1150602176     0.5155082449    -0.3422678855
    6      O       1.0091565412    -1.4439638257    -0.3063138284
    7      H      -1.2923185257     1.8935755434     0.2782478755
    8      H      -0.6832252495    -1.3229325128     0.7021992984
    9      H       0.3900654810     0.9778650496     1.5657085859
   10      O       1.5169367837     1.7843143470     2.2297602170
   11      H       2.0821964203     1.6320557921     1.4474164122
 ----------------------------------------------------------------
 Nuclear Repulsion Energy =         316.75472987 hartrees
 There are       29 alpha and       28 beta electrons
 Discretize the solute cavity surface with Lebedev spheres
	Using 110 Lebedev grid points for each H atom
	Using 194 Lebedev grid points for other atoms
	Atomic van der Waals radii will be scaled by 1.20
 Remove points where switching function is < 1.0e-08
 Keep 976 surface tesserae and discard 822 interior tesserae
 Molecular Surface Area = 115.137 Angst**2

                       Distance Matrix (Angstroms)
             O (  1)   C (  2)   O (  3)   C (  4)   O (  5)   O (  6)
   C (  2)  1.397412
   O (  3)  2.320434  1.390760
   C (  4)  2.396018  1.543647  2.432998
   O (  5)  2.859935  2.377246  3.553061  1.250566
   O (  6)  3.295655  2.370918  2.614117  1.251536  2.250299
   H (  7)  0.966251  1.933191  2.506054  3.240745  3.727511  4.096055
   H (  8)  2.904982  1.889138  0.974800  2.268453  3.507303  1.973804
   H (  9)  2.071306  1.153301  2.071201  2.168407  2.613380  3.122979
   O ( 10)  3.234918  2.600062  3.577299  3.081272  2.929667  4.136580
   H ( 11)  3.144929  2.567022  3.751209  2.579364  2.109675  3.699849
             H (  7)   H (  8)   H (  9)   O ( 10)
   H (  8)  3.301008
   H (  9)  2.307920  2.681654
   O ( 10)  3.422317  4.102333  1.536608
   H ( 11)  3.580880  4.115199  1.818039  0.977120
 
 Requested basis set is 6-311++G(2df,2p)
 There are 80 shells and 278 basis functions
 A cutoff of  1.0D-12 yielded   3007 shell pairs
 There are     36514 function pairs (     46190 Cartesian)
 Smallest overlap matrix eigenvalue = 7.64E-05
 Guess MOs from SCF MO coefficient file

 -----------------------------------------------------------------------
  General SCF calculation program by
  Eric Jon Sundstrom, Paul Horn, Yuezhi Mao, Dmitri Zuev, Alec White,
  David Stuck, Shaama M.S., Shane Yost, Joonho Lee, David Small,
  Daniel Levine, Susi Lehtola, Hugh Burton, Evgeny Epifanovsky,
  Bang C. Huynh
 -----------------------------------------------------------------------
 Exchange:     0.1500 Hartree-Fock + 1.0000 wB97M-V + LR-HF
 Correlation:  1.0000 wB97M-V
 Using SG-2 standard quadrature grid
 Nonlocal Correlation:  VV10 with C = 0.0100 and b = 6.00 and scale = 1.00000
 Grid used for NLC:  SG-1 standard quadrature
 
 Citation of the SMD model:
 Marenich, A.V.; Cramer, C.J.; Truhlar, D.G.
 J. Phys. Chem. B 2009, 113, 6378-6396.
 iSolventCode=           1
 Solvent: water                                                           
 
 vradii
            1           2           3           4           5           6
    1   1.5200000   1.8500000   1.5200000   1.8500000   1.5200000   1.5200000
            7           8           9          10          11
    1   1.2000000   1.2000000   1.2000000   1.5200000   1.2000000
 -------------------------------------------------------
 OpenMP BLAS3 based DFT computing Module                
 Release: version 1.0, May 2013, Q-Chem Inc. Pittsburgh 
 -------------------------------------------------------
 A unrestricted SCF calculation will be
 performed using Roothaan-Hall, DIIS, GDM
 SCF converges when RMS gradient is below 1.0e-07
 ---------------------------------------
  Cycle       Energy         DIIS error
 ---------------------------------------
    1    -454.7600238049      2.91e-04  Roothaan Step
 ---------------------------------------
  Cycle       Energy         DIIS error
 ---------------------------------------
    1    -454.8706230807      3.22e-04  
    2    -454.8750565445      2.72e-04  Done DIIS. Switching to GDM
 ---------------------------------------
  Cycle       Energy        RMS Gradient
 ---------------------------------------
    1    -454.8750565445      8.40e-03   Normal BFGS step
    2    -454.8748840438      1.43e-02  Line search: overstep
    3    -454.8768492180      2.62e-03   Normal BFGS step
    4    -454.8769829259      1.03e-03   Normal BFGS step
    5    -454.8770003252      6.05e-04   Normal BFGS step
    6    -454.8770024456      3.30e-04   Normal BFGS step
    7    -454.8770030950      2.15e-04   Normal BFGS step
    8    -454.8770032569      1.18e-04   Normal BFGS step
    9    -454.8770032876      5.88e-05   Normal BFGS step
   10    -454.8770033000      2.57e-05   Normal BFGS step
   11    -454.8770033037      2.31e-05   Normal BFGS step
   12    -454.8770033056      1.96e-05   Normal BFGS step
   13    -454.8770033078      1.23e-05   Normal BFGS step
   14    -454.8770033087      9.82e-06   Normal BFGS step
   15    -454.8770033093      5.50e-06   Normal BFGS step
   16    -454.8770033095      2.18e-06   Normal BFGS step
   17    -454.8770033095      9.96e-07   Normal BFGS step
   18    -454.8770033095      2.65e-07   Normal BFGS step
   19    -454.8770033095      2.13e-07   Normal BFGS step
   20    -454.8770033095      1.21e-07   Normal BFGS step
   21    -454.8770033095      4.84e-08  Convergence criterion met
 ---------------------------------------
 SCF time:   CPU 751.99s  wall 95.00s 
<S^2> =          0.756803338
(3)  G-ENP(liq) elect-nuc-pol free energy of system     -454.877003310 a.u.
(4)  G-CDS(liq) cavity-dispersion-solvent structure 
     free energy                                                4.1314 kcal/mol
(6)  G-S(liq) free energy of system                     -454.870419578 a.u.
 SCF   energy in the final basis set =     -454.8704195784
 Total energy in the final basis set =     -454.8704195784
 
 --------------------------------------------------------------
 
                    Orbital Energies (a.u.)
 --------------------------------------------------------------
 
 Alpha MOs
 -- Occupied --
-19.3679 -19.3544 -19.3483 -19.3011 -19.2973 -10.4562 -10.4513  -1.2186
 -1.1754  -1.1462  -1.1194  -1.0935  -0.8193  -0.6924  -0.6519  -0.6239
 -0.5956  -0.5703  -0.5420  -0.5259  -0.5207  -0.4992  -0.4894  -0.4433
 -0.4230  -0.3959  -0.3830  -0.3728  -0.3581
 -- Virtual --
  0.0325   0.0556   0.0574   0.0699   0.0895   0.1033   0.1094   0.1106
  0.1271   0.1295   0.1492   0.1619   0.1767   0.2331   0.2349   0.2373
  0.2411   0.2476   0.2640   0.2682   0.2786   0.2950   0.3116   0.3150
  0.3197   0.3293   0.3336   0.3369   0.3473   0.3501   0.3555   0.3680
  0.3702   0.3887   0.3930   0.4098   0.4165   0.4237   0.4410   0.4741
  0.5543   0.5733   0.5791   0.6015   0.6121   0.6262   0.6557   0.6875
  0.6903   0.7039   0.7264   0.7689   0.7870   0.8229   0.8390   0.8578
  0.8871   0.8909   0.9646   0.9747   1.0078   1.0427   1.0587   1.0787
  1.1084   1.1135   1.1209   1.1281   1.1440   1.1532   1.1677   1.1768
  1.1906   1.2097   1.2149   1.2470   1.2561   1.2792   1.2857   1.3202
  1.3674   1.3895   1.3968   1.4283   1.4622   1.4794   1.5122   1.5241
  1.5693   1.5903   1.6035   1.6442   1.6562   1.7105   1.7185   1.7495
  1.8012   1.8169   1.8390   1.8685   1.8991   1.9245   1.9468   2.0158
  2.0368   2.1030   2.1301   2.1488   2.2138   2.2652   2.2947   2.3479
  2.3659   2.3993   2.4439   2.4657   2.5010   2.5197   2.5811   2.6098
  2.7688   2.7916   2.8100   2.8520   2.8628   2.9327   2.9575   3.0060
  3.1300   3.1823   3.2152   3.2615   3.3409   3.3582   3.3910   3.4049
  3.4416   3.4939   3.5381   3.5787   3.6204   3.6287   3.6476   3.7173
  3.7375   3.7574   3.7856   3.8122   3.8478   3.8626   3.9246   3.9384
  3.9744   4.0224   4.0878   4.1359   4.1811   4.2127   4.2516   4.2717
  4.2957   4.3202   4.3571   4.4047   4.4651   4.7571   5.0752   5.0920
  5.1108   5.1623   5.1719   5.1798   5.1822   5.1991   5.2093   5.2177
  5.2265   5.2383   5.2414   5.2605   5.2848   5.2927   5.3015   5.3150
  5.3348   5.3639   5.3711   5.3888   5.4074   5.4328   5.4734   5.5287
  5.5516   5.5673   5.6021   5.6192   5.6264   5.6339   5.6706   5.6815
  5.7346   5.8089   5.8606   5.9968   6.0254   6.0696   6.2071   6.3225
  6.4710   6.4845   6.7414   6.8706   6.9112   6.9350   6.9791   7.0037
  7.0261   7.0546   7.0793   7.1018   7.1293   7.1487   7.1782   7.2507
  7.2569   7.2988   7.3343   7.3387   7.3495   7.3785   7.4423   7.4827
  7.5112   7.5531   7.6163   7.6509   7.7122   7.7649   7.8167   7.8237
  7.8617   7.9254  24.7620  25.2011  50.4707  50.5757  50.6173  50.7091
 50.7276
 
 Beta MOs
 -- Occupied --
-19.3534 -19.3477 -19.3471 -19.3009 -19.2972 -10.4520 -10.4513  -1.2158
 -1.1745  -1.1435  -1.0946  -1.0665  -0.8117  -0.6858  -0.6467  -0.6111
 -0.5896  -0.5512  -0.5395  -0.5214  -0.5173  -0.4912  -0.4264  -0.4158
 -0.4118  -0.3819  -0.3740  -0.3667
 -- Virtual --
 -0.0674   0.0334   0.0557   0.0583   0.0707   0.0903   0.1039   0.1098
  0.1121   0.1279   0.1300   0.1501   0.1630   0.1780   0.2349   0.2368
  0.2408   0.2421   0.2493   0.2658   0.2733   0.2794   0.2959   0.3122
  0.3159   0.3221   0.3299   0.3340   0.3377   0.3488   0.3523   0.3572
  0.3711   0.3733   0.3894   0.4002   0.4160   0.4204   0.4257   0.4435
  0.4758   0.5550   0.5773   0.5862   0.6040   0.6139   0.6293   0.6604
  0.6903   0.6923   0.7071   0.7269   0.7698   0.7881   0.8237   0.8415
  0.8591   0.8880   0.8919   0.9655   0.9783   1.0122   1.0442   1.0606
  1.0849   1.1111   1.1151   1.1229   1.1297   1.1470   1.1547   1.1722
  1.1887   1.2104   1.2119   1.2243   1.2509   1.2588   1.2820   1.2873
  1.3210   1.3736   1.3925   1.3987   1.4341   1.4651   1.4840   1.5152
  1.5259   1.5839   1.5950   1.6170   1.6491   1.6629   1.7171   1.7221
  1.7527   1.8114   1.8256   1.8482   1.8717   1.9071   1.9279   1.9516
  2.0178   2.0416   2.1049   2.1342   2.1638   2.2225   2.2674   2.3005
  2.3544   2.3716   2.4026   2.4518   2.4672   2.5032   2.5202   2.5820
  2.6127   2.7746   2.7998   2.8148   2.8494   2.8658   2.9345   2.9662
  3.0068   3.1340   3.1842   3.2168   3.2639   3.3469   3.3614   3.3948
  3.4075   3.4437   3.4978   3.5425   3.5858   3.6217   3.6322   3.6526
  3.7231   3.7414   3.7648   3.7896   3.8165   3.8517   3.8655   3.9329
  3.9428   3.9797   4.0309   4.0912   4.1385   4.1807   4.2154   4.2564
  4.2727   4.2974   4.3254   4.3582   4.3947   4.4532   4.7603   5.0885
  5.1386   5.1483   5.1712   5.1809   5.1902   5.2020   5.2144   5.2270
  5.2349   5.2415   5.2478   5.2629   5.2727   5.2964   5.3025   5.3081
  5.3397   5.3578   5.3779   5.3932   5.3974   5.4230   5.4355   5.4761
  5.5303   5.5531   5.5690   5.6038   5.6215   5.6399   5.6450   5.6797
  5.7160   5.7357   5.8119   5.8616   5.9998   6.0270   6.0713   6.2090
  6.3233   6.4725   6.4885   6.7448   6.8881   6.9410   6.9855   6.9930
  7.0253   7.0515   7.0599   7.0857   7.1276   7.1416   7.1711   7.2297
  7.2548   7.2612   7.3092   7.3370   7.3510   7.3672   7.3956   7.4551
  7.4866   7.5158   7.6042   7.6212   7.6602   7.7165   7.7667   7.8204
  7.8268   7.8625   7.9282  24.7654  25.2013  50.4846  50.5767  50.6183
 50.7093  50.7277
 --------------------------------------------------------------
 
          Ground-State Mulliken Net Atomic Charges

     Atom                 Charge (a.u.)    Spin (a.u.)
  --------------------------------------------------------
      1 O                    -0.382917       0.031368
      2 C                    -0.166361       0.193202
      3 O                    -0.417607       0.031556
      4 C                     0.446919      -0.006084
      5 O                    -0.629993       0.004152
      6 O                    -0.639975       0.007122
      7 H                     0.350154      -0.000504
      8 H                     0.313672       0.004850
      9 H                     0.277609      -0.015053
     10 O                    -0.463305       0.760252
     11 H                     0.311804      -0.010862
  --------------------------------------------------------
  Sum of atomic charges =    -1.000000
  Sum of spin   charges =     1.000000

 -----------------------------------------------------------------
                    Cartesian Multipole Moments
 -----------------------------------------------------------------
    Charge (ESU x 10^10)
                -4.8032
    Dipole Moment (Debye)
         X      -7.4733      Y       0.4577      Z      -0.1021
       Tot       7.4880
    Quadrupole Moments (Debye-Ang)
        XX     -56.9119     XY      -2.7735     YY     -50.8920
        XZ       1.1026     YZ      -4.0599     ZZ     -54.6460
    Octopole Moments (Debye-Ang^2)
       XXX    -104.0221    XXY      -6.8994    XYY     -47.1552
       YYY     -40.2457    XXZ     -15.1229    XYZ      -9.5647
       YYZ     -22.5353    XZZ     -36.9717    YZZ     -28.3542
       ZZZ     -86.1366
    Hexadecapole Moments (Debye-Ang^3)
      XXXX    -498.2394   XXXY     -40.3559   XXYY    -129.4417
      XYYY     -44.4983   YYYY    -388.3266   XXXZ      -4.3434
      XXYZ     -23.4236   XYYZ     -22.7149   YYYZ    -100.7807
      XXZZ    -146.8636   XYZZ     -34.2420   YYZZ    -143.4473
      XZZZ     -59.6317   YZZZ    -114.2215   ZZZZ    -375.7697
 -----------------------------------------------------------------
 Calculating analytic gradient of the SCF energy
 Gradient of CDS energy
            1           2           3           4           5           6
    1   0.0017953  -0.0059498   0.0038154   0.0019441  -0.0014723   0.0002389
    2  -0.0031800  -0.0006519   0.0039180  -0.0013676  -0.0010214   0.0018935
    3   0.0028051  -0.0005061  -0.0017520  -0.0013034   0.0002979   0.0003282
            7           8           9          10          11
    1  -0.0003252  -0.0002438   0.0001498  -0.0002772   0.0003247
    2   0.0003869  -0.0003230   0.0001155   0.0000045   0.0002254
    3  -0.0000784   0.0000782  -0.0000894   0.0001682   0.0000517
 Gradient of SCF Energy
            1           2           3           4           5           6
    1  -0.0081244   0.0204920  -0.0007743   0.0249540  -0.0232021   0.0016987
    2   0.0089997   0.0237628  -0.0242977  -0.0241658  -0.0106036   0.0242434
    3  -0.0049413   0.0366833  -0.0067185  -0.0072216  -0.0028448   0.0042963
            7           8           9          10          11
    1   0.0092593  -0.0075523  -0.0180202   0.0164374  -0.0151680
    2  -0.0080666   0.0266247  -0.0183703  -0.0041515   0.0060247
    3  -0.0023243   0.0094461  -0.0304737  -0.0196669   0.0237653
 Max gradient component =       3.668E-02
 RMS gradient           =       1.721E-02
 Computing fast CPCM-SWIG gradient
 Updating gradient with PCM contributions...
 -- total gradient after adding PCM contribution --
---------------------------------------------------
  Atom         X              Y              Z     
---------------------------------------------------
   1       0.000767      -0.000514      -0.000240
   2      -0.000213       0.000196      -0.000101
   3       0.000039       0.000006       0.000042
   4       0.000104       0.000080      -0.000074
   5      -0.000112      -0.000101       0.000045
   6      -0.000021       0.000009       0.000060
   7      -0.000504       0.000314       0.000356
   8      -0.000020       0.000000       0.000033
   9      -0.000019      -0.000007      -0.000066
  10      -0.000014       0.000003      -0.000044
  11      -0.000007       0.000014      -0.000010
---------------------------------------------------
 Number of fixed atoms: 0
 Gradient time:  CPU 90.92 s  wall 13.58 s
 ----------------------------------------------------------------
             Standard Nuclear Orientation (Angstroms)
    I     Atom           X                Y                Z
 ----------------------------------------------------------------
    1      O      -0.5908693698     1.4364167686    -0.2011324283
    2      C      -0.0505459724     0.4558973035     0.6364534286
    3      O      -0.9992020981    -0.4709441896     1.0550590018
    4      C       1.1382211719    -0.2198854210    -0.0797845773
    5      O       2.1150602176     0.5155082449    -0.3422678855
    6      O       1.0091565412    -1.4439638257    -0.3063138284
    7      H      -1.2923185257     1.8935755434     0.2782478755
    8      H      -0.6832252495    -1.3229325128     0.7021992984
    9      H       0.3900654810     0.9778650496     1.5657085859
   10      O       1.5169367837     1.7843143470     2.2297602170
   11      H       2.0821964203     1.6320557921     1.4474164122
 ----------------------------------------------------------------
 Nuclear Repulsion Energy =         316.73045910 hartrees
 There are       29 alpha and       28 beta electrons
 Discretize the solute cavity surface with Lebedev spheres
	Using 110 Lebedev grid points for each H atom
	Using 194 Lebedev grid points for other atoms
	Atomic van der Waals radii will be scaled by 1.20
 Remove points where switching function is < 1.0e-08
 Keep 976 surface tesserae and discard 822 interior tesserae
 Molecular Surface Area = 115.136 Angst**2

                       Distance Matrix (Angstroms)
             O (  1)   C (  2)   O (  3)   C (  4)   O (  5)   O (  6)
   C (  2)  1.398184
   O (  3)  2.320082  1.390760
   C (  4)  2.397460  1.543647  2.432998
   O (  5)  2.861826  2.377246  3.553061  1.250566
   O (  6)  3.296625  2.370918  2.614117  1.251536  2.250299
   H (  7)  0.964796  1.933191  2.506054  3.240745  3.727511  4.096055
   H (  8)  2.904918  1.889138  0.974800  2.268453  3.507303  1.973804
   H (  9)  2.072252  1.153301  2.071201  2.168407  2.613380  3.122979
   O ( 10)  3.236220  2.600062  3.577299  3.081272  2.929667  4.136580
   H ( 11)  3.146628  2.567022  3.751209  2.579364  2.109675  3.699849
             H (  7)   H (  8)   H (  9)   O ( 10)
   H (  8)  3.301008
   H (  9)  2.307920  2.681654
   O ( 10)  3.422317  4.102333  1.536608
   H ( 11)  3.580880  4.115199  1.818039  0.977120
 
 Requested basis set is 6-311++G(2df,2p)
 There are 80 shells and 278 basis functions
 A cutoff of  1.0D-12 yielded   3007 shell pairs
 There are     36514 function pairs (     46190 Cartesian)
 Smallest overlap matrix eigenvalue = 7.64E-05
 Guess MOs from SCF MO coefficient file

 -----------------------------------------------------------------------
  General SCF calculation program by
  Eric Jon Sundstrom, Paul Horn, Yuezhi Mao, Dmitri Zuev, Alec White,
  David Stuck, Shaama M.S., Shane Yost, Joonho Lee, David Small,
  Daniel Levine, Susi Lehtola, Hugh Burton, Evgeny Epifanovsky,
  Bang C. Huynh
 -----------------------------------------------------------------------
 Exchange:     0.1500 Hartree-Fock + 1.0000 wB97M-V + LR-HF
 Correlation:  1.0000 wB97M-V
 Using SG-2 standard quadrature grid
 Nonlocal Correlation:  VV10 with C = 0.0100 and b = 6.00 and scale = 1.00000
 Grid used for NLC:  SG-1 standard quadrature
 
 Citation of the SMD model:
 Marenich, A.V.; Cramer, C.J.; Truhlar, D.G.
 J. Phys. Chem. B 2009, 113, 6378-6396.
 iSolventCode=           1
 Solvent: water                                                           
 
 vradii
            1           2           3           4           5           6
    1   1.5200000   1.8500000   1.5200000   1.8500000   1.5200000   1.5200000
            7           8           9          10          11
    1   1.2000000   1.2000000   1.2000000   1.5200000   1.2000000
 -------------------------------------------------------
 OpenMP BLAS3 based DFT computing Module                
 Release: version 1.0, May 2013, Q-Chem Inc. Pittsburgh 
 -------------------------------------------------------
 A unrestricted SCF calculation will be
 performed using Roothaan-Hall, DIIS, GDM
 SCF converges when RMS gradient is below 1.0e-07
 ---------------------------------------
  Cycle       Energy         DIIS error
 ---------------------------------------
    1    -454.7600500174      2.91e-04  Roothaan Step
 ---------------------------------------
  Cycle       Energy         DIIS error
 ---------------------------------------
    1    -454.8706270584      3.22e-04  
    2    -454.8750654706      2.71e-04  Done DIIS. Switching to GDM
 ---------------------------------------
  Cycle       Energy        RMS Gradient
 ---------------------------------------
    1    -454.8750654706      8.44e-03   Normal BFGS step
    2    -454.8748977438      1.44e-02  Line search: overstep
    3    -454.8768426272      2.61e-03   Normal BFGS step
    4    -454.8769763578      1.05e-03   Normal BFGS step
    5    -454.8769937472      6.02e-04   Normal BFGS step
    6    -454.8769958509      3.30e-04   Normal BFGS step
    7    -454.8769964980      2.23e-04   Normal BFGS step
    8    -454.8769966601      1.24e-04   Normal BFGS step
    9    -454.8769966904      6.25e-05   Normal BFGS step
   10    -454.8769967016      1.86e-05   Normal BFGS step
   11    -454.8769967045      1.79e-05   Normal BFGS step
   12    -454.8769967054      1.37e-05   Normal BFGS step
   13    -454.8769967064      1.05e-05   Normal BFGS step
   14    -454.8769967069      9.71e-06   Normal BFGS step
   15    -454.8769967073      5.71e-06   Normal BFGS step
   16    -454.8769967074      2.43e-06   Normal BFGS step
   17    -454.8769967074      1.14e-06   Normal BFGS step
   18    -454.8769967074      5.34e-07   Normal BFGS step
   19    -454.8769967075      3.32e-07   Normal BFGS step
   20    -454.8769967075      1.66e-07   Normal BFGS step
   21    -454.8769967075      5.22e-08  Convergence criterion met
 ---------------------------------------
 SCF time:   CPU 754.39s  wall 95.00s 
<S^2> =          0.756797690
(3)  G-ENP(liq) elect-nuc-pol free energy of system     -454.876996707 a.u.
(4)  G-CDS(liq) cavity-dispersion-solvent structure 
     free energy                                                4.1271 kcal/mol
(6)  G-S(liq) free energy of system                     -454.870419692 a.u.
 SCF   energy in the final basis set =     -454.8704196915
 Total energy in the final basis set =     -454.8704196915
 
 --------------------------------------------------------------
 
                    Orbital Energies (a.u.)
 --------------------------------------------------------------
 
 Alpha MOs
 -- Occupied --
-19.3680 -19.3543 -19.3482 -19.3011 -19.2973 -10.4562 -10.4514  -1.2185
 -1.1754  -1.1461  -1.1195  -1.0935  -0.8195  -0.6923  -0.6521  -0.6239
 -0.5956  -0.5703  -0.5420  -0.5257  -0.5208  -0.4993  -0.4894  -0.4434
 -0.4229  -0.3960  -0.3830  -0.3728  -0.3582
 -- Virtual --
  0.0325   0.0556   0.0574   0.0699   0.0895   0.1033   0.1094   0.1106
  0.1271   0.1295   0.1492   0.1619   0.1767   0.2331   0.2351   0.2373
  0.2411   0.2476   0.2640   0.2681   0.2785   0.2950   0.3116   0.3150
  0.3197   0.3293   0.3336   0.3368   0.3472   0.3501   0.3555   0.3680
  0.3702   0.3886   0.3929   0.4099   0.4165   0.4236   0.4409   0.4741
  0.5542   0.5736   0.5790   0.6014   0.6121   0.6265   0.6557   0.6875
  0.6904   0.7039   0.7263   0.7690   0.7869   0.8230   0.8391   0.8577
  0.8871   0.8910   0.9646   0.9748   1.0077   1.0427   1.0587   1.0786
  1.1082   1.1134   1.1209   1.1281   1.1439   1.1532   1.1676   1.1767
  1.1906   1.2096   1.2149   1.2469   1.2561   1.2792   1.2857   1.3202
  1.3674   1.3895   1.3968   1.4283   1.4619   1.4793   1.5124   1.5245
  1.5692   1.5906   1.6035   1.6442   1.6562   1.7104   1.7183   1.7495
  1.8012   1.8168   1.8389   1.8685   1.8992   1.9248   1.9469   2.0160
  2.0366   2.1029   2.1300   2.1487   2.2137   2.2651   2.2945   2.3478
  2.3657   2.3985   2.4433   2.4657   2.5009   2.5196   2.5810   2.6095
  2.7692   2.7916   2.8102   2.8519   2.8628   2.9326   2.9575   3.0061
  3.1300   3.1823   3.2153   3.2613   3.3410   3.3579   3.3908   3.4047
  3.4416   3.4939   3.5382   3.5788   3.6202   3.6286   3.6476   3.7172
  3.7376   3.7575   3.7855   3.8123   3.8477   3.8629   3.9244   3.9381
  3.9744   4.0223   4.0879   4.1364   4.1814   4.2130   4.2517   4.2719
  4.2959   4.3204   4.3588   4.4047   4.4651   4.7571   5.0752   5.0920
  5.1107   5.1622   5.1718   5.1797   5.1822   5.1990   5.2093   5.2176
  5.2264   5.2383   5.2413   5.2606   5.2847   5.2927   5.3015   5.3150
  5.3348   5.3639   5.3710   5.3889   5.4075   5.4328   5.4738   5.5286
  5.5515   5.5676   5.6022   5.6201   5.6268   5.6341   5.6705   5.6820
  5.7347   5.8090   5.8612   5.9970   6.0251   6.0691   6.2059   6.3221
  6.4703   6.4840   6.7404   6.8705   6.9111   6.9349   6.9791   7.0037
  7.0261   7.0548   7.0794   7.1018   7.1294   7.1486   7.1782   7.2505
  7.2610   7.2992   7.3348   7.3398   7.3495   7.3784   7.4425   7.4832
  7.5111   7.5530   7.6163   7.6508   7.7125   7.7648   7.8160   7.8239
  7.8617   7.9253  24.7607  25.2010  50.4706  50.5763  50.6173  50.7091
 50.7275
 
 Beta MOs
 -- Occupied --
-19.3533 -19.3478 -19.3471 -19.3009 -19.2973 -10.4520 -10.4514  -1.2158
 -1.1746  -1.1435  -1.0947  -1.0666  -0.8118  -0.6858  -0.6469  -0.6111
 -0.5896  -0.5513  -0.5395  -0.5213  -0.5173  -0.4912  -0.4264  -0.4158
 -0.4118  -0.3819  -0.3740  -0.3667
 -- Virtual --
 -0.0674   0.0335   0.0558   0.0583   0.0707   0.0903   0.1039   0.1098
  0.1120   0.1279   0.1300   0.1501   0.1630   0.1780   0.2350   0.2371
  0.2408   0.2421   0.2493   0.2659   0.2732   0.2793   0.2959   0.3122
  0.3159   0.3220   0.3299   0.3340   0.3377   0.3488   0.3522   0.3572
  0.3711   0.3733   0.3894   0.4000   0.4161   0.4204   0.4257   0.4434
  0.4758   0.5550   0.5776   0.5863   0.6039   0.6138   0.6295   0.6604
  0.6903   0.6923   0.7071   0.7269   0.7699   0.7879   0.8237   0.8416
  0.8590   0.8881   0.8919   0.9655   0.9784   1.0122   1.0442   1.0606
  1.0847   1.1109   1.1149   1.1229   1.1297   1.1469   1.1547   1.1721
  1.1887   1.2104   1.2119   1.2242   1.2508   1.2588   1.2820   1.2873
  1.3210   1.3737   1.3925   1.3987   1.4340   1.4648   1.4839   1.5154
  1.5264   1.5839   1.5954   1.6169   1.6491   1.6628   1.7170   1.7220
  1.7528   1.8113   1.8255   1.8481   1.8716   1.9072   1.9282   1.9516
  2.0180   2.0414   2.1048   2.1340   2.1638   2.2225   2.2674   2.3002
  2.3543   2.3714   2.4019   2.4512   2.4671   2.5031   2.5202   2.5819
  2.6124   2.7751   2.7997   2.8150   2.8493   2.8658   2.9344   2.9662
  3.0068   3.1340   3.1842   3.2168   3.2638   3.3470   3.3611   3.3945
  3.4073   3.4436   3.4977   3.5427   3.5858   3.6216   3.6321   3.6525
  3.7230   3.7415   3.7649   3.7896   3.8166   3.8516   3.8659   3.9326
  3.9427   3.9797   4.0307   4.0913   4.1390   4.1810   4.2157   4.2564
  4.2729   4.2976   4.3256   4.3597   4.3949   4.4532   4.7603   5.0886
  5.1385   5.1482   5.1712   5.1809   5.1900   5.2019   5.2144   5.2270
  5.2349   5.2414   5.2478   5.2628   5.2727   5.2963   5.3024   5.3080
  5.3397   5.3578   5.3777   5.3933   5.3973   5.4230   5.4355   5.4764
  5.5302   5.5531   5.5693   5.6039   5.6225   5.6405   5.6451   5.6801
  5.7160   5.7358   5.8120   5.8622   6.0000   6.0268   6.0708   6.2078
  6.3229   6.4719   6.4880   6.7438   6.8881   6.9409   6.9854   6.9930
  7.0252   7.0515   7.0601   7.0859   7.1278   7.1415   7.1711   7.2299
  7.2549   7.2648   7.3099   7.3379   7.3509   7.3676   7.3955   7.4551
  7.4870   7.5156   7.6041   7.6211   7.6603   7.7167   7.7667   7.8199
  7.8268   7.8624   7.9280  24.7640  25.2012  50.4846  50.5772  50.6183
 50.7093  50.7276
 --------------------------------------------------------------
 
          Ground-State Mulliken Net Atomic Charges

     Atom                 Charge (a.u.)    Spin (a.u.)
  --------------------------------------------------------
      1 O                    -0.383083       0.031186
      2 C                    -0.166459       0.193070
      3 O                    -0.417490       0.031528
      4 C                     0.446834      -0.006075
      5 O                    -0.629845       0.004145
      6 O                    -0.639900       0.007119
      7 H                     0.349720      -0.000502
      8 H                     0.313645       0.004841
      9 H                     0.277687      -0.015108
     10 O                    -0.462924       0.760662
     11 H                     0.311817      -0.010866
  --------------------------------------------------------
  Sum of atomic charges =    -1.000000
  Sum of spin   charges =     1.000000

 -----------------------------------------------------------------
                    Cartesian Multipole Moments
 -----------------------------------------------------------------
    Charge (ESU x 10^10)
                -4.8032
    Dipole Moment (Debye)
         X      -7.4622      Y       0.4568      Z      -0.0965
       Tot       7.4768
    Quadrupole Moments (Debye-Ang)
        XX     -56.9109     XY      -2.7588     YY     -50.8898
        XZ       1.1080     YZ      -4.0492     ZZ     -54.6339
    Octopole Moments (Debye-Ang^2)
       XXX    -103.9598    XXY      -6.8980    XYY     -47.1168
       YYY     -40.2402    XXZ     -15.1057    XYZ      -9.5535
       YYZ     -22.5158    XZZ     -36.9377    YZZ     -28.3344
       ZZZ     -86.1034
    Hexadecapole Moments (Debye-Ang^3)
      XXXX    -498.2725   XXXY     -40.2717   XXYY    -129.4389
      XYYY     -44.4087   YYYY    -388.2926   XXXZ      -4.3228
      XXYZ     -23.3917   XYYZ     -22.6942   YYYZ    -100.7306
      XXZZ    -146.8333   XYZZ     -34.1901   YYZZ    -143.4059
      XZZZ     -59.5864   YZZZ    -114.1587   ZZZZ    -375.6749
 -----------------------------------------------------------------
 Calculating analytic gradient of the SCF energy
 Gradient of CDS energy
            1           2           3           4           5           6
    1   0.0017576  -0.0059108   0.0038146   0.0019443  -0.0014726   0.0002389
    2  -0.0031023  -0.0007310   0.0039178  -0.0013671  -0.0010215   0.0018935
    3   0.0027379  -0.0004379  -0.0017523  -0.0013039   0.0002979   0.0003282
            7           8           9          10          11
    1  -0.0003256  -0.0002438   0.0001498  -0.0002773   0.0003249
    2   0.0003881  -0.0003230   0.0001155   0.0000046   0.0002253
    3  -0.0000789   0.0000782  -0.0000894   0.0001681   0.0000520
 Gradient of SCF Energy
            1           2           3           4           5           6
    1  -0.0095134   0.0208918  -0.0008409   0.0249695  -0.0231987   0.0016940
    2   0.0099825   0.0234175  -0.0242453  -0.0241772  -0.0106118   0.0242296
    3  -0.0044725   0.0368525  -0.0067536  -0.0071176  -0.0028648   0.0042725
            7           8           9          10          11
    1   0.0102642  -0.0075423  -0.0179617   0.0164044  -0.0151670
    2  -0.0087137   0.0266296  -0.0183636  -0.0041671   0.0060196
    3  -0.0030568   0.0094438  -0.0303970  -0.0196665   0.0237601
 Max gradient component =       3.685E-02
 RMS gradient           =       1.727E-02
 Computing fast CPCM-SWIG gradient
 Updating gradient with PCM contributions...
 -- total gradient after adding PCM contribution --
---------------------------------------------------
  Atom         X              Y              Z     
---------------------------------------------------
   1      -0.000708       0.000479       0.000248
   2       0.000236      -0.000140       0.000072
   3      -0.000030       0.000082      -0.000005
   4       0.000149       0.000016       0.000030
   5      -0.000107      -0.000106       0.000028
   6      -0.000018      -0.000014       0.000038
   7       0.000498      -0.000299      -0.000403
   8      -0.000013       0.000004       0.000025
   9       0.000046      -0.000017       0.000033
  10      -0.000036      -0.000016      -0.000062
  11      -0.000016       0.000013      -0.000003
---------------------------------------------------
 Number of fixed atoms: 0
 Gradient time:  CPU 89.78 s  wall 13.60 s
 ----------------------------------------------------------------
             Standard Nuclear Orientation (Angstroms)
    I     Atom           X                Y                Z
 ----------------------------------------------------------------
    1      O      -0.5898693698     1.4374167686    -0.2011324283
    2      C      -0.0505459724     0.4558973035     0.6364534286
    3      O      -0.9992020981    -0.4709441896     1.0550590018
    4      C       1.1382211719    -0.2198854210    -0.0797845773
    5      O       2.1150602176     0.5155082449    -0.3422678855
    6      O       1.0091565412    -1.4439638257    -0.3063138284
    7      H      -1.2923185257     1.8935755434     0.2782478755
    8      H      -0.6832252495    -1.3229325128     0.7021992984
    9      H       0.3900654810     0.9778650496     1.5657085859
   10      O       1.5169367837     1.7843143470     2.2297602170
   11      H       2.0821964203     1.6320557921     1.4474164122
 ----------------------------------------------------------------
 Nuclear Repulsion Energy =         316.72302524 hartrees
 There are       29 alpha and       28 beta electrons
 Discretize the solute cavity surface with Lebedev spheres
	Using 110 Lebedev grid points for each H atom
	Using 194 Lebedev grid points for other atoms
	Atomic van der Waals radii will be scaled by 1.20
 Remove points where switching function is < 1.0e-08
 Keep 976 surface tesserae and discard 822 interior tesserae
 Molecular Surface Area = 115.141 Angst**2

                       Distance Matrix (Angstroms)
             O (  1)   C (  2)   O (  3)   C (  4)   O (  5)   O (  6)
   C (  2)  1.398499
   O (  3)  2.321080  1.390760
   C (  4)  2.397430  1.543647  2.432998
   O (  5)  2.861202  2.377246  3.553061  1.250566
   O (  6)  3.297014  2.370918  2.614117  1.251536  2.250299
   H (  7)  0.965050  1.933191  2.506054  3.240745  3.727511  4.096055
   H (  8)  2.905899  1.889138  0.974800  2.268453  3.507303  1.973804
   H (  9)  2.072001  1.153301  2.071201  2.168407  2.613380  3.122979
   O ( 10)  3.235461  2.600062  3.577299  3.081272  2.929667  4.136580
   H ( 11)  3.145717  2.567022  3.751209  2.579364  2.109675  3.699849
             H (  7)   H (  8)   H (  9)   O ( 10)
   H (  8)  3.301008
   H (  9)  2.307920  2.681654
   O ( 10)  3.422317  4.102333  1.536608
   H ( 11)  3.580880  4.115199  1.818039  0.977120
 
 Requested basis set is 6-311++G(2df,2p)
 There are 80 shells and 278 basis functions
 A cutoff of  1.0D-12 yielded   3007 shell pairs
 There are     36514 function pairs (     46190 Cartesian)
 Smallest overlap matrix eigenvalue = 7.64E-05
 Guess MOs from SCF MO coefficient file

 -----------------------------------------------------------------------
  General SCF calculation program by
  Eric Jon Sundstrom, Paul Horn, Yuezhi Mao, Dmitri Zuev, Alec White,
  David Stuck, Shaama M.S., Shane Yost, Joonho Lee, David Small,
  Daniel Levine, Susi Lehtola, Hugh Burton, Evgeny Epifanovsky,
  Bang C. Huynh
 -----------------------------------------------------------------------
 Exchange:     0.1500 Hartree-Fock + 1.0000 wB97M-V + LR-HF
 Correlation:  1.0000 wB97M-V
 Using SG-2 standard quadrature grid
 Nonlocal Correlation:  VV10 with C = 0.0100 and b = 6.00 and scale = 1.00000
 Grid used for NLC:  SG-1 standard quadrature
 
 Citation of the SMD model:
 Marenich, A.V.; Cramer, C.J.; Truhlar, D.G.
 J. Phys. Chem. B 2009, 113, 6378-6396.
 iSolventCode=           1
 Solvent: water                                                           
 
 vradii
            1           2           3           4           5           6
    1   1.5200000   1.8500000   1.5200000   1.8500000   1.5200000   1.5200000
            7           8           9          10          11
    1   1.2000000   1.2000000   1.2000000   1.5200000   1.2000000
 -------------------------------------------------------
 OpenMP BLAS3 based DFT computing Module                
 Release: version 1.0, May 2013, Q-Chem Inc. Pittsburgh 
 -------------------------------------------------------
 A unrestricted SCF calculation will be
 performed using Roothaan-Hall, DIIS, GDM
 SCF converges when RMS gradient is below 1.0e-07
 ---------------------------------------
  Cycle       Energy         DIIS error
 ---------------------------------------
    1    -454.7600469465      2.91e-04  Roothaan Step
 ---------------------------------------
  Cycle       Energy         DIIS error
 ---------------------------------------
    1    -454.8706224261      3.22e-04  
    2    -454.8750522872      2.72e-04  Done DIIS. Switching to GDM
 ---------------------------------------
  Cycle       Energy        RMS Gradient
 ---------------------------------------
    1    -454.8750522872      8.42e-03   Normal BFGS step
    2    -454.8748799964      1.44e-02  Line search: overstep
    3    -454.8768403776      2.61e-03   Normal BFGS step
    4    -454.8769738874      1.04e-03   Normal BFGS step
    5    -454.8769912558      6.05e-04   Normal BFGS step
    6    -454.8769933682      3.30e-04   Normal BFGS step
    7    -454.8769940189      2.18e-04   Normal BFGS step
    8    -454.8769941811      1.20e-04   Normal BFGS step
    9    -454.8769942122      5.98e-05   Normal BFGS step
   10    -454.8769942247      2.59e-05   Normal BFGS step
   11    -454.8769942285      2.34e-05   Normal BFGS step
   12    -454.8769942305      1.98e-05   Normal BFGS step
   13    -454.8769942327      1.25e-05   Normal BFGS step
   14    -454.8769942337      1.01e-05   Normal BFGS step
   15    -454.8769942343      5.29e-06   Normal BFGS step
   16    -454.8769942345      2.36e-06   Normal BFGS step
   17    -454.8769942345      1.04e-06   Normal BFGS step
   18    -454.8769942345      3.16e-07   Normal BFGS step
   19    -454.8769942345      2.31e-07   Normal BFGS step
   20    -454.8769942345      1.28e-07   Normal BFGS step
   21    -454.8769942345      5.24e-08  Convergence criterion met
 ---------------------------------------
 SCF time:   CPU 757.81s  wall 96.00s 
<S^2> =          0.756799626
(3)  G-ENP(liq) elect-nuc-pol free energy of system     -454.876994235 a.u.
(4)  G-CDS(liq) cavity-dispersion-solvent structure 
     free energy                                                4.1256 kcal/mol
(6)  G-S(liq) free energy of system                     -454.870419749 a.u.
 SCF   energy in the final basis set =     -454.8704197492
 Total energy in the final basis set =     -454.8704197492
 
 --------------------------------------------------------------
 
                    Orbital Energies (a.u.)
 --------------------------------------------------------------
 
 Alpha MOs
 -- Occupied --
-19.3680 -19.3543 -19.3483 -19.3011 -19.2973 -10.4563 -10.4514  -1.2185
 -1.1754  -1.1462  -1.1195  -1.0935  -0.8194  -0.6924  -0.6519  -0.6239
 -0.5956  -0.5703  -0.5420  -0.5258  -0.5208  -0.4992  -0.4894  -0.4434
 -0.4230  -0.3960  -0.3830  -0.3728  -0.3582
 -- Virtual --
  0.0325   0.0556   0.0574   0.0699   0.0895   0.1033   0.1094   0.1106
  0.1271   0.1295   0.1492   0.1619   0.1767   0.2331   0.2351   0.2373
  0.2411   0.2477   0.2640   0.2681   0.2786   0.2950   0.3116   0.3150
  0.3197   0.3293   0.3336   0.3368   0.3472   0.3501   0.3555   0.3680
  0.3702   0.3886   0.3929   0.4097   0.4165   0.4237   0.4409   0.4741
  0.5542   0.5735   0.5790   0.6015   0.6121   0.6264   0.6557   0.6875
  0.6904   0.7039   0.7263   0.7689   0.7869   0.8229   0.8390   0.8577
  0.8871   0.8909   0.9646   0.9748   1.0077   1.0426   1.0587   1.0786
  1.1082   1.1134   1.1209   1.1281   1.1440   1.1532   1.1677   1.1768
  1.1906   1.2096   1.2149   1.2469   1.2560   1.2792   1.2857   1.3201
  1.3674   1.3895   1.3967   1.4283   1.4619   1.4793   1.5125   1.5244
  1.5692   1.5905   1.6035   1.6442   1.6562   1.7105   1.7184   1.7493
  1.8012   1.8169   1.8389   1.8684   1.8992   1.9245   1.9469   2.0157
  2.0367   2.1028   2.1299   2.1487   2.2138   2.2651   2.2945   2.3478
  2.3657   2.3987   2.4433   2.4656   2.5009   2.5196   2.5810   2.6095
  2.7690   2.7916   2.8102   2.8519   2.8629   2.9326   2.9574   3.0057
  3.1299   3.1822   3.2152   3.2614   3.3408   3.3577   3.3908   3.4047
  3.4416   3.4938   3.5381   3.5786   3.6203   3.6286   3.6476   3.7173
  3.7376   3.7575   3.7855   3.8122   3.8475   3.8627   3.9242   3.9381
  3.9744   4.0222   4.0879   4.1364   4.1812   4.2129   4.2516   4.2717
  4.2959   4.3202   4.3584   4.4046   4.4650   4.7571   5.0752   5.0920
  5.1107   5.1622   5.1719   5.1797   5.1822   5.1990   5.2093   5.2176
  5.2264   5.2383   5.2412   5.2605   5.2847   5.2927   5.3015   5.3150
  5.3347   5.3638   5.3710   5.3888   5.4074   5.4328   5.4735   5.5286
  5.5515   5.5673   5.6021   5.6201   5.6268   5.6340   5.6705   5.6818
  5.7346   5.8088   5.8602   5.9961   6.0249   6.0692   6.2061   6.3221
  6.4702   6.4838   6.7397   6.8706   6.9111   6.9349   6.9791   7.0037
  7.0261   7.0547   7.0794   7.1018   7.1292   7.1486   7.1782   7.2505
  7.2603   7.2992   7.3346   7.3395   7.3495   7.3783   7.4424   7.4830
  7.5109   7.5530   7.6162   7.6507   7.7123   7.7647   7.8158   7.8238
  7.8616   7.9252  24.7601  25.2011  50.4706  50.5760  50.6172  50.7091
 50.7275
 
 Beta MOs
 -- Occupied --
-19.3533 -19.3477 -19.3471 -19.3009 -19.2973 -10.4521 -10.4514  -1.2157
 -1.1745  -1.1435  -1.0947  -1.0665  -0.8118  -0.6858  -0.6467  -0.6111
 -0.5896  -0.5513  -0.5395  -0.5213  -0.5173  -0.4913  -0.4264  -0.4158
 -0.4118  -0.3819  -0.3740  -0.3667
 -- Virtual --
 -0.0674   0.0335   0.0558   0.0583   0.0707   0.0903   0.1039   0.1098
  0.1120   0.1279   0.1300   0.1501   0.1630   0.1780   0.2350   0.2370
  0.2408   0.2421   0.2493   0.2658   0.2732   0.2794   0.2959   0.3122
  0.3160   0.3220   0.3299   0.3340   0.3377   0.3487   0.3522   0.3572
  0.3711   0.3733   0.3894   0.3999   0.4160   0.4204   0.4257   0.4434
  0.4758   0.5550   0.5776   0.5862   0.6039   0.6138   0.6294   0.6603
  0.6903   0.6923   0.7071   0.7268   0.7698   0.7880   0.8236   0.8415
  0.8590   0.8881   0.8919   0.9655   0.9784   1.0122   1.0441   1.0606
  1.0848   1.1110   1.1150   1.1229   1.1297   1.1470   1.1547   1.1722
  1.1887   1.2104   1.2119   1.2243   1.2508   1.2588   1.2820   1.2873
  1.3210   1.3737   1.3924   1.3986   1.4340   1.4649   1.4839   1.5155
  1.5262   1.5839   1.5953   1.6169   1.6490   1.6629   1.7170   1.7220
  1.7525   1.8113   1.8255   1.8481   1.8716   1.9072   1.9279   1.9516
  2.0177   2.0415   2.1048   2.1339   2.1638   2.2225   2.2674   2.3002
  2.3543   2.3714   2.4021   2.4513   2.4671   2.5031   2.5201   2.5819
  2.6124   2.7749   2.7997   2.8150   2.8493   2.8658   2.9344   2.9661
  3.0065   3.1339   3.1840   3.2168   3.2638   3.3468   3.3609   3.3946
  3.4073   3.4437   3.4977   3.5426   3.5857   3.6216   3.6321   3.6526
  3.7230   3.7415   3.7649   3.7896   3.8166   3.8515   3.8656   3.9324
  3.9427   3.9797   4.0307   4.0912   4.1389   4.1808   4.2156   4.2564
  4.2727   4.2976   4.3254   4.3594   4.3947   4.4532   4.7603   5.0885
  5.1385   5.1482   5.1712   5.1809   5.1901   5.2019   5.2143   5.2270
  5.2350   5.2414   5.2477   5.2628   5.2727   5.2964   5.3024   5.3080
  5.3396   5.3579   5.3777   5.3932   5.3973   5.4230   5.4355   5.4762
  5.5302   5.5531   5.5691   5.6038   5.6225   5.6404   5.6451   5.6799
  5.7161   5.7357   5.8117   5.8611   5.9991   6.0266   6.0708   6.2080
  6.3229   6.4718   6.4877   6.7431   6.8881   6.9409   6.9854   6.9930
  7.0253   7.0515   7.0600   7.0858   7.1276   7.1415   7.1711   7.2298
  7.2549   7.2641   7.3099   7.3376   7.3509   7.3674   7.3955   7.4551
  7.4868   7.5154   7.6040   7.6211   7.6601   7.7165   7.7665   7.8198
  7.8267   7.8624   7.9280  24.7635  25.2012  50.4846  50.5769  50.6182
 50.7092  50.7276
 --------------------------------------------------------------
 
          Ground-State Mulliken Net Atomic Charges

     Atom                 Charge (a.u.)    Spin (a.u.)
  --------------------------------------------------------
      1 O                    -0.383223       0.031237
      2 C                    -0.166545       0.193119
      3 O                    -0.417335       0.031544
      4 C                     0.446955      -0.006086
      5 O                    -0.629874       0.004145
      6 O                    -0.639924       0.007120
      7 H                     0.349773      -0.000511
      8 H                     0.313672       0.004842
      9 H                     0.277706      -0.015100
     10 O                    -0.463023       0.760556
     11 H                     0.311817      -0.010865
  --------------------------------------------------------
  Sum of atomic charges =    -1.000000
  Sum of spin   charges =     1.000000

 -----------------------------------------------------------------
                    Cartesian Multipole Moments
 -----------------------------------------------------------------
    Charge (ESU x 10^10)
                -4.8032
    Dipole Moment (Debye)
         X      -7.4664      Y       0.4523      Z      -0.0972
       Tot       7.4807
    Quadrupole Moments (Debye-Ang)
        XX     -56.9088     XY      -2.7611     YY     -50.9001
        XZ       1.1055     YZ      -4.0528     ZZ     -54.6359
    Octopole Moments (Debye-Ang^2)
       XXX    -103.9865    XXY      -6.9055    XYY     -47.1256
       YYY     -40.2863    XXZ     -15.1095    XYZ      -9.5555
       YYZ     -22.5190    XZZ     -36.9508    YZZ     -28.3482
       ZZZ     -86.1087
    Hexadecapole Moments (Debye-Ang^3)
      XXXX    -498.2369   XXXY     -40.2931   XXYY    -129.4538
      XYYY     -44.4208   YYYY    -388.4521   XXXZ      -4.3312
      XXYZ     -23.3996   XYYZ     -22.7000   YYYZ    -100.7400
      XXZZ    -146.8365   XYZZ     -34.2019   YYZZ    -143.4323
      XZZZ     -59.6025   YZZZ    -114.1740   ZZZZ    -375.6938
 -----------------------------------------------------------------
 Calculating analytic gradient of the SCF energy
 Gradient of CDS energy
            1           2           3           4           5           6
    1   0.0017368  -0.0058898   0.0038151   0.0019441  -0.0014726   0.0002389
    2  -0.0030703  -0.0007638   0.0039182  -0.0013673  -0.0010211   0.0018935
    3   0.0027091  -0.0004083  -0.0017522  -0.0013039   0.0002979   0.0003282
            7           8           9          10          11
    1  -0.0003258  -0.0002438   0.0001498  -0.0002774   0.0003247
    2   0.0003882  -0.0003230   0.0001156   0.0000047   0.0002254
    3  -0.0000792   0.0000782  -0.0000894   0.0001679   0.0000517
 Gradient of SCF Energy
            1           2           3           4           5           6
    1  -0.0093086   0.0208336  -0.0008178   0.0249656  -0.0232006   0.0017019
    2   0.0100954   0.0232808  -0.0243337  -0.0241880  -0.0105975   0.0242333
    3  -0.0047478   0.0369449  -0.0066859  -0.0071390  -0.0028617   0.0042749
            7           8           9          10          11
    1   0.0101037  -0.0075463  -0.0179774   0.0164131  -0.0151671
    2  -0.0086081   0.0266207  -0.0183633  -0.0041593   0.0060198
    3  -0.0029200   0.0094512  -0.0304072  -0.0196752   0.0237659
 Max gradient component =       3.694E-02
 RMS gradient           =       1.727E-02
 Computing fast CPCM-SWIG gradient
 Updating gradient with PCM contributions...
 -- total gradient after adding PCM contribution --
---------------------------------------------------
  Atom         X              Y              Z     
---------------------------------------------------
   1      -0.000468       0.000637      -0.000062
   2       0.000150      -0.000277       0.000164
   3      -0.000008      -0.000050       0.000083
   4       0.000148       0.000020       0.000017
   5      -0.000106      -0.000101       0.000029
   6      -0.000015      -0.000010       0.000038
   7       0.000332      -0.000222      -0.000250
   8      -0.000019       0.000002       0.000041
   9       0.000028      -0.000002       0.000003
  10      -0.000030      -0.000009      -0.000058
  11      -0.000014       0.000013      -0.000005
---------------------------------------------------
 Number of fixed atoms: 0
 Gradient time:  CPU 91.25 s  wall 13.48 s
 ----------------------------------------------------------------
             Standard Nuclear Orientation (Angstroms)
    I     Atom           X                Y                Z
 ----------------------------------------------------------------
    1      O      -0.5898693698     1.4354167686    -0.2011324283
    2      C      -0.0505459724     0.4558973035     0.6364534286
    3      O      -0.9992020981    -0.4709441896     1.0550590018
    4      C       1.1382211719    -0.2198854210    -0.0797845773
    5      O       2.1150602176     0.5155082449    -0.3422678855
    6      O       1.0091565412    -1.4439638257    -0.3063138284
    7      H      -1.2923185257     1.8935755434     0.2782478755
    8      H      -0.6832252495    -1.3229325128     0.7021992984
    9      H       0.3900654810     0.9778650496     1.5657085859
   10      O       1.5169367837     1.7843143470     2.2297602170
   11      H       2.0821964203     1.6320557921     1.4474164122
 ----------------------------------------------------------------
 Nuclear Repulsion Energy =         316.76217076 hartrees
 There are       29 alpha and       28 beta electrons
 Discretize the solute cavity surface with Lebedev spheres
	Using 110 Lebedev grid points for each H atom
	Using 194 Lebedev grid points for other atoms
	Atomic van der Waals radii will be scaled by 1.20
 Remove points where switching function is < 1.0e-08
 Keep 976 surface tesserae and discard 822 interior tesserae
 Molecular Surface Area = 115.132 Angst**2

                       Distance Matrix (Angstroms)
             O (  1)   C (  2)   O (  3)   C (  4)   O (  5)   O (  6)
   C (  2)  1.397096
   O (  3)  2.319436  1.390760
   C (  4)  2.396048  1.543647  2.432998
   O (  5)  2.860559  2.377246  3.553061  1.250566
   O (  6)  3.295266  2.370918  2.614117  1.251536  2.250299
   H (  7)  0.965997  1.933191  2.506054  3.240745  3.727511  4.096055
   H (  8)  2.904000  1.889138  0.974800  2.268453  3.507303  1.973804
   H (  9)  2.071558  1.153301  2.071201  2.168407  2.613380  3.122979
   O ( 10)  3.235676  2.600062  3.577299  3.081272  2.929667  4.136580
   H ( 11)  3.145841  2.567022  3.751209  2.579364  2.109675  3.699849
             H (  7)   H (  8)   H (  9)   O ( 10)
   H (  8)  3.301008
   H (  9)  2.307920  2.681654
   O ( 10)  3.422317  4.102333  1.536608
   H ( 11)  3.580880  4.115199  1.818039  0.977120
 
 Requested basis set is 6-311++G(2df,2p)
 There are 80 shells and 278 basis functions
 A cutoff of  1.0D-12 yielded   3007 shell pairs
 There are     36514 function pairs (     46190 Cartesian)
 Smallest overlap matrix eigenvalue = 7.64E-05
 Guess MOs from SCF MO coefficient file

 -----------------------------------------------------------------------
  General SCF calculation program by
  Eric Jon Sundstrom, Paul Horn, Yuezhi Mao, Dmitri Zuev, Alec White,
  David Stuck, Shaama M.S., Shane Yost, Joonho Lee, David Small,
  Daniel Levine, Susi Lehtola, Hugh Burton, Evgeny Epifanovsky,
  Bang C. Huynh
 -----------------------------------------------------------------------
 Exchange:     0.1500 Hartree-Fock + 1.0000 wB97M-V + LR-HF
 Correlation:  1.0000 wB97M-V
 Using SG-2 standard quadrature grid
 Nonlocal Correlation:  VV10 with C = 0.0100 and b = 6.00 and scale = 1.00000
 Grid used for NLC:  SG-1 standard quadrature
 
 Citation of the SMD model:
 Marenich, A.V.; Cramer, C.J.; Truhlar, D.G.
 J. Phys. Chem. B 2009, 113, 6378-6396.
 iSolventCode=           1
 Solvent: water                                                           
 
 vradii
            1           2           3           4           5           6
    1   1.5200000   1.8500000   1.5200000   1.8500000   1.5200000   1.5200000
            7           8           9          10          11
    1   1.2000000   1.2000000   1.2000000   1.5200000   1.2000000
 -------------------------------------------------------
 OpenMP BLAS3 based DFT computing Module                
 Release: version 1.0, May 2013, Q-Chem Inc. Pittsburgh 
 -------------------------------------------------------
 A unrestricted SCF calculation will be
 performed using Roothaan-Hall, DIIS, GDM
 SCF converges when RMS gradient is below 1.0e-07
 ---------------------------------------
  Cycle       Energy         DIIS error
 ---------------------------------------
    1    -454.7600367884      2.91e-04  Roothaan Step
 ---------------------------------------
  Cycle       Energy         DIIS error
 ---------------------------------------
    1    -454.8706309473      3.22e-04  
    2    -454.8750616512      2.72e-04  Done DIIS. Switching to GDM
 ---------------------------------------
  Cycle       Energy        RMS Gradient
 ---------------------------------------
    1    -454.8750616512      8.39e-03   Normal BFGS step
    2    -454.8748899143      1.43e-02  Line search: overstep
    3    -454.8768520749      2.61e-03   Normal BFGS step
    4    -454.8769856887      1.02e-03   Normal BFGS step
    5    -454.8770030628      6.03e-04   Normal BFGS step
    6    -454.8770051799      3.29e-04   Normal BFGS step
    7    -454.8770058250      2.14e-04   Normal BFGS step
    8    -454.8770059858      1.18e-04   Normal BFGS step
    9    -454.8770060156      5.89e-05   Normal BFGS step
   10    -454.8770060273      2.20e-05   Normal BFGS step
   11    -454.8770060305      2.07e-05   Normal BFGS step
   12    -454.8770060319      1.74e-05   Normal BFGS step
   13    -454.8770060335      1.16e-05   Normal BFGS step
   14    -454.8770060343      9.70e-06   Normal BFGS step
   15    -454.8770060348      5.38e-06   Normal BFGS step
   16    -454.8770060350      2.10e-06   Normal BFGS step
   17    -454.8770060350      1.00e-06   Normal BFGS step
   18    -454.8770060350      3.04e-07   Normal BFGS step
   19    -454.8770060350      2.12e-07   Normal BFGS step
   20    -454.8770060350      1.24e-07   Normal BFGS step
   21    -454.8770060350      4.36e-08  Convergence criterion met
 ---------------------------------------
 SCF time:   CPU 747.74s  wall 94.00s 
<S^2> =          0.756801400
(3)  G-ENP(liq) elect-nuc-pol free energy of system     -454.877006035 a.u.
(4)  G-CDS(liq) cavity-dispersion-solvent structure 
     free energy                                                4.1330 kcal/mol
(6)  G-S(liq) free energy of system                     -454.870419678 a.u.
 SCF   energy in the final basis set =     -454.8704196781
 Total energy in the final basis set =     -454.8704196781
 
 --------------------------------------------------------------
 
                    Orbital Energies (a.u.)
 --------------------------------------------------------------
 
 Alpha MOs
 -- Occupied --
-19.3680 -19.3544 -19.3482 -19.3011 -19.2973 -10.4562 -10.4513  -1.2186
 -1.1754  -1.1461  -1.1195  -1.0935  -0.8194  -0.6924  -0.6521  -0.6239
 -0.5956  -0.5703  -0.5420  -0.5258  -0.5208  -0.4992  -0.4894  -0.4433
 -0.4229  -0.3960  -0.3830  -0.3728  -0.3581
 -- Virtual --
[...]
    3  -0.0066192   0.0210987  -0.0013483  -0.0039794  -0.0047785  -0.0049554
            7           8           9          10          11
    1   0.0059433  -0.0102010   0.0180427   0.0021543  -0.0233240
    2  -0.0038108   0.0258113   0.0095020  -0.0114187   0.0029029
    3  -0.0016553  -0.0006498   0.0032372  -0.0274373   0.0270872
 Max gradient component =       2.744E-02
 RMS gradient           =       1.227E-02
 Computing fast CPCM-SWIG gradient
 Updating gradient with PCM contributions...
 -- total gradient after adding PCM contribution --
---------------------------------------------------
  Atom         X              Y              Z     
---------------------------------------------------
   1       0.001360      -0.001639      -0.000978
   2      -0.002698       0.002271       0.002261
   3       0.001743       0.000438       0.000734
   4       0.000292       0.000534      -0.000096
   5       0.001360       0.000663       0.000530
   6      -0.000604      -0.002152      -0.001680
   7      -0.000323       0.000739       0.000253
   8       0.000501      -0.000031       0.000728
   9      -0.000377      -0.000892      -0.002175
  10      -0.001515      -0.000371      -0.000315
  11       0.000262       0.000441       0.000738
---------------------------------------------------
 Number of fixed atoms: 0
 Gradient time:  CPU 83.52 s  wall 12.55 s
rPathMan2.  file_steps = 952
 IRC --- Status = 3.  Assess initial corrector step
 IRC --- bisector search: b =  0.000000 E =     -454.924136 G.B =  -0.004770
 IRC --- bisector search: b =  0.011876 E =     -454.924133 G.B =   0.005249
 IRC --- performed gradient/energy interpolation
 IRC --- bisector search:  estimate b(min) =   5.648743078385127E-003
 ----------------------------------------------------------------
             Standard Nuclear Orientation (Angstroms)
    I     Atom           X                Y                Z
 ----------------------------------------------------------------
    1      O      -0.5456118706     1.5573751393    -0.1070111795
    2      C      -0.2050284763     0.2860922634     0.1753298450
    3      O      -1.1791240636    -0.4942783367     0.6911252500
    4      C       1.0813172248    -0.2634928867    -0.1748843591
    5      O       2.0051186392     0.5254449058    -0.5474319176
    6      O       1.1801989849    -1.5306150665    -0.0503613413
    7      H      -1.3615937974     1.7945574615     0.3548221939
    8      H      -0.7633932399    -1.3672800983     0.8037087832
    9      H       0.7652766411     1.2770398945     2.0718610663
   10      O       1.5599178991     1.7817796240     2.2810527432
   11      H       2.0993902287     1.6713003599     1.4871378021
 ----------------------------------------------------------------
 Nuclear Repulsion Energy =         312.39878159 hartrees
 There are       29 alpha and       28 beta electrons
 Discretize the solute cavity surface with Lebedev spheres
	Using 110 Lebedev grid points for each H atom
	Using 194 Lebedev grid points for other atoms
	Atomic van der Waals radii will be scaled by 1.20
 Remove points where switching function is < 1.0e-08
 Keep 1027 surface tesserae and discard 771 interior tesserae
 Molecular Surface Area = 120.565 Angst**2

                       Distance Matrix (Angstroms)
             O (  1)   C (  2)   O (  3)   C (  4)   O (  5)   O (  6)
   C (  2)  1.346059
   O (  3)  2.290773  1.350513
   C (  4)  2.442758  1.442005  2.431631
   O (  5)  2.786589  2.337611  3.565566  1.270678
   O (  6)  3.537982  2.295695  2.681455  1.277060  2.270452
   H (  7)  0.967146  1.909274  2.320596  3.237897  3.709375  4.204956
   H (  8)  3.070903  1.854797  0.973468  2.361980  3.615612  2.129240
   H (  9)  2.558222  2.349532  2.970639  2.742442  2.993793  3.543856
   O ( 10)  3.191624  3.128288  3.900085  3.231691  3.126804  4.068370
   H ( 11)  3.090360  2.991653  4.008993  2.746309  2.336952  3.668934
             H (  7)   H (  8)   H (  9)   O ( 10)
   H (  8)  3.249086
   H (  9)  2.782018  3.307185
   O ( 10)  3.499394  4.182929  0.964354
   H ( 11)  3.643589  4.230316  1.509040  0.966197
 
 Applying Cartesian multipole field
    Component          Value
    ---------          -----
     (2,0,0)        1.00000E-11
     (0,2,0)        2.00000E-11
     (0,0,2)       -3.00000E-11
 Nucleus-field energy     =     0.0000000029 hartrees
 Requested basis set is 6-311++G(2df,2p)
 There are 80 shells and 278 basis functions
 A cutoff of  1.0D-12 yielded   2971 shell pairs
 There are     35969 function pairs (     45432 Cartesian)
 Smallest overlap matrix eigenvalue = 3.93E-05
 Guess MOs from SCF MO coefficient file

 -----------------------------------------------------------------------
  General SCF calculation program by
  Eric Jon Sundstrom, Paul Horn, Yuezhi Mao, Dmitri Zuev, Alec White,
  David Stuck, Shaama M.S., Shane Yost, Joonho Lee, David Small,
  Daniel Levine, Susi Lehtola, Hugh Burton, Evgeny Epifanovsky,
  Bang C. Huynh
 -----------------------------------------------------------------------
 Exchange:     0.1500 Hartree-Fock + 1.0000 wB97M-V + LR-HF
 Correlation:  1.0000 wB97M-V
 Using SG-2 standard quadrature grid
 Nonlocal Correlation:  VV10 with C = 0.0100 and b = 6.00 and scale = 1.00000
 Grid used for NLC:  SG-1 standard quadrature
 
 Citation of the SMD model:
 Marenich, A.V.; Cramer, C.J.; Truhlar, D.G.
 J. Phys. Chem. B 2009, 113, 6378-6396.
 iSolventCode=           1
 Solvent: water                                                           
 
 vradii
            1           2           3           4           5           6
    1   1.5200000   1.8500000   1.5200000   1.8500000   1.5200000   1.5200000
            7           8           9          10          11
    1   1.2000000   1.2000000   1.2000000   1.5200000   1.2000000
 -------------------------------------------------------
 OpenMP BLAS3 based DFT computing Module                
 Release: version 1.0, May 2013, Q-Chem Inc. Pittsburgh 
 -------------------------------------------------------
 A unrestricted SCF calculation will be
 performed using Roothaan-Hall, DIIS, GDM
 SCF converges when RMS gradient is below 1.0e-07
 ---------------------------------------
  Cycle       Energy         DIIS error
 ---------------------------------------
    1    -454.7932119559      3.98e-04  Roothaan Step
 ---------------------------------------
  Cycle       Energy         DIIS error
 ---------------------------------------
    1    -454.9193496267      4.57e-04  
    2    -454.9270954934      4.38e-04  Done DIIS. Switching to GDM
 ---------------------------------------
  Cycle       Energy        RMS Gradient
 ---------------------------------------
    1    -454.9270954934      1.36e-02   Normal BFGS step
    2    -454.9262213694      2.67e-02  Line search: overstep
    3    -454.9318583894      6.14e-03   Normal BFGS step
    4    -454.9321623580      3.90e-03   Normal BFGS step
    5    -454.9322185027      9.42e-04   Normal BFGS step
    6    -454.9322282469      5.42e-04   Normal BFGS step
    7    -454.9322309511      4.82e-04   Normal BFGS step
    8    -454.9322317224      9.81e-05   Normal BFGS step
    9    -454.9322318365      3.01e-05   Normal BFGS step
   10    -454.9322318541      1.93e-05   Normal BFGS step
   11    -454.9322318587      5.82e-06   Normal BFGS step
   12    -454.9322318591      4.39e-06   Normal BFGS step
   13    -454.9322318592      2.29e-06   Normal BFGS step
   14    -454.9322318592      9.52e-07   Normal BFGS step
   15    -454.9322318592      3.22e-07   Normal BFGS step
   16    -454.9322318592      2.09e-07   Normal BFGS step
   17    -454.9322318592      6.79e-08  Convergence criterion met
 ---------------------------------------
 SCF time:   CPU 582.71s  wall 73.00s 
<S^2> =          0.752998018
(3)  G-ENP(liq) elect-nuc-pol free energy of system     -454.932231859 a.u.
(4)  G-CDS(liq) cavity-dispersion-solvent structure 
     free energy                                                5.0719 kcal/mol
(6)  G-S(liq) free energy of system                     -454.924149289 a.u.
 SCF   energy in the final basis set =     -454.9241492890
 Total energy in the final basis set =     -454.9241492890
 
 --------------------------------------------------------------
 
                    Orbital Energies (a.u.)
 --------------------------------------------------------------
 
 Alpha MOs
 -- Occupied --
-19.3766 -19.3736 -19.3285 -19.2823 -19.2813 -10.4477 -10.4384  -1.2417
 -1.1741  -1.1570  -1.1350  -1.0710  -0.8228  -0.7068  -0.6702  -0.6291
 -0.5897  -0.5849  -0.5326  -0.5212  -0.5146  -0.5082  -0.4977  -0.4667
 -0.4268  -0.3791  -0.3788  -0.3587  -0.2475
 -- Virtual --
  0.0298   0.0542   0.0569   0.0716   0.0903   0.1015   0.1123   0.1130
  0.1297   0.1402   0.1655   0.1713   0.1748   0.2213   0.2278   0.2329
  0.2407   0.2467   0.2638   0.2769   0.2914   0.2994   0.3052   0.3088
  0.3191   0.3234   0.3288   0.3348   0.3399   0.3410   0.3590   0.3722
  0.3755   0.3866   0.4058   0.4068   0.4349   0.4406   0.4502   0.4764
  0.5659   0.5768   0.5968   0.6178   0.6250   0.6836   0.6866   0.6983
  0.7138   0.7296   0.7383   0.7649   0.7880   0.8085   0.8140   0.8461
  0.8817   0.8956   0.9116   0.9329   0.9484   1.0047   1.0120   1.0301
  1.0444   1.0641   1.1002   1.1216   1.1296   1.1379   1.1495   1.1665
  1.1725   1.1821   1.1862   1.2106   1.2290   1.2595   1.2771   1.2899
  1.3148   1.3608   1.4147   1.4450   1.4534   1.4692   1.5010   1.5332
  1.5600   1.5621   1.6330   1.6557   1.6849   1.7434   1.7688   1.7852
  1.8153   1.8314   1.8505   1.8941   1.9029   1.9342   1.9660   2.0012
  2.0412   2.0762   2.1471   2.1902   2.2110   2.3003   2.3316   2.3530
  2.3849   2.4376   2.4436   2.4757   2.5107   2.5878   2.6123   2.6212
  2.6790   2.7387   2.7584   2.8404   2.8535   2.8982   2.9277   2.9901
  3.0163   3.1683   3.1903   3.2198   3.2435   3.3081   3.3114   3.3682
  3.3890   3.4187   3.4579   3.4921   3.5556   3.6011   3.6178   3.6481
  3.6494   3.7263   3.7354   3.7673   3.7885   3.8001   3.8213   3.8630
  3.9302   3.9480   4.0866   4.1057   4.1354   4.1504   4.2067   4.2590
  4.2713   4.2881   4.3055   4.3594   4.4217   4.4671   4.9064   5.1128
  5.1356   5.1608   5.1832   5.1932   5.1951   5.1984   5.2038   5.2200
  5.2452   5.2654   5.2739   5.2926   5.3026   5.3269   5.3373   5.3569
  5.3601   5.3796   5.4072   5.4609   5.5343   5.5464   5.5659   5.5731
  5.5852   5.6123   5.6303   5.6601   5.6942   5.7295   5.7931   5.8120
  5.8512   5.9248   5.9491   5.9883   6.0443   6.2856   6.3658   6.5079
  6.5734   6.9035   6.9362   6.9468   6.9996   7.0091   7.0264   7.0350
  7.0462   7.0656   7.0907   7.1449   7.2010   7.2400   7.2646   7.2695
  7.2926   7.3233   7.3582   7.3685   7.4434   7.4490   7.4605   7.4912
  7.5129   7.5560   7.6744   7.6834   7.7451   7.7783   7.8082   7.8366
  7.8752   7.9774  24.8816  25.2743  50.5022  50.5812  50.6221  50.7023
 50.7310
 
 Beta MOs
 -- Occupied --
-19.3735 -19.3702 -19.3283 -19.2798 -19.2789 -10.4381 -10.4377  -1.2330
 -1.1670  -1.1525  -1.1345  -1.0660  -0.8037  -0.7003  -0.6631  -0.6277
 -0.5832  -0.5608  -0.5281  -0.5168  -0.5095  -0.5009  -0.4852  -0.4429
 -0.4249  -0.3730  -0.3592  -0.3555
 -- Virtual --
  0.0298   0.0311   0.0541   0.0570   0.0719   0.0904   0.1018   0.1123
  0.1133   0.1303   0.1413   0.1661   0.1729   0.2045   0.2227   0.2289
  0.2373   0.2427   0.2501   0.2642   0.2791   0.2919   0.3005   0.3056
  0.3113   0.3202   0.3271   0.3292   0.3376   0.3419   0.3449   0.3599
  0.3742   0.3784   0.3945   0.4077   0.4114   0.4355   0.4469   0.4567
  0.4808   0.5690   0.5824   0.5990   0.6209   0.6263   0.6860   0.6930
  0.7056   0.7220   0.7344   0.7483   0.7733   0.7916   0.8121   0.8156
  0.8494   0.8832   0.8982   0.9168   0.9387   0.9558   1.0089   1.0135
  1.0322   1.0483   1.0669   1.1060   1.1246   1.1328   1.1394   1.1518
  1.1695   1.1755   1.1863   1.1902   1.2162   1.2355   1.2625   1.2807
  1.2953   1.3183   1.3636   1.4178   1.4503   1.4566   1.4743   1.5034
  1.5365   1.5649   1.5662   1.6378   1.6598   1.6891   1.7478   1.7751
  1.7926   1.8232   1.8365   1.8545   1.8944   1.9096   1.9364   1.9715
  2.0063   2.0504   2.0850   2.1528   2.1955   2.2151   2.3067   2.3335
  2.3578   2.3865   2.4426   2.4510   2.4836   2.5151   2.5910   2.6177
  2.6265   2.6885   2.7648   2.7684   2.8596   2.8694   2.9182   2.9685
  3.0028   3.0319   3.1780   3.2143   3.2403   3.2661   3.3179   3.3420
  3.3944   3.4118   3.4351   3.4772   3.5084   3.5817   3.6246   3.6345
  3.6634   3.6677   3.7312   3.7500   3.7824   3.7990   3.8092   3.8306
  3.8671   3.9364   3.9533   4.0900   4.1088   4.1386   4.1553   4.2171
  4.2644   4.2765   4.2997   4.3412   4.3683   4.4267   4.4773   4.9358
  5.1136   5.1437   5.1623   5.1903   5.2020   5.2066   5.2097   5.2154
  5.2288   5.2525   5.2729   5.2808   5.3005   5.3115   5.3300   5.3411
  5.3653   5.3663   5.3875   5.4141   5.4645   5.5383   5.5471   5.5732
  5.5801   5.5856   5.6192   5.6374   5.6693   5.7002   5.7299   5.8020
  5.8125   5.8604   5.9291   5.9627   5.9998   6.0476   6.2938   6.3748
  6.5137   6.5814   6.9116   6.9459   6.9550   7.0065   7.0161   7.0365
  7.0443   7.0496   7.0790   7.1007   7.1471   7.2059   7.2438   7.2751
  7.2807   7.3034   7.3297   7.3671   7.3774   7.4441   7.4571   7.4698
  7.4955   7.5199   7.5630   7.6760   7.6875   7.7502   7.7826   7.8133
  7.8409   7.8807   7.9821  24.8878  25.2775  50.5024  50.5838  50.6249
 50.7043  50.7330
 --------------------------------------------------------------
 
          Ground-State Mulliken Net Atomic Charges

     Atom                 Charge (a.u.)    Spin (a.u.)
  --------------------------------------------------------
      1 O                    -0.377717       0.076485
      2 C                    -0.032426       0.605450
      3 O                    -0.343235       0.090738
      4 C                     0.444388       0.045155
      5 O                    -0.712825       0.087691
      6 O                    -0.717191       0.088060
      7 H                     0.369043       0.000472
      8 H                     0.332133      -0.002634
      9 H                     0.378726       0.002627
     10 O                    -0.660340       0.007173
     11 H                     0.319443      -0.001216
  --------------------------------------------------------
  Sum of atomic charges =    -1.000000
  Sum of spin   charges =     1.000000

 -----------------------------------------------------------------
                    Cartesian Multipole Moments
 -----------------------------------------------------------------
    Charge (ESU x 10^10)
                -4.8032
    Dipole Moment (Debye)
         X     -10.9126      Y       0.5322      Z       0.7598
       Tot      10.9519
    Quadrupole Moments (Debye-Ang)
        XX     -60.7887     XY      -2.7972     YY     -54.7829
        XZ      -1.8646     YZ      -4.7398     ZZ     -53.0159
    Octopole Moments (Debye-Ang^2)
       XXX    -112.4400    XXY      -5.0087    XYY     -55.1881
       YYY     -39.3049    XXZ     -14.3847    XYZ     -10.9331
       YYZ     -23.4488    XZZ     -47.5930    YZZ     -33.8182
       ZZZ     -73.4637
    Hexadecapole Moments (Debye-Ang^3)
      XXXX    -529.2762   XXXY     -39.4041   XXYY    -151.1564
      XYYY     -39.6452   YYYY    -435.3392   XXXZ     -19.1522
      XXYZ     -30.9706   XYYZ     -39.2685   YYYZ    -107.2608
      XXZZ    -165.3852   XYZZ     -47.8038   YYZZ    -156.0883
      XZZZ     -86.4695   YZZZ    -126.4506   ZZZZ    -366.6207
 -----------------------------------------------------------------
 Calculating analytic gradient of the SCF energy
 Gradient of CDS energy
            1           2           3           4           5           6
    1   0.0011235  -0.0050257   0.0033922   0.0026123  -0.0016772  -0.0001329
    2  -0.0036701   0.0009688   0.0028331  -0.0016694  -0.0014236   0.0025984
    3   0.0008990   0.0007728  -0.0018041  -0.0008155   0.0005972  -0.0002858
            7           8           9          10          11
    1  -0.0003287  -0.0001776  -0.0001170  -0.0000266   0.0003577
    2   0.0003095  -0.0002960   0.0000217   0.0001037   0.0002239
    3   0.0000196   0.0001520   0.0003599   0.0000538   0.0000512
 Gradient of SCF Energy
            1           2           3           4           5           6
    1  -0.0027298   0.0162238   0.0010825   0.0043460  -0.0124615   0.0001282
    2   0.0059799  -0.0080020  -0.0203267  -0.0046702  -0.0086539   0.0126166
    3  -0.0063019   0.0205581  -0.0009327  -0.0038867  -0.0044302  -0.0050903
            7           8           9          10          11
    1   0.0065660  -0.0100512   0.0179788   0.0022281  -0.0233109
    2  -0.0037938   0.0258785   0.0094192  -0.0113361   0.0028885
    3  -0.0020811  -0.0007191   0.0032112  -0.0274064   0.0270789
 Max gradient component =       2.741E-02
 RMS gradient           =       1.251E-02
 Computing fast CPCM-SWIG gradient
 Updating gradient with PCM contributions...
 -- total gradient after adding PCM contribution --
---------------------------------------------------
  Atom         X              Y              Z     
---------------------------------------------------
   1      -0.000064      -0.000207      -0.000683
   2       0.000618       0.000404       0.001578
   3       0.000469       0.000062       0.001234
   4       0.000270      -0.000074       0.000024
   5       0.000265      -0.000230       0.000972
   6      -0.000853      -0.000020      -0.001853
   7       0.000236       0.000797      -0.000155
   8       0.000682       0.000094       0.000637
   9      -0.000480      -0.000974      -0.002208
  10      -0.001396      -0.000285      -0.000281
  11       0.000253       0.000434       0.000736
---------------------------------------------------
 Number of fixed atoms: 0
 Gradient time:  CPU 82.97 s  wall 12.48 s
rPathMan2.  file_steps = 952
 IRC --- Status = 4.  Checking bisector search.
 IRC --- Bisector search finished successfully.
 ------------------------------------------------------------------------
 Reaction path following.  The coordinates are cartesian              
 Step  25 E=    -454.924149 |G|=  0.004600 S_lin= 2.0357 S_tot= 2.4979
 ------------------------------------------------------------------------
  IRC -- convergence criterion reached.
 ----------------------------------------------------------------
             Standard Nuclear Orientation (Angstroms)
    I     Atom           X                Y                Z
 ----------------------------------------------------------------
    1      O      -0.5898693698     1.4364167686    -0.2011324283
    2      C      -0.0505459724     0.4558973035     0.6364534286
    3      O      -0.9992020981    -0.4709441896     1.0550590018
    4      C       1.1382211719    -0.2198854210    -0.0797845773
    5      O       2.1150602176     0.5155082449    -0.3422678855
    6      O       1.0091565412    -1.4439638257    -0.3063138284
    7      H      -1.2923185257     1.8935755434     0.2782478755
    8      H      -0.6832252495    -1.3229325128     0.7021992984
    9      H       0.3900654810     0.9778650496     1.5657085859
   10      O       1.5169367837     1.7843143470     2.2297602170
   11      H       2.0821964203     1.6320557921     1.4474164122
 ----------------------------------------------------------------
 Nuclear Repulsion Energy =         316.74259526 hartrees
 There are       29 alpha and       28 beta electrons
 Here is where we should summarize the reaction path
 Total job time:  13696.90s(wall), 106367.21s(cpu) 
 Mon Jul 17 22:42:12 2023

        *************************************************************
        *                                                           *
        *  Thank you very much for using Q-Chem.  Have a nice day.  *
        *                                                           *
        *************************************************************


