
Running Job 1 of 1 Q_in.in
qchem Q_in.in_96098.0 /scratch/ari.fischer/qChem1640639.hpc-mn1/qchem96098/ 0
/usr/local/qchem-5.4.1/exe/qcprog.exe_s Q_in.in_96098.0 /scratch/ari.fischer/qChem1640639.hpc-mn1/qchem96098/
                  Welcome to Q-Chem
     A Quantum Leap Into The Future Of Chemistry


 Q-Chem 5.4, Q-Chem, Inc., Pleasanton, CA (2021)

 License issued to: Nanyang Technological University (site)

 E. Epifanovsky,  A. T. B. Gilbert,  Xintian Feng,  Joonho Lee,  Yuezhi Mao,  
 N. Mardirossian,  P. Pokhilko,  A. White,  M. Wormit,  M. P. Coons,  
 A. L. Dempwolff,  Zhengting Gan,  D. Hait,  P. R. Horn,  L. D. Jacobson,  
 I. Kaliman,  J. Kussmann,  A. W. Lange,  Ka Un Lao,  D. S. Levine,  Jie Liu,  
 S. C. McKenzie,  A. F. Morrison,  K. Nanda,  F. Plasser,  D. R. Rehn,  
 M. L. Vidal,  Zhi-Qiang You,  Ying Zhu,  B. Alam,  B. Albrecht,  
 A. Aldossary,  E. Alguire,  J. H. Andersen,  D. Barton,  K. Begam,  A. Behn,  
 Y. A. Bernard,  E. J. Berquist,  H. Burton,  A. Carreras,  K. Carter-Fenk,  
 R. Chakraborty,  A. D. Chien,  K. D. Closser,  V. Cofer-Shabica,  
 S. Dasgupta,  Jia Deng,  M. de Wergifosse,  M. Diedenhofen,  Hainam Do,  
 S. Ehlert,  Po-Tung Fang,  S. Fatehi,  Qingguo Feng,  T. Friedhoff,  
 J. Gayvert,  Qinghui Ge,  G. Gidofalvi,  M. Goldey,  J. Gomes,  
 C. Gonzalez-Espinoza,  S. Gulania,  A. Gunina,  M. W. D. Hanson-Heine,  
 P. H. P. Harbach,  A. W. Hauser,  M. F. Herbst,  M. Hernandez Vera,  
 M. Hodecker,  Z. C. Holden,  S. Houck,  Xunkun Huang,  Kerwin Hui,  
 B. C. Huynh,  M. Ivanov,  Hyunjun Ji,  Hanjie Jiang,  B. Kaduk,  S. Kaehler,  
 K. Khistyaev,  Jaehoon Kim,  P. Klunzinger,  Z. Koczor-Benda,  
 Joong Hoon Koh,  D. Kosenkov,  L. Koulias,  T. Kowalczyk,  C. M. Krauter,  
 K. Kue,  A. Kunitsa,  T. Kus,  A. Landau,  K. V. Lawler,  D. Lefrancois,  
 S. Lehtola,  Rain Li,  Yi-Pei Li,  Jiashu Liang,  M. Liebenthal,  
 Hung-Hsuan Lin,  You-Sheng Lin,  Fenglai Liu,  Kuan-Yu Liu,  
 M. Loipersberger,  A. Luenser,  A. Manjanath,  P. Manohar,  E. Mansoor,  
 S. F. Manzer,  Shan-Ping Mao,  A. V. Marenich,  T. Markovich,  S. Mason,  
 S. A. Maurer,  P. F. McLaughlin,  M. F. S. J. Menger,  J.-M. Mewes,  
 S. A. Mewes,  P. Morgante,  J. W. Mullinax,  K. J. Oosterbaan,  G. Paran,  
 Alexander C. Paul,  Suranjan K. Paul,  F. Pavosevic,  Zheng Pei,  S. Prager,  
 E. I. Proynov,  E. Ramos,  B. Rana,  A. E. Rask,  A. Rettig,  R. M. Richard,  
 F. Rob,  E. Rossomme,  T. Scheele,  M. Scheurer,  M. Schneider,  
 N. Sergueev,  S. M. Sharada,  W. Skomorowski,  D. W. Small,  C. J. Stein,  
 Yu-Chuan Su,  E. J. Sundstrom,  Zhen Tao,  J. Thirman,  T. Tsuchimochi,  
 N. M. Tubman,  S. P. Veccham,  O. Vydrov,  J. Wenzel,  J. Witte,  A. Yamada,  
 Kun Yao,  S. Yeganeh,  S. R. Yost,  A. Zech,  Igor Ying Zhang,  Xing Zhang,  
 Yu Zhang,  D. Zuev,  A. Aspuru-Guzik,  A. T. Bell,  N. A. Besley,  
 K. B. Bravaya,  B. R. Brooks,  D. Casanova,  Jeng-Da Chai,  S. Coriani,  
 C. J. Cramer,  A. E. DePrince, III,  R. A. DiStasio Jr.,  A. Dreuw,  
 B. D. Dunietz,  T. R. Furlani,  W. A. Goddard III,  S. Grimme,  
 S. Hammes-Schiffer,  T. Head-Gordon,  W. J. Hehre,  Chao-Ping Hsu,  
 T.-C. Jagau,  Yousung Jung,  A. Klamt,  Jing Kong,  D. S. Lambrecht,  
 WanZhen Liang,  N. J. Mayhall,  C. W. McCurdy,  J. B. Neaton,  
 C. Ochsenfeld,  J. A. Parkhill,  R. Peverati,  V. A. Rassolov,  Yihan Shao,  
 L. V. Slipchenko,  T. Stauch,  R. P. Steele,  J. E. Subotnik,  
 A. J. W. Thom,  A. Tkatchenko,  D. G. Truhlar,  T. Van Voorhis,  
 T. A. Wesolowski,  K. B. Whaley,  H. L. Woodcock III,  P. M. Zimmerman,  
 S. Faraji,  P. M. W. Gill,  M. Head-Gordon,  J. M. Herbert,  A. I. Krylov

 Additional authors for Version 5.4.1: 
 S. Kotaru,  Shaozhi Li,  Xiangyuan Li,  F. Matz,  A. Molle,  Haisheng Ren,  
 Yingli Su,  Hung-Yi Tsai,  C. Utku,  Fang Wang

 Contributors to earlier versions of Q-Chem not listed above: 
 R. D. Adamson,  B. Austin,  R. Baer,  J. Baker,  G. J. O. Beran,  
 K. Brandhorst,  S. T. Brown,  E. F. C. Byrd,  A. K. Chakraborty,  
 G. K. L. Chan,  Chun-Min Chang,  Yunqing Chen,  C.-L. Cheng,  
 Siu Hung Chien,  D. M. Chipman,  D. L. Crittenden,  H. Dachsel,  
 R. J. Doerksen,  A. D. Dutoi,  R. G. Edgar,  J. Fosso-Tande,  
 L. Fusti-Molnar,  D. Ghosh,  A. Ghysels,  A. Golubeva-Zadorozhnaya,  
 J. Gonthier,  M. S. Gordon,  S. R. Gwaltney,  G. Hawkins,  J. E. Herr,  
 A. Heyden,  S. Hirata,  E. G. Hohenstein,  G. Kedziora,  F. J. Keil,  
 C. Kelley,  Jihan Kim,  R. A. King,  R. Z. Khaliullin,  P. P. Korambath,  
 W. Kurlancheek,  A. Laurent,  A. M. Lee,  M. S. Lee,  S. V. Levchenko,  
 Ching Yeh Lin,  D. Liotard,  E. Livshits,  R. C. Lochan,  I. Lotan,  
 L. A. Martinez-Martinez,  P. E. Maslen,  N. Nair,  D. P. O'Neill,  
 D. Neuhauser,  E. Neuscamman,  C. M. Oana,  R. Olivares-Amaya,  R. Olson,  
 T. M. Perrine,  B. Peters,  P. A. Pieniazek,  A. Prociuk,  Y. M. Rhee,  
 J. Ritchie,  M. A. Rohrdanz,  E. Rosta,  N. J. Russ,  H. F. Schaefer III,  
 M. W. Schmidt,  N. E. Schultz,  S. Sharma,  N. Shenvi,  C. D. Sherrill,  
 A. C. Simmonett,  A. Sodt,  T. Stein,  D. Stuck,  K. S. Thanthiriwatte,  
 V. Vanovschi,  L. Vogt,  Tao Wang,  A. Warshel,  M. A. Watson,  
 C. F. Williams,  Q. Wu,  X. Xu,  Jun Yang,  W. Zhang,  Yan Zhao

 Please cite Q-Chem as follows:
 Y. Shao et al., Mol. Phys. 113, 184-215 (2015)
 DOI: 10.1080/00268976.2014.952696

 Q-Chem 5.4.1 for Intel X86 EM64T Linux

 Parts of Q-Chem use Armadillo 9.800.1 (Horizon Scraper).
 http://arma.sourceforge.net/

 Q-Chem begins on Fri Jul 21 17:54:34 2023  

 Host: 
0

     Scratch files written to /scratch/ari.fischer/qChem1640639.hpc-mn1/qchem96098//
 Aug1521 |scratch|qcdevops|jenkins|workspace|build_RNUM 8249   
 Processing $rem in /usr/local/qchem-5.4.1/config/preferences:
 Processing $rem in /home/ari.fischer/.qchemrc:
 Symmetry turned off for PCM/SM12/SMD calculation


!!********************************************.
!!******************Warning*******************.
!!Desired Analytical derivatives not available.
!!Finite difference job might take a long time.
!!********************************************.
!!********************************************.


 2-order derivative to be evaluated numerically with 1-order analytical derivatives

 Checking the input file for inconsistencies... 	...done.

--------------------------------------------------------------
User input:
--------------------------------------------------------------
$molecule
-2 1
C         1.0678097916    0.1362203142    0.2446529700
O         0.1854172623    0.9021318718    0.7054667393
C         2.4665796809    0.7642631813   -0.0482674149
O         2.4820646983    1.9480555495   -0.4675912507
O         3.4710254581    0.0386643221    0.1571710786
O         0.9295637088   -1.0874604390   -0.0028821221
$end

$rem
BASIS = 6-311++G(2df,2p)
GUI = 2
JOB_TYPE = Frequency
METHOD = wB97M-V
SOLVENT_METHOD = SMD
SCF_ALGORITHM = DIIS_GDM
MAX_SCF_CYCLES = 400
SCF_CONVERGENCE = 7
THRESH = 12
UNRESTRICTED = 1
SYMMETRY_IGNORE = 1
$end
--------------------------------------------------------------
 ----------------------------------------------------------------
             Standard Nuclear Orientation (Angstroms)
    I     Atom           X                Y                Z
 ----------------------------------------------------------------
    1      C       1.0678097916     0.1362203142     0.2446529700
    2      O       0.1854172623     0.9021318718     0.7054667393
    3      C       2.4665796809     0.7642631813    -0.0482674149
    4      O       2.4820646983     1.9480555495    -0.4675912507
    5      O       3.4710254581     0.0386643221     0.1571710786
    6      O       0.9295637088    -1.0874604390    -0.0028821221
 ----------------------------------------------------------------
 Nuclear Repulsion Energy =         209.57995526 hartrees
 There are       23 alpha and       23 beta electrons
 Requested basis set is 6-311++G(2df,2p)
 There are 48 shells and 204 basis functions

 Total QAlloc Memory Limit 288000 MB
 Mega-Array Size       188 MB
 MEM_STATIC part       192 MB
 
 Citation of the SMD model:
 Marenich, A.V.; Cramer, C.J.; Truhlar, D.G.
 J. Phys. Chem. B 2009, 113, 6378-6396.
 iSolventCode=           1
 Solvent: water                                                           
 
 vradii
            1           2           3           4           5           6
    1   1.8500000   1.5200000   1.8500000   1.5200000   1.5200000   1.5200000
 Changing PCM_VDW_RADII to SMD_RADIUS
 Discretize the solute cavity surface with Lebedev spheres
	Using 110 Lebedev grid points for each H atom
	Using 194 Lebedev grid points for other atoms
	Atomic van der Waals radii will be scaled by 1.20
 Remove points where switching function is < 1.0e-08
 Keep 705 surface tesserae and discard 459 interior tesserae
 Molecular Surface Area = 89.765 Angst**2

                       Distance Matrix (Angstroms)
             C (  1)   O (  2)   C (  3)   O (  4)   O (  5)
   O (  2)  1.256020
   C (  3)  1.561024  2.406413
   O (  4)  2.406274  2.782914  1.255960
   O (  5)  2.406785  3.441137  1.256029  2.239229
   O (  6)  1.256097  2.239194  2.406940  3.441013  2.784385
 
 A cutoff of  1.0D-12 yielded   1114 shell pairs
 There are     20558 function pairs (     27091 Cartesian)
 Smallest overlap matrix eigenvalue = 1.67E-04
 Guess from superposition of atomic densities
 Warning:  Energy on first SCF cycle will be non-variational
 SAD guess density has 44.000000 electrons

 -----------------------------------------------------------------------
  General SCF calculation program by
  Eric Jon Sundstrom, Paul Horn, Yuezhi Mao, Dmitri Zuev, Alec White,
  David Stuck, Shaama M.S., Shane Yost, Joonho Lee, David Small,
  Daniel Levine, Susi Lehtola, Hugh Burton, Evgeny Epifanovsky,
  Bang C. Huynh
 -----------------------------------------------------------------------
 Exchange:     0.1500 Hartree-Fock + 1.0000 wB97M-V + LR-HF
 Correlation:  1.0000 wB97M-V
 Using SG-2 standard quadrature grid
 Nonlocal Correlation:  VV10 with C = 0.0100 and b = 6.00 and scale = 1.00000
 Grid used for NLC:  SG-1 standard quadrature
 using 8 threads for integral computing
 -------------------------------------------------------
 OpenMP Integral computing Module                
 Release: version 1.0, May 2013, Q-Chem Inc. Pittsburgh 
 -------------------------------------------------------
 
 Citation of the SMD model:
 Marenich, A.V.; Cramer, C.J.; Truhlar, D.G.
 J. Phys. Chem. B 2009, 113, 6378-6396.
 iSolventCode=           1
 Solvent: water                                                           
 
 vradii
            1           2           3           4           5           6
    1   1.8500000   1.5200000   1.8500000   1.5200000   1.5200000   1.5200000
 -------------------------------------------------------
 OpenMP BLAS3 based DFT computing Module                
 Release: version 1.0, May 2013, Q-Chem Inc. Pittsburgh 
 -------------------------------------------------------
 A unrestricted SCF calculation will be
 performed using DIIS, GDM
 SCF converges when RMS gradient is below 1.0e-07
 ---------------------------------------
  Cycle       Energy         DIIS error
 ---------------------------------------
    1    -377.9220891664      1.77e-02  
    2    -377.2031925954      4.28e-03  Done DIIS. Switching to GDM
 ---------------------------------------
  Cycle       Energy        RMS Gradient
 ---------------------------------------
    1    -377.2031925954      1.66e-01   Descent step
    2    -377.4498336772      5.63e-02   Normal BFGS step
    3    -377.4932410711      7.54e-03   Normal BFGS step
    4    -377.4943824177      3.76e-03   Normal BFGS step
    5    -377.4945598735      7.90e-04   Normal BFGS step
    6    -377.4945646247      2.51e-04   Normal BFGS step
    7    -377.4945649191      9.83e-05   Normal BFGS step
    8    -377.4945649381      5.29e-05   Normal BFGS step
    9    -377.4945649549      1.17e-05   Normal BFGS step
   10    -377.4945649560      5.85e-06   Normal BFGS step
   11    -377.4945649562      1.54e-06   Normal BFGS step
   12    -377.4945649562      9.15e-07   Normal BFGS step
   13    -377.4945649562      1.02e-07   Normal BFGS step
   14    -377.4945649562      2.92e-08  Convergence criterion met
 ---------------------------------------
 SCF time:   CPU 222.27s  wall 29.00s 
<S^2> =          0.000000000
(3)  G-ENP(liq) elect-nuc-pol free energy of system     -377.494564956 a.u.
(4)  G-CDS(liq) cavity-dispersion-solvent structure 
     free energy                                                5.4370 kcal/mol
(6)  G-S(liq) free energy of system                     -377.485900538 a.u.
 SCF   energy in the final basis set =     -377.4859005379
 Total energy in the final basis set =     -377.4859005379
 
 --------------------------------------------------------------
 
                    Orbital Energies (a.u.)
 --------------------------------------------------------------
 
 Alpha MOs
 -- Occupied --
-19.2813 -19.2813 -19.2813 -19.2813 -10.4324 -10.4323  -1.1781  -1.1472
 -1.0823  -1.0642  -0.7225  -0.5886  -0.5682  -0.5433  -0.5421  -0.5110
 -0.4859  -0.4232  -0.3753  -0.3690  -0.3678  -0.3381  -0.3253
 -- Virtual --
  0.0623   0.0804   0.0895   0.0896   0.0952   0.1202   0.1246   0.1300
  0.1726   0.1993   0.2152   0.2242   0.2719   0.2739   0.2820   0.2892
  0.3115   0.3156   0.3195   0.3218   0.3425   0.3512   0.3663   0.3695
  0.4019   0.4165   0.4197   0.5250   0.5324   0.5713   0.6752   0.6983
  0.7024   0.7122   0.7123   0.7774   0.8126   0.8175   0.8176   0.8810
  0.9715   0.9992   1.0858   1.1084   1.1085   1.1169   1.1313   1.1320
  1.1523   1.1667   1.2123   1.2400   1.2409   1.2547   1.2655   1.2843
  1.4061   1.4219   1.5011   1.5263   1.6157   1.6424   1.6503   1.6568
  1.6991   1.7067   1.7102   1.7824   1.8273   1.8303   1.8524   1.8880
  1.9940   2.0823   2.2003   2.2633   2.2691   2.3265   2.4942   2.4978
  2.5105   2.5238   2.6040   2.7419   2.7880   2.8871   2.8968   2.9042
  3.0617   3.1143   3.1344   3.1419   3.1549   3.2791   3.3022   3.3932
  3.4071   3.4952   3.4997   3.5105   3.5387   3.5754   3.5931   3.6056
  3.6551   3.6986   3.7853   3.8015   4.0672   4.0708   4.0773   4.1365
  4.1932   4.2858   4.7592   5.1766   5.1809   5.1826   5.1872   5.1969
  5.1969   5.1971   5.2000   5.2188   5.2190   5.2679   5.2781   5.2840
  5.2902   5.3250   5.3571   5.3638   5.4070   5.4166   5.4408   5.5518
  5.5751   5.5894   5.6452   5.6590   5.6600   5.8131   5.8187   5.9656
  6.1320   6.2903   6.3366   6.3889   6.4285   6.7683   6.8908   6.9004
  6.9311   6.9417   7.0048   7.0152   7.0283   7.0331   7.0390   7.1006
  7.2386   7.3305   7.3575   7.3906   7.4289   7.4369   7.4376   7.4515
  7.6334   7.6877   7.7615   7.7675   7.8160   7.8269   7.8521  25.1084
 25.2270  50.6623  50.6953  50.7013  50.7182
 
 Beta MOs
 -- Occupied --
-19.2813 -19.2813 -19.2813 -19.2813 -10.4324 -10.4323  -1.1781  -1.1472
 -1.0823  -1.0642  -0.7225  -0.5886  -0.5682  -0.5433  -0.5421  -0.5110
 -0.4859  -0.4232  -0.3753  -0.3690  -0.3678  -0.3381  -0.3253
 -- Virtual --
  0.0623   0.0804   0.0895   0.0896   0.0952   0.1202   0.1246   0.1300
  0.1726   0.1993   0.2152   0.2242   0.2719   0.2739   0.2820   0.2892
  0.3115   0.3156   0.3195   0.3218   0.3425   0.3512   0.3663   0.3695
  0.4019   0.4165   0.4197   0.5250   0.5324   0.5713   0.6752   0.6983
  0.7024   0.7122   0.7123   0.7774   0.8126   0.8175   0.8176   0.8810
  0.9715   0.9992   1.0858   1.1084   1.1085   1.1169   1.1313   1.1320
  1.1523   1.1667   1.2123   1.2400   1.2409   1.2547   1.2655   1.2843
  1.4061   1.4219   1.5011   1.5263   1.6157   1.6424   1.6503   1.6568
  1.6991   1.7067   1.7102   1.7824   1.8273   1.8303   1.8524   1.8880
  1.9940   2.0823   2.2003   2.2633   2.2691   2.3265   2.4942   2.4978
  2.5105   2.5238   2.6040   2.7419   2.7880   2.8871   2.8968   2.9042
  3.0617   3.1143   3.1344   3.1419   3.1549   3.2791   3.3022   3.3932
  3.4071   3.4952   3.4997   3.5105   3.5387   3.5754   3.5931   3.6056
  3.6551   3.6986   3.7853   3.8015   4.0672   4.0708   4.0773   4.1365
  4.1932   4.2858   4.7592   5.1766   5.1809   5.1826   5.1872   5.1969
  5.1969   5.1971   5.2000   5.2188   5.2190   5.2679   5.2781   5.2840
  5.2902   5.3250   5.3571   5.3638   5.4070   5.4166   5.4408   5.5518
  5.5751   5.5894   5.6452   5.6590   5.6600   5.8131   5.8187   5.9656
  6.1320   6.2903   6.3366   6.3889   6.4285   6.7683   6.8908   6.9004
  6.9311   6.9417   7.0048   7.0152   7.0283   7.0331   7.0390   7.1006
  7.2386   7.3305   7.3575   7.3906   7.4289   7.4369   7.4376   7.4515
  7.6334   7.6877   7.7615   7.7675   7.8160   7.8269   7.8521  25.1084
 25.2270  50.6623  50.6953  50.7013  50.7182
 --------------------------------------------------------------
 
          Ground-State Mulliken Net Atomic Charges

     Atom                 Charge (a.u.)    Spin (a.u.)
  --------------------------------------------------------
      1 C                     0.362371       0.000000
      2 O                    -0.680975       0.000000
      3 C                     0.361738       0.000000
      4 O                    -0.680990       0.000000
      5 O                    -0.680932       0.000000
      6 O                    -0.681212       0.000000
  --------------------------------------------------------
  Sum of atomic charges =    -2.000000
  Sum of spin   charges =     0.000000

 -----------------------------------------------------------------
                    Cartesian Multipole Moments
 -----------------------------------------------------------------
    Charge (ESU x 10^10)
                -9.6064
    Dipole Moment (Debye)
         X     -16.9736      Y      -4.3233      Z      -0.9395
       Tot      17.5407
    Quadrupole Moments (Debye-Ang)
        XX     -90.3784     XY     -10.0327     YY     -58.2500
        XZ       2.6437     YZ       1.1299     ZZ     -38.5688
    Octopole Moments (Debye-Ang^2)
       XXX    -376.2435    XXY     -47.6085    XYY    -103.4182
       YYY     -75.8975    XXZ       0.9304    XYZ       8.6396
       YYZ       1.2876    XZZ     -65.8536    YZZ     -19.6272
       ZZZ     -11.4989
    Hexadecapole Moments (Debye-Ang^3)
      XXXX   -1658.5814   XXXY    -205.4701   XXYY    -310.1177
      XYYY    -179.6660   YYYY    -359.9750   XXXZ      13.3779
      XXYZ      25.6040   XYYZ      20.6088   YYYZ      17.4305
      XXZZ    -186.5515   XYZZ     -41.6864   YYZZ     -65.7258
      XZZZ       9.6045   YZZZ       5.2515   ZZZZ     -70.4143
 -----------------------------------------------------------------
 Calculating analytic gradient of the SCF energy
 Gradient of CDS energy
            1           2           3           4           5           6
    1  -0.0030773   0.0015766   0.0030766  -0.0000046  -0.0018042   0.0002328
    2  -0.0013829  -0.0013993   0.0013799  -0.0021353   0.0013247   0.0022130
    3   0.0006432  -0.0008463  -0.0006441   0.0007705  -0.0003919   0.0004686
 Gradient of SCF Energy
            1           2           3           4           5           6
    1  -0.0481668   0.0441109   0.0478676  -0.0164030  -0.0473540   0.0199453
    2  -0.0213853  -0.0173229   0.0216150  -0.0449169   0.0161719   0.0458382
    3   0.0100733  -0.0162402  -0.0103670   0.0150762  -0.0015264   0.0029840
 Max gradient component =       4.817E-02
 RMS gradient           =       2.961E-02
 Computing fast CPCM-SWIG gradient
 Updating gradient with PCM contributions...
 -- total gradient after adding PCM contribution --
---------------------------------------------------
  Atom         X              Y              Z     
---------------------------------------------------
   1      -0.000116      -0.000054       0.000017
   2       0.000022       0.000023       0.000006
   3       0.000035      -0.000002       0.000003
   4      -0.000006       0.000022      -0.000002
   5       0.000013       0.000027      -0.000008
   6       0.000050      -0.000017      -0.000017
---------------------------------------------------
 Number of fixed atoms: 0
 Gradient time:  CPU 41.31 s  wall 6.75 s
 ######################################################
 ######################################################
 # Starting finite difference calculation for IDERIV  #
 Finite diff step size:  1.88973e-03 a.u.
 ----------------------------------------------------------------
             Standard Nuclear Orientation (Angstroms)
    I     Atom           X                Y                Z
 ----------------------------------------------------------------
    1      C       1.0688097916     0.1362203142     0.2446529700
    2      O       0.1854172623     0.9021318718     0.7054667393
    3      C       2.4665796809     0.7642631813    -0.0482674149
    4      O       2.4820646983     1.9480555495    -0.4675912507
    5      O       3.4710254581     0.0386643221     0.1571710786
    6      O       0.9295637088    -1.0874604390    -0.0028821221
 ----------------------------------------------------------------
 Nuclear Repulsion Energy =         209.58083634 hartrees
 There are       23 alpha and       23 beta electrons
 Discretize the solute cavity surface with Lebedev spheres
	Using 110 Lebedev grid points for each H atom
	Using 194 Lebedev grid points for other atoms
	Atomic van der Waals radii will be scaled by 1.20
 Remove points where switching function is < 1.0e-08
 Keep 706 surface tesserae and discard 458 interior tesserae
 Molecular Surface Area = 89.764 Angst**2

                       Distance Matrix (Angstroms)
             C (  1)   O (  2)   C (  3)   O (  4)   O (  5)
   O (  2)  1.256723
   C (  3)  1.560128  2.406413
   O (  4)  2.405687  2.782914  1.255960
   O (  5)  2.405787  3.441137  1.256029  2.239229
   O (  6)  1.256208  2.239194  2.406940  3.441013  2.784385
 
 Requested basis set is 6-311++G(2df,2p)
 There are 48 shells and 204 basis functions
 A cutoff of  1.0D-12 yielded   1114 shell pairs
 There are     20558 function pairs (     27091 Cartesian)
 Smallest overlap matrix eigenvalue = 1.66E-04
 Guess MOs from SCF MO coefficient file

 -----------------------------------------------------------------------
  General SCF calculation program by
  Eric Jon Sundstrom, Paul Horn, Yuezhi Mao, Dmitri Zuev, Alec White,
  David Stuck, Shaama M.S., Shane Yost, Joonho Lee, David Small,
  Daniel Levine, Susi Lehtola, Hugh Burton, Evgeny Epifanovsky,
  Bang C. Huynh
 -----------------------------------------------------------------------
 Exchange:     0.1500 Hartree-Fock + 1.0000 wB97M-V + LR-HF
 Correlation:  1.0000 wB97M-V
 Using SG-2 standard quadrature grid
 Nonlocal Correlation:  VV10 with C = 0.0100 and b = 6.00 and scale = 1.00000
 Grid used for NLC:  SG-1 standard quadrature
 
 Citation of the SMD model:
 Marenich, A.V.; Cramer, C.J.; Truhlar, D.G.
 J. Phys. Chem. B 2009, 113, 6378-6396.
 iSolventCode=           1
 Solvent: water                                                           
 
 vradii
            1           2           3           4           5           6
    1   1.8500000   1.5200000   1.8500000   1.5200000   1.5200000   1.5200000
 -------------------------------------------------------
 OpenMP BLAS3 based DFT computing Module                
 Release: version 1.0, May 2013, Q-Chem Inc. Pittsburgh 
 -------------------------------------------------------
 A unrestricted SCF calculation will be
 performed using Roothaan-Hall, DIIS, GDM
 SCF converges when RMS gradient is below 1.0e-07
 ---------------------------------------
  Cycle       Energy         DIIS error
 ---------------------------------------
    1    -377.1173313193      2.62e-04  Roothaan Step
 ---------------------------------------
  Cycle       Energy         DIIS error
 ---------------------------------------
    1    -377.4893386455      3.34e-04  
    2    -377.4930715107      3.34e-04  Done DIIS. Switching to GDM
 ---------------------------------------
  Cycle       Energy        RMS Gradient
 ---------------------------------------
    1    -377.4930715107      1.03e-02   Normal BFGS step
    2    -377.4930130381      1.33e-02  Line search: overstep
    3    -377.4944619083      3.20e-03   Normal BFGS step
    4    -377.4945438297      1.46e-03   Normal BFGS step
    5    -377.4945575667      2.33e-04   Normal BFGS step
    6    -377.4945582437      8.74e-05   Normal BFGS step
    7    -377.4945583118      2.45e-05   Normal BFGS step
    8    -377.4945583130      2.59e-05   Normal BFGS step
    9    -377.4945583174      2.58e-06   Normal BFGS step
   10    -377.4945583175      1.37e-06   Normal BFGS step
   11    -377.4945583175      4.69e-07   Normal BFGS step
   12    -377.4945583175      1.73e-07   Normal BFGS step
   13    -377.4945583175      4.85e-08  Convergence criterion met
 ---------------------------------------
 SCF time:   CPU 216.73s  wall 28.00s 
<S^2> =         -0.000000000
(3)  G-ENP(liq) elect-nuc-pol free energy of system     -377.494558317 a.u.
(4)  G-CDS(liq) cavity-dispersion-solvent structure 
     free energy                                                5.4333 kcal/mol
(6)  G-S(liq) free energy of system                     -377.485899726 a.u.
 SCF   energy in the final basis set =     -377.4858997259
 Total energy in the final basis set =     -377.4858997259
 
 --------------------------------------------------------------
 
                    Orbital Energies (a.u.)
 --------------------------------------------------------------
 
 Alpha MOs
 -- Occupied --
-19.2814 -19.2814 -19.2813 -19.2813 -10.4325 -10.4323  -1.1781  -1.1471
 -1.0822  -1.0641  -0.7228  -0.5886  -0.5682  -0.5433  -0.5421  -0.5110
 -0.4858  -0.4232  -0.3753  -0.3690  -0.3678  -0.3381  -0.3256
 -- Virtual --
  0.0623   0.0804   0.0893   0.0896   0.0952   0.1202   0.1246   0.1300
  0.1726   0.1992   0.2152   0.2242   0.2719   0.2739   0.2820   0.2892
  0.3116   0.3156   0.3195   0.3218   0.3425   0.3512   0.3664   0.3695
  0.4020   0.4166   0.4197   0.5249   0.5320   0.5714   0.6751   0.6984
  0.7024   0.7121   0.7122   0.7773   0.8125   0.8174   0.8175   0.8811
  0.9713   0.9991   1.0859   1.1084   1.1085   1.1170   1.1313   1.1321
  1.1523   1.1668   1.2124   1.2400   1.2409   1.2546   1.2656   1.2843
  1.4061   1.4221   1.5009   1.5263   1.6157   1.6425   1.6503   1.6568
  1.6990   1.7067   1.7100   1.7823   1.8273   1.8305   1.8523   1.8879
  1.9942   2.0823   2.2004   2.2631   2.2691   2.3263   2.4943   2.4973
  2.5105   2.5238   2.6038   2.7421   2.7878   2.8867   2.8967   2.9041
  3.0620   3.1149   3.1340   3.1422   3.1548   3.2792   3.3022   3.3930
  3.4067   3.4949   3.5000   3.5105   3.5390   3.5754   3.5933   3.6051
  3.6548   3.6986   3.7858   3.8019   4.0675   4.0711   4.0786   4.1361
  4.1930   4.2860   4.7603   5.1766   5.1809   5.1826   5.1872   5.1969
  5.1969   5.1971   5.2000   5.2188   5.2190   5.2679   5.2780   5.2840
  5.2902   5.3250   5.3570   5.3635   5.4068   5.4163   5.4404   5.5517
  5.5748   5.5897   5.6450   5.6588   5.6602   5.8130   5.8186   5.9655
  6.1317   6.2898   6.3363   6.3875   6.4273   6.7669   6.8907   6.9003
  6.9311   6.9417   7.0047   7.0153   7.0282   7.0331   7.0389   7.1005
  7.2385   7.3300   7.3576   7.3903   7.4287   7.4363   7.4374   7.4513
  7.6324   7.6878   7.7616   7.7678   7.8158   7.8272   7.8520  25.1077
 25.2270  50.6621  50.6950  50.7010  50.7180
 
 Beta MOs
 -- Occupied --
-19.2814 -19.2814 -19.2813 -19.2813 -10.4325 -10.4323  -1.1781  -1.1471
 -1.0822  -1.0641  -0.7228  -0.5886  -0.5682  -0.5433  -0.5421  -0.5110
 -0.4858  -0.4232  -0.3753  -0.3690  -0.3678  -0.3381  -0.3256
 -- Virtual --
  0.0623   0.0804   0.0893   0.0896   0.0952   0.1202   0.1246   0.1300
  0.1726   0.1992   0.2152   0.2242   0.2719   0.2739   0.2820   0.2892
  0.3116   0.3156   0.3195   0.3218   0.3425   0.3512   0.3664   0.3695
  0.4020   0.4166   0.4197   0.5249   0.5320   0.5714   0.6751   0.6984
  0.7024   0.7121   0.7122   0.7773   0.8125   0.8174   0.8175   0.8811
  0.9713   0.9991   1.0859   1.1084   1.1085   1.1170   1.1313   1.1321
  1.1523   1.1668   1.2124   1.2400   1.2409   1.2546   1.2656   1.2843
  1.4061   1.4221   1.5009   1.5263   1.6157   1.6425   1.6503   1.6568
  1.6990   1.7067   1.7100   1.7823   1.8273   1.8305   1.8523   1.8879
  1.9942   2.0823   2.2004   2.2631   2.2691   2.3263   2.4943   2.4973
  2.5105   2.5238   2.6038   2.7421   2.7878   2.8867   2.8967   2.9041
  3.0620   3.1149   3.1340   3.1422   3.1548   3.2792   3.3022   3.3930
  3.4067   3.4949   3.5000   3.5105   3.5390   3.5754   3.5933   3.6051
  3.6548   3.6986   3.7858   3.8019   4.0675   4.0711   4.0786   4.1361
  4.1930   4.2860   4.7603   5.1766   5.1809   5.1826   5.1872   5.1969
  5.1969   5.1971   5.2000   5.2188   5.2190   5.2679   5.2780   5.2840
  5.2902   5.3250   5.3570   5.3635   5.4068   5.4163   5.4404   5.5517
  5.5748   5.5897   5.6450   5.6588   5.6602   5.8130   5.8186   5.9655
  6.1317   6.2898   6.3363   6.3875   6.4273   6.7669   6.8907   6.9003
  6.9311   6.9417   7.0047   7.0153   7.0282   7.0331   7.0389   7.1005
  7.2385   7.3300   7.3576   7.3903   7.4287   7.4363   7.4374   7.4513
  7.6324   7.6878   7.7616   7.7678   7.8158   7.8272   7.8520  25.1077
 25.2270  50.6621  50.6950  50.7010  50.7180
 --------------------------------------------------------------
 
          Ground-State Mulliken Net Atomic Charges

     Atom                 Charge (a.u.)    Spin (a.u.)
  --------------------------------------------------------
      1 C                     0.362569       0.000000
      2 O                    -0.681741       0.000000
      3 C                     0.362037       0.000000
      4 O                    -0.680910       0.000000
      5 O                    -0.680847       0.000000
      6 O                    -0.681107       0.000000
  --------------------------------------------------------
  Sum of atomic charges =    -2.000000
  Sum of spin   charges =     0.000000

 -----------------------------------------------------------------
                    Cartesian Multipole Moments
 -----------------------------------------------------------------
    Charge (ESU x 10^10)
                -9.6064
    Dipole Moment (Debye)
         X     -16.9660      Y      -4.3256      Z      -0.9421
       Tot      17.5340
    Quadrupole Moments (Debye-Ang)
        XX     -90.3584     XY     -10.0284     YY     -58.2484
        XZ       2.6431     YZ       1.1268     ZZ     -38.5706
    Octopole Moments (Debye-Ang^2)
       XXX    -376.1948    XXY     -47.5947    XYY    -103.4112
       YYY     -75.9003    XXZ       0.9294    XYZ       8.6361
       YYZ       1.2820    XZZ     -65.8530    YZZ     -19.6306
       ZZZ     -11.5080
    Hexadecapole Moments (Debye-Ang^3)
      XXXX   -1658.4208   XXXY    -205.4230   XXYY    -310.0887
      XYYY    -179.6351   YYYY    -359.9571   XXXZ      13.3723
      XXYZ      25.5966   XYYZ      20.6017   YYYZ      17.4154
      XXZZ    -186.5435   XYZZ     -41.6833   YYZZ     -65.7272
      XZZZ       9.5964   YZZZ       5.2412   ZZZZ     -70.4239
 -----------------------------------------------------------------
 Calculating analytic gradient of the SCF energy
 Gradient of CDS energy
            1           2           3           4           5           6
    1  -0.0030894   0.0015894   0.0030747  -0.0000047  -0.0018041   0.0002342
    2  -0.0013751  -0.0014096   0.0013794  -0.0021354   0.0013248   0.0022159
    3   0.0006481  -0.0008522  -0.0006439   0.0007706  -0.0003920   0.0004694
 Gradient of SCF Energy
            1           2           3           4           5           6
    1  -0.0473965   0.0436311   0.0476493  -0.0163979  -0.0473745   0.0198884
    2  -0.0215687  -0.0169561   0.0215475  -0.0449456   0.0161697   0.0457531
    3   0.0097838  -0.0159982  -0.0103156   0.0150821  -0.0015244   0.0029723
 Max gradient component =       4.765E-02
 RMS gradient           =       2.946E-02
 Computing fast CPCM-SWIG gradient
 Updating gradient with PCM contributions...
 -- total gradient after adding PCM contribution --
---------------------------------------------------
  Atom         X              Y              Z     
---------------------------------------------------
   1       0.000975      -0.000134      -0.000195
   2      -0.000564       0.000335       0.000212
   3      -0.000249      -0.000074       0.000025
   4       0.000018       0.000049      -0.000002
   5      -0.000017       0.000024      -0.000008
   6      -0.000163      -0.000200      -0.000032
---------------------------------------------------
 Number of fixed atoms: 0
 Gradient time:  CPU 40.94 s  wall 7.06 s
 ----------------------------------------------------------------
             Standard Nuclear Orientation (Angstroms)
    I     Atom           X                Y                Z
 ----------------------------------------------------------------
    1      C       1.0668097916     0.1362203142     0.2446529700
    2      O       0.1854172623     0.9021318718     0.7054667393
    3      C       2.4665796809     0.7642631813    -0.0482674149
    4      O       2.4820646983     1.9480555495    -0.4675912507
    5      O       3.4710254581     0.0386643221     0.1571710786
    6      O       0.9295637088    -1.0874604390    -0.0028821221
 ----------------------------------------------------------------
 Nuclear Repulsion Energy =         209.57907874 hartrees
 There are       23 alpha and       23 beta electrons
 Discretize the solute cavity surface with Lebedev spheres
	Using 110 Lebedev grid points for each H atom
	Using 194 Lebedev grid points for other atoms
	Atomic van der Waals radii will be scaled by 1.20
 Remove points where switching function is < 1.0e-08
 Keep 705 surface tesserae and discard 459 interior tesserae
 Molecular Surface Area = 89.767 Angst**2

                       Distance Matrix (Angstroms)
             C (  1)   O (  2)   C (  3)   O (  4)   O (  5)
   O (  2)  1.255318
   C (  3)  1.561921  2.406413
   O (  4)  2.406862  2.782914  1.255960
   O (  5)  2.407784  3.441137  1.256029  2.239229
   O (  6)  1.255988  2.239194  2.406940  3.441013  2.784385
 
 Requested basis set is 6-311++G(2df,2p)
 There are 48 shells and 204 basis functions
 A cutoff of  1.0D-12 yielded   1114 shell pairs
 There are     20558 function pairs (     27091 Cartesian)
 Smallest overlap matrix eigenvalue = 1.67E-04
 Guess MOs from SCF MO coefficient file

 -----------------------------------------------------------------------
  General SCF calculation program by
  Eric Jon Sundstrom, Paul Horn, Yuezhi Mao, Dmitri Zuev, Alec White,
  David Stuck, Shaama M.S., Shane Yost, Joonho Lee, David Small,
  Daniel Levine, Susi Lehtola, Hugh Burton, Evgeny Epifanovsky,
  Bang C. Huynh
 -----------------------------------------------------------------------
 Exchange:     0.1500 Hartree-Fock + 1.0000 wB97M-V + LR-HF
 Correlation:  1.0000 wB97M-V
 Using SG-2 standard quadrature grid
 Nonlocal Correlation:  VV10 with C = 0.0100 and b = 6.00 and scale = 1.00000
 Grid used for NLC:  SG-1 standard quadrature
 
 Citation of the SMD model:
 Marenich, A.V.; Cramer, C.J.; Truhlar, D.G.
 J. Phys. Chem. B 2009, 113, 6378-6396.
 iSolventCode=           1
 Solvent: water                                                           
 
 vradii
            1           2           3           4           5           6
    1   1.8500000   1.5200000   1.8500000   1.5200000   1.5200000   1.5200000
 -------------------------------------------------------
 OpenMP BLAS3 based DFT computing Module                
 Release: version 1.0, May 2013, Q-Chem Inc. Pittsburgh 
 -------------------------------------------------------
 A unrestricted SCF calculation will be
 performed using Roothaan-Hall, DIIS, GDM
 SCF converges when RMS gradient is below 1.0e-07
 ---------------------------------------
  Cycle       Energy         DIIS error
 ---------------------------------------
    1    -377.1173416383      2.62e-04  Roothaan Step
 ---------------------------------------
  Cycle       Energy         DIIS error
 ---------------------------------------
    1    -377.4893802311      3.31e-04  
    2    -377.4931197128      3.30e-04  Done DIIS. Switching to GDM
 ---------------------------------------
  Cycle       Energy        RMS Gradient
 ---------------------------------------
    1    -377.4931197128      1.02e-02   Normal BFGS step
    2    -377.4930752909      1.29e-02  Line search: overstep
    3    -377.4944737260      3.17e-03   Normal BFGS step
    4    -377.4945551175      1.44e-03   Normal BFGS step
    5    -377.4945687610      2.33e-04   Normal BFGS step
    6    -377.4945694357      8.67e-05   Normal BFGS step
    7    -377.4945694972      3.62e-05   Normal BFGS step
    8    -377.4945695053      2.25e-05   Normal BFGS step
    9    -377.4945695111      2.71e-06   Normal BFGS step
   10    -377.4945695111      1.36e-06   Normal BFGS step
   11    -377.4945695111      4.26e-07   Normal BFGS step
   12    -377.4945695112      1.69e-07   Normal BFGS step
   13    -377.4945695112      4.23e-08  Convergence criterion met
 ---------------------------------------
 SCF time:   CPU 211.65s  wall 26.00s 
<S^2> =         -0.000000000
(3)  G-ENP(liq) elect-nuc-pol free energy of system     -377.494569511 a.u.
(4)  G-CDS(liq) cavity-dispersion-solvent structure 
     free energy                                                5.4406 kcal/mol
(6)  G-S(liq) free energy of system                     -377.485899289 a.u.
 SCF   energy in the final basis set =     -377.4858992889
 Total energy in the final basis set =     -377.4858992889
 
 --------------------------------------------------------------
 
                    Orbital Energies (a.u.)
 --------------------------------------------------------------
 
 Alpha MOs
 -- Occupied --
-19.2813 -19.2813 -19.2813 -19.2812 -10.4323 -10.4322  -1.1781  -1.1472
 -1.0823  -1.0643  -0.7221  -0.5886  -0.5682  -0.5433  -0.5421  -0.5111
 -0.4859  -0.4233  -0.3754  -0.3690  -0.3679  -0.3381  -0.3251
 -- Virtual --
  0.0623   0.0804   0.0896   0.0897   0.0952   0.1203   0.1246   0.1300
  0.1726   0.1993   0.2152   0.2242   0.2719   0.2739   0.2820   0.2892
  0.3114   0.3156   0.3195   0.3218   0.3425   0.3512   0.3663   0.3695
  0.4019   0.4164   0.4197   0.5251   0.5327   0.5711   0.6752   0.6983
  0.7024   0.7122   0.7124   0.7775   0.8127   0.8175   0.8177   0.8809
  0.9716   0.9993   1.0856   1.1083   1.1085   1.1168   1.1312   1.1320
  1.1522   1.1666   1.2123   1.2400   1.2409   1.2548   1.2655   1.2843
  1.4060   1.4217   1.5014   1.5264   1.6156   1.6423   1.6502   1.6567
  1.6992   1.7068   1.7103   1.7824   1.8273   1.8300   1.8526   1.8881
  1.9938   2.0824   2.2003   2.2634   2.2691   2.3266   2.4942   2.4982
  2.5104   2.5238   2.6042   2.7416   2.7882   2.8874   2.8969   2.9044
  3.0613   3.1137   3.1348   3.1416   3.1550   3.2790   3.3022   3.3934
  3.4074   3.4955   3.4994   3.5105   3.5384   3.5754   3.5928   3.6061
  3.6553   3.6987   3.7848   3.8011   4.0669   4.0705   4.0759   4.1370
  4.1933   4.2857   4.7582   5.1766   5.1809   5.1826   5.1872   5.1969
  5.1969   5.1971   5.2000   5.2189   5.2190   5.2679   5.2782   5.2840
  5.2902   5.3249   5.3572   5.3641   5.4073   5.4168   5.4411   5.5518
  5.5755   5.5892   5.6454   5.6592   5.6599   5.8132   5.8188   5.9657
  6.1323   6.2908   6.3370   6.3902   6.4298   6.7696   6.8910   6.9005
  6.9311   6.9417   7.0048   7.0151   7.0283   7.0331   7.0392   7.1006
  7.2387   7.3309   7.3574   7.3910   7.4291   7.4375   7.4378   7.4518
  7.6344   7.6876   7.7615   7.7672   7.8162   7.8267   7.8523  25.1091
 25.2269  50.6625  50.6956  50.7016  50.7184
 
 Beta MOs
 -- Occupied --
-19.2813 -19.2813 -19.2813 -19.2812 -10.4323 -10.4322  -1.1781  -1.1472
 -1.0823  -1.0643  -0.7221  -0.5886  -0.5682  -0.5433  -0.5421  -0.5111
 -0.4859  -0.4233  -0.3754  -0.3690  -0.3679  -0.3381  -0.3251
 -- Virtual --
  0.0623   0.0804   0.0896   0.0897   0.0952   0.1203   0.1246   0.1300
  0.1726   0.1993   0.2152   0.2242   0.2719   0.2739   0.2820   0.2892
  0.3114   0.3156   0.3195   0.3218   0.3425   0.3512   0.3663   0.3695
  0.4019   0.4164   0.4197   0.5251   0.5327   0.5711   0.6752   0.6983
  0.7024   0.7122   0.7124   0.7775   0.8127   0.8175   0.8177   0.8809
  0.9716   0.9993   1.0856   1.1083   1.1085   1.1168   1.1312   1.1320
  1.1522   1.1666   1.2123   1.2400   1.2409   1.2548   1.2655   1.2843
  1.4060   1.4217   1.5014   1.5264   1.6156   1.6423   1.6502   1.6567
  1.6992   1.7068   1.7103   1.7824   1.8273   1.8300   1.8526   1.8881
  1.9938   2.0824   2.2003   2.2634   2.2691   2.3266   2.4942   2.4982
  2.5104   2.5238   2.6042   2.7416   2.7882   2.8874   2.8969   2.9044
  3.0613   3.1137   3.1348   3.1416   3.1550   3.2790   3.3022   3.3934
  3.4074   3.4955   3.4994   3.5105   3.5384   3.5754   3.5928   3.6061
  3.6553   3.6987   3.7848   3.8011   4.0669   4.0705   4.0759   4.1370
  4.1933   4.2857   4.7582   5.1766   5.1809   5.1826   5.1872   5.1969
  5.1969   5.1971   5.2000   5.2189   5.2190   5.2679   5.2782   5.2840
  5.2902   5.3249   5.3572   5.3641   5.4073   5.4168   5.4411   5.5518
  5.5755   5.5892   5.6454   5.6592   5.6599   5.8132   5.8188   5.9657
  6.1323   6.2908   6.3370   6.3902   6.4298   6.7696   6.8910   6.9005
  6.9311   6.9417   7.0048   7.0151   7.0283   7.0331   7.0392   7.1006
  7.2387   7.3309   7.3574   7.3910   7.4291   7.4375   7.4378   7.4518
  7.6344   7.6876   7.7615   7.7672   7.8162   7.8267   7.8523  25.1091
 25.2269  50.6625  50.6956  50.7016  50.7184
 --------------------------------------------------------------
 
          Ground-State Mulliken Net Atomic Charges

     Atom                 Charge (a.u.)    Spin (a.u.)
  --------------------------------------------------------
      1 C                     0.362173       0.000000
      2 O                    -0.680207       0.000000
      3 C                     0.361437       0.000000
      4 O                    -0.681070       0.000000
      5 O                    -0.681018       0.000000
      6 O                    -0.681315       0.000000
  --------------------------------------------------------
  Sum of atomic charges =    -2.000000
  Sum of spin   charges =     0.000000

 -----------------------------------------------------------------
                    Cartesian Multipole Moments
 -----------------------------------------------------------------
    Charge (ESU x 10^10)
                -9.6064
    Dipole Moment (Debye)
         X     -16.9813      Y      -4.3211      Z      -0.9369
       Tot      17.5475
    Quadrupole Moments (Debye-Ang)
        XX     -90.3985     XY     -10.0371     YY     -58.2516
        XZ       2.6444     YZ       1.1331     ZZ     -38.5670
    Octopole Moments (Debye-Ang^2)
       XXX    -376.2924    XXY     -47.6224    XYY    -103.4251
       YYY     -75.8947    XXZ       0.9315    XYZ       8.6430
       YYZ       1.2933    XZZ     -65.8542    YZZ     -19.6238
       ZZZ     -11.4897
    Hexadecapole Moments (Debye-Ang^3)
      XXXX   -1658.7425   XXXY    -205.5174   XXYY    -310.1467
      XYYY    -179.6971   YYYY    -359.9931   XXXZ      13.3835
      XXYZ      25.6115   XYYZ      20.6160   YYYZ      17.4457
      XXZZ    -186.5596   XYZZ     -41.6895   YYZZ     -65.7245
      XZZZ       9.6126   YZZZ       5.2619   ZZZZ     -70.4047
 -----------------------------------------------------------------
 Calculating analytic gradient of the SCF energy
 Gradient of CDS energy
            1           2           3           4           5           6
    1  -0.0030653   0.0015641   0.0030784  -0.0000044  -0.0018042   0.0002315
    2  -0.0013907  -0.0013892   0.0013804  -0.0021353   0.0013246   0.0022101
    3   0.0006383  -0.0008404  -0.0006444   0.0007705  -0.0003919   0.0004678
 Gradient of SCF Energy
            1           2           3           4           5           6
    1  -0.0489364   0.0445920   0.0480846  -0.0164081  -0.0473337   0.0200016
    2  -0.0211983  -0.0176920   0.0216818  -0.0448882   0.0161741   0.0459226
    3   0.0103638  -0.0164835  -0.0104179   0.0150704  -0.0015283   0.0029956
 Max gradient component =       4.894E-02
 RMS gradient           =       2.977E-02
 Computing fast CPCM-SWIG gradient
 Updating gradient with PCM contributions...
 -- total gradient after adding PCM contribution --
---------------------------------------------------
  Atom         X              Y              Z     
---------------------------------------------------
   1      -0.001206       0.000030       0.000231
   2       0.000610      -0.000291      -0.000201
   3       0.000318       0.000070      -0.000018
   4      -0.000030      -0.000006      -0.000003
   5       0.000044       0.000030      -0.000008
   6       0.000264       0.000166      -0.000001
---------------------------------------------------
 Number of fixed atoms: 0
 Gradient time:  CPU 42.05 s  wall 6.69 s
 ----------------------------------------------------------------
             Standard Nuclear Orientation (Angstroms)
    I     Atom           X                Y                Z
 ----------------------------------------------------------------
    1      C       1.0678097916     0.1372203142     0.2446529700
    2      O       0.1854172623     0.9021318718     0.7054667393
    3      C       2.4665796809     0.7642631813    -0.0482674149
    4      O       2.4820646983     1.9480555495    -0.4675912507
    5      O       3.4710254581     0.0386643221     0.1571710786
    6      O       0.9295637088    -1.0874604390    -0.0028821221
 ----------------------------------------------------------------
 Nuclear Repulsion Energy =         209.58037174 hartrees
 There are       23 alpha and       23 beta electrons
 Discretize the solute cavity surface with Lebedev spheres
	Using 110 Lebedev grid points for each H atom
	Using 194 Lebedev grid points for other atoms
	Atomic van der Waals radii will be scaled by 1.20
 Remove points where switching function is < 1.0e-08
 Keep 705 surface tesserae and discard 459 interior tesserae
 Molecular Surface Area = 89.764 Angst**2

                       Distance Matrix (Angstroms)
             C (  1)   O (  2)   C (  3)   O (  4)   O (  5)
   O (  2)  1.255411
   C (  3)  1.560622  2.406413
   O (  4)  2.405521  2.782914  1.255960
   O (  5)  2.406826  3.441137  1.256029  2.239229
   O (  6)  1.257071  2.239194  2.406940  3.441013  2.784385
 
 Requested basis set is 6-311++G(2df,2p)
 There are 48 shells and 204 basis functions
 A cutoff of  1.0D-12 yielded   1114 shell pairs
 There are     20558 function pairs (     27091 Cartesian)
 Smallest overlap matrix eigenvalue = 1.67E-04
 Guess MOs from SCF MO coefficient file

 -----------------------------------------------------------------------
  General SCF calculation program by
  Eric Jon Sundstrom, Paul Horn, Yuezhi Mao, Dmitri Zuev, Alec White,
  David Stuck, Shaama M.S., Shane Yost, Joonho Lee, David Small,
  Daniel Levine, Susi Lehtola, Hugh Burton, Evgeny Epifanovsky,
  Bang C. Huynh
 -----------------------------------------------------------------------
 Exchange:     0.1500 Hartree-Fock + 1.0000 wB97M-V + LR-HF
 Correlation:  1.0000 wB97M-V
 Using SG-2 standard quadrature grid
 Nonlocal Correlation:  VV10 with C = 0.0100 and b = 6.00 and scale = 1.00000
 Grid used for NLC:  SG-1 standard quadrature
 
 Citation of the SMD model:
 Marenich, A.V.; Cramer, C.J.; Truhlar, D.G.
 J. Phys. Chem. B 2009, 113, 6378-6396.
 iSolventCode=           1
 Solvent: water                                                           
 
 vradii
            1           2           3           4           5           6
    1   1.8500000   1.5200000   1.8500000   1.5200000   1.5200000   1.5200000
 -------------------------------------------------------
 OpenMP BLAS3 based DFT computing Module                
 Release: version 1.0, May 2013, Q-Chem Inc. Pittsburgh 
 -------------------------------------------------------
 A unrestricted SCF calculation will be
 performed using Roothaan-Hall, DIIS, GDM
 SCF converges when RMS gradient is below 1.0e-07
 ---------------------------------------
  Cycle       Energy         DIIS error
 ---------------------------------------
    1    -377.1173389314      2.62e-04  Roothaan Step
 ---------------------------------------
  Cycle       Energy         DIIS error
 ---------------------------------------
    1    -377.4893348329      3.34e-04  
    2    -377.4930688497      3.35e-04  Done DIIS. Switching to GDM
 ---------------------------------------
  Cycle       Energy        RMS Gradient
 ---------------------------------------
    1    -377.4930688497      1.03e-02   Normal BFGS step
    2    -377.4930090910      1.33e-02  Line search: overstep
    3    -377.4944645219      3.21e-03   Normal BFGS step
    4    -377.4945465882      1.46e-03   Normal BFGS step
    5    -377.4945603581      2.31e-04   Normal BFGS step
    6    -377.4945610360      8.69e-05   Normal BFGS step
    7    -377.4945610918      4.86e-05   Normal BFGS step
    8    -377.4945611137      1.41e-05   Normal BFGS step
    9    -377.4945611171      2.95e-06   Normal BFGS step
   10    -377.4945611172      1.47e-06   Normal BFGS step
   11    -377.4945611172      5.55e-07   Normal BFGS step
   12    -377.4945611172      1.21e-07   Normal BFGS step
   13    -377.4945611172      3.80e-08  Convergence criterion met
 ---------------------------------------
 SCF time:   CPU 219.77s  wall 28.00s 
<S^2> =          0.000000000
(3)  G-ENP(liq) elect-nuc-pol free energy of system     -377.494561117 a.u.
(4)  G-CDS(liq) cavity-dispersion-solvent structure 
     free energy                                                5.4353 kcal/mol
(6)  G-S(liq) free energy of system                     -377.485899342 a.u.
 SCF   energy in the final basis set =     -377.4858993418
 Total energy in the final basis set =     -377.4858993418
 
 --------------------------------------------------------------
 
                    Orbital Energies (a.u.)
 --------------------------------------------------------------
 
 Alpha MOs
 -- Occupied --
-19.2814 -19.2813 -19.2813 -19.2812 -10.4324 -10.4323  -1.1781  -1.1471
 -1.0822  -1.0641  -0.7226  -0.5886  -0.5682  -0.5433  -0.5421  -0.5110
 -0.4858  -0.4232  -0.3753  -0.3690  -0.3678  -0.3381  -0.3254
 -- Virtual --
  0.0623   0.0804   0.0894   0.0896   0.0952   0.1202   0.1246   0.1300
  0.1726   0.1992   0.2152   0.2242   0.2719   0.2739   0.2820   0.2892
  0.3115   0.3156   0.3195   0.3218   0.3425   0.3512   0.3664   0.3695
  0.4020   0.4165   0.4197   0.5249   0.5322   0.5713   0.6752   0.6984
  0.7024   0.7122   0.7123   0.7774   0.8125   0.8175   0.8175   0.8810
  0.9714   0.9991   1.0858   1.1084   1.1085   1.1170   1.1313   1.1321
  1.1523   1.1667   1.2124   1.2400   1.2409   1.2547   1.2655   1.2843
  1.4061   1.4220   1.5010   1.5263   1.6157   1.6424   1.6503   1.6568
  1.6990   1.7067   1.7101   1.7824   1.8273   1.8304   1.8523   1.8880
  1.9941   2.0823   2.2004   2.2632   2.2691   2.3264   2.4942   2.4976
  2.5105   2.5238   2.6039   2.7420   2.7879   2.8869   2.8968   2.9042
  3.0619   3.1146   3.1342   3.1420   3.1548   3.2791   3.3022   3.3931
  3.4069   3.4951   3.4998   3.5105   3.5388   3.5754   3.5932   3.6054
  3.6550   3.6986   3.7855   3.8017   4.0673   4.0710   4.0779   4.1363
  4.1931   4.2859   4.7597   5.1766   5.1809   5.1826   5.1872   5.1969
  5.1969   5.1971   5.2000   5.2188   5.2190   5.2679   5.2781   5.2840
  5.2902   5.3250   5.3571   5.3636   5.4069   5.4164   5.4406   5.5517
  5.5750   5.5895   5.6451   5.6589   5.6601   5.8130   5.8186   5.9655
  6.1319   6.2900   6.3364   6.3883   6.4280   6.7676   6.8907   6.9004
  6.9311   6.9417   7.0047   7.0153   7.0283   7.0331   7.0390   7.1006
  7.2386   7.3303   7.3576   7.3905   7.4288   7.4367   7.4375   7.4514
  7.6330   7.6877   7.7615   7.7676   7.8159   7.8270   7.8521  25.1081
 25.2270  50.6622  50.6951  50.7012  50.7181
 
 Beta MOs
 -- Occupied --
-19.2814 -19.2813 -19.2813 -19.2812 -10.4324 -10.4323  -1.1781  -1.1471
 -1.0822  -1.0641  -0.7226  -0.5886  -0.5682  -0.5433  -0.5421  -0.5110
 -0.4858  -0.4232  -0.3753  -0.3690  -0.3678  -0.3381  -0.3254
 -- Virtual --
  0.0623   0.0804   0.0894   0.0896   0.0952   0.1202   0.1246   0.1300
  0.1726   0.1992   0.2152   0.2242   0.2719   0.2739   0.2820   0.2892
  0.3115   0.3156   0.3195   0.3218   0.3425   0.3512   0.3664   0.3695
  0.4020   0.4165   0.4197   0.5249   0.5322   0.5713   0.6752   0.6984
  0.7024   0.7122   0.7123   0.7774   0.8125   0.8175   0.8175   0.8810
  0.9714   0.9991   1.0858   1.1084   1.1085   1.1170   1.1313   1.1321
  1.1523   1.1667   1.2124   1.2400   1.2409   1.2547   1.2655   1.2843
  1.4061   1.4220   1.5010   1.5263   1.6157   1.6424   1.6503   1.6568
  1.6990   1.7067   1.7101   1.7824   1.8273   1.8304   1.8523   1.8880
  1.9941   2.0823   2.2004   2.2632   2.2691   2.3264   2.4942   2.4976
  2.5105   2.5238   2.6039   2.7420   2.7879   2.8869   2.8968   2.9042
  3.0619   3.1146   3.1342   3.1420   3.1548   3.2791   3.3022   3.3931
  3.4069   3.4951   3.4998   3.5105   3.5388   3.5754   3.5932   3.6054
  3.6550   3.6986   3.7855   3.8017   4.0673   4.0710   4.0779   4.1363
  4.1931   4.2859   4.7597   5.1766   5.1809   5.1826   5.1872   5.1969
  5.1969   5.1971   5.2000   5.2188   5.2190   5.2679   5.2781   5.2840
  5.2902   5.3250   5.3571   5.3636   5.4069   5.4164   5.4406   5.5517
  5.5750   5.5895   5.6451   5.6589   5.6601   5.8130   5.8186   5.9655
  6.1319   6.2900   6.3364   6.3883   6.4280   6.7676   6.8907   6.9004
  6.9311   6.9417   7.0047   7.0153   7.0283   7.0331   7.0390   7.1006
  7.2386   7.3303   7.3576   7.3905   7.4288   7.4367   7.4375   7.4514
  7.6330   7.6877   7.7615   7.7676   7.8159   7.8270   7.8521  25.1081
 25.2270  50.6622  50.6951  50.7012  50.7181
 --------------------------------------------------------------
 
          Ground-State Mulliken Net Atomic Charges

     Atom                 Charge (a.u.)    Spin (a.u.)
  --------------------------------------------------------
      1 C                     0.362460       0.000000
      2 O                    -0.679985       0.000000
      3 C                     0.361872       0.000000
      4 O                    -0.680944       0.000000
      5 O                    -0.680904       0.000000
      6 O                    -0.682499       0.000000
  --------------------------------------------------------
  Sum of atomic charges =    -2.000000
  Sum of spin   charges =     0.000000

 -----------------------------------------------------------------
                    Cartesian Multipole Moments
 -----------------------------------------------------------------
    Charge (ESU x 10^10)
                -9.6064
    Dipole Moment (Debye)
         X     -16.9759      Y      -4.3093      Z      -0.9355
       Tot      17.5392
    Quadrupole Moments (Debye-Ang)
        XX     -90.3749     XY     -10.0224     YY     -58.2527
        XZ       2.6448     YZ       1.1337     ZZ     -38.5662
    Octopole Moments (Debye-Ang^2)
       XXX    -376.2237    XXY     -47.5932    XYY    -103.4241
       YYY     -75.8775    XXZ       0.9356    XYZ       8.6421
       YYZ       1.2921    XZZ     -65.8553    YZZ     -19.6182
       ZZZ     -11.4854
    Hexadecapole Moments (Debye-Ang^3)
      XXXX   -1658.4563   XXXY    -205.4511   XXYY    -310.1243
      XYYY    -179.6534   YYYY    -359.9964   XXXZ      13.3878
      XXYZ      25.6089   XYYZ      20.6118   YYYZ      17.4362
      XXZZ    -186.5469   XYZZ     -41.6816   YYZZ     -65.7272
      XZZZ       9.6083   YZZZ       5.2582   ZZZZ     -70.3969
 -----------------------------------------------------------------
 Calculating analytic gradient of the SCF energy
 Gradient of CDS energy
            1           2           3           4           5           6
    1  -0.0030695   0.0015670   0.0030760  -0.0000043  -0.0018043   0.0002352
    2  -0.0014143  -0.0013899   0.0013790  -0.0021354   0.0013245   0.0022362
    3   0.0006339  -0.0008413  -0.0006441   0.0007705  -0.0003919   0.0004730
 Gradient of SCF Energy
            1           2           3           4           5           6
    1  -0.0483473   0.0445047   0.0477924  -0.0164208  -0.0473662   0.0198372
    2  -0.0200703  -0.0176978   0.0215223  -0.0449083   0.0161999   0.0449543
    3   0.0104361  -0.0164379  -0.0103703   0.0150806  -0.0015270   0.0028186
 Max gradient component =       4.835E-02
 RMS gradient           =       2.955E-02
 Computing fast CPCM-SWIG gradient
 Updating gradient with PCM contributions...
 -- total gradient after adding PCM contribution --
---------------------------------------------------
  Atom         X              Y              Z     
---------------------------------------------------
   1      -0.000199       0.001319       0.000221
   2       0.000259      -0.000349      -0.000117
   3      -0.000039      -0.000154       0.000007
   4      -0.000042      -0.000015       0.000026
   5       0.000072       0.000032      -0.000005
   6      -0.000051      -0.000833      -0.000132
---------------------------------------------------
 Number of fixed atoms: 0
 Gradient time:  CPU 40.58 s  wall 5.99 s
 ----------------------------------------------------------------
             Standard Nuclear Orientation (Angstroms)
    I     Atom           X                Y                Z
 ----------------------------------------------------------------
    1      C       1.0678097916     0.1352203142     0.2446529700
    2      O       0.1854172623     0.9021318718     0.7054667393
    3      C       2.4665796809     0.7642631813    -0.0482674149
    4      O       2.4820646983     1.9480555495    -0.4675912507
    5      O       3.4710254581     0.0386643221     0.1571710786
    6      O       0.9295637088    -1.0874604390    -0.0028821221
 ----------------------------------------------------------------
 Nuclear Repulsion Energy =         209.57956082 hartrees
 There are       23 alpha and       23 beta electrons
 Discretize the solute cavity surface with Lebedev spheres
	Using 110 Lebedev grid points for each H atom
	Using 194 Lebedev grid points for other atoms
	Atomic van der Waals radii will be scaled by 1.20
 Remove points where switching function is < 1.0e-08
 Keep 705 surface tesserae and discard 459 interior tesserae
 Molecular Surface Area = 89.766 Angst**2

                       Distance Matrix (Angstroms)
             C (  1)   O (  2)   C (  3)   O (  4)   O (  5)
   O (  2)  1.256630
   C (  3)  1.561427  2.406413
   O (  4)  2.407027  2.782914  1.255960
   O (  5)  2.406745  3.441137  1.256029  2.239229
   O (  6)  1.255123  2.239194  2.406940  3.441013  2.784385
 
 Requested basis set is 6-311++G(2df,2p)
 There are 48 shells and 204 basis functions
 A cutoff of  1.0D-12 yielded   1114 shell pairs
 There are     20558 function pairs (     27091 Cartesian)
 Smallest overlap matrix eigenvalue = 1.67E-04
 Guess MOs from SCF MO coefficient file

 -----------------------------------------------------------------------
  General SCF calculation program by
  Eric Jon Sundstrom, Paul Horn, Yuezhi Mao, Dmitri Zuev, Alec White,
  David Stuck, Shaama M.S., Shane Yost, Joonho Lee, David Small,
  Daniel Levine, Susi Lehtola, Hugh Burton, Evgeny Epifanovsky,
  Bang C. Huynh
 -----------------------------------------------------------------------
 Exchange:     0.1500 Hartree-Fock + 1.0000 wB97M-V + LR-HF
 Correlation:  1.0000 wB97M-V
 Using SG-2 standard quadrature grid
 Nonlocal Correlation:  VV10 with C = 0.0100 and b = 6.00 and scale = 1.00000
 Grid used for NLC:  SG-1 standard quadrature
 
 Citation of the SMD model:
 Marenich, A.V.; Cramer, C.J.; Truhlar, D.G.
 J. Phys. Chem. B 2009, 113, 6378-6396.
 iSolventCode=           1
 Solvent: water                                                           
 
 vradii
            1           2           3           4           5           6
    1   1.8500000   1.5200000   1.8500000   1.5200000   1.5200000   1.5200000
 -------------------------------------------------------
 OpenMP BLAS3 based DFT computing Module                
 Release: version 1.0, May 2013, Q-Chem Inc. Pittsburgh 
 -------------------------------------------------------
 A unrestricted SCF calculation will be
 performed using Roothaan-Hall, DIIS, GDM
 SCF converges when RMS gradient is below 1.0e-07
 ---------------------------------------
  Cycle       Energy         DIIS error
 ---------------------------------------
    1    -377.1173370405      2.63e-04  Roothaan Step
 ---------------------------------------
  Cycle       Energy         DIIS error
 ---------------------------------------
    1    -377.4893649059      3.32e-04  
    2    -377.4931022881      3.31e-04  Done DIIS. Switching to GDM
 ---------------------------------------
  Cycle       Energy        RMS Gradient
 ---------------------------------------
    1    -377.4931022881      1.02e-02   Normal BFGS step
    2    -377.4930524532      1.30e-02  Line search: overstep
    3    -377.4944700696      3.19e-03   Normal BFGS step
    4    -377.4945516852      1.45e-03   Normal BFGS step
    5    -377.4945653746      2.33e-04   Normal BFGS step
    6    -377.4945660491      8.57e-05   Normal BFGS step
    7    -377.4945660966      5.75e-05   Normal BFGS step
    8    -377.4945661347      7.27e-06   Normal BFGS step
    9    -377.4945661361      2.96e-06   Normal BFGS step
   10    -377.4945661361      1.05e-06   Normal BFGS step
   11    -377.4945661362      3.86e-07   Normal BFGS step
   12    -377.4945661362      1.08e-07   Normal BFGS step
   13    -377.4945661362      5.17e-08  Convergence criterion met
 ---------------------------------------
 SCF time:   CPU 232.26s  wall 31.00s 
<S^2> =         -0.000000000
(3)  G-ENP(liq) elect-nuc-pol free energy of system     -377.494566136 a.u.
(4)  G-CDS(liq) cavity-dispersion-solvent structure 
     free energy                                                5.4386 kcal/mol
(6)  G-S(liq) free energy of system                     -377.485899134 a.u.
 SCF   energy in the final basis set =     -377.4858991341
 Total energy in the final basis set =     -377.4858991341
 
 --------------------------------------------------------------
 
                    Orbital Energies (a.u.)
 --------------------------------------------------------------
 
 Alpha MOs
 -- Occupied --
-19.2815 -19.2813 -19.2813 -19.2811 -10.4324 -10.4322  -1.1781  -1.1472
 -1.0823  -1.0642  -0.7223  -0.5886  -0.5682  -0.5433  -0.5421  -0.5111
 -0.4859  -0.4232  -0.3754  -0.3690  -0.3679  -0.3381  -0.3253
 -- Virtual --
  0.0623   0.0804   0.0896   0.0896   0.0952   0.1203   0.1246   0.1300
  0.1726   0.1993   0.2152   0.2242   0.2719   0.2739   0.2820   0.2892
  0.3115   0.3156   0.3195   0.3218   0.3425   0.3512   0.3663   0.3695
  0.4019   0.4164   0.4197   0.5251   0.5325   0.5712   0.6752   0.6983
  0.7024   0.7122   0.7124   0.7774   0.8126   0.8175   0.8177   0.8809
  0.9715   0.9993   1.0857   1.1083   1.1085   1.1169   1.1313   1.1320
  1.1523   1.1667   1.2123   1.2400   1.2409   1.2547   1.2655   1.2843
  1.4061   1.4218   1.5013   1.5264   1.6157   1.6424   1.6503   1.6567
  1.6992   1.7068   1.7102   1.7824   1.8273   1.8302   1.8525   1.8881
  1.9939   2.0824   2.2003   2.2633   2.2691   2.3266   2.4942   2.4980
  2.5104   2.5238   2.6041   2.7417   2.7881   2.8872   2.8969   2.9043
  3.0615   3.1140   3.1345   3.1418   3.1549   3.2790   3.3022   3.3932
  3.4072   3.4954   3.4995   3.5105   3.5385   3.5754   3.5930   3.6058
  3.6552   3.6987   3.7851   3.8013   4.0669   4.0708   4.0767   4.1367
  4.1932   4.2858   4.7587   5.1766   5.1809   5.1826   5.1872   5.1969
  5.1969   5.1971   5.2000   5.2188   5.2190   5.2679   5.2781   5.2840
  5.2902   5.3249   5.3571   5.3639   5.4071   5.4167   5.4409   5.5518
  5.5753   5.5893   5.6453   5.6591   5.6600   5.8131   5.8187   5.9656
  6.1322   6.2905   6.3368   6.3895   6.4291   6.7689   6.8909   6.9005
  6.9311   6.9417   7.0048   7.0152   7.0283   7.0331   7.0391   7.1006
  7.2387   7.3307   7.3575   7.3908   7.4290   7.4372   7.4377   7.4516
  7.6338   7.6876   7.7615   7.7674   7.8161   7.8268   7.8522  25.1087
 25.2269  50.6624  50.6954  50.7014  50.7183
 
 Beta MOs
 -- Occupied --
-19.2815 -19.2813 -19.2813 -19.2811 -10.4324 -10.4322  -1.1781  -1.1472
 -1.0823  -1.0642  -0.7223  -0.5886  -0.5682  -0.5433  -0.5421  -0.5111
 -0.4859  -0.4232  -0.3754  -0.3690  -0.3679  -0.3381  -0.3253
 -- Virtual --
  0.0623   0.0804   0.0896   0.0896   0.0952   0.1203   0.1246   0.1300
  0.1726   0.1993   0.2152   0.2242   0.2719   0.2739   0.2820   0.2892
  0.3115   0.3156   0.3195   0.3218   0.3425   0.3512   0.3663   0.3695
  0.4019   0.4164   0.4197   0.5251   0.5325   0.5712   0.6752   0.6983
  0.7024   0.7122   0.7124   0.7774   0.8126   0.8175   0.8177   0.8809
  0.9715   0.9993   1.0857   1.1083   1.1085   1.1169   1.1313   1.1320
  1.1523   1.1667   1.2123   1.2400   1.2409   1.2547   1.2655   1.2843
  1.4061   1.4218   1.5013   1.5264   1.6157   1.6424   1.6503   1.6567
  1.6992   1.7068   1.7102   1.7824   1.8273   1.8302   1.8525   1.8881
  1.9939   2.0824   2.2003   2.2633   2.2691   2.3266   2.4942   2.4980
  2.5104   2.5238   2.6041   2.7417   2.7881   2.8872   2.8969   2.9043
  3.0615   3.1140   3.1345   3.1418   3.1549   3.2790   3.3022   3.3932
  3.4072   3.4954   3.4995   3.5105   3.5385   3.5754   3.5930   3.6058
  3.6552   3.6987   3.7851   3.8013   4.0669   4.0708   4.0767   4.1367
  4.1932   4.2858   4.7587   5.1766   5.1809   5.1826   5.1872   5.1969
  5.1969   5.1971   5.2000   5.2188   5.2190   5.2679   5.2781   5.2840
  5.2902   5.3249   5.3571   5.3639   5.4071   5.4167   5.4409   5.5518
  5.5753   5.5893   5.6453   5.6591   5.6600   5.8131   5.8187   5.9656
  6.1322   6.2905   6.3368   6.3895   6.4291   6.7689   6.8909   6.9005
  6.9311   6.9417   7.0048   7.0152   7.0283   7.0331   7.0391   7.1006
  7.2387   7.3307   7.3575   7.3908   7.4290   7.4372   7.4377   7.4516
  7.6338   7.6876   7.7615   7.7674   7.8161   7.8268   7.8522  25.1087
 25.2269  50.6624  50.6954  50.7014  50.7183
 --------------------------------------------------------------
 
          Ground-State Mulliken Net Atomic Charges

     Atom                 Charge (a.u.)    Spin (a.u.)
  --------------------------------------------------------
      1 C                     0.362282       0.000000
      2 O                    -0.681966       0.000000
      3 C                     0.361604       0.000000
      4 O                    -0.681036       0.000000
      5 O                    -0.680961       0.000000
      6 O                    -0.679923       0.000000
  --------------------------------------------------------
  Sum of atomic charges =    -2.000000
  Sum of spin   charges =     0.000000

 -----------------------------------------------------------------
                    Cartesian Multipole Moments
 -----------------------------------------------------------------
    Charge (ESU x 10^10)
                -9.6064
    Dipole Moment (Debye)
         X     -16.9714      Y      -4.3374      Z      -0.9435
       Tot      17.5423
    Quadrupole Moments (Debye-Ang)
        XX     -90.3820     XY     -10.0431     YY     -58.2473
        XZ       2.6427     YZ       1.1261     ZZ     -38.5714
    Octopole Moments (Debye-Ang^2)
       XXX    -376.2634    XXY     -47.6238    XYY    -103.4122
       YYY     -75.9175    XXZ       0.9253    XYZ       8.6371
       YYZ       1.2832    XZZ     -65.8519    YZZ     -19.6363
       ZZZ     -11.5124
    Hexadecapole Moments (Debye-Ang^3)
      XXXX   -1658.7066   XXXY    -205.4892   XXYY    -310.1112
      XYYY    -179.6787   YYYY    -359.9537   XXXZ      13.3680
      XXYZ      25.5992   XYYZ      20.6059   YYYZ      17.4249
      XXZZ    -186.5561   XYZZ     -41.6912   YYZZ     -65.7245
      XZZZ       9.6007   YZZZ       5.2449   ZZZZ     -70.4318
 -----------------------------------------------------------------
 Calculating analytic gradient of the SCF energy
 Gradient of CDS energy
            1           2           3           4           5           6
    1  -0.0030851   0.0015864   0.0030771  -0.0000048  -0.0018040   0.0002304
    2  -0.0013516  -0.0014088   0.0013808  -0.0021353   0.0013249   0.0021901
    3   0.0006525  -0.0008513  -0.0006441   0.0007706  -0.0003920   0.0004643
 Gradient of SCF Energy
            1           2           3           4           5           6
    1  -0.0479883   0.0437187   0.0479424  -0.0163852  -0.0473418   0.0200542
    2  -0.0227051  -0.0169490   0.0217075  -0.0449256   0.0161440   0.0467283
    3   0.0097099  -0.0160434  -0.0103637   0.0150720  -0.0015258   0.0031510
 Max gradient component =       4.799E-02
 RMS gradient           =       2.968E-02
 Computing fast CPCM-SWIG gradient
 Updating gradient with PCM contributions...
 -- total gradient after adding PCM contribution --
---------------------------------------------------
  Atom         X              Y              Z     
---------------------------------------------------
   1      -0.000035      -0.001433      -0.000187
   2      -0.000213       0.000395       0.000128
   3       0.000109       0.000151       0.000000
   4       0.000031       0.000058      -0.000030
   5      -0.000045       0.000023      -0.000011
   6       0.000153       0.000806       0.000100
---------------------------------------------------
 Number of fixed atoms: 0
 Gradient time:  CPU 43.47 s  wall 6.35 s
 ----------------------------------------------------------------
             Standard Nuclear Orientation (Angstroms)
    I     Atom           X                Y                Z
 ----------------------------------------------------------------
    1      C       1.0678097916     0.1362203142     0.2456529700
    2      O       0.1854172623     0.9021318718     0.7054667393
    3      C       2.4665796809     0.7642631813    -0.0482674149
    4      O       2.4820646983     1.9480555495    -0.4675912507
    5      O       3.4710254581     0.0386643221     0.1571710786
    6      O       0.9295637088    -1.0874604390    -0.0028821221
 ----------------------------------------------------------------
 Nuclear Repulsion Energy =         209.57975170 hartrees
 There are       23 alpha and       23 beta electrons
 Discretize the solute cavity surface with Lebedev spheres
	Using 110 Lebedev grid points for each H atom
	Using 194 Lebedev grid points for other atoms
	Atomic van der Waals radii will be scaled by 1.20
 Remove points where switching function is < 1.0e-08
 Keep 706 surface tesserae and discard 458 interior tesserae
 Molecular Surface Area = 89.767 Angst**2

                       Distance Matrix (Angstroms)
             C (  1)   O (  2)   C (  3)   O (  4)   O (  5)
   O (  2)  1.255654
   C (  3)  1.561212  2.406413
   O (  4)  2.406570  2.782914  1.255960
   O (  5)  2.406822  3.441137  1.256029  2.239229
   O (  6)  1.256295  2.239194  2.406940  3.441013  2.784385
 
 Requested basis set is 6-311++G(2df,2p)
 There are 48 shells and 204 basis functions
 A cutoff of  1.0D-12 yielded   1114 shell pairs
 There are     20558 function pairs (     27091 Cartesian)
 Smallest overlap matrix eigenvalue = 1.67E-04
 Guess MOs from SCF MO coefficient file

 -----------------------------------------------------------------------
  General SCF calculation program by
  Eric Jon Sundstrom, Paul Horn, Yuezhi Mao, Dmitri Zuev, Alec White,
  David Stuck, Shaama M.S., Shane Yost, Joonho Lee, David Small,
  Daniel Levine, Susi Lehtola, Hugh Burton, Evgeny Epifanovsky,
  Bang C. Huynh
 -----------------------------------------------------------------------
 Exchange:     0.1500 Hartree-Fock + 1.0000 wB97M-V + LR-HF
 Correlation:  1.0000 wB97M-V
 Using SG-2 standard quadrature grid
 Nonlocal Correlation:  VV10 with C = 0.0100 and b = 6.00 and scale = 1.00000
 Grid used for NLC:  SG-1 standard quadrature
 
 Citation of the SMD model:
 Marenich, A.V.; Cramer, C.J.; Truhlar, D.G.
 J. Phys. Chem. B 2009, 113, 6378-6396.
 iSolventCode=           1
 Solvent: water                                                           
 
 vradii
            1           2           3           4           5           6
    1   1.8500000   1.5200000   1.8500000   1.5200000   1.5200000   1.5200000
 -------------------------------------------------------
 OpenMP BLAS3 based DFT computing Module                
 Release: version 1.0, May 2013, Q-Chem Inc. Pittsburgh 
 -------------------------------------------------------
 A unrestricted SCF calculation will be
 performed using Roothaan-Hall, DIIS, GDM
 SCF converges when RMS gradient is below 1.0e-07
 ---------------------------------------
  Cycle       Energy         DIIS error
 ---------------------------------------
    1    -377.1173426396      2.62e-04  Roothaan Step
 ---------------------------------------
  Cycle       Energy         DIIS error
 ---------------------------------------
    1    -377.4893521410      3.33e-04  
    2    -377.4930884884      3.33e-04  Done DIIS. Switching to GDM
 ---------------------------------------
  Cycle       Energy        RMS Gradient
 ---------------------------------------
    1    -377.4930884884      1.03e-02   Normal BFGS step
    2    -377.4930344048      1.31e-02  Line search: overstep
    3    -377.4944693188      3.20e-03   Normal BFGS step
    4    -377.4945511618      1.46e-03   Normal BFGS step
    5    -377.4945648905      2.31e-04   Normal BFGS step
    6    -377.4945655680      8.70e-05   Normal BFGS step
    7    -377.4945656275      4.53e-05   Normal BFGS step
    8    -377.4945656412      1.99e-05   Normal BFGS step
    9    -377.4945656461      2.70e-06   Normal BFGS step
   10    -377.4945656462      1.36e-06   Normal BFGS step
   11    -377.4945656462      4.43e-07   Normal BFGS step
   12    -377.4945656462      1.15e-07   Normal BFGS step
   13    -377.4945656462      5.70e-08  Convergence criterion met
 ---------------------------------------
 SCF time:   CPU 226.53s  wall 29.00s 
<S^2> =          0.000000000
(3)  G-ENP(liq) elect-nuc-pol free energy of system     -377.494565646 a.u.
(4)  G-CDS(liq) cavity-dispersion-solvent structure 
     free energy                                                5.4378 kcal/mol
(6)  G-S(liq) free energy of system                     -377.485900018 a.u.
 SCF   energy in the final basis set =     -377.4859000183
 Total energy in the final basis set =     -377.4859000183
 
 --------------------------------------------------------------
 
                    Orbital Energies (a.u.)
 --------------------------------------------------------------
 
 Alpha MOs
 -- Occupied --
-19.2813 -19.2813 -19.2813 -19.2813 -10.4324 -10.4323  -1.1781  -1.1472
 -1.0823  -1.0642  -0.7224  -0.5886  -0.5682  -0.5433  -0.5421  -0.5110
 -0.4859  -0.4232  -0.3754  -0.3690  -0.3678  -0.3381  -0.3253
 -- Virtual --
  0.0623   0.0804   0.0895   0.0896   0.0952   0.1202   0.1246   0.1300
  0.1726   0.1993   0.2152   0.2242   0.2719   0.2739   0.2820   0.2892
  0.3115   0.3156   0.3195   0.3218   0.3425   0.3512   0.3663   0.3695
  0.4019   0.4165   0.4197   0.5250   0.5324   0.5712   0.6752   0.6983
  0.7024   0.7121   0.7124   0.7774   0.8126   0.8175   0.8176   0.8809
  0.9715   0.9992   1.0857   1.1084   1.1085   1.1169   1.1313   1.1320
  1.1523   1.1667   1.2123   1.2400   1.2409   1.2547   1.2655   1.2843
  1.4061   1.4219   1.5012   1.5264   1.6157   1.6424   1.6503   1.6567
  1.6991   1.7068   1.7102   1.7824   1.8273   1.8302   1.8524   1.8880
  1.9940   2.0823   2.2003   2.2633   2.2691   2.3265   2.4942   2.4979
  2.5104   2.5238   2.6040   2.7418   2.7881   2.8871   2.8968   2.9043
  3.0616   3.1142   3.1344   3.1419   3.1549   3.2791   3.3022   3.3932
  3.4072   3.4953   3.4996   3.5105   3.5386   3.5754   3.5930   3.6057
  3.6551   3.6986   3.7852   3.8014   4.0671   4.0707   4.0770   4.1366
  4.1932   4.2858   4.7590   5.1766   5.1809   5.1826   5.1872   5.1969
  5.1969   5.1971   5.2000   5.2188   5.2190   5.2679   5.2781   5.2840
  5.2902   5.3250   5.3571   5.3638   5.4071   5.4166   5.4408   5.5518
  5.5752   5.5894   5.6453   5.6591   5.6600   5.8131   5.8187   5.9656
  6.1321   6.2904   6.3367   6.3892   6.4288   6.7685   6.8909   6.9004
  6.9311   6.9417   7.0048   7.0152   7.0283   7.0331   7.0391   7.1006
  7.2386   7.3306   7.3575   7.3907   7.4289   7.4370   7.4377   7.4516
  7.6336   7.6877   7.7615   7.7674   7.8160   7.8269   7.8522  25.1086
 25.2269  50.6624  50.6953  50.7014  50.7182
 
 Beta MOs
 -- Occupied --
-19.2813 -19.2813 -19.2813 -19.2813 -10.4324 -10.4323  -1.1781  -1.1472
 -1.0823  -1.0642  -0.7224  -0.5886  -0.5682  -0.5433  -0.5421  -0.5110
 -0.4859  -0.4232  -0.3754  -0.3690  -0.3678  -0.3381  -0.3253
 -- Virtual --
  0.0623   0.0804   0.0895   0.0896   0.0952   0.1202   0.1246   0.1300
  0.1726   0.1993   0.2152   0.2242   0.2719   0.2739   0.2820   0.2892
  0.3115   0.3156   0.3195   0.3218   0.3425   0.3512   0.3663   0.3695
  0.4019   0.4165   0.4197   0.5250   0.5324   0.5712   0.6752   0.6983
  0.7024   0.7121   0.7124   0.7774   0.8126   0.8175   0.8176   0.8809
  0.9715   0.9992   1.0857   1.1084   1.1085   1.1169   1.1313   1.1320
  1.1523   1.1667   1.2123   1.2400   1.2409   1.2547   1.2655   1.2843
  1.4061   1.4219   1.5012   1.5264   1.6157   1.6424   1.6503   1.6567
  1.6991   1.7068   1.7102   1.7824   1.8273   1.8302   1.8524   1.8880
  1.9940   2.0823   2.2003   2.2633   2.2691   2.3265   2.4942   2.4979
  2.5104   2.5238   2.6040   2.7418   2.7881   2.8871   2.8968   2.9043
  3.0616   3.1142   3.1344   3.1419   3.1549   3.2791   3.3022   3.3932
  3.4072   3.4953   3.4996   3.5105   3.5386   3.5754   3.5930   3.6057
  3.6551   3.6986   3.7852   3.8014   4.0671   4.0707   4.0770   4.1366
  4.1932   4.2858   4.7590   5.1766   5.1809   5.1826   5.1872   5.1969
  5.1969   5.1971   5.2000   5.2188   5.2190   5.2679   5.2781   5.2840
  5.2902   5.3250   5.3571   5.3638   5.4071   5.4166   5.4408   5.5518
  5.5752   5.5894   5.6453   5.6591   5.6600   5.8131   5.8187   5.9656
  6.1321   6.2904   6.3367   6.3892   6.4288   6.7685   6.8909   6.9004
  6.9311   6.9417   7.0048   7.0152   7.0283   7.0331   7.0391   7.1006
  7.2386   7.3306   7.3575   7.3907   7.4289   7.4370   7.4377   7.4516
  7.6336   7.6877   7.7615   7.7674   7.8160   7.8269   7.8522  25.1086
 25.2269  50.6624  50.6953  50.7014  50.7182
 --------------------------------------------------------------
 
          Ground-State Mulliken Net Atomic Charges

     Atom                 Charge (a.u.)    Spin (a.u.)
  --------------------------------------------------------
      1 C                     0.362325       0.000000
      2 O                    -0.680542       0.000000
      3 C                     0.361678       0.000000
      4 O                    -0.681008       0.000000
      5 O                    -0.680949       0.000000
      6 O                    -0.681504       0.000000
  --------------------------------------------------------
  Sum of atomic charges =    -2.000000
  Sum of spin   charges =     0.000000

 -----------------------------------------------------------------
                    Cartesian Multipole Moments
 -----------------------------------------------------------------
    Charge (ESU x 10^10)
                -9.6064
    Dipole Moment (Debye)
         X     -16.9761      Y      -4.3195      Z      -0.9360
       Tot      17.5420
    Quadrupole Moments (Debye-Ang)
        XX     -90.3843     XY     -10.0303     YY     -58.2495
        XZ       2.6468     YZ       1.1319     ZZ     -38.5670
    Octopole Moments (Debye-Ang^2)
       XXX    -376.2671    XXY     -47.6016    XYY    -103.4194
       YYY     -75.8824    XXZ       0.9321    XYZ       8.6421
       YYZ       1.2832    XZZ     -65.8545    YZZ     -19.6247
       ZZZ     -11.5079
    Hexadecapole Moments (Debye-Ang^3)
      XXXX   -1658.6717   XXXY    -205.4543   XXYY    -310.1158
[...]
   15   0.0642361  -0.0713916   0.0457586   0.0019714   0.0036655  -0.0024753
   16  -0.0088255  -0.0049675   0.0019714   0.0992778   0.0470608  -0.0089920
   17  -0.0105064   0.0046357   0.0036655   0.0470608   0.5675640   0.1134283
   18   0.0037295  -0.0005639  -0.0024753  -0.0089920   0.1134283   0.0536464
 ----------------------------------------------------------------
             Standard Nuclear Orientation (Angstroms)
    I     Atom           X                Y                Z
 ----------------------------------------------------------------
    1      C       1.0678097916     0.1362203142     0.2446529700
    2      O       0.1854172623     0.9021318718     0.7054667393
    3      C       2.4665796809     0.7642631813    -0.0482674149
    4      O       2.4820646983     1.9480555495    -0.4675912507
    5      O       3.4710254581     0.0386643221     0.1571710786
    6      O       0.9295637088    -1.0874604390    -0.0028821221
 ----------------------------------------------------------------
 Nuclear Repulsion Energy =         209.57995526 hartrees
 There are       23 alpha and       23 beta electrons
 old dipole drv.
            1           2           3           4           5           6
    1   1.5931692  -0.4638283  -0.5167433  -1.6169417   0.3792872   0.3884307
    2  -0.4683518   2.9189920   0.7987024   0.7926938  -1.5776608  -0.4743439
    3  -0.5346356   0.8358353   0.7305461   0.4733200  -0.3500780  -0.9243958
            7           8           9          10          11          12
    1   1.8635085  -0.7305864   0.2011361  -1.0115221   0.2573241  -0.0810561
    2  -0.7249113   2.7110243  -0.8350593  -0.1581928  -2.2219106   0.5620970
    3   0.2192084  -0.8725412   0.6618574   0.0513770   0.5339024  -0.8844430
           13          14          15          16          17          18
    1  -1.8449128   0.4633947  -0.1114740  -0.9833273   0.0944175   0.1196733
    2   0.8804495  -1.4970511   0.2522571  -0.3216822  -2.3333865  -0.3036678
    3  -0.2451146   0.2792715  -0.7792968   0.0358550  -0.4263652  -0.8042787
 New transposed dipole drv.
            1           2           3
    1   1.5931692  -0.4683518  -0.5346356
    2  -0.4638283   2.9189920   0.8358353
    3  -0.5167433   0.7987024   0.7305461
    4  -1.6169417   0.7926938   0.4733200
    5   0.3792872  -1.5776608  -0.3500780
    6   0.3884307  -0.4743439  -0.9243958
    7   1.8635085  -0.7249113   0.2192084
    8  -0.7305864   2.7110243  -0.8725412
    9   0.2011361  -0.8350593   0.6618574
   10  -1.0115221  -0.1581928   0.0513770
   11   0.2573241  -2.2219106   0.5339024
   12  -0.0810561   0.5620970  -0.8844430
   13  -1.8449128   0.8804495  -0.2451146
   14   0.4633947  -1.4970511   0.2792715
   15  -0.1114740   0.2522571  -0.7792968
   16  -0.9833273  -0.3216822   0.0358550
   17   0.0944175  -2.3333865  -0.4263652
   18   0.1196733  -0.3036678  -0.8042787
FINAL TENSOR RESULT:
Order 2, Length 18
    Atom      X          Y          Z
     1 Order 1, Length 18
    Atom      X          Y          Z
     1    5.771054867036127e-01  -4.349308030406287e-02  -1.127582915067832e-01
     2   -3.105842514440060e-01   1.656500512481067e-01   1.091908569554871e-01
     3   -1.500981392898228e-01  -3.831809511949849e-02   1.149914742945123e-02
     4    1.272697644857415e-02   1.452602749112308e-02   1.760361403201334e-04
     5   -1.619701488526104e-02  -1.492434629519466e-03   1.385535394351314e-04
     6   -1.129528884799678e-01  -9.687270596504743e-02  -8.243687096025232e-03

Order 1, Length 18
    Atom      X          Y          Z
     1   -4.349308030406287e-02   7.280338833434853e-01   1.078763748566612e-01
     2    1.249803855560821e-01  -1.968465905960168e-01  -6.483060880789721e-02
     3   -3.928252633762601e-02  -8.074946672273817e-02   1.694131373837970e-03
     4   -1.923137451524238e-02  -1.913704451720599e-02   1.495037274396774e-02
     5    3.096371729437106e-02   2.383045709110220e-03   1.628424497283377e-03
     6   -5.393921817070112e-02  -4.336895308381500e-01  -6.131347643009868e-02

Order 1, Length 18
    Atom      X          Y          Z
     1   -1.127582915067832e-01   1.078763748566612e-01   2.724656703201878e-01
     2    1.115892768203442e-01  -7.979135670510111e-02  -1.204396625309518e-01
     3    8.254972044725544e-03   8.982069129070562e-03  -1.112507807735316e-01
     4    1.466318560332668e-02   1.740011495666918e-02   1.590468508520564e-02
     5   -1.643477846839186e-02   4.039369125770577e-03   2.370457637069824e-02
     6   -5.314679449885585e-03  -5.850712018019547e-02  -8.038512834129358e-02


     2 Order 1, Length 18
    Atom      X          Y          Z
     1   -3.105842514440060e-01   1.249803855560821e-01   1.115892768203442e-01
     2    3.278606987550701e-01  -2.093156373790345e-01  -1.471834727771210e-01
     3   -6.722785291628518e-03   3.137594497234679e-02   2.420891759742269e-02
     4   -9.871022956682282e-03  -1.131864937957549e-02   4.102577404066113e-04
     5   -2.418847877137893e-02  -3.538525630058533e-04  -2.689831875252860e-03
     6    2.350589626469757e-02   6.463160836174757e-02   1.366363342706325e-02

Order 1, Length 18
    Atom      X          Y          Z
     1    1.656500512481067e-01  -1.968465905960168e-01  -7.979135670510111e-02
     2   -2.093156373790345e-01   2.923900999618124e-01   1.266434370321466e-01
     3   -1.671384477409740e-03   1.158114994016875e-03  -1.072577357559423e-03
     4   -4.500946935700621e-03   4.615792857878994e-03   1.497793259598879e-03
     5    5.048359022326369e-04   2.357511074743683e-03  -9.291645313268902e-05
     6    4.933280144197653e-02  -1.036736455990027e-01  -4.718538819855460e-02

Order 1, Length 18
    Atom      X          Y          Z
     1    1.091908569554871e-01  -6.483060880789721e-02  -1.204396625309518e-01
     2   -1.471834727771210e-01   1.266434370321466e-01   1.009686379026872e-01
     3    1.147912453333278e-02  -1.086267146205083e-02   1.499402539108474e-02
     4    1.483631566414620e-03  -4.409743238017864e-04  -1.549266095190203e-03
     5    1.095387008395303e-02  -3.725943346922472e-04  -2.158102437414950e-03
     6    1.407598685587791e-02  -5.013621461612973e-02   8.184617190512122e-03


     3 Order 1, Length 18
    Atom      X          Y          Z
     1   -1.500981392898228e-01  -3.928252633762601e-02   8.254972044725544e-03
     2   -6.722785291628518e-03  -1.671384477409740e-03   1.147912453333278e-02
     3    6.170839030073513e-01  -8.247501289846186e-02  -4.541676654480862e-03
     4   -1.022178116599596e-01  -6.050212588619288e-02   2.272667851830071e-02
     5   -3.664385085193385e-01   1.757155844877657e-01  -3.996703677483252e-02
     6    8.392920622961297e-03   8.212780788646932e-03   2.051497615819515e-03

Order 1, Length 18
    Atom      X          Y          Z
     1   -3.831809511949849e-02  -8.074946672273817e-02   8.982069129070562e-03
     2    3.137594497234679e-02   1.158114994016875e-03  -1.086267146205083e-02
     3   -8.247501289846186e-02   7.006226491414709e-01  -1.403627153989743e-01
     4   -2.003333126333574e-02  -4.131984410514784e-01   1.151262267753085e-01
     5    1.329776475463734e-01  -1.855557027285082e-01   2.939849003931508e-02
     6   -2.352697146254790e-02  -2.227233935602466e-02  -2.283904924712479e-03

Order 1, Length 18
    Atom      X          Y          Z
     1    1.149914742945123e-02   1.694131373837970e-03  -1.112507807735316e-01
     2    2.420891759742269e-02  -1.072577357559423e-03   1.499402539108474e-02
     3   -4.541676654480862e-03  -1.403627153989743e-01   2.614941033259834e-01
     4    1.476245341540240e-02   1.274913732007411e-01  -1.115392063037322e-01
     5   -3.746659429926575e-02   2.893071525302444e-02  -7.673265649208966e-02
     6   -8.461919656650854e-03  -1.668187603165020e-02   2.303417649799375e-02


     4 Order 1, Length 18
    Atom      X          Y          Z
     1    1.272697644857415e-02  -1.923137451524238e-02   1.466318560332668e-02
     2   -9.871022956682282e-03  -4.500946935700621e-03   1.483631566414620e-03
     3   -1.022178116599596e-01  -2.003333126333574e-02   1.476245341540240e-02
     4    9.940025470508301e-02  -6.882324674457822e-03  -5.012961506794671e-03
     5    9.359753698771138e-03   6.317233947612380e-02  -2.368884471870585e-02
     6   -9.398443660370129e-03  -1.252392457385338e-02  -2.208603707368329e-03

Order 1, Length 18
    Atom      X          Y          Z
     1    1.452602749112308e-02  -1.913704451720599e-02   1.740011495666918e-02
     2   -1.131864937957549e-02   4.615792857878994e-03  -4.409743238017864e-04
     3   -6.050212588619288e-02  -4.131984410514784e-01   1.274913732007411e-01
     4   -6.882324674457822e-03   5.334393133782498e-01  -1.791611153152531e-01
     5    7.813726592887321e-02  -9.315949830802210e-02   3.679253739888690e-02
     6   -1.395931662949303e-02  -1.256147362704364e-02  -2.081306755100730e-03

Order 1, Length 18
    Atom      X          Y          Z
     1    1.760361403201334e-04   1.495037274396774e-02   1.590468508520564e-02
     2    4.102577404066113e-04   1.497793259598879e-03  -1.549266095190203e-03
     3    2.272667851830071e-02   1.151262267753085e-01  -1.115392063037322e-01
     4   -5.012961506794671e-03  -1.791611153152531e-01   8.728561400465867e-02
     5   -2.502049369027110e-02   3.935879174000929e-02   1.190294735606024e-02
     6    6.719840283593318e-03   8.228277710331022e-03  -2.004489825982407e-03


     5 Order 1, Length 18
    Atom      X          Y          Z
     1   -1.619701488526104e-02   3.096371729437106e-02  -1.643477846839186e-02
     2   -2.418847877137893e-02   5.048359022326369e-04   1.095387008395303e-02
     3   -3.664385085193385e-01   1.329776475463734e-01  -3.746659429926575e-02
     4    9.359753698771138e-03   7.813726592887321e-02  -2.502049369027110e-02
     5    4.062903950763636e-01  -2.320749260791897e-01   6.423611727888145e-02
     6   -8.825454769680439e-03  -1.050644224753404e-02   3.729451295251786e-03

Order 1, Length 18
    Atom      X          Y          Z
     1   -1.492434629519466e-03   2.383045709110220e-03   4.039369125770577e-03
     2   -3.538525630058533e-04   2.357511074743683e-03  -3.725943346922472e-04
     3    1.757155844877657e-01  -1.855557027285082e-01   2.893071525302444e-02
     4    6.317233947612380e-02  -9.315949830802210e-02   3.935879174000929e-02
     5   -2.320749260791897e-01   2.693371400440638e-01  -7.139156419947371e-02
     6   -4.967469833151972e-03   4.635748433994148e-03  -5.638847742390506e-04

Order 1, Length 18
    Atom      X          Y          Z
     1    1.385535394351314e-04   1.628424497283377e-03   2.370457637069824e-02
     2   -2.689831875252860e-03  -9.291645313268902e-05  -2.158102437414950e-03
     3   -3.996703677483252e-02   2.939849003931508e-02  -7.673265649208966e-02
     4   -2.368884471870585e-02   3.679253739888690e-02   1.190294735606024e-02
     5    6.423611727888145e-02  -7.139156419947371e-02   4.575864684307573e-02
     6    1.971415804077886e-03   3.665514868259825e-03  -2.475295865580657e-03


     6 Order 1, Length 18
    Atom      X          Y          Z
     1   -1.129528884799678e-01  -5.393921817070112e-02  -5.314679449885585e-03
     2    2.350589626469757e-02   4.933280144197653e-02   1.407598685587791e-02
     3    8.392920622961297e-03  -2.352697146254790e-02  -8.461919656650854e-03
     4   -9.398443660370129e-03  -1.395931662949303e-02   6.719840283593318e-03
     5   -8.825454769680439e-03  -4.967469833151972e-03   1.971415804077886e-03
     6    9.927776730487960e-02   4.706076091577249e-02  -8.992032380279541e-03

Order 1, Length 18
    Atom      X          Y          Z
     1   -9.687270596504743e-02  -4.336895308381500e-01  -5.850712018019547e-02
     2    6.463160836174757e-02  -1.036736455990027e-01  -5.013621461612973e-02
     3    8.212780788646932e-03  -2.227233935602466e-02  -1.668187603165020e-02
     4   -1.252392457385338e-02  -1.256147362704364e-02   8.228277710331022e-03
     5   -1.050644224753404e-02   4.635748433994148e-03   3.665514868259825e-03
     6    4.706076091577249e-02   5.675639547626844e-01   1.134282523211505e-01

Order 1, Length 18
    Atom      X          Y          Z
     1   -8.243687096025232e-03  -6.131347643009868e-02  -8.038512834129358e-02
     2    1.366363342706325e-02  -4.718538819855460e-02   8.184617190512122e-03
     3    2.051497615819515e-03  -2.283904924712479e-03   2.303417649799375e-02
     4   -2.208603707368329e-03  -2.081306755100730e-03  -2.004489825982407e-03
     5    3.729451295251786e-03  -5.638847742390506e-04  -2.475295865580657e-03
     6   -8.992032380279541e-03   1.134282523211505e-01   5.364644912848145e-02




 # Finishing finite difference calculation for IDERIV #
 ######################################################
 ######################################################
 Requested basis set is 6-311++G(2df,2p)
 There are 48 shells and 204 basis functions
 **********************************************************************
 **                                                                  **
 **                       VIBRATIONAL ANALYSIS                       **
 **                       --------------------                       **
 **                                                                  **
 **        VIBRATIONAL FREQUENCIES (CM**-1) AND NORMAL MODES         **
 **     FORCE CONSTANTS (mDYN/ANGSTROM) AND REDUCED MASSES (AMU)     **
 **                  INFRARED INTENSITIES (KM/MOL)                   **
 **                                                                  **
 **********************************************************************
 

 Mode:                 1                      2                      3
 Frequency:        26.30                 300.81                 383.13
 Force Cnst:      0.0065                 0.8366                 1.2443
 Red. Mass:      15.9919                15.6932                14.3871
 IR Active:          YES                    YES                    YES
 IR Intens:        0.001                  5.840                 40.833
 Raman Active:       YES                    YES                    YES
               X      Y      Z        X      Y      Z        X      Y      Z
 C          0.017  0.009 -0.003   -0.067  0.173  0.053   -0.015 -0.160 -0.418
 O          0.162 -0.100  0.462   -0.366 -0.244  0.188    0.371 -0.054  0.098
 C         -0.017 -0.007  0.006   -0.087  0.168 -0.049   -0.136  0.108 -0.414
 O         -0.043 -0.171 -0.469    0.426  0.118 -0.190    0.208  0.307  0.105
 O          0.007  0.153  0.474   -0.408 -0.257 -0.019   -0.311  0.075  0.216
 O         -0.126  0.116 -0.470    0.464  0.127  0.017   -0.154 -0.289  0.205
 TransDip   0.000  0.001  0.001   -0.032  0.070  0.001   -0.036 -0.013 -0.201

 Mode:                 4                      5                      6
 Frequency:       446.38                 681.26                 740.70
 Force Cnst:      1.8282                 3.6662                 4.6953
 Red. Mass:      15.5723                13.4071                14.5256
 IR Active:          YES                    YES                    YES
 IR Intens:        0.000                 64.131                179.716
 Raman Active:       YES                    YES                    YES
               X      Y      Z        X      Y      Z        X      Y      Z
 C         -0.206 -0.092  0.043    0.217 -0.272  0.448   -0.385 -0.173  0.083
 O         -0.372 -0.284  0.075    0.206 -0.015 -0.215    0.023  0.389  0.085
 C          0.206  0.093 -0.042   -0.050  0.328  0.465   -0.383 -0.172  0.079
 O          0.458  0.089 -0.079    0.122  0.169 -0.210    0.304 -0.245  0.071
 O          0.367  0.281 -0.094   -0.268 -0.006 -0.129   -0.015  0.375 -0.131
 O         -0.454 -0.087  0.098   -0.186 -0.190 -0.131    0.264 -0.259 -0.146
 TransDip   0.000  0.000 -0.000    0.047  0.015  0.252   -0.385 -0.173  0.080

 Mode:                 7                      8                      9
 Frequency:       882.84                 887.48                1321.79
 Force Cnst:      5.6806                 6.8067                14.4310
 Red. Mass:      12.3703                14.6680                14.0190
 IR Active:          YES                    YES                    YES
 IR Intens:        7.337                  0.006                540.174
 Raman Active:       YES                    YES                    YES
               X      Y      Z        X      Y      Z        X      Y      Z
 C         -0.178  0.127 -0.639    0.370  0.159 -0.056    0.446  0.201 -0.093
 O          0.089 -0.045  0.117    0.146 -0.353 -0.139   -0.268  0.194  0.131
 C          0.035  0.192  0.643   -0.367 -0.171  0.055    0.446  0.199 -0.094
 O         -0.027 -0.094 -0.118    0.167 -0.352  0.125   -0.033 -0.333  0.119
 O          0.032 -0.042 -0.141   -0.195  0.343 -0.110   -0.301  0.183 -0.049
 O          0.013 -0.058  0.139   -0.120  0.371  0.124   -0.067 -0.344 -0.061
 TransDip  -0.036  0.079  0.002    0.000 -0.002 -0.001    0.667  0.299 -0.139

 Mode:                10                     11                     12
 Frequency:      1483.57                1532.57                1549.49
 Force Cnst:     17.0672                18.0322                18.1543
 Red. Mass:      13.1611                13.0304                12.8337
 IR Active:          YES                    YES                    YES
 IR Intens:        0.502               2797.166                305.518
 Raman Active:       YES                    YES                    YES
               X      Y      Z        X      Y      Z        X      Y      Z
 C         -0.531 -0.246  0.109   -0.218  0.567  0.211    0.210 -0.537 -0.146
 O          0.215 -0.126 -0.094    0.187 -0.167 -0.100   -0.142  0.144  0.070
 C          0.537  0.233 -0.110   -0.246  0.488 -0.172   -0.288  0.578 -0.143
 O         -0.049 -0.247  0.086   -0.002 -0.229  0.083    0.013 -0.231  0.072
 O         -0.242  0.123 -0.027    0.188 -0.139  0.041    0.182 -0.154  0.036
 O          0.071  0.261  0.035   -0.025 -0.256 -0.054    0.006  0.210  0.039
 TransDip   0.009 -0.021  0.000   -0.682  1.549  0.064   -0.136  0.053 -0.540

 STANDARD THERMODYNAMIC QUANTITIES AT   298.15 K  AND     1.00 ATM

   This Molecule has  0 Imaginary Frequencies
   Zero point vibrational energy:       14.634 kcal/mol

   Atom    1 Element C  Has Mass   12.00000
   Atom    2 Element O  Has Mass   15.99491
   Atom    3 Element C  Has Mass   12.00000
   Atom    4 Element O  Has Mass   15.99491
   Atom    5 Element O  Has Mass   15.99491
   Atom    6 Element O  Has Mass   15.99491
   Molecular Mass:    87.979640 amu
   Principal axes and moments of inertia in amu*Bohr^2:
                             1           2           3
    Eigenvalues --      286.39781   494.80905   728.55614
          X               0.89611    -0.40604     0.17924
          Y               0.40226     0.91365     0.05862
          Z              -0.18756     0.01957     0.98206
   Rotational Symmetry Number is   1
   The Molecule is an Asymmetric Top
   Translational Enthalpy:        0.889 kcal/mol
   Rotational Enthalpy:           0.889 kcal/mol
   Vibrational Enthalpy:         16.048 kcal/mol
   gas constant (RT):             0.592 kcal/mol
   Translational Entropy:        39.336  cal/mol.K
   Rotational Entropy:           26.137  cal/mol.K
   Vibrational Entropy:          10.281  cal/mol.K

   Total Enthalpy:               18.418 kcal/mol
   Total Entropy:                75.754  cal/mol.K
 Total job time:  1293.65s(wall), 9739.97s(cpu) 
 Fri Jul 21 18:16:07 2023

        *************************************************************
        *                                                           *
        *  Thank you very much for using Q-Chem.  Have a nice day.  *
        *                                                           *
        *************************************************************


