
Running Job 1 of 1 Q_in.in
qchem Q_in.in_259309.0 /scratch/ari.fischer/qChem1639325.hpc-mn1/qchem259309/ 0
/usr/local/qchem-5.4.1/exe/qcprog.exe_s Q_in.in_259309.0 /scratch/ari.fischer/qChem1639325.hpc-mn1/qchem259309/
                  Welcome to Q-Chem
     A Quantum Leap Into The Future Of Chemistry


 Q-Chem 5.4, Q-Chem, Inc., Pleasanton, CA (2021)

 License issued to: Nanyang Technological University (site)

 E. Epifanovsky,  A. T. B. Gilbert,  Xintian Feng,  Joonho Lee,  Yuezhi Mao,  
 N. Mardirossian,  P. Pokhilko,  A. White,  M. Wormit,  M. P. Coons,  
 A. L. Dempwolff,  Zhengting Gan,  D. Hait,  P. R. Horn,  L. D. Jacobson,  
 I. Kaliman,  J. Kussmann,  A. W. Lange,  Ka Un Lao,  D. S. Levine,  Jie Liu,  
 S. C. McKenzie,  A. F. Morrison,  K. Nanda,  F. Plasser,  D. R. Rehn,  
 M. L. Vidal,  Zhi-Qiang You,  Ying Zhu,  B. Alam,  B. Albrecht,  
 A. Aldossary,  E. Alguire,  J. H. Andersen,  D. Barton,  K. Begam,  A. Behn,  
 Y. A. Bernard,  E. J. Berquist,  H. Burton,  A. Carreras,  K. Carter-Fenk,  
 R. Chakraborty,  A. D. Chien,  K. D. Closser,  V. Cofer-Shabica,  
 S. Dasgupta,  Jia Deng,  M. de Wergifosse,  M. Diedenhofen,  Hainam Do,  
 S. Ehlert,  Po-Tung Fang,  S. Fatehi,  Qingguo Feng,  T. Friedhoff,  
 J. Gayvert,  Qinghui Ge,  G. Gidofalvi,  M. Goldey,  J. Gomes,  
 C. Gonzalez-Espinoza,  S. Gulania,  A. Gunina,  M. W. D. Hanson-Heine,  
 P. H. P. Harbach,  A. W. Hauser,  M. F. Herbst,  M. Hernandez Vera,  
 M. Hodecker,  Z. C. Holden,  S. Houck,  Xunkun Huang,  Kerwin Hui,  
 B. C. Huynh,  M. Ivanov,  Hyunjun Ji,  Hanjie Jiang,  B. Kaduk,  S. Kaehler,  
 K. Khistyaev,  Jaehoon Kim,  P. Klunzinger,  Z. Koczor-Benda,  
 Joong Hoon Koh,  D. Kosenkov,  L. Koulias,  T. Kowalczyk,  C. M. Krauter,  
 K. Kue,  A. Kunitsa,  T. Kus,  A. Landau,  K. V. Lawler,  D. Lefrancois,  
 S. Lehtola,  Rain Li,  Yi-Pei Li,  Jiashu Liang,  M. Liebenthal,  
 Hung-Hsuan Lin,  You-Sheng Lin,  Fenglai Liu,  Kuan-Yu Liu,  
 M. Loipersberger,  A. Luenser,  A. Manjanath,  P. Manohar,  E. Mansoor,  
 S. F. Manzer,  Shan-Ping Mao,  A. V. Marenich,  T. Markovich,  S. Mason,  
 S. A. Maurer,  P. F. McLaughlin,  M. F. S. J. Menger,  J.-M. Mewes,  
 S. A. Mewes,  P. Morgante,  J. W. Mullinax,  K. J. Oosterbaan,  G. Paran,  
 Alexander C. Paul,  Suranjan K. Paul,  F. Pavosevic,  Zheng Pei,  S. Prager,  
 E. I. Proynov,  E. Ramos,  B. Rana,  A. E. Rask,  A. Rettig,  R. M. Richard,  
 F. Rob,  E. Rossomme,  T. Scheele,  M. Scheurer,  M. Schneider,  
 N. Sergueev,  S. M. Sharada,  W. Skomorowski,  D. W. Small,  C. J. Stein,  
 Yu-Chuan Su,  E. J. Sundstrom,  Zhen Tao,  J. Thirman,  T. Tsuchimochi,  
 N. M. Tubman,  S. P. Veccham,  O. Vydrov,  J. Wenzel,  J. Witte,  A. Yamada,  
 Kun Yao,  S. Yeganeh,  S. R. Yost,  A. Zech,  Igor Ying Zhang,  Xing Zhang,  
 Yu Zhang,  D. Zuev,  A. Aspuru-Guzik,  A. T. Bell,  N. A. Besley,  
 K. B. Bravaya,  B. R. Brooks,  D. Casanova,  Jeng-Da Chai,  S. Coriani,  
 C. J. Cramer,  A. E. DePrince, III,  R. A. DiStasio Jr.,  A. Dreuw,  
 B. D. Dunietz,  T. R. Furlani,  W. A. Goddard III,  S. Grimme,  
 S. Hammes-Schiffer,  T. Head-Gordon,  W. J. Hehre,  Chao-Ping Hsu,  
 T.-C. Jagau,  Yousung Jung,  A. Klamt,  Jing Kong,  D. S. Lambrecht,  
 WanZhen Liang,  N. J. Mayhall,  C. W. McCurdy,  J. B. Neaton,  
 C. Ochsenfeld,  J. A. Parkhill,  R. Peverati,  V. A. Rassolov,  Yihan Shao,  
 L. V. Slipchenko,  T. Stauch,  R. P. Steele,  J. E. Subotnik,  
 A. J. W. Thom,  A. Tkatchenko,  D. G. Truhlar,  T. Van Voorhis,  
 T. A. Wesolowski,  K. B. Whaley,  H. L. Woodcock III,  P. M. Zimmerman,  
 S. Faraji,  P. M. W. Gill,  M. Head-Gordon,  J. M. Herbert,  A. I. Krylov

 Additional authors for Version 5.4.1: 
 S. Kotaru,  Shaozhi Li,  Xiangyuan Li,  F. Matz,  A. Molle,  Haisheng Ren,  
 Yingli Su,  Hung-Yi Tsai,  C. Utku,  Fang Wang

 Contributors to earlier versions of Q-Chem not listed above: 
 R. D. Adamson,  B. Austin,  R. Baer,  J. Baker,  G. J. O. Beran,  
 K. Brandhorst,  S. T. Brown,  E. F. C. Byrd,  A. K. Chakraborty,  
 G. K. L. Chan,  Chun-Min Chang,  Yunqing Chen,  C.-L. Cheng,  
 Siu Hung Chien,  D. M. Chipman,  D. L. Crittenden,  H. Dachsel,  
 R. J. Doerksen,  A. D. Dutoi,  R. G. Edgar,  J. Fosso-Tande,  
 L. Fusti-Molnar,  D. Ghosh,  A. Ghysels,  A. Golubeva-Zadorozhnaya,  
 J. Gonthier,  M. S. Gordon,  S. R. Gwaltney,  G. Hawkins,  J. E. Herr,  
 A. Heyden,  S. Hirata,  E. G. Hohenstein,  G. Kedziora,  F. J. Keil,  
 C. Kelley,  Jihan Kim,  R. A. King,  R. Z. Khaliullin,  P. P. Korambath,  
 W. Kurlancheek,  A. Laurent,  A. M. Lee,  M. S. Lee,  S. V. Levchenko,  
 Ching Yeh Lin,  D. Liotard,  E. Livshits,  R. C. Lochan,  I. Lotan,  
 L. A. Martinez-Martinez,  P. E. Maslen,  N. Nair,  D. P. O'Neill,  
 D. Neuhauser,  E. Neuscamman,  C. M. Oana,  R. Olivares-Amaya,  R. Olson,  
 T. M. Perrine,  B. Peters,  P. A. Pieniazek,  A. Prociuk,  Y. M. Rhee,  
 J. Ritchie,  M. A. Rohrdanz,  E. Rosta,  N. J. Russ,  H. F. Schaefer III,  
 M. W. Schmidt,  N. E. Schultz,  S. Sharma,  N. Shenvi,  C. D. Sherrill,  
 A. C. Simmonett,  A. Sodt,  T. Stein,  D. Stuck,  K. S. Thanthiriwatte,  
 V. Vanovschi,  L. Vogt,  Tao Wang,  A. Warshel,  M. A. Watson,  
 C. F. Williams,  Q. Wu,  X. Xu,  Jun Yang,  W. Zhang,  Yan Zhao

 Please cite Q-Chem as follows:
 Y. Shao et al., Mol. Phys. 113, 184-215 (2015)
 DOI: 10.1080/00268976.2014.952696

 Q-Chem 5.4.1 for Intel X86 EM64T Linux

 Parts of Q-Chem use Armadillo 9.800.1 (Horizon Scraper).
 http://arma.sourceforge.net/

 Q-Chem begins on Fri Jul 21 08:01:35 2023  

 Host: 
0

     Scratch files written to /scratch/ari.fischer/qChem1639325.hpc-mn1/qchem259309//
 Aug1521 |scratch|qcdevops|jenkins|workspace|build_RNUM 8249   
 Processing $rem in /usr/local/qchem-5.4.1/config/preferences:
 Processing $rem in /home/ari.fischer/.qchemrc:
 Symmetry turned off for PCM/SM12/SMD calculation

 Checking the input file for inconsistencies... 	...done.

--------------------------------------------------------------
User input:
--------------------------------------------------------------
$molecule
-2 1
C         1.0615172386    0.1333968314    0.2459744787
O         0.0933613264    0.9313668836    0.3754471133
C         2.4725555692    0.7671988508   -0.0495992536
O         2.5275161275    2.0244776580   -0.1365629516
O         3.4411338019   -0.0305378646   -0.1773944366
O         1.0063765363   -1.1240275592    0.3306850500
$end

$rem
BASIS = 6-311++G(2df,2p)
GUI = 2
JOB_TYPE = Optimization
METHOD = wB97M-V
SCF_ALGORITHM = DIIS_GDM
MAX_SCF_CYCLES = 400
GEOM_OPT_MAX_CYCLES = 150
SCF_CONVERGENCE = 7
THRESH = 12
UNRESTRICTED = 1
Solvent_method = SMD
$end
--------------------------------------------------------------
 ----------------------------------------------------------------
             Standard Nuclear Orientation (Angstroms)
    I     Atom           X                Y                Z
 ----------------------------------------------------------------
    1      C       1.0615172386     0.1333968314     0.2459744787
    2      O       0.0933613264     0.9313668836     0.3754471133
    3      C       2.4725555692     0.7671988508    -0.0495992536
    4      O       2.5275161275     2.0244776580    -0.1365629516
    5      O       3.4411338019    -0.0305378646    -0.1773944366
    6      O       1.0063765363    -1.1240275592     0.3306850500
 ----------------------------------------------------------------
 Nuclear Repulsion Energy =         208.82595964 hartrees
 There are       23 alpha and       23 beta electrons
 Requested basis set is 6-311++G(2df,2p)
 There are 48 shells and 204 basis functions

 Total QAlloc Memory Limit 288000 MB
 Mega-Array Size       188 MB
 MEM_STATIC part       192 MB
 
 Citation of the SMD model:
 Marenich, A.V.; Cramer, C.J.; Truhlar, D.G.
 J. Phys. Chem. B 2009, 113, 6378-6396.
 iSolventCode=           1
 Solvent: water                                                           
 
 vradii
            1           2           3           4           5           6
    1   1.8500000   1.5200000   1.8500000   1.5200000   1.5200000   1.5200000
 Changing PCM_VDW_RADII to SMD_RADIUS
 Discretize the solute cavity surface with Lebedev spheres
	Using 110 Lebedev grid points for each H atom
	Using 194 Lebedev grid points for other atoms
	Atomic van der Waals radii will be scaled by 1.20
 Remove points where switching function is < 1.0e-08
 Keep 707 surface tesserae and discard 457 interior tesserae
 Molecular Surface Area = 89.969 Angst**2
 A cutoff of  1.0D-12 yielded   1108 shell pairs
 There are     20420 function pairs (     26863 Cartesian)
 Smallest overlap matrix eigenvalue = 1.17E-04

 Scale SEOQF with 1.000000e-01/1.000000e-01/1.000000e-01

 Standard Electronic Orientation quadrupole field applied
 Nucleus-field energy     =     0.0000000106 hartrees
 Guess from superposition of atomic densities
 Warning:  Energy on first SCF cycle will be non-variational
 SAD guess density has 44.000000 electrons

 -----------------------------------------------------------------------
  General SCF calculation program by
  Eric Jon Sundstrom, Paul Horn, Yuezhi Mao, Dmitri Zuev, Alec White,
  David Stuck, Shaama M.S., Shane Yost, Joonho Lee, David Small,
  Daniel Levine, Susi Lehtola, Hugh Burton, Evgeny Epifanovsky,
  Bang C. Huynh
 -----------------------------------------------------------------------
 Exchange:     0.1500 Hartree-Fock + 1.0000 wB97M-V + LR-HF
 Correlation:  1.0000 wB97M-V
 Using SG-2 standard quadrature grid
 Nonlocal Correlation:  VV10 with C = 0.0100 and b = 6.00 and scale = 1.00000
 Grid used for NLC:  SG-1 standard quadrature
 
 Citation of the SMD model:
 Marenich, A.V.; Cramer, C.J.; Truhlar, D.G.
 J. Phys. Chem. B 2009, 113, 6378-6396.
 iSolventCode=           1
 Solvent: water                                                           
 
 vradii
            1           2           3           4           5           6
    1   1.8500000   1.5200000   1.8500000   1.5200000   1.5200000   1.5200000
 using 8 threads for integral computing
 -------------------------------------------------------
 OpenMP Integral computing Module                
 Release: version 1.0, May 2013, Q-Chem Inc. Pittsburgh 
 -------------------------------------------------------
 -------------------------------------------------------
 OpenMP BLAS3 based DFT computing Module                
 Release: version 1.0, May 2013, Q-Chem Inc. Pittsburgh 
 -------------------------------------------------------
 A unrestricted SCF calculation will be
 performed using DIIS, GDM
 SCF converges when RMS gradient is below 1.0e-07
 ---------------------------------------
  Cycle       Energy         DIIS error
 ---------------------------------------
    1    -377.8636679963      1.74e-02  
    2    -377.2005179597      4.29e-03  Done DIIS. Switching to GDM
 ---------------------------------------
  Cycle       Energy        RMS Gradient
 ---------------------------------------
    1    -377.2005179597      2.08e-01   Descent step
    2    -377.4488473463      7.04e-02   Normal BFGS step
    3    -377.4928151221      9.87e-03   Normal BFGS step
    4    -377.4939300350      4.07e-03   Normal BFGS step
    5    -377.4941034657      9.48e-04   Normal BFGS step
    6    -377.4941076647      1.55e-04   Normal BFGS step
    7    -377.4941078420      3.28e-05   Normal BFGS step
    8    -377.4941078448      4.82e-05   Normal BFGS step
    9    -377.4941078534      2.47e-06   Normal BFGS step
   10    -377.4941078535      5.24e-07   Normal BFGS step
   11    -377.4941078535      1.46e-07   Normal BFGS step
   12    -377.4941078535      1.21e-07   Normal BFGS step
   13    -377.4941078535      2.80e-08  Convergence criterion met
 ---------------------------------------
 SCF time:   CPU 195.42s  wall 25.00s 
<S^2> =          0.000000000
(3)  G-ENP(liq) elect-nuc-pol free energy of system     -377.494107853 a.u.
(4)  G-CDS(liq) cavity-dispersion-solvent structure 
     free energy                                                5.4132 kcal/mol
(6)  G-S(liq) free energy of system                     -377.485481296 a.u.
 SCF   energy in the final basis set =     -377.4854812964
 Total energy in the final basis set =     -377.4854812964
 
 --------------------------------------------------------------
 
                    Orbital Energies (a.u.)
 --------------------------------------------------------------
 
 Alpha MOs
 -- Occupied --
-19.2816 -19.2816 -19.2816 -19.2816 -10.4345 -10.4344  -1.1745  -1.1436
 -1.0815  -1.0599  -0.7195  -0.5872  -0.5687  -0.5424  -0.5401  -0.5118
 -0.4794  -0.4169  -0.3821  -0.3742  -0.3606  -0.3313  -0.3311
 -- Virtual --
  0.0619   0.0779   0.0794   0.0903   0.0965   0.1160   0.1245   0.1303
  0.1726   0.2101   0.2232   0.2382   0.2557   0.2691   0.2930   0.2946
  0.3097   0.3119   0.3188   0.3373   0.3497   0.3512   0.3640   0.3731
  0.3967   0.4215   0.4498   0.5064   0.5077   0.5967   0.6320   0.7009
  0.7255   0.7323   0.7712   0.7801   0.7849   0.8157   0.8386   0.8839
  0.8992   1.0567   1.0799   1.1009   1.1063   1.1182   1.1232   1.1454
  1.1501   1.1868   1.1897   1.2208   1.2318   1.2849   1.2873   1.3049
  1.3738   1.3806   1.4340   1.5960   1.6287   1.6391   1.6447   1.6465
  1.6702   1.6763   1.7781   1.7897   1.8194   1.8430   1.9567   1.9626
  2.0122   2.0494   2.0737   2.1512   2.2158   2.4662   2.4929   2.5084
  2.5271   2.6357   2.6548   2.7355   2.8332   2.8344   2.8607   2.8747
  2.9110   3.0943   3.0964   3.1677   3.2534   3.2647   3.3614   3.4008
  3.4026   3.4589   3.4739   3.4783   3.4819   3.5525   3.6246   3.6323
  3.6694   3.6749   3.7646   3.7779   4.0354   4.0749   4.1028   4.1110
  4.1609   4.3035   4.7623   5.1786   5.1803   5.1854   5.1870   5.1879
  5.1898   5.1993   5.2054   5.2277   5.2301   5.2477   5.2600   5.2635
  5.3010   5.3115   5.3222   5.3296   5.4076   5.4220   5.4254   5.5406
  5.5510   5.6273   5.6403   5.6452   5.6579   5.8768   5.8835   5.9328
  6.1517   6.1635   6.2988   6.3599   6.4775   6.7292   6.8266   6.9015
  6.9255   6.9380   6.9833   7.0101   7.0255   7.0422   7.0506   7.0809
  7.2144   7.2760   7.3228   7.3512   7.3745   7.3786   7.5026   7.5184
  7.6284   7.7345   7.7820   7.7976   7.8081   7.8825   7.9589  25.0839
 25.2072  50.6374  50.6557  50.7339  50.7533
 
 Beta MOs
 -- Occupied --
-19.2816 -19.2816 -19.2816 -19.2816 -10.4345 -10.4344  -1.1745  -1.1436
 -1.0815  -1.0599  -0.7195  -0.5872  -0.5687  -0.5424  -0.5401  -0.5118
 -0.4794  -0.4169  -0.3821  -0.3742  -0.3606  -0.3313  -0.3311
 -- Virtual --
  0.0619   0.0779   0.0794   0.0903   0.0965   0.1160   0.1245   0.1303
  0.1726   0.2101   0.2232   0.2382   0.2557   0.2691   0.2930   0.2946
  0.3097   0.3119   0.3188   0.3373   0.3497   0.3512   0.3640   0.3731
  0.3967   0.4215   0.4498   0.5064   0.5077   0.5967   0.6320   0.7009
  0.7255   0.7323   0.7712   0.7801   0.7849   0.8157   0.8386   0.8839
  0.8992   1.0567   1.0799   1.1009   1.1063   1.1182   1.1232   1.1454
  1.1501   1.1868   1.1897   1.2208   1.2318   1.2849   1.2873   1.3049
  1.3738   1.3806   1.4340   1.5960   1.6287   1.6391   1.6447   1.6465
  1.6702   1.6763   1.7781   1.7897   1.8194   1.8430   1.9567   1.9626
  2.0122   2.0494   2.0737   2.1512   2.2158   2.4662   2.4929   2.5084
  2.5271   2.6357   2.6548   2.7355   2.8332   2.8344   2.8607   2.8747
  2.9110   3.0943   3.0964   3.1677   3.2534   3.2647   3.3614   3.4008
  3.4026   3.4589   3.4739   3.4783   3.4819   3.5525   3.6246   3.6323
  3.6694   3.6749   3.7646   3.7779   4.0354   4.0749   4.1028   4.1110
  4.1609   4.3035   4.7623   5.1786   5.1803   5.1854   5.1870   5.1879
  5.1898   5.1993   5.2054   5.2277   5.2301   5.2477   5.2600   5.2635
  5.3010   5.3115   5.3222   5.3296   5.4076   5.4220   5.4254   5.5406
  5.5510   5.6273   5.6403   5.6452   5.6579   5.8768   5.8835   5.9328
  6.1517   6.1635   6.2988   6.3599   6.4775   6.7292   6.8266   6.9015
  6.9255   6.9380   6.9833   7.0101   7.0255   7.0422   7.0506   7.0809
  7.2144   7.2760   7.3228   7.3512   7.3745   7.3786   7.5026   7.5184
  7.6284   7.7345   7.7820   7.7976   7.8081   7.8825   7.9589  25.0839
 25.2072  50.6374  50.6557  50.7339  50.7533
 --------------------------------------------------------------
 
          Ground-State Mulliken Net Atomic Charges

     Atom                 Charge (a.u.)    Spin (a.u.)
  --------------------------------------------------------
      1 C                     0.363522       0.000000
      2 O                    -0.681601       0.000000
      3 C                     0.363546       0.000000
      4 O                    -0.681932       0.000000
      5 O                    -0.681677       0.000000
      6 O                    -0.681858       0.000000
  --------------------------------------------------------
  Sum of atomic charges =    -2.000000
  Sum of spin   charges =     0.000000

 -----------------------------------------------------------------
                    Cartesian Multipole Moments
 -----------------------------------------------------------------
    Charge (ESU x 10^10)
                -9.6064
    Dipole Moment (Debye)
         X     -16.9763      Y      -4.3263      Z      -0.9411
       Tot      17.5442
    Quadrupole Moments (Debye-Ang)
        XX     -90.9516     XY      -9.4018     YY     -60.0046
        XZ       3.0569     YZ       1.2449     ZZ     -36.7172
    Octopole Moments (Debye-Ang^2)
       XXX    -376.1453    XXY     -47.1617    XYY    -107.6106
       YYY     -79.3052    XXZ       7.7488    XYZ       4.1693
       YYZ      -4.3643    XZZ     -63.9530    YZZ     -16.2154
       ZZZ     -10.7858
    Hexadecapole Moments (Debye-Ang^3)
      XXXX   -1657.4194   XXXY    -201.6363   XXYY    -326.3965
      XYYY    -186.0759   YYYY    -388.4171   XXXZ      50.1813
      XXYZ      11.8057   XYYZ       7.6773   YYYZ      11.3143
      XXZZ    -180.2727   XYZZ     -35.8653   YYZZ     -62.2071
      XZZZ      11.1776   YZZZ       6.3935   ZZZZ     -50.7965
 -----------------------------------------------------------------
 Calculating analytic gradient of the SCF energy
 Gradient of CDS energy
            1           2           3           4           5           6
    1  -0.0032036   0.0018113   0.0032039  -0.0000894  -0.0018121   0.0000900
    2  -0.0014431  -0.0015111   0.0014431  -0.0023691   0.0015109   0.0023693
    3   0.0006710  -0.0002412  -0.0006720   0.0001613   0.0002379  -0.0001570
 Gradient of SCF Energy
            1           2           3           4           5           6
    1  -0.0407038   0.0391207   0.0406811  -0.0169546  -0.0391122   0.0169687
    2  -0.0178736  -0.0126696   0.0178677  -0.0375302   0.0126803   0.0375254
    3   0.0096961  -0.0066400  -0.0097001   0.0055751   0.0066264  -0.0055575
 Max gradient component =       4.070E-02
 RMS gradient           =       2.479E-02
 Computing fast CPCM-SWIG gradient
 Updating gradient with PCM contributions...
 -- total gradient after adding PCM contribution --
---------------------------------------------------
  Atom         X              Y              Z     
---------------------------------------------------
   1       0.005512       0.002437      -0.001148
   2      -0.006249       0.006907       0.000761
   3      -0.005580      -0.002465       0.001207
   4      -0.000890       0.009361      -0.000421
   5       0.006266      -0.006854      -0.000779
   6       0.000940      -0.009387       0.000381
---------------------------------------------------
 Number of fixed atoms: 0
 Gradient time:  CPU 40.88 s  wall 6.09 s
 Geometry Optimization Parameters
   NAtoms,    NIC,     NZ,  NCons,   NDum,   NFix, NCnnct, MaxDiis
        6      27       0       0       0       0       0       0


** GEOMETRY OPTIMIZATION IN DELOCALIZED INTERNAL COORDINATES **
   Searching for a Minimum

   Optimization Cycle:   1

                       Coordinates (Angstroms)
     ATOM                X               Y               Z
      1  C         1.0615172386    0.1333968314    0.2459744787
      2  O         0.0933613264    0.9313668836    0.3754471133
      3  C         2.4725555692    0.7671988508   -0.0495992536
      4  O         2.5275161275    2.0244776580   -0.1365629516
      5  O         3.4411338019   -0.0305378646   -0.1773944366
      6  O         1.0063765363   -1.1240275592    0.3306850500
   Point Group: c1    Number of degrees of freedom:    12


   Energy is   -377.485481296


 Attempting to generate delocalized internal coordinates
 Initial Hessian constructed with Jon Baker's OPTIMIZE code

 12 Hessian modes will be used to form the next step
  Hessian Eigenvalues:
     0.002000    0.002000    0.002000    0.250000    0.250000    0.250000
     0.250000    0.256432    0.791351    0.791352    0.792001    0.792020

 Minimum search - taking simple RFO step
 Searching for Lamda that Minimizes Along All modes
 Value Taken    Lamda =  -0.00049049
 Step Taken.  Stepsize is  0.031772

                             Maximum     Tolerance    Cnvgd?
         Gradient           0.017804      0.000300      NO
         Displacement       0.026410      0.001200      NO
         Energy change     *********      0.000001      NO


 New Cartesian Coordinates Obtained by Inverse Iteration

 Displacement from previous Coordinates is:  0.033419
 ----------------------------------------------------------------
             Standard Nuclear Orientation (Angstroms)
    I     Atom           X                Y                Z
 ----------------------------------------------------------------
    1      C       1.0611275072     0.1333505117     0.2445470681
    2      O       0.0948909910     0.9233027078     0.3774257000
    3      C       2.4719067975     0.7669031960    -0.0545999536
    4      O       2.5327782229     2.0180668544    -0.1355894233
    5      O       3.4404104977    -0.0223116526    -0.1749329516
    6      O       1.0013465836    -1.1174368173     0.3316995606
 ----------------------------------------------------------------
 Nuclear Repulsion Energy =         209.46364252 hartrees
 There are       23 alpha and       23 beta electrons
 Discretize the solute cavity surface with Lebedev spheres
	Using 110 Lebedev grid points for each H atom
	Using 194 Lebedev grid points for other atoms
	Atomic van der Waals radii will be scaled by 1.20
 Remove points where switching function is < 1.0e-08
 Keep 707 surface tesserae and discard 457 interior tesserae
 Molecular Surface Area = 89.764 Angst**2
 Applying Cartesian multipole field
    Component          Value
    ---------          -----
     (2,0,0)        1.00000E-11
     (0,2,0)        2.00000E-11
     (0,0,2)       -3.00000E-11
 Nucleus-field energy     =     0.0000000105 hartrees
 Requested basis set is 6-311++G(2df,2p)
 There are 48 shells and 204 basis functions
 A cutoff of  1.0D-12 yielded   1108 shell pairs
 There are     20420 function pairs (     26863 Cartesian)
 Smallest overlap matrix eigenvalue = 1.17E-04
 Guess MOs from SCF MO coefficient file

 -----------------------------------------------------------------------
  General SCF calculation program by
  Eric Jon Sundstrom, Paul Horn, Yuezhi Mao, Dmitri Zuev, Alec White,
  David Stuck, Shaama M.S., Shane Yost, Joonho Lee, David Small,
  Daniel Levine, Susi Lehtola, Hugh Burton, Evgeny Epifanovsky,
  Bang C. Huynh
 -----------------------------------------------------------------------
 Exchange:     0.1500 Hartree-Fock + 1.0000 wB97M-V + LR-HF
 Correlation:  1.0000 wB97M-V
 Using SG-2 standard quadrature grid
 Nonlocal Correlation:  VV10 with C = 0.0100 and b = 6.00 and scale = 1.00000
 Grid used for NLC:  SG-1 standard quadrature
 
 Citation of the SMD model:
 Marenich, A.V.; Cramer, C.J.; Truhlar, D.G.
 J. Phys. Chem. B 2009, 113, 6378-6396.
 iSolventCode=           1
 Solvent: water                                                           
 
 vradii
            1           2           3           4           5           6
    1   1.8500000   1.5200000   1.8500000   1.5200000   1.5200000   1.5200000
 -------------------------------------------------------
 OpenMP BLAS3 based DFT computing Module                
 Release: version 1.0, May 2013, Q-Chem Inc. Pittsburgh 
 -------------------------------------------------------
 A unrestricted SCF calculation will be
 performed using Roothaan-Hall, DIIS, GDM
 SCF converges when RMS gradient is below 1.0e-07
 ---------------------------------------
  Cycle       Energy         DIIS error
 ---------------------------------------
    1    -377.1143008186      2.85e-04  Roothaan Step
 ---------------------------------------
  Cycle       Energy         DIIS error
 ---------------------------------------
    1    -377.4891038091      3.46e-04  
    2    -377.4927652652      3.56e-04  Done DIIS. Switching to GDM
 ---------------------------------------
  Cycle       Energy        RMS Gradient
 ---------------------------------------
    1    -377.4927652652      1.27e-02   Normal BFGS step
    2    -377.4925701548      1.85e-02  Line search: overstep
    3    -377.4943424465      3.71e-03   Normal BFGS step
    4    -377.4944291323      1.67e-03   Normal BFGS step
    5    -377.4944410760      3.03e-04   Normal BFGS step
    6    -377.4944420301      9.34e-05   Normal BFGS step
    7    -377.4944421163      2.77e-05   Normal BFGS step
    8    -377.4944421213      9.40e-06   Normal BFGS step
    9    -377.4944421216      4.00e-06   Normal BFGS step
   10    -377.4944421217      2.24e-06   Normal BFGS step
   11    -377.4944421217      5.38e-07   Normal BFGS step
   12    -377.4944421217      1.78e-07   Normal BFGS step
   13    -377.4944421217      1.30e-08  Convergence criterion met
 ---------------------------------------
 SCF time:   CPU 212.47s  wall 27.00s 
<S^2> =         -0.000000000
(3)  G-ENP(liq) elect-nuc-pol free energy of system     -377.494442122 a.u.
(4)  G-CDS(liq) cavity-dispersion-solvent structure 
     free energy                                                5.4819 kcal/mol
(6)  G-S(liq) free energy of system                     -377.485706093 a.u.
 SCF   energy in the final basis set =     -377.4857060926
 Total energy in the final basis set =     -377.4857060926
 
 --------------------------------------------------------------
 
                    Orbital Energies (a.u.)
 --------------------------------------------------------------
 
 Alpha MOs
 -- Occupied --
-19.2803 -19.2803 -19.2802 -19.2802 -10.4321 -10.4320  -1.1773  -1.1470
 -1.0827  -1.0611  -0.7189  -0.5868  -0.5695  -0.5425  -0.5417  -0.5123
 -0.4812  -0.4184  -0.3809  -0.3740  -0.3605  -0.3305  -0.3305
 -- Virtual --
  0.0620   0.0792   0.0807   0.0903   0.0964   0.1160   0.1243   0.1302
  0.1726   0.2104   0.2265   0.2382   0.2558   0.2689   0.2930   0.2951
  0.3097   0.3122   0.3191   0.3377   0.3497   0.3510   0.3642   0.3736
  0.3991   0.4212   0.4512   0.5094   0.5149   0.6058   0.6322   0.7039
  0.7269   0.7339   0.7722   0.7825   0.7928   0.8174   0.8393   0.8831
  0.8985   1.0571   1.0819   1.0998   1.1065   1.1196   1.1231   1.1457
  1.1500   1.1894   1.1923   1.2204   1.2304   1.2848   1.2851   1.3038
  1.3769   1.3827   1.4355   1.5933   1.6315   1.6431   1.6490   1.6498
  1.6685   1.6775   1.7780   1.8036   1.8371   1.8473   1.9612   1.9668
  2.0130   2.0558   2.0749   2.1564   2.2269   2.4700   2.4952   2.5136
  2.5326   2.6392   2.6601   2.7416   2.8377   2.8399   2.8675   2.8761
  2.9135   3.0937   3.0996   3.1623   3.2525   3.2728   3.3597   3.3977
  3.4148   3.4535   3.4703   3.4774   3.4867   3.5598   3.6295   3.6423
  3.6787   3.6815   3.7721   3.7780   4.0337   4.0836   4.1093   4.1185
  4.1569   4.3115   4.7681   5.1784   5.1800   5.1856   5.1879   5.1895
  5.1902   5.2014   5.2062   5.2304   5.2336   5.2495   5.2617   5.2668
  5.3030   5.3134   5.3221   5.3335   5.4112   5.4262   5.4302   5.5509
  5.5678   5.6358   5.6564   5.6618   5.6683   5.8882   5.8959   5.9612
  6.1762   6.1873   6.3115   6.3879   6.4925   6.7515   6.8505   6.9151
  6.9277   6.9393   6.9844   7.0219   7.0299   7.0456   7.0532   7.0855
  7.2198   7.3143   7.3277   7.3516   7.3809   7.3826   7.5053   7.5364
  7.6386   7.7321   7.7897   7.8061   7.8223   7.8902   7.9520  25.1123
 25.2359  50.6439  50.6662  50.7434  50.7641
 
 Beta MOs
 -- Occupied --
-19.2803 -19.2803 -19.2802 -19.2802 -10.4321 -10.4320  -1.1773  -1.1470
 -1.0827  -1.0611  -0.7189  -0.5868  -0.5695  -0.5425  -0.5417  -0.5123
 -0.4812  -0.4184  -0.3809  -0.3740  -0.3605  -0.3305  -0.3305
 -- Virtual --
  0.0620   0.0792   0.0807   0.0903   0.0964   0.1160   0.1243   0.1302
  0.1726   0.2104   0.2265   0.2382   0.2558   0.2689   0.2930   0.2951
  0.3097   0.3122   0.3191   0.3377   0.3497   0.3510   0.3642   0.3736
  0.3991   0.4212   0.4512   0.5094   0.5149   0.6058   0.6322   0.7039
  0.7269   0.7339   0.7722   0.7825   0.7928   0.8174   0.8393   0.8831
  0.8985   1.0571   1.0819   1.0998   1.1065   1.1196   1.1231   1.1457
  1.1500   1.1894   1.1923   1.2204   1.2304   1.2848   1.2851   1.3038
  1.3769   1.3827   1.4355   1.5933   1.6315   1.6431   1.6490   1.6498
  1.6685   1.6775   1.7780   1.8036   1.8371   1.8473   1.9612   1.9668
  2.0130   2.0558   2.0749   2.1564   2.2269   2.4700   2.4952   2.5136
  2.5326   2.6392   2.6601   2.7416   2.8377   2.8399   2.8675   2.8761
  2.9135   3.0937   3.0996   3.1623   3.2525   3.2728   3.3597   3.3977
  3.4148   3.4535   3.4703   3.4774   3.4867   3.5598   3.6295   3.6423
  3.6787   3.6815   3.7721   3.7780   4.0337   4.0836   4.1093   4.1185
  4.1569   4.3115   4.7681   5.1784   5.1800   5.1856   5.1879   5.1895
  5.1902   5.2014   5.2062   5.2304   5.2336   5.2495   5.2617   5.2668
  5.3030   5.3134   5.3221   5.3335   5.4112   5.4262   5.4302   5.5509
  5.5678   5.6358   5.6564   5.6618   5.6683   5.8882   5.8959   5.9612
  6.1762   6.1873   6.3115   6.3879   6.4925   6.7515   6.8505   6.9151
  6.9277   6.9393   6.9844   7.0219   7.0299   7.0456   7.0532   7.0855
  7.2198   7.3143   7.3277   7.3516   7.3809   7.3826   7.5053   7.5364
  7.6386   7.7321   7.7897   7.8061   7.8223   7.8902   7.9520  25.1123
 25.2359  50.6439  50.6662  50.7434  50.7641
 --------------------------------------------------------------
 
          Ground-State Mulliken Net Atomic Charges

     Atom                 Charge (a.u.)    Spin (a.u.)
  --------------------------------------------------------
      1 C                     0.365271       0.000000
      2 O                    -0.682600       0.000000
      3 C                     0.365278       0.000000
      4 O                    -0.682671       0.000000
      5 O                    -0.682593       0.000000
      6 O                    -0.682684       0.000000
  --------------------------------------------------------
  Sum of atomic charges =    -2.000000
  Sum of spin   charges =     0.000000

 -----------------------------------------------------------------
                    Cartesian Multipole Moments
 -----------------------------------------------------------------
    Charge (ESU x 10^10)
                -9.6064
    Dipole Moment (Debye)
         X     -16.9813      Y      -4.3279      Z      -0.9754
       Tot      17.5513
    Quadrupole Moments (Debye-Ang)
        XX     -90.9607     XY      -9.4805     YY     -59.8569
        XZ       2.9974     YZ       1.2321     ZZ     -36.6673
    Octopole Moments (Debye-Ang^2)
       XXX    -376.1889    XXY     -47.4394    XYY    -107.4208
       YYY     -79.1076    XXZ       7.5685    XYZ       4.1277
       YYZ      -4.3731    XZZ     -63.8388    YZZ     -16.1872
       ZZZ     -10.8132
    Hexadecapole Moments (Debye-Ang^3)
      XXXX   -1657.5422   XXXY    -203.2527   XXYY    -325.7530
      XYYY    -186.2509   YYYY    -385.5671   XXXZ      49.6363
      XXYZ      11.7170   XYYZ       7.6451   YYYZ      11.3128
      XXZZ    -179.9968   XYZZ     -35.9998   YYZZ     -61.7862
      XZZZ      11.1580   YZZZ       6.4163   ZZZZ     -50.7124
 -----------------------------------------------------------------
 Calculating analytic gradient of the SCF energy
 Gradient of CDS energy
            1           2           3           4           5           6
    1  -0.0030827   0.0016958   0.0030886  -0.0000835  -0.0017000   0.0000818
    2  -0.0013874  -0.0014179   0.0013893  -0.0022202   0.0014169   0.0022193
    3   0.0006579  -0.0002311  -0.0006271   0.0001402   0.0002099  -0.0001498
 Gradient of SCF Energy
            1           2           3           4           5           6
    1  -0.0454912   0.0437802   0.0455285  -0.0171194  -0.0437950   0.0170969
    2  -0.0200339  -0.0167050   0.0200328  -0.0437322   0.0166997   0.0437387
    3   0.0109064  -0.0074062  -0.0105877   0.0059697   0.0072061  -0.0060881
 Max gradient component =       4.553E-02
 RMS gradient           =       2.805E-02
 Computing fast CPCM-SWIG gradient
 Updating gradient with PCM contributions...
 -- total gradient after adding PCM contribution --
---------------------------------------------------
  Atom         X              Y              Z     
---------------------------------------------------
   1       0.001941       0.000849       0.000068
   2      -0.000820      -0.000519       0.000231
   3      -0.002225      -0.000964      -0.001578
   4       0.001025       0.000352       0.000551
   5       0.000976       0.000573       0.000513
   6      -0.000897      -0.000291       0.000215
---------------------------------------------------
 Number of fixed atoms: 0
 Gradient time:  CPU 40.99 s  wall 6.08 s
 Geometry Optimization Parameters
   NAtoms,    NIC,     NZ,  NCons,   NDum,   NFix, NCnnct, MaxDiis
        6      27       0       0       0       0       0       0

 Cartesian Hessian Update
 Hessian updated using BFGS update


** GEOMETRY OPTIMIZATION IN DELOCALIZED INTERNAL COORDINATES **
   Searching for a Minimum

   Optimization Cycle:   2

                       Coordinates (Angstroms)
     ATOM                X               Y               Z
      1  C         1.0611275072    0.1333505117    0.2445470681
      2  O         0.0948909910    0.9233027078    0.3774257000
      3  C         2.4719067975    0.7669031960   -0.0545999536
      4  O         2.5327782229    2.0180668544   -0.1355894233
      5  O         3.4404104977   -0.0223116526   -0.1749329516
      6  O         1.0013465836   -1.1174368173    0.3316995606
   Point Group: c1    Number of degrees of freedom:    12


   Energy is   -377.485706093

 Hessian updated using BFGS update

 10 Hessian modes will be used to form the next step
  Hessian Eigenvalues:
     0.001998    0.002000    0.002177    0.249986    0.256331    0.283345
     0.701858    0.791354    0.791684    0.792012

 Minimum search - taking simple RFO step
 Searching for Lamda that Minimizes Along All modes
 Value Taken    Lamda =  -0.00077006
 Calculated Step too Large.  Step scaled by  0.596247
 Step Taken.  Stepsize is  0.300000

                             Maximum     Tolerance    Cnvgd?
         Gradient           0.001890      0.000300      NO
         Displacement       0.217502      0.001200      NO
         Energy change     -0.000225      0.000001      NO


 New Cartesian Coordinates Obtained by Inverse Iteration

 Displacement from previous Coordinates is:  0.223978
 ----------------------------------------------------------------
             Standard Nuclear Orientation (Angstroms)
    I     Atom           X                Y                Z
 ----------------------------------------------------------------
    1      C       1.0668167138     0.1357122154     0.2607179254
    2      O       0.0978208208     0.9177178168     0.3607617514
    3      C       2.4907620949     0.7734187316     0.0409015910
    4      O       2.5241756126     2.0034721116    -0.1750033476
    5      O       3.4237469276    -0.0178193522    -0.2121537349
    6      O       0.9991384301    -1.1106267233     0.3133258150
 ----------------------------------------------------------------
 Nuclear Repulsion Energy =         210.40117898 hartrees
 There are       23 alpha and       23 beta electrons
 Discretize the solute cavity surface with Lebedev spheres
	Using 110 Lebedev grid points for each H atom
	Using 194 Lebedev grid points for other atoms
	Atomic van der Waals radii will be scaled by 1.20
 Remove points where switching function is < 1.0e-08
 Keep 715 surface tesserae and discard 449 interior tesserae
 Molecular Surface Area = 89.408 Angst**2
 Applying Cartesian multipole field
    Component          Value
    ---------          -----
     (2,0,0)        1.00000E-11
     (0,2,0)        2.00000E-11
     (0,0,2)       -3.00000E-11
 Nucleus-field energy     =     0.0000000105 hartrees
 Requested basis set is 6-311++G(2df,2p)
 There are 48 shells and 204 basis functions
 A cutoff of  1.0D-12 yielded   1112 shell pairs
 There are     20430 function pairs (     26873 Cartesian)
 Smallest overlap matrix eigenvalue = 1.20E-04
 Guess MOs from SCF MO coefficient file

 -----------------------------------------------------------------------
  General SCF calculation program by
  Eric Jon Sundstrom, Paul Horn, Yuezhi Mao, Dmitri Zuev, Alec White,
  David Stuck, Shaama M.S., Shane Yost, Joonho Lee, David Small,
  Daniel Levine, Susi Lehtola, Hugh Burton, Evgeny Epifanovsky,
  Bang C. Huynh
 -----------------------------------------------------------------------
 Exchange:     0.1500 Hartree-Fock + 1.0000 wB97M-V + LR-HF
 Correlation:  1.0000 wB97M-V
 Using SG-2 standard quadrature grid
 Nonlocal Correlation:  VV10 with C = 0.0100 and b = 6.00 and scale = 1.00000
 Grid used for NLC:  SG-1 standard quadrature
 
 Citation of the SMD model:
 Marenich, A.V.; Cramer, C.J.; Truhlar, D.G.
 J. Phys. Chem. B 2009, 113, 6378-6396.
 iSolventCode=           1
 Solvent: water                                                           
 
 vradii
            1           2           3           4           5           6
    1   1.8500000   1.5200000   1.8500000   1.5200000   1.5200000   1.5200000
 -------------------------------------------------------
 OpenMP BLAS3 based DFT computing Module                
 Release: version 1.0, May 2013, Q-Chem Inc. Pittsburgh 
 -------------------------------------------------------
 A unrestricted SCF calculation will be
 performed using Roothaan-Hall, DIIS, GDM
 SCF converges when RMS gradient is below 1.0e-07
 ---------------------------------------
  Cycle       Energy         DIIS error
 ---------------------------------------
    1    -377.0931712707      7.62e-04  Roothaan Step
 ---------------------------------------
  Cycle       Energy         DIIS error
 ---------------------------------------
    1    -377.4826693258      4.08e-04  
    2    -377.4875775571      4.06e-04  Done DIIS. Switching to GDM
 ---------------------------------------
  Cycle       Energy        RMS Gradient
 ---------------------------------------
    1    -377.4875775571      1.41e-02   Normal BFGS step
    2    -377.4874568659      1.88e-02  Line search: overstep
    3    -377.4897218268      6.97e-03   Normal BFGS step
    4    -377.4899314635      3.30e-03   Normal BFGS step
    5    -377.4899780988      7.03e-04   Normal BFGS step
    6    -377.4899841437      2.83e-04   Normal BFGS step
    7    -377.4899849805      6.01e-05   Normal BFGS step
    8    -377.4899850160      6.17e-05   Normal BFGS step
    9    -377.4899850517      1.13e-05   Normal BFGS step
   10    -377.4899850525      5.36e-06   Normal BFGS step
   11    -377.4899850528      2.55e-06   Normal BFGS step
   12    -377.4899850528      5.86e-07   Normal BFGS step
   13    -377.4899850528      1.92e-07   Normal BFGS step
   14    -377.4899850528      3.31e-08  Convergence criterion met
 ---------------------------------------
 SCF time:   CPU 228.16s  wall 29.00s 
<S^2> =          0.000000000
(3)  G-ENP(liq) elect-nuc-pol free energy of system     -377.489985053 a.u.
(4)  G-CDS(liq) cavity-dispersion-solvent structure 
     free energy                                                5.5462 kcal/mol
(6)  G-S(liq) free energy of system                     -377.481146594 a.u.
 SCF   energy in the final basis set =     -377.4811465937
 Total energy in the final basis set =     -377.4811465937
 
 --------------------------------------------------------------
 
                    Orbital Energies (a.u.)
 --------------------------------------------------------------
 
 Alpha MOs
 -- Occupied --
-19.2788 -19.2787 -19.2784 -19.2784 -10.4299 -10.4291  -1.1805  -1.1499
 -1.0836  -1.0616  -0.7175  -0.5862  -0.5703  -0.5432  -0.5425  -0.5126
 -0.4828  -0.4191  -0.3809  -0.3728  -0.3595  -0.3292  -0.3289
 -- Virtual --
  0.0617   0.0787   0.0826   0.0905   0.0954   0.1164   0.1241   0.1309
  0.1729   0.2084   0.2253   0.2353   0.2586   0.2703   0.2906   0.2960
  0.3107   0.3117   0.3207   0.3408   0.3505   0.3518   0.3628   0.3736
  0.4056   0.4225   0.4468   0.5110   0.5226   0.6077   0.6357   0.6949
  0.7185   0.7310   0.7623   0.7806   0.8067   0.8232   0.8270   0.8859
  0.9230   1.0558   1.0794   1.1002   1.1094   1.1247   1.1270   1.1383
  1.1602   1.1903   1.2123   1.2128   1.2332   1.2804   1.2820   1.3001
  1.3787   1.3850   1.4255   1.5836   1.6328   1.6473   1.6504   1.6560
  1.6667   1.6829   1.7823   1.8169   1.8331   1.8576   1.9357   1.9700
  1.9775   2.0585   2.1064   2.1893   2.2266   2.4616   2.4860   2.5205
  2.5347   2.6226   2.6361   2.7399   2.8327   2.8413   2.8814   2.9101
  2.9224   3.0950   3.0976   3.1782   3.2576   3.2588   3.3644   3.3945
  3.4376   3.4489   3.4564   3.4917   3.5032   3.5741   3.6202   3.6420
  3.7060   3.7264   3.7670   3.7784   4.0332   4.0850   4.1051   4.1174
  4.1621   4.3106   4.7634   5.1787   5.1792   5.1826   5.1861   5.1907
  5.2002   5.2003   5.2080   5.2308   5.2469   5.2525   5.2657   5.2724
  5.3015   5.3188   5.3261   5.3411   5.3970   5.4337   5.4602   5.5613
  5.5983   5.6401   5.6546   5.6578   5.6800   5.8670   5.8737   5.9962
  6.1821   6.2404   6.3484   6.4085   6.5128   6.7720   6.8762   6.9259
  6.9325   6.9435   6.9907   7.0304   7.0376   7.0498   7.0562   7.0872
  7.2188   7.3301   7.3394   7.3463   7.3869   7.4039   7.4964   7.5480
  7.6546   7.7311   7.7775   7.7953   7.8278   7.8928   7.9223  25.1361
 25.2656  50.6507  50.6770  50.7510  50.7609
 
 Beta MOs
 -- Occupied --
-19.2788 -19.2787 -19.2784 -19.2784 -10.4299 -10.4291  -1.1805  -1.1499
 -1.0836  -1.0616  -0.7175  -0.5862  -0.5703  -0.5432  -0.5425  -0.5126
 -0.4828  -0.4191  -0.3809  -0.3728  -0.3595  -0.3292  -0.3289
 -- Virtual --
  0.0617   0.0787   0.0826   0.0905   0.0954   0.1164   0.1241   0.1309
  0.1729   0.2084   0.2253   0.2353   0.2586   0.2703   0.2906   0.2960
  0.3107   0.3117   0.3207   0.3408   0.3505   0.3518   0.3628   0.3736
  0.4056   0.4225   0.4468   0.5110   0.5226   0.6077   0.6357   0.6949
  0.7185   0.7310   0.7623   0.7806   0.8067   0.8232   0.8270   0.8859
  0.9230   1.0558   1.0794   1.1002   1.1094   1.1247   1.1270   1.1383
  1.1602   1.1903   1.2123   1.2128   1.2332   1.2804   1.2820   1.3001
  1.3787   1.3850   1.4255   1.5836   1.6328   1.6473   1.6504   1.6560
  1.6667   1.6829   1.7823   1.8169   1.8331   1.8576   1.9357   1.9700
  1.9775   2.0585   2.1064   2.1893   2.2266   2.4616   2.4860   2.5205
  2.5347   2.6226   2.6361   2.7399   2.8327   2.8413   2.8814   2.9101
  2.9224   3.0950   3.0976   3.1782   3.2576   3.2588   3.3644   3.3945
  3.4376   3.4489   3.4564   3.4917   3.5032   3.5741   3.6202   3.6420
  3.7060   3.7264   3.7670   3.7784   4.0332   4.0850   4.1051   4.1174
  4.1621   4.3106   4.7634   5.1787   5.1792   5.1826   5.1861   5.1907
  5.2002   5.2003   5.2080   5.2308   5.2469   5.2525   5.2657   5.2724
  5.3015   5.3188   5.3261   5.3411   5.3970   5.4337   5.4602   5.5613
  5.5983   5.6401   5.6546   5.6578   5.6800   5.8670   5.8737   5.9962
  6.1821   6.2404   6.3484   6.4085   6.5128   6.7720   6.8762   6.9259
  6.9325   6.9435   6.9907   7.0304   7.0376   7.0498   7.0562   7.0872
  7.2188   7.3301   7.3394   7.3463   7.3869   7.4039   7.4964   7.5480
  7.6546   7.7311   7.7775   7.7953   7.8278   7.8928   7.9223  25.1361
 25.2656  50.6507  50.6770  50.7510  50.7609
 --------------------------------------------------------------
 
          Ground-State Mulliken Net Atomic Charges

     Atom                 Charge (a.u.)    Spin (a.u.)
  --------------------------------------------------------
      1 C                     0.356920       0.000000
      2 O                    -0.682314       0.000000
      3 C                     0.364038       0.000000
      4 O                    -0.678206       0.000000
      5 O                    -0.678261       0.000000
      6 O                    -0.682177       0.000000
  --------------------------------------------------------
  Sum of atomic charges =    -2.000000
  Sum of spin   charges =     0.000000

 -----------------------------------------------------------------
                    Cartesian Multipole Moments
 -----------------------------------------------------------------
    Charge (ESU x 10^10)
                -9.6064
    Dipole Moment (Debye)
         X     -16.8591      Y      -4.2846      Z      -0.3827
       Tot      17.3992
    Quadrupole Moments (Debye-Ang)
        XX     -90.2508     XY      -9.3081     YY     -59.6066
        XZ       4.2647     YZ       1.6002     ZZ     -36.5974
    Octopole Moments (Debye-Ang^2)
       XXX    -372.8574    XXY     -46.6204    XYY    -106.7576
       YYY     -78.6740    XXZ      11.3974    XYZ       5.2824
       YYZ      -3.6031    XZZ     -64.0367    YZZ     -16.3084
       ZZZ     -10.0827
    Hexadecapole Moments (Debye-Ang^3)
      XXXX   -1641.1180   XXXY    -200.0002   XXYY    -322.8061
      XYYY    -185.0008   YYYY    -381.6178   XXXZ      61.1761
      XXYZ      15.3923   XYYZ       9.2671   YYYZ      11.8765
      XXZZ    -180.3544   XYZZ     -36.3780   YYZZ     -61.2949
      XZZZ      12.2133   YZZZ       6.6723   ZZZZ     -50.7354
 -----------------------------------------------------------------
 Calculating analytic gradient of the SCF energy
 Gradient of CDS energy
            1           2           3           4           5           6
    1  -0.0030048   0.0015986   0.0028827  -0.0000219  -0.0015366   0.0000819
    2  -0.0013473  -0.0013303   0.0013022  -0.0020573   0.0013481   0.0020845
    3   0.0004533  -0.0001667  -0.0009371   0.0003375   0.0003996  -0.0000867
 Gradient of SCF Energy
            1           2           3           4           5           6
    1  -0.0493758   0.0489611   0.0471127  -0.0157017  -0.0486383   0.0176420
    2  -0.0217101  -0.0207203   0.0210261  -0.0514307   0.0226621   0.0501729
    3   0.0065275  -0.0052723  -0.0126825   0.0067743   0.0082359  -0.0035828
 Max gradient component =       5.143E-02
 RMS gradient           =       3.105E-02
 Computing fast CPCM-SWIG gradient
 Updating gradient with PCM contributions...
 -- total gradient after adding PCM contribution --
---------------------------------------------------
  Atom         X              Y              Z     
---------------------------------------------------
   1      -0.002989      -0.001002      -0.013647
   2       0.005098      -0.007006       0.000870
   3       0.011302       0.004479       0.036761
   4      -0.001153      -0.013004      -0.012770
   5      -0.010681       0.008099      -0.012402
   6      -0.001578       0.008434       0.001188
---------------------------------------------------
 Number of fixed atoms: 0
 Gradient time:  CPU 40.79 s  wall 6.01 s
 Geometry Optimization Parameters
   NAtoms,    NIC,     NZ,  NCons,   NDum,   NFix, NCnnct, MaxDiis
        6      27       0       0       0       0       0       0

 Cartesian Hessian Update
 Hessian updated using BFGS update


** GEOMETRY OPTIMIZATION IN DELOCALIZED INTERNAL COORDINATES **
   Searching for a Minimum

   Optimization Cycle:   3

                       Coordinates (Angstroms)
     ATOM                X               Y               Z
      1  C         1.0668167138    0.1357122154    0.2607179254
      2  O         0.0978208208    0.9177178168    0.3607617514
      3  C         2.4907620949    0.7734187316    0.0409015910
      4  O         2.5241756126    2.0034721116   -0.1750033476
      5  O         3.4237469276   -0.0178193522   -0.2121537349
      6  O         0.9991384301   -1.1106267233    0.3133258150
   Point Group: c1    Number of degrees of freedom:    12


   Energy is   -377.481146594

 Hessian updated using BFGS update

 11 Hessian modes will be used to form the next step
  Hessian Eigenvalues:
     0.001977    0.002000    0.108599    0.249988    0.251183    0.256958
     0.272783    0.734486    0.791575    0.791686    0.792701

 Minimum search - taking simple RFO step
 Searching for Lamda that Minimizes Along All modes
 Value Taken    Lamda =  -0.00873196
 Step Taken.  Stepsize is  0.264669

                             Maximum     Tolerance    Cnvgd?
         Gradient           0.024078      0.000300      NO
         Displacement       0.206538      0.001200      NO
         Energy change      0.004559      0.000001      NO


 New Cartesian Coordinates Obtained by Inverse Iteration

 Displacement from previous Coordinates is:  0.187026
 ----------------------------------------------------------------
             Standard Nuclear Orientation (Angstroms)
    I     Atom           X                Y                Z
 ----------------------------------------------------------------
    1      C       1.0630997803     0.1339072525     0.2588980304
    2      O       0.0956946285     0.9247628775     0.3708350033
    3      C       2.4744802119     0.7677533311    -0.0408770328
    4      O       2.5290384497     2.0172466377    -0.1429920513
    5      O       3.4376659625    -0.0241492187    -0.1804406652
    6      O       1.0024815670    -1.1176460801     0.3231267158
 ----------------------------------------------------------------
 Nuclear Repulsion Energy =         209.55164031 hartrees
 There are       23 alpha and       23 beta electrons
 Discretize the solute cavity surface with Lebedev spheres
	Using 110 Lebedev grid points for each H atom
	Using 194 Lebedev grid points for other atoms
	Atomic van der Waals radii will be scaled by 1.20
 Remove points where switching function is < 1.0e-08
 Keep 705 surface tesserae and discard 459 interior tesserae
 Molecular Surface Area = 89.744 Angst**2
 Applying Cartesian multipole field
    Component          Value
    ---------          -----
     (2,0,0)        1.00000E-11
     (0,2,0)        2.00000E-11
     (0,0,2)       -3.00000E-11
 Nucleus-field energy     =     0.0000000105 hartrees
 Requested basis set is 6-311++G(2df,2p)
 There are 48 shells and 204 basis functions
 A cutoff of  1.0D-12 yielded   1108 shell pairs
 There are     20420 function pairs (     26863 Cartesian)
 Smallest overlap matrix eigenvalue = 1.17E-04
 Guess MOs from SCF MO coefficient file

 -----------------------------------------------------------------------
  General SCF calculation program by
  Eric Jon Sundstrom, Paul Horn, Yuezhi Mao, Dmitri Zuev, Alec White,
  David Stuck, Shaama M.S., Shane Yost, Joonho Lee, David Small,
  Daniel Levine, Susi Lehtola, Hugh Burton, Evgeny Epifanovsky,
  Bang C. Huynh
 -----------------------------------------------------------------------
 Exchange:     0.1500 Hartree-Fock + 1.0000 wB97M-V + LR-HF
 Correlation:  1.0000 wB97M-V
 Using SG-2 standard quadrature grid
 Nonlocal Correlation:  VV10 with C = 0.0100 and b = 6.00 and scale = 1.00000
 Grid used for NLC:  SG-1 standard quadrature
 
 Citation of the SMD model:
 Marenich, A.V.; Cramer, C.J.; Truhlar, D.G.
 J. Phys. Chem. B 2009, 113, 6378-6396.
 iSolventCode=           1
 Solvent: water                                                           
 
 vradii
            1           2           3           4           5           6
    1   1.8500000   1.5200000   1.8500000   1.5200000   1.5200000   1.5200000
 -------------------------------------------------------
 OpenMP BLAS3 based DFT computing Module                
 Release: version 1.0, May 2013, Q-Chem Inc. Pittsburgh 
 -------------------------------------------------------
 A unrestricted SCF calculation will be
 performed using Roothaan-Hall, DIIS, GDM
 SCF converges when RMS gradient is below 1.0e-07
 ---------------------------------------
  Cycle       Energy         DIIS error
 ---------------------------------------
    1    -377.1038185792      6.51e-04  Roothaan Step
 ---------------------------------------
  Cycle       Energy         DIIS error
 ---------------------------------------
    1    -377.4878310055      3.76e-04  
    2    -377.4924071984      3.71e-04  Done DIIS. Switching to GDM
 ---------------------------------------
  Cycle       Energy        RMS Gradient
 ---------------------------------------
    1    -377.4924071984      1.29e-02   Normal BFGS step
    2    -377.4923470583      1.89e-02  Line search: overstep
    3    -377.4941788151      5.23e-03   Normal BFGS step
    4    -377.4943449659      2.84e-03   Normal BFGS step
    5    -377.4943793937      8.48e-04   Normal BFGS step
    6    -377.4943837570      3.95e-04   Normal BFGS step
    7    -377.4943845022      5.65e-05   Normal BFGS step
    8    -377.4943845232      2.09e-05   Normal BFGS step
    9    -377.4943845286      1.09e-05   Normal BFGS step
   10    -377.4943845302      2.90e-06   Normal BFGS step
   11    -377.4943845302      2.73e-06   Normal BFGS step
   12    -377.4943845303      2.37e-07   Normal BFGS step
   13    -377.4943845303      1.34e-07   Normal BFGS step
   14    -377.4943845303      4.34e-08  Convergence criterion met
 ---------------------------------------
 SCF time:   CPU 225.14s  wall 29.00s 
<S^2> =         -0.000000000
(3)  G-ENP(liq) elect-nuc-pol free energy of system     -377.494384530 a.u.
(4)  G-CDS(liq) cavity-dispersion-solvent structure 
     free energy                                                5.4882 kcal/mol
(6)  G-S(liq) free energy of system                     -377.485638478 a.u.
 SCF   energy in the final basis set =     -377.4856384776
 Total energy in the final basis set =     -377.4856384776
 
 --------------------------------------------------------------
 
                    Orbital Energies (a.u.)
 --------------------------------------------------------------
 
 Alpha MOs
 -- Occupied --
-19.2802 -19.2801 -19.2801 -19.2801 -10.4317 -10.4316  -1.1774  -1.1469
 -1.0831  -1.0614  -0.7182  -0.5867  -0.5696  -0.5426  -0.5417  -0.5124
 -0.4813  -0.4182  -0.3814  -0.3741  -0.3605  -0.3305  -0.3298
 -- Virtual --
  0.0620   0.0793   0.0812   0.0903   0.0963   0.1160   0.1243   0.1302
  0.1726   0.2104   0.2265   0.2382   0.2560   0.2692   0.2929   0.2950
  0.3098   0.3121   0.3192   0.3378   0.3498   0.3514   0.3642   0.3735
  0.3996   0.4211   0.4511   0.5110   0.5150   0.6050   0.6325   0.7031
  0.7266   0.7335   0.7724   0.7822   0.7944   0.8176   0.8404   0.8836
  0.8978   1.0567   1.0814   1.1000   1.1065   1.1197   1.1233   1.1453
  1.1496   1.1881   1.1937   1.2202   1.2311   1.2847   1.2861   1.3040
  1.3765   1.3846   1.4348   1.5959   1.6306   1.6418   1.6482   1.6495
  1.6699   1.6784   1.7814   1.8012   1.8343   1.8472   1.9629   1.9657
  2.0133   2.0570   2.0759   2.1593   2.2255   2.4714   2.4961   2.5130
  2.5322   2.6397   2.6573   2.7420   2.8396   2.8412   2.8672   2.8766
  2.9139   3.0945   3.0977   3.1627   3.2538   3.2706   3.3600   3.3978
  3.4148   3.4545   3.4711   3.4778   3.4868   3.5617   3.6266   3.6437
  3.6783   3.6839   3.7717   3.7790   4.0329   4.0856   4.1068   4.1188
  4.1582   4.3144   4.7671   5.1786   5.1800   5.1857   5.1876   5.1891
  5.1902   5.2010   5.2065   5.2307   5.2341   5.2496   5.2621   5.2668
  5.3029   5.3153   5.3225   5.3333   5.4131   5.4279   5.4333   5.5521
  5.5670   5.6365   5.6539   5.6602   5.6707   5.8887   5.8966   5.9590
  6.1774   6.1890   6.3170   6.3887   6.4993   6.7561   6.8530   6.9184
  6.9275   6.9394   6.9847   7.0222   7.0290   7.0462   7.0536   7.0855
  7.2228   7.3116   7.3271   7.3524   7.3802   7.3850   7.5060   7.5382
  7.6378   7.7321   7.7904   7.8137   7.8214   7.8912   7.9513  25.1131
 25.2381  50.6443  50.6673  50.7443  50.7643
 
 Beta MOs
 -- Occupied --
-19.2802 -19.2801 -19.2801 -19.2801 -10.4317 -10.4316  -1.1774  -1.1469
 -1.0831  -1.0614  -0.7182  -0.5867  -0.5696  -0.5426  -0.5417  -0.5124
 -0.4813  -0.4182  -0.3814  -0.3741  -0.3605  -0.3305  -0.3298
 -- Virtual --
  0.0620   0.0793   0.0812   0.0903   0.0963   0.1160   0.1243   0.1302
  0.1726   0.2104   0.2265   0.2382   0.2560   0.2692   0.2929   0.2950
  0.3098   0.3121   0.3192   0.3378   0.3498   0.3514   0.3642   0.3735
  0.3996   0.4211   0.4511   0.5110   0.5150   0.6050   0.6325   0.7031
  0.7266   0.7335   0.7724   0.7822   0.7944   0.8176   0.8404   0.8836
  0.8978   1.0567   1.0814   1.1000   1.1065   1.1197   1.1233   1.1453
  1.1496   1.1881   1.1937   1.2202   1.2311   1.2847   1.2861   1.3040
  1.3765   1.3846   1.4348   1.5959   1.6306   1.6418   1.6482   1.6495
  1.6699   1.6784   1.7814   1.8012   1.8343   1.8472   1.9629   1.9657
  2.0133   2.0570   2.0759   2.1593   2.2255   2.4714   2.4961   2.5130
  2.5322   2.6397   2.6573   2.7420   2.8396   2.8412   2.8672   2.8766
  2.9139   3.0945   3.0977   3.1627   3.2538   3.2706   3.3600   3.3978
  3.4148   3.4545   3.4711   3.4778   3.4868   3.5617   3.6266   3.6437
  3.6783   3.6839   3.7717   3.7790   4.0329   4.0856   4.1068   4.1188
  4.1582   4.3144   4.7671   5.1786   5.1800   5.1857   5.1876   5.1891
  5.1902   5.2010   5.2065   5.2307   5.2341   5.2496   5.2621   5.2668
  5.3029   5.3153   5.3225   5.3333   5.4131   5.4279   5.4333   5.5521
  5.5670   5.6365   5.6539   5.6602   5.6707   5.8887   5.8966   5.9590
  6.1774   6.1890   6.3170   6.3887   6.4993   6.7561   6.8530   6.9184
  6.9275   6.9394   6.9847   7.0222   7.0290   7.0462   7.0536   7.0855
  7.2228   7.3116   7.3271   7.3524   7.3802   7.3850   7.5060   7.5382
  7.6378   7.7321   7.7904   7.8137   7.8214   7.8912   7.9513  25.1131
 25.2381  50.6443  50.6673  50.7443  50.7643
 --------------------------------------------------------------
 
          Ground-State Mulliken Net Atomic Charges

     Atom                 Charge (a.u.)    Spin (a.u.)
  --------------------------------------------------------
      1 C                     0.364400       0.000000
      2 O                    -0.681999       0.000000
      3 C                     0.364488       0.000000
      4 O                    -0.682447       0.000000
      5 O                    -0.682414       0.000000
      6 O                    -0.682028       0.000000
  --------------------------------------------------------
  Sum of atomic charges =    -2.000000
  Sum of spin   charges =     0.000000

 -----------------------------------------------------------------
                    Cartesian Multipole Moments
 -----------------------------------------------------------------
    Charge (ESU x 10^10)
                -9.6064
    Dipole Moment (Debye)
         X     -16.9602      Y      -4.3217      Z      -0.8256
       Tot      17.5216
    Quadrupole Moments (Debye-Ang)
        XX     -90.8317     XY      -9.4319     YY     -59.8431
        XZ       3.2502     YZ       1.2934     ZZ     -36.6343
    Octopole Moments (Debye-Ang^2)
       XXX    -375.5638    XXY     -47.2061    XYY    -107.3321
       YYY     -79.0739    XXZ       8.2787    XYZ       4.3439
       YYZ      -4.1991    XZZ     -63.8799    YZZ     -16.2271
       ZZZ     -10.6203
    Hexadecapole Moments (Debye-Ang^3)
      XXXX   -1654.2199   XXXY    -202.1035   XXYY    -325.2689
      XYYY    -185.9010   YYYY    -385.4967   XXXZ      51.7530
      XXYZ      12.3930   XYYZ       8.0194   YYYZ      11.4804
      XXZZ    -180.0656   XYZZ     -36.0230   YYZZ     -61.7954
      XZZZ      11.3883   YZZZ       6.4473   ZZZZ     -50.6205
 -----------------------------------------------------------------
 Calculating analytic gradient of the SCF energy
 Gradient of CDS energy
            1           2           3           4           5           6
    1  -0.0030799   0.0016879   0.0030654  -0.0000743  -0.0016840   0.0000849
    2  -0.0013844  -0.0014083   0.0013802  -0.0022065   0.0014132   0.0022057
    3   0.0005850  -0.0001957  -0.0006933   0.0001747   0.0002406  -0.0001113
 Gradient of SCF Energy
            1           2           3           4           5           6
    1  -0.0466664   0.0443396   0.0462729  -0.0171857  -0.0441176   0.0173572
    2  -0.0205255  -0.0169219   0.0204202  -0.0440792   0.0168249   0.0442815
    3   0.0103784  -0.0071309  -0.0115085   0.0064092   0.0076231  -0.0057713
 Max gradient component =       4.667E-02
 RMS gradient           =       2.844E-02
 Computing fast CPCM-SWIG gradient
 Updating gradient with PCM contributions...
 -- total gradient after adding PCM contribution --
---------------------------------------------------
  Atom         X              Y              Z     
---------------------------------------------------
   1       0.000851       0.000304       0.003972
   2      -0.000079      -0.000263      -0.001712
   3      -0.000379      -0.000157       0.001344
   4      -0.000046      -0.000141      -0.000914
   5      -0.000156       0.000109      -0.000952
   6      -0.000191       0.000147      -0.001738
---------------------------------------------------
 Number of fixed atoms: 0
 Gradient time:  CPU 40.32 s  wall 5.88 s
 Geometry Optimization Parameters
   NAtoms,    NIC,     NZ,  NCons,   NDum,   NFix, NCnnct, MaxDiis
        6      27       0       0       0       0       0       0

 Cartesian Hessian Update
 Hessian updated using BFGS update


** GEOMETRY OPTIMIZATION IN DELOCALIZED INTERNAL COORDINATES **
   Searching for a Minimum

   Optimization Cycle:   4

                       Coordinates (Angstroms)
     ATOM                X               Y               Z
      1  C         1.0630997803    0.1339072525    0.2588980304
      2  O         0.0956946285    0.9247628775    0.3708350033
      3  C         2.4744802119    0.7677533311   -0.0408770328
      4  O         2.5290384497    2.0172466377   -0.1429920513
      5  O         3.4376659625   -0.0241492187   -0.1804406652
      6  O         1.0024815670   -1.1176460801    0.3231267158
   Point Group: c1    Number of degrees of freedom:    12


   Energy is   -377.485638478

 Hessian updated using BFGS update

 12 Hessian modes will be used to form the next step
  Hessian Eigenvalues:
     0.001965    0.002000    0.112306    0.249988    0.250000    0.251564
     0.256601    0.272725    0.733009    0.791583    0.791686    0.792816

 Minimum search - taking simple RFO step
 Searching for Lamda that Minimizes Along All modes
 Value Taken    Lamda =  -0.00314329
 Calculated Step too Large.  Step scaled by  0.383210
 Step Taken.  Stepsize is  0.300000

                             Maximum     Tolerance    Cnvgd?
         Gradient           0.003975      0.000300      NO
         Displacement       0.252589      0.001200      NO
         Energy change     -0.004492      0.000001      NO


 New Cartesian Coordinates Obtained by Inverse Iteration

 Displacement from previous Coordinates is:  0.238475
 ----------------------------------------------------------------
             Standard Nuclear Orientation (Angstroms)
    I     Atom           X                Y                Z
 ----------------------------------------------------------------
    1      C       1.0441644197     0.1276595801     0.1620100269
    2      O       0.1093150119     0.9283835965     0.4117415370
    3      C       2.4663397743     0.7648689683    -0.0746772417
    4      O       2.5289931992     2.0187846941    -0.1186064055
    5      O       3.4388336236    -0.0260170046    -0.1556479119
    6      O       1.0148145712    -1.1118050345     0.3637299954
 ----------------------------------------------------------------
 Nuclear Repulsion Energy =         209.63916731 hartrees
 There are       23 alpha and       23 beta electrons
 Discretize the solute cavity surface with Lebedev spheres
	Using 110 Lebedev grid points for each H atom
	Using 194 Lebedev grid points for other atoms
	Atomic van der Waals radii will be scaled by 1.20
 Remove points where switching function is < 1.0e-08
 Keep 710 surface tesserae and discard 454 interior tesserae
 Molecular Surface Area = 89.663 Angst**2
 Applying Cartesian multipole field
    Component          Value
    ---------          -----
     (2,0,0)        1.00000E-11
     (0,2,0)        2.00000E-11
     (0,0,2)       -3.00000E-11
 Nucleus-field energy     =     0.0000000105 hartrees
 Requested basis set is 6-311++G(2df,2p)
 There are 48 shells and 204 basis functions
 A cutoff of  1.0D-12 yielded   1110 shell pairs
 There are     20422 function pairs (     26865 Cartesian)
 Smallest overlap matrix eigenvalue = 1.20E-04
 Guess MOs from SCF MO coefficient file

 -----------------------------------------------------------------------
  General SCF calculation program by
  Eric Jon Sundstrom, Paul Horn, Yuezhi Mao, Dmitri Zuev, Alec White,
  David Stuck, Shaama M.S., Shane Yost, Joonho Lee, David Small,
  Daniel Levine, Susi Lehtola, Hugh Burton, Evgeny Epifanovsky,
  Bang C. Huynh
 -----------------------------------------------------------------------
 Exchange:     0.1500 Hartree-Fock + 1.0000 wB97M-V + LR-HF
 Correlation:  1.0000 wB97M-V
 Using SG-2 standard quadrature grid
 Nonlocal Correlation:  VV10 with C = 0.0100 and b = 6.00 and scale = 1.00000
 Grid used for NLC:  SG-1 standard quadrature
 
 Citation of the SMD model:
 Marenich, A.V.; Cramer, C.J.; Truhlar, D.G.
 J. Phys. Chem. B 2009, 113, 6378-6396.
 iSolventCode=           1
 Solvent: water                                                           
 
 vradii
            1           2           3           4           5           6
    1   1.8500000   1.5200000   1.8500000   1.5200000   1.5200000   1.5200000
 -------------------------------------------------------
 OpenMP BLAS3 based DFT computing Module                
 Release: version 1.0, May 2013, Q-Chem Inc. Pittsburgh 
 -------------------------------------------------------
 A unrestricted SCF calculation will be
 performed using Roothaan-Hall, DIIS, GDM
 SCF converges when RMS gradient is below 1.0e-07
 ---------------------------------------
  Cycle       Energy         DIIS error
 ---------------------------------------
    1    -377.0919087233      8.03e-04  Roothaan Step
 ---------------------------------------
  Cycle       Energy         DIIS error
 ---------------------------------------
    1    -377.4831259243      4.17e-04  
    2    -377.4883450204      4.15e-04  Done DIIS. Switching to GDM
 ---------------------------------------
  Cycle       Energy        RMS Gradient
 ---------------------------------------
    1    -377.4883450204      1.37e-02   Normal BFGS step
    2    -377.4882505924      1.87e-02  Line search: overstep
    3    -377.4906082626      6.65e-03   Normal BFGS step
    4    -377.4908585068      3.75e-03   Normal BFGS step
    5    -377.4909194186      8.32e-04   Normal BFGS step
    6    -377.4909268085      3.27e-04   Normal BFGS step
    7    -377.4909277812      5.64e-05   Normal BFGS step
    8    -377.4909278161      5.31e-05   Normal BFGS step
    9    -377.4909278549      1.16e-05   Normal BFGS step
   10    -377.4909278558      4.78e-06   Normal BFGS step
   11    -377.4909278560      2.22e-06   Normal BFGS step
   12    -377.4909278561      5.64e-07   Normal BFGS step
   13    -377.4909278561      2.23e-07   Normal BFGS step
   14    -377.4909278561      3.52e-08  Convergence criterion met
 ---------------------------------------
 SCF time:   CPU 225.82s  wall 29.00s 
<S^2> =         -0.000000000
(3)  G-ENP(liq) elect-nuc-pol free energy of system     -377.490927856 a.u.
(4)  G-CDS(liq) cavity-dispersion-solvent structure 
     free energy                                                5.4758 kcal/mol
(6)  G-S(liq) free energy of system                     -377.482201646 a.u.
 SCF   energy in the final basis set =     -377.4822016463
 Total energy in the final basis set =     -377.4822016463
 
 --------------------------------------------------------------
 
                    Orbital Energies (a.u.)
 --------------------------------------------------------------
 
 Alpha MOs
 -- Occupied --
-19.2803 -19.2803 -19.2801 -19.2801 -10.4325 -10.4319  -1.1771  -1.1461
 -1.0825  -1.0605  -0.7179  -0.5867  -0.5694  -0.5423  -0.5414  -0.5121
 -0.4807  -0.4174  -0.3823  -0.3732  -0.3598  -0.3300  -0.3297
 -- Virtual --
  0.0615   0.0783   0.0809   0.0905   0.0957   0.1163   0.1243   0.1313
  0.1723   0.2086   0.2216   0.2357   0.2582   0.2706   0.2904   0.2953
  0.3105   0.3117   0.3205   0.3400   0.3505   0.3521   0.3626   0.3727
  0.4033   0.4226   0.4468   0.5080   0.5133   0.5991   0.6344   0.6936
  0.7184   0.7309   0.7643   0.7800   0.7983   0.8208   0.8288   0.8868
  0.9107   1.0554   1.0789   1.1006   1.1075   1.1239   1.1278   1.1400
  1.1569   1.1878   1.2106   1.2140   1.2347   1.2821   1.2845   1.3024
  1.3778   1.3783   1.4264   1.5868   1.6313   1.6414   1.6459   1.6529
  1.6685   1.6831   1.7796   1.7998   1.8296   1.8357   1.9337   1.9756
  1.9775   2.0559   2.0913   2.1856   2.2156   2.4623   2.4816   2.5156
  2.5275   2.6170   2.6345   2.7437   2.8336   2.8360   2.8774   2.8937
  2.9178   3.0920   3.0922   3.1803   3.2529   3.2581   3.3722   3.3978
  3.4278   3.4429   3.4645   3.4881   3.4999   3.5644   3.6138   3.6350
  3.6960   3.7122   3.7689   3.7690   4.0332   4.0768   4.0975   4.1115
  4.1648   4.3040   4.7578   5.1792   5.1796   5.1827   5.1858   5.1902
  5.1950   5.1986   5.2064   5.2292   5.2433   5.2489   5.2635   5.2686
  5.2992   5.3162   5.3250   5.3358   5.3984   5.4288   5.4499   5.5469
  5.5768   5.6307   5.6392   5.6500   5.6613   5.8602   5.8653   5.9590
  6.1571   6.2045   6.3253   6.3839   6.5026   6.7483   6.8489   6.9113
  6.9286   6.9416   6.9878   7.0214   7.0262   7.0467   7.0534   7.0815
  7.2154   7.2938   7.3311   7.3410   7.3807   7.4014   7.4904   7.5326
  7.6405   7.7329   7.7794   7.7862   7.8153   7.8859   7.9350  25.1035
 25.2333  50.6428  50.6644  50.7413  50.7512
 
 Beta MOs
 -- Occupied --
-19.2803 -19.2803 -19.2801 -19.2801 -10.4325 -10.4319  -1.1771  -1.1461
 -1.0825  -1.0605  -0.7179  -0.5867  -0.5694  -0.5423  -0.5414  -0.5121
 -0.4807  -0.4174  -0.3823  -0.3732  -0.3598  -0.3300  -0.3297
 -- Virtual --
  0.0615   0.0783   0.0809   0.0905   0.0957   0.1163   0.1243   0.1313
  0.1723   0.2086   0.2216   0.2357   0.2582   0.2706   0.2904   0.2953
  0.3105   0.3117   0.3205   0.3400   0.3505   0.3521   0.3626   0.3727
  0.4033   0.4226   0.4468   0.5080   0.5133   0.5991   0.6344   0.6936
  0.7184   0.7309   0.7643   0.7800   0.7983   0.8208   0.8288   0.8868
  0.9107   1.0554   1.0789   1.1006   1.1075   1.1239   1.1278   1.1400
  1.1569   1.1878   1.2106   1.2140   1.2347   1.2821   1.2845   1.3024
  1.3778   1.3783   1.4264   1.5868   1.6313   1.6414   1.6459   1.6529
  1.6685   1.6831   1.7796   1.7998   1.8296   1.8357   1.9337   1.9756
  1.9775   2.0559   2.0913   2.1856   2.2156   2.4623   2.4816   2.5156
  2.5275   2.6170   2.6345   2.7437   2.8336   2.8360   2.8774   2.8937
  2.9178   3.0920   3.0922   3.1803   3.2529   3.2581   3.3722   3.3978
  3.4278   3.4429   3.4645   3.4881   3.4999   3.5644   3.6138   3.6350
  3.6960   3.7122   3.7689   3.7690   4.0332   4.0768   4.0975   4.1115
  4.1648   4.3040   4.7578   5.1792   5.1796   5.1827   5.1858   5.1902
  5.1950   5.1986   5.2064   5.2292   5.2433   5.2489   5.2635   5.2686
  5.2992   5.3162   5.3250   5.3358   5.3984   5.4288   5.4499   5.5469
  5.5768   5.6307   5.6392   5.6500   5.6613   5.8602   5.8653   5.9590
  6.1571   6.2045   6.3253   6.3839   6.5026   6.7483   6.8489   6.9113
  6.9286   6.9416   6.9878   7.0214   7.0262   7.0467   7.0534   7.0815
  7.2154   7.2938   7.3311   7.3410   7.3807   7.4014   7.4904   7.5326
  7.6405   7.7329   7.7794   7.7862   7.8153   7.8859   7.9350  25.1035
 25.2333  50.6428  50.6644  50.7413  50.7512
 --------------------------------------------------------------
 
          Ground-State Mulliken Net Atomic Charges

     Atom                 Charge (a.u.)    Spin (a.u.)
  --------------------------------------------------------
      1 C                     0.362084       0.000000
      2 O                    -0.677681       0.000000
      3 C                     0.356300       0.000000
      4 O                    -0.681395       0.000000
      5 O                    -0.681225       0.000000
      6 O                    -0.678083       0.000000
  --------------------------------------------------------
  Sum of atomic charges =    -2.000000
  Sum of spin   charges =     0.000000

 -----------------------------------------------------------------
                    Cartesian Multipole Moments
 -----------------------------------------------------------------
    Charge (ESU x 10^10)
                -9.6064
    Dipole Moment (Debye)
         X     -17.0969      Y      -4.3674      Z      -1.5184
       Tot      17.7111
    Quadrupole Moments (Debye-Ang)
        XX     -91.1118     XY      -9.4903     YY     -59.8621
        XZ       2.1671     YZ       1.0501     ZZ     -36.8624
    Octopole Moments (Debye-Ang^2)
       XXX    -376.5897    XXY     -47.4319    XYY    -107.4939
       YYY     -79.2003    XXZ       5.2511    XYZ       3.5415
       YYZ      -4.8782    XZZ     -63.8185    YZZ     -16.1212
       ZZZ     -11.5225
    Hexadecapole Moments (Debye-Ang^3)
      XXXX   -1656.8076   XXXY    -202.7614   XXYY    -325.5368
      XYYY    -185.8271   YYYY    -385.5030   XXXZ      41.7221
      XXYZ       9.7782   XYYZ       6.3151   YYYZ      10.4025
      XXZZ    -179.2409   XYZZ     -35.6522   YYZZ     -61.7625
      XZZZ       9.8194   YZZZ       6.0699   ZZZZ     -51.3592
 -----------------------------------------------------------------
 Calculating analytic gradient of the SCF energy
 Gradient of CDS energy
            1           2           3           4           5           6
    1  -0.0030007   0.0016510   0.0031339  -0.0000914  -0.0017221   0.0000293
    2  -0.0013586  -0.0014452   0.0014060  -0.0022416   0.0014270   0.0022124
    3   0.0009822  -0.0004261  -0.0004431   0.0000807   0.0001467  -0.0003404
 Gradient of SCF Energy
            1           2           3           4           5           6
    1  -0.0424188   0.0431592   0.0440929  -0.0173600  -0.0432551   0.0157817
    2  -0.0187997  -0.0176337   0.0192438  -0.0428095   0.0160743   0.0439248
    3   0.0111448  -0.0074185  -0.0060570   0.0035875   0.0047732  -0.0060300
 Max gradient component =       4.409E-02
 RMS gradient           =       2.725E-02
 Computing fast CPCM-SWIG gradient
 Updating gradient with PCM contributions...
 -- total gradient after adding PCM contribution --
---------------------------------------------------
  Atom         X              Y              Z     
---------------------------------------------------
   1      -0.006797      -0.002299      -0.033355
   2       0.003833       0.001014       0.012158
   3      -0.001549      -0.000973       0.007713
   4      -0.000385       0.002236       0.000721
   5       0.001509      -0.001628       0.000568
   6       0.003389       0.001650       0.012195
---------------------------------------------------
 Number of fixed atoms: 0
 Gradient time:  CPU 40.87 s  wall 6.15 s
 Geometry Optimization Parameters
   NAtoms,    NIC,     NZ,  NCons,   NDum,   NFix, NCnnct, MaxDiis
        6      27       0       0       0       0       0       0

 Cartesian Hessian Update
 Hessian updated using BFGS update


** GEOMETRY OPTIMIZATION IN DELOCALIZED INTERNAL COORDINATES **
   Searching for a Minimum

   Optimization Cycle:   5

                       Coordinates (Angstroms)
     ATOM                X               Y               Z
      1  C         1.0441644197    0.1276595801    0.1620100269
      2  O         0.1093150119    0.9283835965    0.4117415370
      3  C         2.4663397743    0.7648689683   -0.0746772417
      4  O         2.5289931992    2.0187846941   -0.1186064055
      5  O         3.4388336236   -0.0260170046   -0.1556479119
      6  O         1.0148145712   -1.1118050345    0.3637299954
   Point Group: c1    Number of degrees of freedom:    12


   Energy is   -377.482201646

 Hessian updated using BFGS update

 12 Hessian modes will be used to form the next step
  Hessian Eigenvalues:
     0.002000    0.096077    0.119673    0.249985    0.249996    0.252448
     0.256575    0.274970    0.733739    0.791610    0.791686    0.793238

 Minimum search - taking simple RFO step
 Searching for Lamda that Minimizes Along All modes
 Value Taken    Lamda =  -0.00677275
 Step Taken.  Stepsize is  0.244239

                             Maximum     Tolerance    Cnvgd?
         Gradient           0.020613      0.000300      NO
         Displacement       0.197423      0.001200      NO
         Energy change      0.003437      0.000001      NO


 New Cartesian Coordinates Obtained by Inverse Iteration

 Displacement from previous Coordinates is:  0.191729
 ----------------------------------------------------------------
             Standard Nuclear Orientation (Angstroms)
    I     Atom           X                Y                Z
 ----------------------------------------------------------------
    1      C       1.0599353121     0.1328903212     0.2411092221
    2      O       0.0959276645     0.9242816789     0.3799220702
    3      C       2.4738739755     0.7677363624    -0.0519309326
    4      O       2.5307308448     2.0183557636    -0.1376765076
    5      O       3.4397769040    -0.0237613462    -0.1738292769
    6      O       1.0022158990    -1.1176279800     0.3309554250
 ----------------------------------------------------------------
 Nuclear Repulsion Energy =         209.46132571 hartrees
 There are       23 alpha and       23 beta electrons
 Discretize the solute cavity surface with Lebedev spheres
	Using 110 Lebedev grid points for each H atom
	Using 194 Lebedev grid points for other atoms
	Atomic van der Waals radii will be scaled by 1.20
 Remove points where switching function is < 1.0e-08
 Keep 707 surface tesserae and discard 457 interior tesserae
 Molecular Surface Area = 89.757 Angst**2
 Applying Cartesian multipole field
    Component          Value
    ---------          -----
     (2,0,0)        1.00000E-11
     (0,2,0)        2.00000E-11
     (0,0,2)       -3.00000E-11
 Nucleus-field energy     =     0.0000000105 hartrees
 Requested basis set is 6-311++G(2df,2p)
 There are 48 shells and 204 basis functions
 A cutoff of  1.0D-12 yielded   1108 shell pairs
 There are     20420 function pairs (     26863 Cartesian)
 Smallest overlap matrix eigenvalue = 1.18E-04
 Guess MOs from SCF MO coefficient file

 -----------------------------------------------------------------------
  General SCF calculation program by
  Eric Jon Sundstrom, Paul Horn, Yuezhi Mao, Dmitri Zuev, Alec White,
  David Stuck, Shaama M.S., Shane Yost, Joonho Lee, David Small,
  Daniel Levine, Susi Lehtola, Hugh Burton, Evgeny Epifanovsky,
  Bang C. Huynh
 -----------------------------------------------------------------------
 Exchange:     0.1500 Hartree-Fock + 1.0000 wB97M-V + LR-HF
 Correlation:  1.0000 wB97M-V
 Using SG-2 standard quadrature grid
 Nonlocal Correlation:  VV10 with C = 0.0100 and b = 6.00 and scale = 1.00000
 Grid used for NLC:  SG-1 standard quadrature
 
 Citation of the SMD model:
 Marenich, A.V.; Cramer, C.J.; Truhlar, D.G.
 J. Phys. Chem. B 2009, 113, 6378-6396.
 iSolventCode=           1
 Solvent: water                                                           
 
 vradii
            1           2           3           4           5           6
    1   1.8500000   1.5200000   1.8500000   1.5200000   1.5200000   1.5200000
[...]
 Applying Cartesian multipole field
    Component          Value
    ---------          -----
     (2,0,0)        1.00000E-11
     (0,2,0)        2.00000E-11
     (0,0,2)       -3.00000E-11
 Nucleus-field energy     =     0.0000000099 hartrees
 Requested basis set is 6-311++G(2df,2p)
 There are 48 shells and 204 basis functions
 A cutoff of  1.0D-12 yielded   1114 shell pairs
 There are     20558 function pairs (     27091 Cartesian)
 Smallest overlap matrix eigenvalue = 1.67E-04
 Guess MOs from SCF MO coefficient file

 -----------------------------------------------------------------------
  General SCF calculation program by
  Eric Jon Sundstrom, Paul Horn, Yuezhi Mao, Dmitri Zuev, Alec White,
  David Stuck, Shaama M.S., Shane Yost, Joonho Lee, David Small,
  Daniel Levine, Susi Lehtola, Hugh Burton, Evgeny Epifanovsky,
  Bang C. Huynh
 -----------------------------------------------------------------------
 Exchange:     0.1500 Hartree-Fock + 1.0000 wB97M-V + LR-HF
 Correlation:  1.0000 wB97M-V
 Using SG-2 standard quadrature grid
 Nonlocal Correlation:  VV10 with C = 0.0100 and b = 6.00 and scale = 1.00000
 Grid used for NLC:  SG-1 standard quadrature
 
 Citation of the SMD model:
 Marenich, A.V.; Cramer, C.J.; Truhlar, D.G.
 J. Phys. Chem. B 2009, 113, 6378-6396.
 iSolventCode=           1
 Solvent: water                                                           
 
 vradii
            1           2           3           4           5           6
    1   1.8500000   1.5200000   1.8500000   1.5200000   1.5200000   1.5200000
 -------------------------------------------------------
 OpenMP BLAS3 based DFT computing Module                
 Release: version 1.0, May 2013, Q-Chem Inc. Pittsburgh 
 -------------------------------------------------------
 A unrestricted SCF calculation will be
 performed using Roothaan-Hall, DIIS, GDM
 SCF converges when RMS gradient is below 1.0e-07
 ---------------------------------------
  Cycle       Energy         DIIS error
 ---------------------------------------
    1    -377.1172929215      2.64e-04  Roothaan Step
 ---------------------------------------
  Cycle       Energy         DIIS error
 ---------------------------------------
    1    -377.4893522561      3.33e-04  
    2    -377.4930901538      3.33e-04  Done DIIS. Switching to GDM
 ---------------------------------------
  Cycle       Energy        RMS Gradient
 ---------------------------------------
    1    -377.4930901538      1.03e-02   Normal BFGS step
    2    -377.4930364213      1.31e-02  Line search: overstep
    3    -377.4944686870      3.21e-03   Normal BFGS step
    4    -377.4945505066      1.46e-03   Normal BFGS step
    5    -377.4945642068      2.31e-04   Normal BFGS step
    6    -377.4945648847      8.87e-05   Normal BFGS step
    7    -377.4945649536      2.46e-05   Normal BFGS step
    8    -377.4945649562      9.27e-06   Normal BFGS step
    9    -377.4945649566      4.50e-06   Normal BFGS step
   10    -377.4945649569      4.54e-07   Normal BFGS step
   11    -377.4945649569      1.34e-07   Normal BFGS step
   12    -377.4945649569      4.66e-08  Convergence criterion met
 ---------------------------------------
 SCF time:   CPU 195.78s  wall 24.00s 
<S^2> =          0.000000000
(3)  G-ENP(liq) elect-nuc-pol free energy of system     -377.494564957 a.u.
(4)  G-CDS(liq) cavity-dispersion-solvent structure 
     free energy                                                5.4370 kcal/mol
(6)  G-S(liq) free energy of system                     -377.485900539 a.u.
 SCF   energy in the final basis set =     -377.4859005386
 Total energy in the final basis set =     -377.4859005386
 
 --------------------------------------------------------------
 
                    Orbital Energies (a.u.)
 --------------------------------------------------------------
 
 Alpha MOs
 -- Occupied --
-19.2813 -19.2813 -19.2813 -19.2813 -10.4324 -10.4323  -1.1781  -1.1472
 -1.0823  -1.0642  -0.7225  -0.5886  -0.5682  -0.5433  -0.5421  -0.5110
 -0.4859  -0.4232  -0.3753  -0.3690  -0.3678  -0.3381  -0.3253
 -- Virtual --
  0.0623   0.0804   0.0895   0.0896   0.0952   0.1202   0.1246   0.1300
  0.1726   0.1993   0.2152   0.2242   0.2719   0.2739   0.2820   0.2892
  0.3115   0.3156   0.3195   0.3218   0.3425   0.3512   0.3663   0.3695
  0.4019   0.4165   0.4197   0.5250   0.5324   0.5713   0.6752   0.6983
  0.7024   0.7122   0.7123   0.7774   0.8126   0.8175   0.8176   0.8810
  0.9715   0.9992   1.0858   1.1084   1.1085   1.1169   1.1313   1.1320
  1.1523   1.1667   1.2123   1.2400   1.2409   1.2547   1.2655   1.2843
  1.4061   1.4219   1.5011   1.5263   1.6157   1.6424   1.6503   1.6568
  1.6991   1.7067   1.7102   1.7824   1.8273   1.8303   1.8524   1.8880
  1.9940   2.0823   2.2003   2.2633   2.2691   2.3265   2.4942   2.4978
  2.5105   2.5238   2.6040   2.7419   2.7880   2.8871   2.8968   2.9042
  3.0617   3.1143   3.1344   3.1419   3.1549   3.2791   3.3022   3.3932
  3.4071   3.4952   3.4997   3.5105   3.5387   3.5754   3.5931   3.6056
  3.6551   3.6986   3.7853   3.8015   4.0672   4.0708   4.0773   4.1365
  4.1932   4.2858   4.7592   5.1766   5.1809   5.1826   5.1872   5.1969
  5.1969   5.1971   5.2000   5.2188   5.2190   5.2679   5.2781   5.2840
  5.2902   5.3250   5.3571   5.3638   5.4070   5.4166   5.4408   5.5518
  5.5751   5.5894   5.6452   5.6590   5.6600   5.8131   5.8187   5.9656
  6.1320   6.2903   6.3366   6.3889   6.4285   6.7683   6.8908   6.9004
  6.9311   6.9417   7.0048   7.0152   7.0283   7.0331   7.0390   7.1006
  7.2386   7.3305   7.3575   7.3906   7.4289   7.4369   7.4376   7.4515
  7.6334   7.6877   7.7615   7.7675   7.8160   7.8269   7.8521  25.1084
 25.2270  50.6623  50.6953  50.7013  50.7182
 
 Beta MOs
 -- Occupied --
-19.2813 -19.2813 -19.2813 -19.2813 -10.4324 -10.4323  -1.1781  -1.1472
 -1.0823  -1.0642  -0.7225  -0.5886  -0.5682  -0.5433  -0.5421  -0.5110
 -0.4859  -0.4232  -0.3753  -0.3690  -0.3678  -0.3381  -0.3253
 -- Virtual --
  0.0623   0.0804   0.0895   0.0896   0.0952   0.1202   0.1246   0.1300
  0.1726   0.1993   0.2152   0.2242   0.2719   0.2739   0.2820   0.2892
  0.3115   0.3156   0.3195   0.3218   0.3425   0.3512   0.3663   0.3695
  0.4019   0.4165   0.4197   0.5250   0.5324   0.5713   0.6752   0.6983
  0.7024   0.7122   0.7123   0.7774   0.8126   0.8175   0.8176   0.8810
  0.9715   0.9992   1.0858   1.1084   1.1085   1.1169   1.1313   1.1320
  1.1523   1.1667   1.2123   1.2400   1.2409   1.2547   1.2655   1.2843
  1.4061   1.4219   1.5011   1.5263   1.6157   1.6424   1.6503   1.6568
  1.6991   1.7067   1.7102   1.7824   1.8273   1.8303   1.8524   1.8880
  1.9940   2.0823   2.2003   2.2633   2.2691   2.3265   2.4942   2.4978
  2.5105   2.5238   2.6040   2.7419   2.7880   2.8871   2.8968   2.9042
  3.0617   3.1143   3.1344   3.1419   3.1549   3.2791   3.3022   3.3932
  3.4071   3.4952   3.4997   3.5105   3.5387   3.5754   3.5931   3.6056
  3.6551   3.6986   3.7853   3.8015   4.0672   4.0708   4.0773   4.1365
  4.1932   4.2858   4.7592   5.1766   5.1809   5.1826   5.1872   5.1969
  5.1969   5.1971   5.2000   5.2188   5.2190   5.2679   5.2781   5.2840
  5.2902   5.3250   5.3571   5.3638   5.4070   5.4166   5.4408   5.5518
  5.5751   5.5894   5.6452   5.6590   5.6600   5.8131   5.8187   5.9656
  6.1320   6.2903   6.3366   6.3889   6.4285   6.7683   6.8908   6.9004
  6.9311   6.9417   7.0048   7.0152   7.0283   7.0331   7.0390   7.1006
  7.2386   7.3305   7.3575   7.3906   7.4289   7.4369   7.4376   7.4515
  7.6334   7.6877   7.7615   7.7675   7.8160   7.8269   7.8521  25.1084
 25.2270  50.6623  50.6953  50.7013  50.7182
 --------------------------------------------------------------
 
          Ground-State Mulliken Net Atomic Charges

     Atom                 Charge (a.u.)    Spin (a.u.)
  --------------------------------------------------------
      1 C                     0.362371       0.000000
      2 O                    -0.680975       0.000000
      3 C                     0.361738       0.000000
      4 O                    -0.680990       0.000000
      5 O                    -0.680932       0.000000
      6 O                    -0.681212       0.000000
  --------------------------------------------------------
  Sum of atomic charges =    -2.000000
  Sum of spin   charges =     0.000000

 -----------------------------------------------------------------
                    Cartesian Multipole Moments
 -----------------------------------------------------------------
    Charge (ESU x 10^10)
                -9.6064
    Dipole Moment (Debye)
         X     -16.9736      Y      -4.3233      Z      -0.9395
       Tot      17.5407
    Quadrupole Moments (Debye-Ang)
        XX     -90.3784     XY     -10.0327     YY     -58.2500
        XZ       2.6437     YZ       1.1299     ZZ     -38.5688
    Octopole Moments (Debye-Ang^2)
       XXX    -376.2435    XXY     -47.6085    XYY    -103.4182
       YYY     -75.8975    XXZ       0.9304    XYZ       8.6396
       YYZ       1.2876    XZZ     -65.8536    YZZ     -19.6272
       ZZZ     -11.4989
    Hexadecapole Moments (Debye-Ang^3)
      XXXX   -1658.5814   XXXY    -205.4701   XXYY    -310.1177
      XYYY    -179.6660   YYYY    -359.9750   XXXZ      13.3779
      XXYZ      25.6040   XYYZ      20.6088   YYYZ      17.4305
      XXZZ    -186.5515   XYZZ     -41.6864   YYZZ     -65.7258
      XZZZ       9.6045   YZZZ       5.2515   ZZZZ     -70.4143
 -----------------------------------------------------------------
 Calculating analytic gradient of the SCF energy
 Gradient of CDS energy
            1           2           3           4           5           6
    1  -0.0030773   0.0015766   0.0030766  -0.0000046  -0.0018042   0.0002328
    2  -0.0013829  -0.0013993   0.0013799  -0.0021353   0.0013247   0.0022130
    3   0.0006432  -0.0008463  -0.0006441   0.0007705  -0.0003919   0.0004686
 Gradient of SCF Energy
            1           2           3           4           5           6
    1  -0.0481667   0.0441109   0.0478675  -0.0164030  -0.0473540   0.0199453
    2  -0.0213853  -0.0173229   0.0216149  -0.0449169   0.0161719   0.0458382
    3   0.0100733  -0.0162402  -0.0103670   0.0150762  -0.0015264   0.0029840
 Max gradient component =       4.817E-02
 RMS gradient           =       2.961E-02
 Computing fast CPCM-SWIG gradient
 Updating gradient with PCM contributions...
 -- total gradient after adding PCM contribution --
---------------------------------------------------
  Atom         X              Y              Z     
---------------------------------------------------
   1      -0.000116      -0.000054       0.000017
   2       0.000022       0.000023       0.000006
   3       0.000035      -0.000002       0.000003
   4      -0.000006       0.000022      -0.000002
   5       0.000013       0.000027      -0.000008
   6       0.000050      -0.000017      -0.000017
---------------------------------------------------
 Number of fixed atoms: 0
 Gradient time:  CPU 39.92 s  wall 5.79 s
 Geometry Optimization Parameters
   NAtoms,    NIC,     NZ,  NCons,   NDum,   NFix, NCnnct, MaxDiis
        6      27       0       0       0       0       0       0

 Cartesian Hessian Update
 Hessian updated using BFGS update


** GEOMETRY OPTIMIZATION IN DELOCALIZED INTERNAL COORDINATES **
   Searching for a Minimum

   Optimization Cycle:  18

                       Coordinates (Angstroms)
     ATOM                X               Y               Z
      1  C         1.0678097916    0.1362203142    0.2446529700
      2  O         0.1854172623    0.9021318718    0.7054667393
      3  C         2.4665796809    0.7642631813   -0.0482674149
      4  O         2.4820646983    1.9480555495   -0.4675912507
      5  O         3.4710254581    0.0386643221    0.1571710786
      6  O         0.9295637088   -1.0874604390   -0.0028821221
   Point Group: c1    Number of degrees of freedom:    12


   Energy is   -377.485900539

 Hessian updated using BFGS update

 12 Hessian modes will be used to form the next step
  Hessian Eigenvalues:
     0.000470    0.095317    0.125598    0.208031    0.250407    0.263150
     0.288106    0.373512    0.757746    0.790005    0.791990    0.831976

 Minimum search - taking simple RFO step
 Searching for Lamda that Minimizes Along All modes
 Value Taken    Lamda =  -0.00000005
 Step Taken.  Stepsize is  0.003370

                             Maximum     Tolerance    Cnvgd?
         Gradient           0.000058      0.000300     YES
         Displacement       0.003327      0.001200      NO
         Energy change     -0.000000      0.000001     YES


                       Distance Matrix (Angstroms)
             C (  1)   O (  2)   C (  3)   O (  4)   O (  5)
   O (  2)  1.256020
   C (  3)  1.561024  2.406413
   O (  4)  2.406274  2.782914  1.255960
   O (  5)  2.406785  3.441137  1.256029  2.239229
   O (  6)  1.256097  2.239194  2.406940  3.441013  2.784385
 
 Final energy is   -377.485900538556     


 ******************************
 **  OPTIMIZATION CONVERGED  **
 ******************************

                       Coordinates (Angstroms)
     ATOM                X               Y               Z
      1  C         1.0678097916    0.1362203142    0.2446529700
      2  O         0.1854172623    0.9021318718    0.7054667393
      3  C         2.4665796809    0.7642631813   -0.0482674149
      4  O         2.4820646983    1.9480555495   -0.4675912507
      5  O         3.4710254581    0.0386643221    0.1571710786
      6  O         0.9295637088   -1.0874604390   -0.0028821221

Z-matrix Print:
$molecule
-2 1
C 
O  1 1.255960
O  1 1.256029 2 126.103542
C  1 1.561024 2 116.930287 3 -179.988780 0
O  4 1.256020 1 116.937419 2 -35.288991 0
O  4 1.256097 1 116.973979 2 144.683712 0
$end

 
 --------------------------------------------------------------
 
                    Orbital Energies (a.u.)
 --------------------------------------------------------------
 
 Alpha MOs
 -- Occupied --
-19.2813 -19.2813 -19.2813 -19.2813 -10.4324 -10.4323  -1.1781  -1.1472
 -1.0823  -1.0642  -0.7225  -0.5886  -0.5682  -0.5433  -0.5421  -0.5110
 -0.4859  -0.4232  -0.3753  -0.3690  -0.3678  -0.3381  -0.3253
 -- Virtual --
  0.0623   0.0804   0.0895   0.0896   0.0952   0.1202   0.1246   0.1300
  0.1726   0.1993   0.2152   0.2242   0.2719   0.2739   0.2820   0.2892
  0.3115   0.3156   0.3195   0.3218   0.3425   0.3512   0.3663   0.3695
  0.4019   0.4165   0.4197   0.5250   0.5324   0.5713   0.6752   0.6983
  0.7024   0.7122   0.7123   0.7774   0.8126   0.8175   0.8176   0.8810
  0.9715   0.9992   1.0858   1.1084   1.1085   1.1169   1.1313   1.1320
  1.1523   1.1667   1.2123   1.2400   1.2409   1.2547   1.2655   1.2843
  1.4061   1.4219   1.5011   1.5263   1.6157   1.6424   1.6503   1.6568
  1.6991   1.7067   1.7102   1.7824   1.8273   1.8303   1.8524   1.8880
  1.9940   2.0823   2.2003   2.2633   2.2691   2.3265   2.4942   2.4978
  2.5105   2.5238   2.6040   2.7419   2.7880   2.8871   2.8968   2.9042
  3.0617   3.1143   3.1344   3.1419   3.1549   3.2791   3.3022   3.3932
  3.4071   3.4952   3.4997   3.5105   3.5387   3.5754   3.5931   3.6056
  3.6551   3.6986   3.7853   3.8015   4.0672   4.0708   4.0773   4.1365
  4.1932   4.2858   4.7592   5.1766   5.1809   5.1826   5.1872   5.1969
  5.1969   5.1971   5.2000   5.2188   5.2190   5.2679   5.2781   5.2840
  5.2902   5.3250   5.3571   5.3638   5.4070   5.4166   5.4408   5.5518
  5.5751   5.5894   5.6452   5.6590   5.6600   5.8131   5.8187   5.9656
  6.1320   6.2903   6.3366   6.3889   6.4285   6.7683   6.8908   6.9004
  6.9311   6.9417   7.0048   7.0152   7.0283   7.0331   7.0390   7.1006
  7.2386   7.3305   7.3575   7.3906   7.4289   7.4369   7.4376   7.4515
  7.6334   7.6877   7.7615   7.7675   7.8160   7.8269   7.8521  25.1084
 25.2270  50.6623  50.6953  50.7013  50.7182
 
 Beta MOs
 -- Occupied --
-19.2813 -19.2813 -19.2813 -19.2813 -10.4324 -10.4323  -1.1781  -1.1472
 -1.0823  -1.0642  -0.7225  -0.5886  -0.5682  -0.5433  -0.5421  -0.5110
 -0.4859  -0.4232  -0.3753  -0.3690  -0.3678  -0.3381  -0.3253
 -- Virtual --
  0.0623   0.0804   0.0895   0.0896   0.0952   0.1202   0.1246   0.1300
  0.1726   0.1993   0.2152   0.2242   0.2719   0.2739   0.2820   0.2892
  0.3115   0.3156   0.3195   0.3218   0.3425   0.3512   0.3663   0.3695
  0.4019   0.4165   0.4197   0.5250   0.5324   0.5713   0.6752   0.6983
  0.7024   0.7122   0.7123   0.7774   0.8126   0.8175   0.8176   0.8810
  0.9715   0.9992   1.0858   1.1084   1.1085   1.1169   1.1313   1.1320
  1.1523   1.1667   1.2123   1.2400   1.2409   1.2547   1.2655   1.2843
  1.4061   1.4219   1.5011   1.5263   1.6157   1.6424   1.6503   1.6568
  1.6991   1.7067   1.7102   1.7824   1.8273   1.8303   1.8524   1.8880
  1.9940   2.0823   2.2003   2.2633   2.2691   2.3265   2.4942   2.4978
  2.5105   2.5238   2.6040   2.7419   2.7880   2.8871   2.8968   2.9042
  3.0617   3.1143   3.1344   3.1419   3.1549   3.2791   3.3022   3.3932
  3.4071   3.4952   3.4997   3.5105   3.5387   3.5754   3.5931   3.6056
  3.6551   3.6986   3.7853   3.8015   4.0672   4.0708   4.0773   4.1365
  4.1932   4.2858   4.7592   5.1766   5.1809   5.1826   5.1872   5.1969
  5.1969   5.1971   5.2000   5.2188   5.2190   5.2679   5.2781   5.2840
  5.2902   5.3250   5.3571   5.3638   5.4070   5.4166   5.4408   5.5518
  5.5751   5.5894   5.6452   5.6590   5.6600   5.8131   5.8187   5.9656
  6.1320   6.2903   6.3366   6.3889   6.4285   6.7683   6.8908   6.9004
  6.9311   6.9417   7.0048   7.0152   7.0283   7.0331   7.0390   7.1006
  7.2386   7.3305   7.3575   7.3906   7.4289   7.4369   7.4376   7.4515
  7.6334   7.6877   7.7615   7.7675   7.8160   7.8269   7.8521  25.1084
 25.2270  50.6623  50.6953  50.7013  50.7182
 --------------------------------------------------------------
 
          Ground-State Mulliken Net Atomic Charges

     Atom                 Charge (a.u.)    Spin (a.u.)
  --------------------------------------------------------
      1 C                     0.362371       0.000000
      2 O                    -0.680975       0.000000
      3 C                     0.361738       0.000000
      4 O                    -0.680990       0.000000
      5 O                    -0.680932       0.000000
      6 O                    -0.681212       0.000000
  --------------------------------------------------------
  Sum of atomic charges =    -2.000000
  Sum of spin   charges =     0.000000

 -----------------------------------------------------------------
                    Cartesian Multipole Moments
 -----------------------------------------------------------------
    Charge (ESU x 10^10)
                -9.6064
    Dipole Moment (Debye)
         X     -16.9736      Y      -4.3233      Z      -0.9395
       Tot      17.5407
    Quadrupole Moments (Debye-Ang)
        XX     -90.3784     XY     -10.0327     YY     -58.2500
        XZ       2.6437     YZ       1.1299     ZZ     -38.5688
    Octopole Moments (Debye-Ang^2)
       XXX    -376.2435    XXY     -47.6085    XYY    -103.4182
       YYY     -75.8975    XXZ       0.9304    XYZ       8.6396
       YYZ       1.2876    XZZ     -65.8536    YZZ     -19.6272
       ZZZ     -11.4989
    Hexadecapole Moments (Debye-Ang^3)
      XXXX   -1658.5814   XXXY    -205.4701   XXYY    -310.1177
      XYYY    -179.6660   YYYY    -359.9750   XXXZ      13.3779
      XXYZ      25.6040   XYYZ      20.6088   YYYZ      17.4305
      XXZZ    -186.5515   XYZZ     -41.6864   YYZZ     -65.7258
      XZZZ       9.6045   YZZZ       5.2515   ZZZZ     -70.4143
 -----------------------------------------------------------------
 Total job time:  609.18s(wall), 4686.80s(cpu) 
 Fri Jul 21 08:11:44 2023

        *************************************************************
        *                                                           *
        *  Thank you very much for using Q-Chem.  Have a nice day.  *
        *                                                           *
        *************************************************************


