
Running Job 1 of 1 Q_in.in
qchem Q_in.in_359172.0 /scratch/ari.fischer/qChem1912877.hpc-mn1/qchem359172/ 0
/usr/local/qchem-5.4.1/exe/qcprog.exe_s Q_in.in_359172.0 /scratch/ari.fischer/qChem1912877.hpc-mn1/qchem359172/
                  Welcome to Q-Chem
     A Quantum Leap Into The Future Of Chemistry


 Q-Chem 5.4, Q-Chem, Inc., Pleasanton, CA (2021)

 License issued to: Nanyang Technological University (site)

 E. Epifanovsky,  A. T. B. Gilbert,  Xintian Feng,  Joonho Lee,  Yuezhi Mao,  
 N. Mardirossian,  P. Pokhilko,  A. White,  M. Wormit,  M. P. Coons,  
 A. L. Dempwolff,  Zhengting Gan,  D. Hait,  P. R. Horn,  L. D. Jacobson,  
 I. Kaliman,  J. Kussmann,  A. W. Lange,  Ka Un Lao,  D. S. Levine,  Jie Liu,  
 S. C. McKenzie,  A. F. Morrison,  K. Nanda,  F. Plasser,  D. R. Rehn,  
 M. L. Vidal,  Zhi-Qiang You,  Ying Zhu,  B. Alam,  B. Albrecht,  
 A. Aldossary,  E. Alguire,  J. H. Andersen,  D. Barton,  K. Begam,  A. Behn,  
 Y. A. Bernard,  E. J. Berquist,  H. Burton,  A. Carreras,  K. Carter-Fenk,  
 R. Chakraborty,  A. D. Chien,  K. D. Closser,  V. Cofer-Shabica,  
 S. Dasgupta,  Jia Deng,  M. de Wergifosse,  M. Diedenhofen,  Hainam Do,  
 S. Ehlert,  Po-Tung Fang,  S. Fatehi,  Qingguo Feng,  T. Friedhoff,  
 J. Gayvert,  Qinghui Ge,  G. Gidofalvi,  M. Goldey,  J. Gomes,  
 C. Gonzalez-Espinoza,  S. Gulania,  A. Gunina,  M. W. D. Hanson-Heine,  
 P. H. P. Harbach,  A. W. Hauser,  M. F. Herbst,  M. Hernandez Vera,  
 M. Hodecker,  Z. C. Holden,  S. Houck,  Xunkun Huang,  Kerwin Hui,  
 B. C. Huynh,  M. Ivanov,  Hyunjun Ji,  Hanjie Jiang,  B. Kaduk,  S. Kaehler,  
 K. Khistyaev,  Jaehoon Kim,  P. Klunzinger,  Z. Koczor-Benda,  
 Joong Hoon Koh,  D. Kosenkov,  L. Koulias,  T. Kowalczyk,  C. M. Krauter,  
 K. Kue,  A. Kunitsa,  T. Kus,  A. Landau,  K. V. Lawler,  D. Lefrancois,  
 S. Lehtola,  Rain Li,  Yi-Pei Li,  Jiashu Liang,  M. Liebenthal,  
 Hung-Hsuan Lin,  You-Sheng Lin,  Fenglai Liu,  Kuan-Yu Liu,  
 M. Loipersberger,  A. Luenser,  A. Manjanath,  P. Manohar,  E. Mansoor,  
 S. F. Manzer,  Shan-Ping Mao,  A. V. Marenich,  T. Markovich,  S. Mason,  
 S. A. Maurer,  P. F. McLaughlin,  M. F. S. J. Menger,  J.-M. Mewes,  
 S. A. Mewes,  P. Morgante,  J. W. Mullinax,  K. J. Oosterbaan,  G. Paran,  
 Alexander C. Paul,  Suranjan K. Paul,  F. Pavosevic,  Zheng Pei,  S. Prager,  
 E. I. Proynov,  E. Ramos,  B. Rana,  A. E. Rask,  A. Rettig,  R. M. Richard,  
 F. Rob,  E. Rossomme,  T. Scheele,  M. Scheurer,  M. Schneider,  
 N. Sergueev,  S. M. Sharada,  W. Skomorowski,  D. W. Small,  C. J. Stein,  
 Yu-Chuan Su,  E. J. Sundstrom,  Zhen Tao,  J. Thirman,  T. Tsuchimochi,  
 N. M. Tubman,  S. P. Veccham,  O. Vydrov,  J. Wenzel,  J. Witte,  A. Yamada,  
 Kun Yao,  S. Yeganeh,  S. R. Yost,  A. Zech,  Igor Ying Zhang,  Xing Zhang,  
 Yu Zhang,  D. Zuev,  A. Aspuru-Guzik,  A. T. Bell,  N. A. Besley,  
 K. B. Bravaya,  B. R. Brooks,  D. Casanova,  Jeng-Da Chai,  S. Coriani,  
 C. J. Cramer,  A. E. DePrince, III,  R. A. DiStasio Jr.,  A. Dreuw,  
 B. D. Dunietz,  T. R. Furlani,  W. A. Goddard III,  S. Grimme,  
 S. Hammes-Schiffer,  T. Head-Gordon,  W. J. Hehre,  Chao-Ping Hsu,  
 T.-C. Jagau,  Yousung Jung,  A. Klamt,  Jing Kong,  D. S. Lambrecht,  
 WanZhen Liang,  N. J. Mayhall,  C. W. McCurdy,  J. B. Neaton,  
 C. Ochsenfeld,  J. A. Parkhill,  R. Peverati,  V. A. Rassolov,  Yihan Shao,  
 L. V. Slipchenko,  T. Stauch,  R. P. Steele,  J. E. Subotnik,  
 A. J. W. Thom,  A. Tkatchenko,  D. G. Truhlar,  T. Van Voorhis,  
 T. A. Wesolowski,  K. B. Whaley,  H. L. Woodcock III,  P. M. Zimmerman,  
 S. Faraji,  P. M. W. Gill,  M. Head-Gordon,  J. M. Herbert,  A. I. Krylov

 Additional authors for Version 5.4.1: 
 S. Kotaru,  Shaozhi Li,  Xiangyuan Li,  F. Matz,  A. Molle,  Haisheng Ren,  
 Yingli Su,  Hung-Yi Tsai,  C. Utku,  Fang Wang

 Contributors to earlier versions of Q-Chem not listed above: 
 R. D. Adamson,  B. Austin,  R. Baer,  J. Baker,  G. J. O. Beran,  
 K. Brandhorst,  S. T. Brown,  E. F. C. Byrd,  A. K. Chakraborty,  
 G. K. L. Chan,  Chun-Min Chang,  Yunqing Chen,  C.-L. Cheng,  
 Siu Hung Chien,  D. M. Chipman,  D. L. Crittenden,  H. Dachsel,  
 R. J. Doerksen,  A. D. Dutoi,  R. G. Edgar,  J. Fosso-Tande,  
 L. Fusti-Molnar,  D. Ghosh,  A. Ghysels,  A. Golubeva-Zadorozhnaya,  
 J. Gonthier,  M. S. Gordon,  S. R. Gwaltney,  G. Hawkins,  J. E. Herr,  
 A. Heyden,  S. Hirata,  E. G. Hohenstein,  G. Kedziora,  F. J. Keil,  
 C. Kelley,  Jihan Kim,  R. A. King,  R. Z. Khaliullin,  P. P. Korambath,  
 W. Kurlancheek,  A. Laurent,  A. M. Lee,  M. S. Lee,  S. V. Levchenko,  
 Ching Yeh Lin,  D. Liotard,  E. Livshits,  R. C. Lochan,  I. Lotan,  
 L. A. Martinez-Martinez,  P. E. Maslen,  N. Nair,  D. P. O'Neill,  
 D. Neuhauser,  E. Neuscamman,  C. M. Oana,  R. Olivares-Amaya,  R. Olson,  
 T. M. Perrine,  B. Peters,  P. A. Pieniazek,  A. Prociuk,  Y. M. Rhee,  
 J. Ritchie,  M. A. Rohrdanz,  E. Rosta,  N. J. Russ,  H. F. Schaefer III,  
 M. W. Schmidt,  N. E. Schultz,  S. Sharma,  N. Shenvi,  C. D. Sherrill,  
 A. C. Simmonett,  A. Sodt,  T. Stein,  D. Stuck,  K. S. Thanthiriwatte,  
 V. Vanovschi,  L. Vogt,  Tao Wang,  A. Warshel,  M. A. Watson,  
 C. F. Williams,  Q. Wu,  X. Xu,  Jun Yang,  W. Zhang,  Yan Zhao

 Please cite Q-Chem as follows:
 Y. Shao et al., Mol. Phys. 113, 184-215 (2015)
 DOI: 10.1080/00268976.2014.952696

 Q-Chem 5.4.1 for Intel X86 EM64T Linux

 Parts of Q-Chem use Armadillo 9.800.1 (Horizon Scraper).
 http://arma.sourceforge.net/

 Q-Chem begins on Mon Feb  5 12:38:31 2024  

 Host: 
0

     Scratch files written to /scratch/ari.fischer/qChem1912877.hpc-mn1/qchem359172//
 Aug1521 |scratch|qcdevops|jenkins|workspace|build_RNUM 8249   
 Processing $rem in /usr/local/qchem-5.4.1/config/preferences:
 Processing $rem in /home/ari.fischer/.qchemrc:
 Symmetry turned off for PCM/SM12/SMD calculation

 Checking the input file for inconsistencies... 	...done.

--------------------------------------------------------------
User input:
--------------------------------------------------------------
$molecule
0 2
C         0.5259361465    0.2043921395    0.4740676009
O         1.2874533448   -0.5711169147    0.9869908096
H        -2.5875831013    0.7760436896   -0.2342908893
C        -0.9933530291   -0.0778802264    0.4538855820
O        -1.1924198531   -1.3245821325   -0.0584423260
O        -1.6382660789    0.9534424243   -0.1592693111
O         0.9252740252    1.3236119123   -0.1025326688
H         0.1686586019    1.8175050908   -0.4603742573
O        -1.4339563021   -0.1633635542    1.8680049276
O        -1.1076507085    0.9154251556    2.5200574009
H        -2.1404694451   -1.4927940843   -0.1674083686
$end

$rem
BASIS = def2-TZVP
JOB_TYPE = SP
METHOD = wB97M-V
SCF_ALGORITHM = DIIS_GDM
MAX_SCF_CYCLES = 400
SCF_CONVERGENCE = 7
THRESH = 12
Solvent_method = SMD
$end
--------------------------------------------------------------
 ----------------------------------------------------------------
             Standard Nuclear Orientation (Angstroms)
    I     Atom           X                Y                Z
 ----------------------------------------------------------------
    1      C       0.5259361465     0.2043921395     0.4740676009
    2      O       1.2874533448    -0.5711169147     0.9869908096
    3      H      -2.5875831013     0.7760436896    -0.2342908893
    4      C      -0.9933530291    -0.0778802264     0.4538855820
    5      O      -1.1924198531    -1.3245821325    -0.0584423260
    6      O      -1.6382660789     0.9534424243    -0.1592693111
    7      O       0.9252740252     1.3236119123    -0.1025326688
    8      H       0.1686586019     1.8175050908    -0.4603742573
    9      O      -1.4339563021    -0.1633635542     1.8680049276
   10      O      -1.1076507085     0.9154251556     2.5200574009
   11      H      -2.1404694451    -1.4927940843    -0.1674083686
 ----------------------------------------------------------------
 Nuclear Repulsion Energy =         417.95628510 hartrees
 There are       32 alpha and       31 beta electrons
 Requested basis set is def2-TZVP
 There are 100 shells and 266 basis functions

 Total QAlloc Memory Limit 288000 MB
 Mega-Array Size       188 MB
 MEM_STATIC part       192 MB
 
 Citation of the SMD model:
 Marenich, A.V.; Cramer, C.J.; Truhlar, D.G.
 J. Phys. Chem. B 2009, 113, 6378-6396.
 iSolventCode=           1
 Solvent: water                                                           
 
 vradii
            1           2           3           4           5           6
    1   1.8500000   1.5200000   1.2000000   1.8500000   1.5200000   1.5200000
            7           8           9          10          11
    1   1.5200000   1.2000000   1.5200000   1.5200000   1.2000000
 Changing PCM_VDW_RADII to SMD_RADIUS
 Discretize the solute cavity surface with Lebedev spheres
	Using 110 Lebedev grid points for each H atom
	Using 194 Lebedev grid points for other atoms
	Atomic van der Waals radii will be scaled by 1.20
 Remove points where switching function is < 1.0e-08
 Keep 1006 surface tesserae and discard 876 interior tesserae
 Molecular Surface Area = 117.604 Angst**2

                       Distance Matrix (Angstroms)
             C (  1)   O (  2)   H (  3)   C (  4)   O (  5)   O (  6)
   O (  2)  1.201837
   H (  3)  3.243849  4.280453
   C (  4)  1.545421  2.393650  1.935030
   O (  5)  2.360948  2.794711  2.527851  1.362488
   O (  6)  2.376124  3.492567  0.968660  1.362167  2.323433
   O (  7)  1.320830  2.215453  3.557718  2.440269  3.391092  2.590749
   H (  8)  1.898147  3.008668  2.955101  2.403878  3.447723  2.025400
   O (  9)  2.432999  2.889380  2.575459  1.483635  2.262293  2.323540
   O ( 10)  2.712978  3.208835  3.129866  2.295384  3.416647  2.731628
   H ( 11)  3.225159  3.732664  2.313441  1.924542  0.969003  2.497268
             O (  7)   H (  8)   O (  9)   O ( 10)
   H (  8)  0.971827
   O (  9)  3.414686  3.451603
   O ( 10)  3.343259  3.365366  1.302088
   H ( 11)  4.163548  4.046725  2.531690  3.753493
 
 A cutoff of  1.0D-12 yielded   4650 shell pairs
 There are     33648 function pairs (     44577 Cartesian)
 Smallest overlap matrix eigenvalue = 3.74E-04

 Scale SEOQF with 1.000000e-01/1.000000e-01/1.000000e-01

 Standard Electronic Orientation quadrupole field applied
 Nucleus-field energy     =    -0.0000000024 hartrees
 Guess from superposition of atomic densities
 Warning:  Energy on first SCF cycle will be non-variational
 SAD guess density has 63.000000 electrons

 -----------------------------------------------------------------------
  General SCF calculation program by
  Eric Jon Sundstrom, Paul Horn, Yuezhi Mao, Dmitri Zuev, Alec White,
  David Stuck, Shaama M.S., Shane Yost, Joonho Lee, David Small,
  Daniel Levine, Susi Lehtola, Hugh Burton, Evgeny Epifanovsky,
  Bang C. Huynh
 -----------------------------------------------------------------------
 Exchange:     0.1500 Hartree-Fock + 1.0000 wB97M-V + LR-HF
 Correlation:  1.0000 wB97M-V
 Using SG-2 standard quadrature grid
 Nonlocal Correlation:  VV10 with C = 0.0100 and b = 6.00 and scale = 1.00000
 Grid used for NLC:  SG-1 standard quadrature
 
 Citation of the SMD model:
 Marenich, A.V.; Cramer, C.J.; Truhlar, D.G.
 J. Phys. Chem. B 2009, 113, 6378-6396.
 iSolventCode=           1
 Solvent: water                                                           
 
 vradii
            1           2           3           4           5           6
    1   1.8500000   1.5200000   1.2000000   1.8500000   1.5200000   1.5200000
            7           8           9          10          11
    1   1.5200000   1.2000000   1.5200000   1.5200000   1.2000000
 using 4 threads for integral computing
 -------------------------------------------------------
 OpenMP Integral computing Module                
 Release: version 1.0, May 2013, Q-Chem Inc. Pittsburgh 
 -------------------------------------------------------
 -------------------------------------------------------
 OpenMP BLAS3 based DFT computing Module                
 Release: version 1.0, May 2013, Q-Chem Inc. Pittsburgh 
 -------------------------------------------------------
 A unrestricted SCF calculation will be
 performed using DIIS, GDM
 SCF converges when RMS gradient is below 1.0e-07
 ---------------------------------------
  Cycle       Energy         DIIS error
 ---------------------------------------
    1    -530.8010980945      1.70e-02  
    2    -529.1132112611      2.93e-03  Done DIIS. Switching to GDM
 ---------------------------------------
  Cycle       Energy        RMS Gradient
 ---------------------------------------
    1    -529.1132112611      1.67e-01   Descent step
    2    -529.3144428619      4.50e-02   Normal BFGS step
    3    -529.3434270504      2.99e-02   Normal BFGS step
    4    -529.3454567359      1.47e-02   Normal BFGS step
    5    -529.3474120439      7.08e-03   Normal BFGS step
    6    -529.3475687204      3.50e-03   Normal BFGS step
    7    -529.3476718037      2.76e-03   Normal BFGS step
    8    -529.3476946651      1.11e-03   Normal BFGS step
    9    -529.3476998945      9.39e-04   Normal BFGS step
   10    -529.3477028289      9.08e-04   Normal BFGS step
   11    -529.3477055651      7.20e-04   Normal BFGS step
   12    -529.3477076421      3.69e-04   Normal BFGS step
   13    -529.3477083784      1.87e-04   Normal BFGS step
   14    -529.3477085130      3.42e-05   Normal BFGS step
   15    -529.3477085373      1.15e-05   Normal BFGS step
   16    -529.3477085409      6.00e-06   Normal BFGS step
   17    -529.3477085414      1.92e-06   Normal BFGS step
   18    -529.3477085415      8.45e-07   Normal BFGS step
   19    -529.3477085416      5.48e-07   Normal BFGS step
   20    -529.3477085416      2.20e-07   Normal BFGS step
   21    -529.3477085416      1.16e-07   Normal BFGS step
   22    -529.3477085415      6.44e-08  Convergence criterion met
 ---------------------------------------
 SCF time:   CPU 788.62s  wall 199.00s 
<S^2> =          0.753591780
(3)  G-ENP(liq) elect-nuc-pol free energy of system     -529.347708542 a.u.
(4)  G-CDS(liq) cavity-dispersion-solvent structure 
     free energy                                                4.2101 kcal/mol
(6)  G-S(liq) free energy of system                     -529.340999335 a.u.
 SCF   energy in the final basis set =     -529.3409993348
 Total energy in the final basis set =     -529.3409993348
 
 --------------------------------------------------------------
 
                    Orbital Energies (a.u.)
 --------------------------------------------------------------
 
 Alpha MOs
 -- Occupied --
-19.4684 -19.4273 -19.3967 -19.3812 -19.3771 -19.3453 -10.5418 -10.5071
 -1.3603  -1.2697  -1.2407  -1.1890  -1.1703  -1.0077  -0.8574  -0.7523
 -0.7150  -0.7068  -0.6865  -0.6221  -0.6125  -0.5959  -0.5736  -0.5706
 -0.5295  -0.5047  -0.4928  -0.4514  -0.4474  -0.4250  -0.4102  -0.4016
 -- Virtual --
  0.0623   0.1030   0.1351   0.1568   0.1977   0.2007   0.2455   0.2736
  0.2881   0.2891   0.3094   0.3154   0.3325   0.3496   0.3553   0.3845
  0.3883   0.4288   0.4479   0.4592   0.4729   0.4928   0.4955   0.5173
  0.5401   0.5646   0.5729   0.5937   0.5988   0.6077   0.6272   0.6453
  0.6548   0.6615   0.6918   0.7175   0.7368   0.7492   0.7712   0.7873
  0.8278   0.8550   0.8920   0.9183   0.9340   0.9627   0.9841   0.9933
  1.0321   1.0552   1.0731   1.1175   1.1599   1.1893   1.2882   1.3430
  1.3713   1.3896   1.4128   1.4292   1.4779   1.4949   1.5425   1.5800
  1.5830   1.6265   1.6395   1.6696   1.6854   1.7162   1.7300   1.7870
  1.8122   1.8235   1.8563   1.9163   1.9507   1.9565   1.9932   2.0123
  2.0332   2.0416   2.0717   2.0986   2.1382   2.1440   2.1907   2.2074
  2.2159   2.2332   2.2687   2.2911   2.3030   2.3171   2.3363   2.3463
  2.3648   2.3844   2.4032   2.4866   2.5592   2.5944   2.6184   2.6872
  2.7027   2.7268   2.7459   2.7542   2.7896   2.8073   2.8244   2.8612
  2.9143   2.9426   2.9696   3.0045   3.0136   3.0464   3.0582   3.0817
  3.1080   3.1578   3.2130   3.2324   3.2378   3.2850   3.3254   3.3531
  3.3787   3.4108   3.4190   3.4526   3.5051   3.5345   3.5793   3.6076
  3.6675   3.6993   3.7339   3.7917   3.8708   3.8833   3.9310   4.0150
  4.0638   4.1423   4.2638   4.3725   4.4095   4.4889   4.5351   4.5592
  4.7074   4.7593   4.8580   4.8993   5.0249   5.0503   5.1419   5.1801
  5.2227   5.2387   5.2703   5.2808   5.3178   5.3300   5.3617   5.3967
  5.4100   5.4340   5.4543   5.5040   5.5443   5.5995   5.6369   5.6585
  5.6654   5.7447   5.7750   5.8078   5.8394   5.9723   5.9990   6.0946
  6.1335   6.1485   6.2429   6.2525   6.2556   6.3096   6.3380   6.3487
  6.3826   6.3917   6.4228   6.4509   6.4716   6.5014   6.5297   6.5409
  6.5791   6.6123   6.6497   6.7189   6.7480   6.7654   6.7943   6.8483
  6.8742   6.8845   6.9048   6.9226   7.0044   7.0346   7.0420   7.0792
  7.0963   7.1632   7.1947   7.2240   7.3338   7.3464   7.3845   7.4273
  7.6078   8.6433  23.0763  23.6322  43.9123  44.2087  44.2536  44.2955
 44.4270  44.5685
 
 Beta MOs
 -- Occupied --
-19.4588 -19.4079 -19.3966 -19.3810 -19.3771 -19.3454 -10.5421 -10.5070
 -1.3374  -1.2672  -1.2386  -1.1889  -1.1701  -0.9731  -0.8523  -0.7517
 -0.7129  -0.6939  -0.6808  -0.5989  -0.5952  -0.5801  -0.5705  -0.5476
 -0.5270  -0.4944  -0.4856  -0.4494  -0.4463  -0.4184  -0.3889
 -- Virtual --
 -0.0367   0.0632   0.1035   0.1357   0.1585   0.2004   0.2130   0.2494
  0.2770   0.2897   0.2913   0.3109   0.3163   0.3329   0.3509   0.3572
  0.3871   0.3905   0.4291   0.4496   0.4634   0.4777   0.4941   0.5005
  0.5215   0.5415   0.5676   0.5734   0.5949   0.6030   0.6084   0.6329
  0.6477   0.6566   0.6649   0.6958   0.7193   0.7378   0.7515   0.7730
  0.7893   0.8301   0.8555   0.8933   0.9198   0.9351   0.9638   0.9858
  0.9955   1.0326   1.0579   1.0740   1.1179   1.1608   1.1911   1.2927
  1.3448   1.3744   1.4045   1.4151   1.4311   1.4805   1.4974   1.5520
  1.5870   1.5871   1.6345   1.6439   1.6753   1.6946   1.7214   1.7365
  1.7876   1.8180   1.8277   1.8585   1.9177   1.9516   1.9674   1.9947
  2.0175   2.0363   2.0516   2.0770   2.1009   2.1409   2.1498   2.1937
  2.2141   2.2220   2.2377   2.2753   2.2925   2.3047   2.3176   2.3379
  2.3566   2.3671   2.3914   2.4054   2.4903   2.5604   2.6000   2.6528
  2.6880   2.7066   2.7280   2.7562   2.7715   2.8050   2.8106   2.8360
  2.8877   2.9196   2.9480   2.9781   3.0125   3.0234   3.0527   3.0614
  3.0828   3.1114   3.1621   3.2178   3.2338   3.2392   3.2897   3.3281
  3.3563   3.3805   3.4134   3.4197   3.4567   3.5068   3.5354   3.5816
  3.6090   3.6685   3.7007   3.7344   3.7928   3.8710   3.8843   3.9314
  4.0160   4.0643   4.1425   4.2663   4.3839   4.4134   4.4895   4.5426
  4.5616   4.7146   4.7903   4.8872   4.9132   5.0371   5.0768   5.1520
  5.2255   5.2456   5.2706   5.2731   5.2834   5.3209   5.3369   5.3654
  5.4037   5.4106   5.4413   5.4569   5.5148   5.5481   5.6085   5.6474
  5.6611   5.6668   5.7622   5.7796   5.8139   5.8459   5.9736   6.0007
  6.0994   6.1428   6.1595   6.2446   6.2575   6.2964   6.3227   6.3642
  6.3793   6.4138   6.4273   6.4353   6.4798   6.5025   6.5141   6.5419
  6.5503   6.5808   6.6265   6.6621   6.7298   6.7641   6.7712   6.7988
  6.8518   6.8758   6.9014   6.9081   6.9307   7.0132   7.0360   7.0435
  7.0813   7.0998   7.1910   7.2054   7.2259   7.3351   7.3513   7.3909
  7.4306   7.6242   8.6612  23.0761  23.6323  43.9273  44.2097  44.2540
 44.2965  44.4314  44.5721
 --------------------------------------------------------------
 
          Ground-State Mulliken Net Atomic Charges

     Atom                 Charge (a.u.)    Spin (a.u.)
  --------------------------------------------------------
      1 C                     0.304854       0.006439
      2 O                    -0.391407      -0.001645
      3 H                     0.402509      -0.000633
      4 C                     0.367592      -0.006952
      5 O                    -0.450264      -0.000838
      6 O                    -0.473229       0.006007
      7 O                    -0.357473       0.000763
      8 H                     0.405269      -0.000174
      9 O                    -0.013101       0.288165
     10 O                    -0.195544       0.708879
     11 H                     0.400796      -0.000011
  --------------------------------------------------------
  Sum of atomic charges =     0.000000
  Sum of spin   charges =     1.000000

 -----------------------------------------------------------------
                    Cartesian Multipole Moments
 -----------------------------------------------------------------
    Charge (ESU x 10^10)
                -0.0000
    Dipole Moment (Debye)
         X      -7.4310      Y       1.3927      Z      -4.5852
       Tot       8.8421
    Quadrupole Moments (Debye-Ang)
        XX     -33.9977     XY       3.2098     YY     -44.2776
        XZ       1.9863     YZ      -1.3085     ZZ     -53.3612
    Octopole Moments (Debye-Ang^2)
       XXX       6.4037    XXY     -13.6898    XYY      13.5589
       YYY     -15.6112    XXZ     -43.4758    XYZ       3.1576
       YYZ     -39.5621    XZZ      28.6293    YZZ      -9.4877
       ZZZ    -117.6371
    Hexadecapole Moments (Debye-Ang^3)
      XXXX    -304.3570   XXXY       7.9423   XXYY     -98.1144
      XYYY       9.1432   YYYY    -225.7027   XXXZ      75.9507
      XXYZ      -3.9214   XYYZ      25.3471   YYYZ     -25.6317
      XXZZ    -155.3672   XYZZ       7.2793   YYZZ    -113.5054
      XZZZ      89.4139   YZZZ     -32.6931   ZZZZ    -463.6153
 -----------------------------------------------------------------
 Total job time:  199.86s(wall), 790.64s(cpu) 
 Mon Feb  5 12:41:51 2024

        *************************************************************
        *                                                           *
        *  Thank you very much for using Q-Chem.  Have a nice day.  *
        *                                                           *
        *************************************************************


