
Running Job 1 of 2 Q_in.in
qchem Q_in.in_82309.0 /scratch/ari.fischer/qChem1963491.hpc-mn1/qchem82309/ 0
/usr/local/qchem-5.4.1/exe/qcprog.exe_s Q_in.in_82309.0 /scratch/ari.fischer/qChem1963491.hpc-mn1/qchem82309/
                  Welcome to Q-Chem
     A Quantum Leap Into The Future Of Chemistry


 Q-Chem 5.4, Q-Chem, Inc., Pleasanton, CA (2021)

 License issued to: Nanyang Technological University (site)

 E. Epifanovsky,  A. T. B. Gilbert,  Xintian Feng,  Joonho Lee,  Yuezhi Mao,  
 N. Mardirossian,  P. Pokhilko,  A. White,  M. Wormit,  M. P. Coons,  
 A. L. Dempwolff,  Zhengting Gan,  D. Hait,  P. R. Horn,  L. D. Jacobson,  
 I. Kaliman,  J. Kussmann,  A. W. Lange,  Ka Un Lao,  D. S. Levine,  Jie Liu,  
 S. C. McKenzie,  A. F. Morrison,  K. Nanda,  F. Plasser,  D. R. Rehn,  
 M. L. Vidal,  Zhi-Qiang You,  Ying Zhu,  B. Alam,  B. Albrecht,  
 A. Aldossary,  E. Alguire,  J. H. Andersen,  D. Barton,  K. Begam,  A. Behn,  
 Y. A. Bernard,  E. J. Berquist,  H. Burton,  A. Carreras,  K. Carter-Fenk,  
 R. Chakraborty,  A. D. Chien,  K. D. Closser,  V. Cofer-Shabica,  
 S. Dasgupta,  Jia Deng,  M. de Wergifosse,  M. Diedenhofen,  Hainam Do,  
 S. Ehlert,  Po-Tung Fang,  S. Fatehi,  Qingguo Feng,  T. Friedhoff,  
 J. Gayvert,  Qinghui Ge,  G. Gidofalvi,  M. Goldey,  J. Gomes,  
 C. Gonzalez-Espinoza,  S. Gulania,  A. Gunina,  M. W. D. Hanson-Heine,  
 P. H. P. Harbach,  A. W. Hauser,  M. F. Herbst,  M. Hernandez Vera,  
 M. Hodecker,  Z. C. Holden,  S. Houck,  Xunkun Huang,  Kerwin Hui,  
 B. C. Huynh,  M. Ivanov,  Hyunjun Ji,  Hanjie Jiang,  B. Kaduk,  S. Kaehler,  
 K. Khistyaev,  Jaehoon Kim,  P. Klunzinger,  Z. Koczor-Benda,  
 Joong Hoon Koh,  D. Kosenkov,  L. Koulias,  T. Kowalczyk,  C. M. Krauter,  
 K. Kue,  A. Kunitsa,  T. Kus,  A. Landau,  K. V. Lawler,  D. Lefrancois,  
 S. Lehtola,  Rain Li,  Yi-Pei Li,  Jiashu Liang,  M. Liebenthal,  
 Hung-Hsuan Lin,  You-Sheng Lin,  Fenglai Liu,  Kuan-Yu Liu,  
 M. Loipersberger,  A. Luenser,  A. Manjanath,  P. Manohar,  E. Mansoor,  
 S. F. Manzer,  Shan-Ping Mao,  A. V. Marenich,  T. Markovich,  S. Mason,  
 S. A. Maurer,  P. F. McLaughlin,  M. F. S. J. Menger,  J.-M. Mewes,  
 S. A. Mewes,  P. Morgante,  J. W. Mullinax,  K. J. Oosterbaan,  G. Paran,  
 Alexander C. Paul,  Suranjan K. Paul,  F. Pavosevic,  Zheng Pei,  S. Prager,  
 E. I. Proynov,  E. Ramos,  B. Rana,  A. E. Rask,  A. Rettig,  R. M. Richard,  
 F. Rob,  E. Rossomme,  T. Scheele,  M. Scheurer,  M. Schneider,  
 N. Sergueev,  S. M. Sharada,  W. Skomorowski,  D. W. Small,  C. J. Stein,  
 Yu-Chuan Su,  E. J. Sundstrom,  Zhen Tao,  J. Thirman,  T. Tsuchimochi,  
 N. M. Tubman,  S. P. Veccham,  O. Vydrov,  J. Wenzel,  J. Witte,  A. Yamada,  
 Kun Yao,  S. Yeganeh,  S. R. Yost,  A. Zech,  Igor Ying Zhang,  Xing Zhang,  
 Yu Zhang,  D. Zuev,  A. Aspuru-Guzik,  A. T. Bell,  N. A. Besley,  
 K. B. Bravaya,  B. R. Brooks,  D. Casanova,  Jeng-Da Chai,  S. Coriani,  
 C. J. Cramer,  A. E. DePrince, III,  R. A. DiStasio Jr.,  A. Dreuw,  
 B. D. Dunietz,  T. R. Furlani,  W. A. Goddard III,  S. Grimme,  
 S. Hammes-Schiffer,  T. Head-Gordon,  W. J. Hehre,  Chao-Ping Hsu,  
 T.-C. Jagau,  Yousung Jung,  A. Klamt,  Jing Kong,  D. S. Lambrecht,  
 WanZhen Liang,  N. J. Mayhall,  C. W. McCurdy,  J. B. Neaton,  
 C. Ochsenfeld,  J. A. Parkhill,  R. Peverati,  V. A. Rassolov,  Yihan Shao,  
 L. V. Slipchenko,  T. Stauch,  R. P. Steele,  J. E. Subotnik,  
 A. J. W. Thom,  A. Tkatchenko,  D. G. Truhlar,  T. Van Voorhis,  
 T. A. Wesolowski,  K. B. Whaley,  H. L. Woodcock III,  P. M. Zimmerman,  
 S. Faraji,  P. M. W. Gill,  M. Head-Gordon,  J. M. Herbert,  A. I. Krylov

 Additional authors for Version 5.4.1: 
 S. Kotaru,  Shaozhi Li,  Xiangyuan Li,  F. Matz,  A. Molle,  Haisheng Ren,  
 Yingli Su,  Hung-Yi Tsai,  C. Utku,  Fang Wang

 Contributors to earlier versions of Q-Chem not listed above: 
 R. D. Adamson,  B. Austin,  R. Baer,  J. Baker,  G. J. O. Beran,  
 K. Brandhorst,  S. T. Brown,  E. F. C. Byrd,  A. K. Chakraborty,  
 G. K. L. Chan,  Chun-Min Chang,  Yunqing Chen,  C.-L. Cheng,  
 Siu Hung Chien,  D. M. Chipman,  D. L. Crittenden,  H. Dachsel,  
 R. J. Doerksen,  A. D. Dutoi,  R. G. Edgar,  J. Fosso-Tande,  
 L. Fusti-Molnar,  D. Ghosh,  A. Ghysels,  A. Golubeva-Zadorozhnaya,  
 J. Gonthier,  M. S. Gordon,  S. R. Gwaltney,  G. Hawkins,  J. E. Herr,  
 A. Heyden,  S. Hirata,  E. G. Hohenstein,  G. Kedziora,  F. J. Keil,  
 C. Kelley,  Jihan Kim,  R. A. King,  R. Z. Khaliullin,  P. P. Korambath,  
 W. Kurlancheek,  A. Laurent,  A. M. Lee,  M. S. Lee,  S. V. Levchenko,  
 Ching Yeh Lin,  D. Liotard,  E. Livshits,  R. C. Lochan,  I. Lotan,  
 L. A. Martinez-Martinez,  P. E. Maslen,  N. Nair,  D. P. O'Neill,  
 D. Neuhauser,  E. Neuscamman,  C. M. Oana,  R. Olivares-Amaya,  R. Olson,  
 T. M. Perrine,  B. Peters,  P. A. Pieniazek,  A. Prociuk,  Y. M. Rhee,  
 J. Ritchie,  M. A. Rohrdanz,  E. Rosta,  N. J. Russ,  H. F. Schaefer III,  
 M. W. Schmidt,  N. E. Schultz,  S. Sharma,  N. Shenvi,  C. D. Sherrill,  
 A. C. Simmonett,  A. Sodt,  T. Stein,  D. Stuck,  K. S. Thanthiriwatte,  
 V. Vanovschi,  L. Vogt,  Tao Wang,  A. Warshel,  M. A. Watson,  
 C. F. Williams,  Q. Wu,  X. Xu,  Jun Yang,  W. Zhang,  Yan Zhao

 Please cite Q-Chem as follows:
 Y. Shao et al., Mol. Phys. 113, 184-215 (2015)
 DOI: 10.1080/00268976.2014.952696

 Q-Chem 5.4.1 for Intel X86 EM64T Linux

 Parts of Q-Chem use Armadillo 9.800.1 (Horizon Scraper).
 http://arma.sourceforge.net/

 Q-Chem begins on Wed Feb 28 18:55:48 2024  

 Host: 
0

     Scratch files written to /scratch/ari.fischer/qChem1963491.hpc-mn1/qchem82309//
 Aug1521 |scratch|qcdevops|jenkins|workspace|build_RNUM 8249   
 Processing $rem in /usr/local/qchem-5.4.1/config/preferences:
 Processing $rem in /home/ari.fischer/.qchemrc:
 Symmetry turned off for PCM/SM12/SMD calculation


!!********************************************.
!!******************Warning*******************.
!!Desired Analytical derivatives not available.
!!Finite difference job might take a long time.
!!********************************************.
!!********************************************.


 2-order derivative to be evaluated numerically with 1-order analytical derivatives

 Checking the input file for inconsistencies... 	...done.

--------------------------------------------------------------
User input:
--------------------------------------------------------------
$molecule
-1 2
C    1.9835847   -0.3719881   -1.7822707
C    0.5400026   -0.7497494   -2.0868995
O   -0.2678764    0.3907778   -2.2312629
O    0.0615611   -1.6510673   -1.1214145
O    2.4997389    0.6401062   -2.1999640
H   -0.1035043    0.9666016   -1.4716513
H    0.3220977   -1.2756204   -0.2624921
H    2.5568833   -1.1264341   -1.2247970
H    0.5202242   -1.2717165   -3.0445695
O    1.0558445    0.3530660    0.4790502
O    2.2178971    0.5505065    1.0717588
$end

$rem
BASIS = 6-311++G(2df,2p)
GUI = 2
JOB_TYPE = Frequency
METHOD = wB97M-V
SOLVENT_METHOD = SMD
SCF_ALGORITHM = DIIS_GDM
MAX_SCF_CYCLES = 400
SCF_CONVERGENCE = 7
THRESH = 12
SYMMETRY_IGNORE = 1
$end

--------------------------------------------------------------
 ----------------------------------------------------------------
             Standard Nuclear Orientation (Angstroms)
    I     Atom           X                Y                Z
 ----------------------------------------------------------------
    1      C       1.9835847000    -0.3719881000    -1.7822707000
    2      C       0.5400026000    -0.7497494000    -2.0868995000
    3      O      -0.2678764000     0.3907778000    -2.2312629000
    4      O       0.0615611000    -1.6510673000    -1.1214145000
    5      O       2.4997389000     0.6401062000    -2.1999640000
    6      H      -0.1035043000     0.9666016000    -1.4716513000
    7      H       0.3220977000    -1.2756204000    -0.2624921000
    8      H       2.5568833000    -1.1264341000    -1.2247970000
    9      H       0.5202242000    -1.2717165000    -3.0445695000
   10      O       1.0558445000     0.3530660000     0.4790502000
   11      O       2.2178971000     0.5505065000     1.0717588000
 ----------------------------------------------------------------
 Nuclear Repulsion Energy =         312.08326647 hartrees
 There are       29 alpha and       28 beta electrons
 Requested basis set is 6-311++G(2df,2p)
 There are 80 shells and 278 basis functions

 Total QAlloc Memory Limit 288000 MB
 Mega-Array Size       188 MB
 MEM_STATIC part       192 MB
 
 Citation of the SMD model:
 Marenich, A.V.; Cramer, C.J.; Truhlar, D.G.
 J. Phys. Chem. B 2009, 113, 6378-6396.
 iSolventCode=           1
 Solvent: water                                                           
 
 vradii
            1           2           3           4           5           6
    1   1.8500000   1.8500000   1.5200000   1.5200000   1.5200000   1.2000000
            7           8           9          10          11
    1   1.2000000   1.2000000   1.2000000   1.5200000   1.5200000
 Changing PCM_VDW_RADII to SMD_RADIUS
 Discretize the solute cavity surface with Lebedev spheres
	Using 110 Lebedev grid points for each H atom
	Using 194 Lebedev grid points for other atoms
	Atomic van der Waals radii will be scaled by 1.20
 Remove points where switching function is < 1.0e-08
 Keep 1013 surface tesserae and discard 785 interior tesserae
 Molecular Surface Area = 118.399 Angst**2

                       Distance Matrix (Angstroms)
             C (  1)   C (  2)   O (  3)   O (  4)   O (  5)   H (  6)
   C (  2)  1.522968
   O (  3)  2.419191  1.405102
   O (  4)  2.401447  1.404792  2.347216
   O (  5)  1.210462  2.405213  2.779000  3.515317
   H (  6)  2.498849  1.933518  0.967265  2.646149  2.722850
   H (  7)  2.426276  1.911148  2.645942  0.972927  3.487969  2.582782
   H (  8)  1.099380  2.225516  3.360680  2.551972  2.018633  3.394024
   H (  9)  2.131744  1.090859  2.011581  2.013158  2.878698  2.805918
   O ( 10)  2.549505  2.840140  3.016531  2.750752  3.056851  2.350692
   O ( 11)  3.008552  3.805669  4.136972  3.782423  3.285062  3.468570
             H (  7)   H (  8)   H (  9)   O ( 10)
   H (  8)  2.437735
   H (  9)  2.789126  2.735079
   O ( 10)  1.934138  2.710191  3.916976
   O ( 11)  2.951105  2.863775  4.811107  1.319338
 
 A cutoff of  1.0D-12 yielded   3020 shell pairs
 There are     36519 function pairs (     46170 Cartesian)
 Smallest overlap matrix eigenvalue = 6.10E-05
 Guess from superposition of atomic densities
 Warning:  Energy on first SCF cycle will be non-variational
 SAD guess density has 56.000000 electrons

 -----------------------------------------------------------------------
  General SCF calculation program by
  Eric Jon Sundstrom, Paul Horn, Yuezhi Mao, Dmitri Zuev, Alec White,
  David Stuck, Shaama M.S., Shane Yost, Joonho Lee, David Small,
  Daniel Levine, Susi Lehtola, Hugh Burton, Evgeny Epifanovsky,
  Bang C. Huynh
 -----------------------------------------------------------------------
 Exchange:     0.1500 Hartree-Fock + 1.0000 wB97M-V + LR-HF
 Correlation:  1.0000 wB97M-V
 Using SG-2 standard quadrature grid
 Nonlocal Correlation:  VV10 with C = 0.0100 and b = 6.00 and scale = 1.00000
 Grid used for NLC:  SG-1 standard quadrature
 using 16 threads for integral computing
 -------------------------------------------------------
 OpenMP Integral computing Module                
 Release: version 1.0, May 2013, Q-Chem Inc. Pittsburgh 
 -------------------------------------------------------
 
 Citation of the SMD model:
 Marenich, A.V.; Cramer, C.J.; Truhlar, D.G.
 J. Phys. Chem. B 2009, 113, 6378-6396.
 iSolventCode=           1
 Solvent: water                                                           
 
 vradii
            1           2           3           4           5           6
    1   1.8500000   1.8500000   1.5200000   1.5200000   1.5200000   1.2000000
            7           8           9          10          11
    1   1.2000000   1.2000000   1.2000000   1.5200000   1.5200000
 -------------------------------------------------------
 OpenMP BLAS3 based DFT computing Module                
 Release: version 1.0, May 2013, Q-Chem Inc. Pittsburgh 
 -------------------------------------------------------
 A unrestricted SCF calculation will be
 performed using DIIS, GDM
 SCF converges when RMS gradient is below 1.0e-07
 ---------------------------------------
  Cycle       Energy         DIIS error
 ---------------------------------------
    1    -455.3280076874      1.41e-02  
    2    -454.6270509963      2.29e-03  Done DIIS. Switching to GDM
 ---------------------------------------
  Cycle       Energy        RMS Gradient
 ---------------------------------------
    1    -454.6270509963      1.04e-01   Descent step
    2    -454.7724701479      1.90e-02   Normal BFGS step
    3    -454.7871421007      9.70e-03   Normal BFGS step
    4    -454.7888931973      8.65e-03   Normal BFGS step
    5    -454.7895797159      4.04e-03   Normal BFGS step
    6    -454.7896183784      2.71e-03   Normal BFGS step
    7    -454.7896559139      5.18e-04   Normal BFGS step
    8    -454.7896586325      4.18e-04   Normal BFGS step
    9    -454.7896598852      4.19e-04   Normal BFGS step
   10    -454.7896602948      4.37e-04   Normal BFGS step
   11    -454.7896608894      4.47e-04   Normal BFGS step
   12    -454.7896623091      4.50e-04   Normal BFGS step
   13    -454.7896647713      4.70e-04   Normal BFGS step
   14    -454.7896689247      7.56e-04   Normal BFGS step
   15    -454.7896737280      8.97e-04   Normal BFGS step
   16    -454.7896775295      6.97e-04   Normal BFGS step
   17    -454.7896793884      3.00e-04   Normal BFGS step
   18    -454.7896798698      1.36e-04   Normal BFGS step
   19    -454.7896799848      4.20e-05   Normal BFGS step
   20    -454.7896800027      7.95e-06   Normal BFGS step
   21    -454.7896800050      3.37e-06   Normal BFGS step
   22    -454.7896800053      2.82e-06   Normal BFGS step
   23    -454.7896800054      1.30e-06   Normal BFGS step
   24    -454.7896800054      3.80e-07   Normal BFGS step
   25    -454.7896800054      3.27e-07   Normal BFGS step
   26    -454.7896800054      1.24e-07   Normal BFGS step
   27    -454.7896800054      9.00e-08  Convergence criterion met
 ---------------------------------------
 SCF time:   CPU 1544.05s  wall 156.00s 
<S^2> =          0.754982593
(3)  G-ENP(liq) elect-nuc-pol free energy of system     -454.789680005 a.u.
(4)  G-CDS(liq) cavity-dispersion-solvent structure 
     free energy                                                2.7684 kcal/mol
(6)  G-S(liq) free energy of system                     -454.785268235 a.u.
 SCF   energy in the final basis set =     -454.7852682346
 Total energy in the final basis set =     -454.7852682346
 
 --------------------------------------------------------------
 
                    Orbital Energies (a.u.)
 --------------------------------------------------------------
 
 Alpha MOs
 -- Occupied --
-19.3498 -19.3483 -19.3459 -19.3411 -19.3403 -10.4458 -10.4374  -1.2312
 -1.2072  -1.1809  -1.1342  -0.8764  -0.8319  -0.7269  -0.6437  -0.6252
 -0.5957  -0.5767  -0.5407  -0.5336  -0.5166  -0.4952  -0.4902  -0.4690
 -0.4404  -0.4108  -0.3652  -0.3333  -0.3021
 -- Virtual --
  0.0360   0.0462   0.0520   0.0589   0.0679   0.0953   0.1096   0.1131
  0.1141   0.1381   0.1665   0.1678   0.1766   0.1887   0.2054   0.2304
  0.2380   0.2413   0.2554   0.2629   0.2778   0.2858   0.2963   0.3043
  0.3202   0.3223   0.3234   0.3307   0.3431   0.3491   0.3517   0.3577
  0.3748   0.3856   0.3972   0.4114   0.4134   0.4183   0.4418   0.4689
  0.4940   0.5144   0.5729   0.5987   0.6196   0.6360   0.6436   0.6690
  0.6741   0.6868   0.7053   0.7473   0.8004   0.8077   0.8311   0.8384
  0.8905   0.9362   0.9779   0.9990   1.0436   1.0689   1.0842   1.0992
  1.1107   1.1282   1.1389   1.1404   1.1552   1.1724   1.1873   1.1977
  1.2106   1.2214   1.2331   1.2378   1.2481   1.2774   1.2981   1.3479
  1.3586   1.3735   1.3893   1.4216   1.4475   1.4614   1.4774   1.4966
  1.5068   1.5116   1.5725   1.5834   1.5988   1.6173   1.6502   1.6898
  1.7139   1.7335   1.7963   1.8362   1.8450   1.8851   1.9186   1.9416
  1.9756   2.0215   2.0381   2.1881   2.2044   2.2265   2.2462   2.2655
  2.2917   2.3330   2.3717   2.4174   2.4402   2.4656   2.5487   2.5857
  2.6295   2.6924   2.7282   2.8369   2.8936   2.9314   2.9792   3.0157
  3.0686   3.1098   3.1458   3.2218   3.2547   3.2715   3.3042   3.3751
  3.4151   3.4464   3.4973   3.5199   3.5800   3.6095   3.6306   3.6461
  3.6979   3.7815   3.8069   3.8498   3.8677   3.9230   3.9359   3.9683
  4.0050   4.1351   4.1640   4.1876   4.2630   4.2707   4.2818   4.3216
  4.3884   4.4390   4.5134   4.6279   4.6688   4.6868   4.7411   4.7956
  4.8259   4.8490   5.0861   5.0923   5.1232   5.1414   5.1752   5.1762
  5.2054   5.2122   5.2229   5.2311   5.2364   5.2468   5.2602   5.2693
  5.2745   5.2995   5.3096   5.3314   5.3727   5.3931   5.4099   5.4171
  5.4818   5.5088   5.5445   5.5627   5.5899   5.6281   5.6358   5.6546
  5.6576   5.7303   5.7931   5.8475   5.9858   6.0977   6.1779   6.3921
  6.4744   6.5058   6.5484   6.7021   6.7726   6.8068   6.8629   6.9380
  6.9575   6.9883   7.0155   7.0371   7.0652   7.0882   7.1186   7.1631
  7.1771   7.2558   7.2837   7.3233   7.3624   7.3891   7.4144   7.4626
  7.5024   7.5167   7.5567   7.6261   7.7203   7.7591   7.8085   7.8586
  7.9787   8.0042  24.7694  24.9808  50.4382  50.5154  50.5803  50.6346
 50.7224
 
 Beta MOs
 -- Occupied --
-19.3458 -19.3411 -19.3403 -19.3363 -19.3331 -10.4458 -10.4374  -1.2104
 -1.1989  -1.1810  -1.1340  -0.8349  -0.8318  -0.7263  -0.6430  -0.6248
 -0.5949  -0.5760  -0.5171  -0.5133  -0.4972  -0.4837  -0.4666  -0.4461
 -0.4391  -0.4107  -0.3651  -0.2827
 -- Virtual --
  0.0217   0.0367   0.0470   0.0526   0.0596   0.0695   0.0960   0.1106
  0.1139   0.1144   0.1388   0.1671   0.1689   0.1779   0.1903   0.2077
  0.2326   0.2435   0.2448   0.2569   0.2634   0.2785   0.2881   0.3011
  0.3080   0.3230   0.3246   0.3248   0.3340   0.3438   0.3497   0.3537
  0.3590   0.3756   0.3904   0.3997   0.4124   0.4168   0.4196   0.4421
  0.4694   0.4962   0.5149   0.5741   0.5991   0.6202   0.6360   0.6439
  0.6692   0.6744   0.6869   0.7060   0.7484   0.8007   0.8089   0.8314
  0.8387   0.8914   0.9376   0.9785   1.0000   1.0446   1.0696   1.0882
  1.1019   1.1174   1.1326   1.1416   1.1563   1.1622   1.1768   1.1902
  1.2025   1.2118   1.2260   1.2345   1.2394   1.2673   1.2841   1.3005
  1.3487   1.3655   1.3774   1.3927   1.4280   1.4490   1.4636   1.4821
  1.5032   1.5129   1.5138   1.5763   1.5906   1.6119   1.6323   1.6629
  1.6963   1.7166   1.7411   1.8120   1.8435   1.8476   1.8950   1.9197
  1.9461   1.9807   2.0251   2.0432   2.1894   2.2055   2.2344   2.2527
  2.2722   2.2947   2.3487   2.3773   2.4181   2.4431   2.4689   2.5492
  2.5858   2.6297   2.6929   2.7378   2.8375   2.8942   2.9322   2.9794
  3.0158   3.0688   3.1099   3.1457   3.2219   3.2548   3.2715   3.3044
  3.3752   3.4152   3.4465   3.4973   3.5200   3.5801   3.6095   3.6307
  3.6463   3.6979   3.7815   3.8070   3.8499   3.8678   3.9231   3.9360
  3.9684   4.0050   4.1352   4.1641   4.1882   4.2631   4.2708   4.2820
  4.3228   4.3895   4.4392   4.5136   4.6560   4.6799   4.6919   4.7452
  4.8219   4.8418   4.8698   5.1258   5.1293   5.1483   5.1754   5.1949
  5.1975   5.2087   5.2157   5.2410   5.2566   5.2621   5.2707   5.2748
  5.2866   5.2979   5.3059   5.3316   5.3477   5.3736   5.3956   5.4131
  5.4301   5.4823   5.5093   5.5455   5.5634   5.5920   5.6286   5.6569
  5.6632   5.6825   5.7311   5.7934   5.8478   5.9861   6.0980   6.1780
  6.3926   6.5151   6.5213   6.5499   6.7027   6.7730   6.8718   6.9312
  6.9557   6.9966   7.0086   7.0596   7.0696   7.0846   7.1070   7.1258
  7.1703   7.2013   7.2615   7.2865   7.3266   7.3649   7.3943   7.4222
  7.4929   7.5111   7.5229   7.5662   7.6281   7.7214   7.7595   7.8088
  7.8589   8.0008   8.0181  24.7694  24.9808  50.4493  50.5253  50.5804
 50.6351  50.7224
 --------------------------------------------------------------
 
          Ground-State Mulliken Net Atomic Charges

     Atom                 Charge (a.u.)    Spin (a.u.)
  --------------------------------------------------------
      1 C                     0.080404      -0.004361
      2 C                    -0.090556       0.002103
      3 O                    -0.430320      -0.000423
      4 O                    -0.413792       0.000986
      5 O                    -0.401873      -0.002232
      6 H                     0.340276       0.003946
      7 H                     0.318729       0.004053
      8 H                     0.238883      -0.000569
      9 H                     0.209834       0.000608
     10 O                    -0.401705       0.460112
     11 O                    -0.449880       0.535776
  --------------------------------------------------------
  Sum of atomic charges =    -1.000000
  Sum of spin   charges =     1.000000

 -----------------------------------------------------------------
                    Cartesian Multipole Moments
 -----------------------------------------------------------------
    Charge (ESU x 10^10)
                -4.8032
    Dipole Moment (Debye)
         X      -6.8587      Y      -3.1843      Z       0.6698
       Tot       7.5914
    Quadrupole Moments (Debye-Ang)
        XX     -63.9831     XY     -11.3494     YY     -47.2638
        XZ      -3.5023     YZ       3.1731     ZZ     -55.6583
    Octopole Moments (Debye-Ang^2)
       XXX    -198.6939    XXY     -18.3553    XYY     -50.8530
       YYY      26.8095    XXZ      53.8731    XYZ      10.8473
       YYZ      50.0600    XZZ     -65.2981    YZZ     -19.5002
       ZZZ     153.8047
    Hexadecapole Moments (Debye-Ang^3)
      XXXX    -792.0744   XXXY     -88.2207   XXYY    -151.5984
      XYYY     -36.6474   YYYY    -240.4823   XXXZ     141.3780
      XXYZ       9.4449   XYYZ      37.3616   YYYZ     -61.5880
      XXZZ    -304.3243   XYZZ     -47.3279   YYZZ    -167.7685
      XZZZ     125.4486   YZZZ      15.4042   ZZZZ    -805.2920
 -----------------------------------------------------------------
 Calculating analytic gradient of the SCF energy
 Gradient of CDS energy
            1           2           3           4           5           6
    1   0.0016327  -0.0034560   0.0018804   0.0011798  -0.0006389  -0.0003017
    2   0.0013130   0.0000954  -0.0026247   0.0022171  -0.0010618   0.0003617
    3  -0.0009802   0.0015141   0.0003887  -0.0023036   0.0005091   0.0001056
            7           8           9          10          11
    1  -0.0001589  -0.0001650  -0.0000660   0.0001618  -0.0000682
    2  -0.0001996  -0.0000650  -0.0000640   0.0000344  -0.0000065
    3   0.0003827   0.0003208  -0.0001007   0.0000520   0.0001114
 Gradient of SCF Energy
            1           2           3           4           5           6
    1   0.0333703   0.0046114  -0.0012880  -0.0027147  -0.0106294  -0.0059086
    2   0.0095155  -0.0133926   0.0228219  -0.0021452  -0.0232532  -0.0186974
    3   0.0067003  -0.0253214   0.0147658   0.0282877   0.0122629  -0.0214352
            7           8           9          10          11
    1  -0.0038311  -0.0186487   0.0037996  -0.0195383   0.0207775
    2  -0.0078554   0.0149353   0.0129583  -0.0032379   0.0083507
    3  -0.0266498  -0.0209303   0.0257773  -0.0045214   0.0110641
 Max gradient component =       3.337E-02
 RMS gradient           =       1.649E-02
 Computing fast CPCM-SWIG gradient
 Updating gradient with PCM contributions...
 -- total gradient after adding PCM contribution --
---------------------------------------------------
  Atom         X              Y              Z     
---------------------------------------------------
   1      -0.000015      -0.000003       0.000019
   2       0.000011      -0.000006      -0.000014
   3       0.000020      -0.000005      -0.000031
   4      -0.000011       0.000028       0.000021
   5       0.000019      -0.000010      -0.000004
   6      -0.000000      -0.000000      -0.000020
   7      -0.000019       0.000000       0.000010
   8      -0.000004      -0.000007       0.000016
   9       0.000011      -0.000023       0.000010
  10       0.000017      -0.000001      -0.000015
  11      -0.000027       0.000026       0.000009
---------------------------------------------------
 Number of fixed atoms: 0
 Gradient time:  CPU 137.01 s  wall 15.24 s
 ######################################################
 ######################################################
 # Starting finite difference calculation for IDERIV  #
 Finite diff step size:  1.88973e-03 a.u.
 ----------------------------------------------------------------
             Standard Nuclear Orientation (Angstroms)
    I     Atom           X                Y                Z
 ----------------------------------------------------------------
    1      C       1.9845847000    -0.3719881000    -1.7822707000
    2      C       0.5400026000    -0.7497494000    -2.0868995000
    3      O      -0.2678764000     0.3907778000    -2.2312629000
    4      O       0.0615611000    -1.6510673000    -1.1214145000
    5      O       2.4997389000     0.6401062000    -2.1999640000
    6      H      -0.1035043000     0.9666016000    -1.4716513000
    7      H       0.3220977000    -1.2756204000    -0.2624921000
    8      H       2.5568833000    -1.1264341000    -1.2247970000
    9      H       0.5202242000    -1.2717165000    -3.0445695000
   10      O       1.0558445000     0.3530660000     0.4790502000
   11      O       2.2178971000     0.5505065000     1.0717588000
 ----------------------------------------------------------------
 Nuclear Repulsion Energy =         312.07420441 hartrees
 There are       29 alpha and       28 beta electrons
 Discretize the solute cavity surface with Lebedev spheres
	Using 110 Lebedev grid points for each H atom
	Using 194 Lebedev grid points for other atoms
	Atomic van der Waals radii will be scaled by 1.20
 Remove points where switching function is < 1.0e-08
 Keep 1013 surface tesserae and discard 785 interior tesserae
 Molecular Surface Area = 118.403 Angst**2

                       Distance Matrix (Angstroms)
             C (  1)   C (  2)   O (  3)   O (  4)   O (  5)   H (  6)
   C (  2)  1.523916
   O (  3)  2.420121  1.405102
   O (  4)  2.402248  1.404792  2.347216
   O (  5)  1.210036  2.405213  2.779000  3.515317
   H (  6)  2.499684  1.933518  0.967265  2.646149  2.722850
   H (  7)  2.426961  1.911148  2.645942  0.972927  3.487969  2.582782
   H (  8)  1.098859  2.225516  3.360680  2.551972  2.018633  3.394024
   H (  9)  2.132431  1.090859  2.011581  2.013158  2.878698  2.805918
   O ( 10)  2.549869  2.840140  3.016531  2.750752  3.056851  2.350692
   O ( 11)  3.008474  3.805669  4.136972  3.782423  3.285062  3.468570
             H (  7)   H (  8)   H (  9)   O ( 10)
   H (  8)  2.437735
   H (  9)  2.789126  2.735079
   O ( 10)  1.934138  2.710191  3.916976
   O ( 11)  2.951105  2.863775  4.811107  1.319338
 
 Requested basis set is 6-311++G(2df,2p)
 There are 80 shells and 278 basis functions
 A cutoff of  1.0D-12 yielded   3020 shell pairs
 There are     36519 function pairs (     46170 Cartesian)
 Smallest overlap matrix eigenvalue = 6.12E-05
 Guess MOs from SCF MO coefficient file

 -----------------------------------------------------------------------
  General SCF calculation program by
  Eric Jon Sundstrom, Paul Horn, Yuezhi Mao, Dmitri Zuev, Alec White,
  David Stuck, Shaama M.S., Shane Yost, Joonho Lee, David Small,
  Daniel Levine, Susi Lehtola, Hugh Burton, Evgeny Epifanovsky,
  Bang C. Huynh
 -----------------------------------------------------------------------
 Exchange:     0.1500 Hartree-Fock + 1.0000 wB97M-V + LR-HF
 Correlation:  1.0000 wB97M-V
 Using SG-2 standard quadrature grid
 Nonlocal Correlation:  VV10 with C = 0.0100 and b = 6.00 and scale = 1.00000
 Grid used for NLC:  SG-1 standard quadrature
 
 Citation of the SMD model:
 Marenich, A.V.; Cramer, C.J.; Truhlar, D.G.
 J. Phys. Chem. B 2009, 113, 6378-6396.
 iSolventCode=           1
 Solvent: water                                                           
 
 vradii
            1           2           3           4           5           6
    1   1.8500000   1.8500000   1.5200000   1.5200000   1.5200000   1.2000000
            7           8           9          10          11
    1   1.2000000   1.2000000   1.2000000   1.5200000   1.5200000
 -------------------------------------------------------
 OpenMP BLAS3 based DFT computing Module                
 Release: version 1.0, May 2013, Q-Chem Inc. Pittsburgh 
 -------------------------------------------------------
 A unrestricted SCF calculation will be
 performed using Roothaan-Hall, DIIS, GDM
 SCF converges when RMS gradient is below 1.0e-07
 ---------------------------------------
  Cycle       Energy         DIIS error
 ---------------------------------------
    1    -454.6737945953      2.83e-04  Roothaan Step
 ---------------------------------------
  Cycle       Energy         DIIS error
 ---------------------------------------
    1    -454.7824629392      3.54e-04  
    2    -454.7854771156      4.04e-04  Done DIIS. Switching to GDM
 ---------------------------------------
  Cycle       Energy        RMS Gradient
 ---------------------------------------
    1    -454.7854771156      2.04e-02   Normal BFGS step
    2    -454.7825624489      3.78e-02  Line search: overstep
    3    -454.7894516961      5.41e-03   Normal BFGS step
    4    -454.7896041505      1.86e-03   Normal BFGS step
    5    -454.7896706004      1.95e-03   Normal BFGS step
    6    -454.7896767310      4.96e-04   Normal BFGS step
    7    -454.7896808093      5.20e-04   Normal BFGS step
    8    -454.7896817095      3.37e-04   Normal BFGS step
    9    -454.7896820477      8.87e-05   Normal BFGS step
   10    -454.7896820905      3.71e-05   Normal BFGS step
   11    -454.7896821067      1.89e-05   Normal BFGS step
   12    -454.7896821082      4.95e-06   Normal BFGS step
   13    -454.7896821086      1.39e-06   Normal BFGS step
   14    -454.7896821087      7.13e-07   Normal BFGS step
   15    -454.7896821087      3.25e-07   Normal BFGS step
   16    -454.7896821087      3.11e-07   Normal BFGS step
   17    -454.7896821087      3.22e-07   Normal BFGS step
   18    -454.7896821087      3.19e-07   Normal BFGS step
   19    -454.7896821087      3.06e-07   Normal BFGS step
   20    -454.7896821087      2.87e-07   Normal BFGS step
   21    -454.7896821087      2.45e-07   Normal BFGS step
   22    -454.7896821087      2.69e-07   Normal BFGS step
   23    -454.7896821087      3.21e-07   Normal BFGS step
   24    -454.7896821087      1.92e-07   Normal BFGS step
   25    -454.7896821087      1.48e-07   Normal BFGS step
   26    -454.7896821087      8.42e-08  Convergence criterion met
 ---------------------------------------
 SCF time:   CPU 1425.81s  wall 148.00s 
<S^2> =          0.754980805
(3)  G-ENP(liq) elect-nuc-pol free energy of system     -454.789682109 a.u.
(4)  G-CDS(liq) cavity-dispersion-solvent structure 
     free energy                                                2.7704 kcal/mol
(6)  G-S(liq) free energy of system                     -454.785267254 a.u.
 SCF   energy in the final basis set =     -454.7852672539
 Total energy in the final basis set =     -454.7852672539
 
 --------------------------------------------------------------
 
                    Orbital Energies (a.u.)
 --------------------------------------------------------------
 
 Alpha MOs
 -- Occupied --
-19.3498 -19.3483 -19.3459 -19.3411 -19.3403 -10.4458 -10.4374  -1.2312
 -1.2072  -1.1811  -1.1342  -0.8764  -0.8317  -0.7269  -0.6436  -0.6252
 -0.5956  -0.5768  -0.5407  -0.5336  -0.5166  -0.4952  -0.4902  -0.4690
 -0.4404  -0.4107  -0.3651  -0.3332  -0.3021
 -- Virtual --
  0.0360   0.0463   0.0520   0.0589   0.0680   0.0953   0.1096   0.1131
  0.1141   0.1381   0.1665   0.1679   0.1766   0.1887   0.2054   0.2304
  0.2380   0.2413   0.2554   0.2629   0.2778   0.2858   0.2963   0.3044
  0.3202   0.3223   0.3235   0.3307   0.3431   0.3491   0.3517   0.3577
  0.3748   0.3856   0.3972   0.4115   0.4134   0.4181   0.4418   0.4689
  0.4940   0.5144   0.5730   0.5988   0.6197   0.6360   0.6436   0.6691
  0.6741   0.6868   0.7053   0.7473   0.8004   0.8078   0.8312   0.8384
  0.8905   0.9361   0.9779   0.9989   1.0436   1.0688   1.0841   1.0992
  1.1107   1.1281   1.1390   1.1404   1.1551   1.1724   1.1873   1.1976
  1.2105   1.2213   1.2331   1.2377   1.2481   1.2774   1.2981   1.3478
  1.3586   1.3734   1.3893   1.4216   1.4474   1.4613   1.4774   1.4967
  1.5068   1.5117   1.5727   1.5834   1.5989   1.6173   1.6502   1.6899
  1.7138   1.7336   1.7964   1.8361   1.8450   1.8851   1.9185   1.9416
  1.9755   2.0214   2.0380   2.1881   2.2045   2.2266   2.2461   2.2656
  2.2916   2.3329   2.3716   2.4174   2.4402   2.4656   2.5486   2.5859
  2.6295   2.6921   2.7282   2.8368   2.8937   2.9313   2.9791   3.0157
  3.0682   3.1098   3.1457   3.2215   3.2549   3.2713   3.3040   3.3750
  3.4151   3.4466   3.4973   3.5197   3.5798   3.6096   3.6307   3.6461
  3.6981   3.7813   3.8067   3.8496   3.8680   3.9230   3.9362   3.9677
  4.0045   4.1348   4.1637   4.1875   4.2632   4.2708   4.2817   4.3216
  4.3882   4.4390   4.5129   4.6280   4.6692   4.6868   4.7407   4.7956
  4.8259   4.8490   5.0861   5.0924   5.1233   5.1415   5.1752   5.1762
  5.2054   5.2121   5.2229   5.2310   5.2364   5.2467   5.2602   5.2693
  5.2747   5.2995   5.3096   5.3315   5.3728   5.3930   5.4100   5.4172
  5.4818   5.5086   5.5449   5.5630   5.5898   5.6281   5.6358   5.6546
  5.6576   5.7305   5.7934   5.8487   5.9860   6.0978   6.1780   6.3930
  6.4745   6.5058   6.5483   6.7024   6.7737   6.8069   6.8630   6.9380
  6.9575   6.9883   7.0155   7.0371   7.0652   7.0883   7.1187   7.1633
  7.1772   7.2560   7.2836   7.3233   7.3623   7.3891   7.4144   7.4626
  7.5023   7.5167   7.5567   7.6260   7.7202   7.7592   7.8085   7.8586
  7.9787   8.0042  24.7692  24.9808  50.4382  50.5154  50.5803  50.6346
 50.7229
 
 Beta MOs
 -- Occupied --
-19.3458 -19.3412 -19.3402 -19.3363 -19.3331 -10.4458 -10.4374  -1.2104
 -1.1989  -1.1811  -1.1340  -0.8349  -0.8316  -0.7263  -0.6430  -0.6248
 -0.5948  -0.5761  -0.5171  -0.5133  -0.4972  -0.4837  -0.4666  -0.4461
 -0.4391  -0.4107  -0.3650  -0.2827
 -- Virtual --
  0.0217   0.0367   0.0470   0.0526   0.0596   0.0695   0.0960   0.1106
  0.1139   0.1144   0.1388   0.1672   0.1689   0.1779   0.1903   0.2077
  0.2326   0.2435   0.2448   0.2569   0.2634   0.2785   0.2881   0.3011
  0.3080   0.3230   0.3246   0.3248   0.3339   0.3438   0.3497   0.3537
  0.3589   0.3756   0.3904   0.3997   0.4124   0.4168   0.4195   0.4421
  0.4693   0.4963   0.5149   0.5742   0.5992   0.6202   0.6360   0.6440
  0.6692   0.6743   0.6869   0.7060   0.7484   0.8007   0.8090   0.8315
  0.8387   0.8914   0.9375   0.9785   0.9999   1.0447   1.0695   1.0881
  1.1018   1.1173   1.1326   1.1416   1.1562   1.1622   1.1768   1.1902
  1.2024   1.2118   1.2260   1.2345   1.2393   1.2673   1.2841   1.3005
  1.3486   1.3654   1.3774   1.3927   1.4279   1.4490   1.4636   1.4820
  1.5033   1.5130   1.5138   1.5765   1.5907   1.6119   1.6323   1.6629
  1.6964   1.7165   1.7412   1.8120   1.8434   1.8476   1.8950   1.9196
  1.9461   1.9806   2.0251   2.0431   2.1893   2.2056   2.2344   2.2526
  2.2723   2.2946   2.3486   2.3772   2.4181   2.4431   2.4689   2.5492
  2.5860   2.6297   2.6926   2.7378   2.8374   2.8943   2.9321   2.9793
  3.0158   3.0683   3.1098   3.1456   3.2216   3.2550   3.2713   3.3042
  3.3751   3.4152   3.4468   3.4974   3.5197   3.5799   3.6096   3.6308
  3.6462   3.6981   3.7813   3.8067   3.8497   3.8682   3.9230   3.9363
  3.9678   4.0045   4.1349   4.1638   4.1882   4.2632   4.2709   4.2819
  4.3227   4.3893   4.4391   4.5131   4.6563   4.6800   4.6917   4.7448
  4.8219   4.8418   4.8698   5.1259   5.1293   5.1484   5.1754   5.1948
  5.1975   5.2086   5.2156   5.2409   5.2566   5.2621   5.2706   5.2749
  5.2867   5.2979   5.3059   5.3316   5.3477   5.3737   5.3955   5.4131
  5.4301   5.4823   5.5091   5.5458   5.5636   5.5919   5.6286   5.6569
  5.6632   5.6825   5.7312   5.7936   5.8490   5.9862   6.0981   6.1780
  6.3936   6.5151   6.5213   6.5498   6.7030   6.7741   6.8718   6.9313
  6.9557   6.9967   7.0086   7.0597   7.0696   7.0847   7.1070   7.1258
  7.1705   7.2013   7.2617   7.2865   7.3267   7.3648   7.3943   7.4221
  7.4929   7.5110   7.5229   7.5661   7.6280   7.7213   7.7597   7.8088
  7.8589   8.0008   8.0180  24.7692  24.9808  50.4493  50.5253  50.5804
 50.6351  50.7230
 --------------------------------------------------------------
 
          Ground-State Mulliken Net Atomic Charges

     Atom                 Charge (a.u.)    Spin (a.u.)
  --------------------------------------------------------
      1 C                     0.080199      -0.004346
      2 C                    -0.090657       0.002106
      3 O                    -0.430368      -0.000423
      4 O                    -0.413844       0.000979
      5 O                    -0.401328      -0.002216
      6 H                     0.340278       0.003947
      7 H                     0.318713       0.004036
      8 H                     0.239006      -0.000571
      9 H                     0.209768       0.000611
     10 O                    -0.401819       0.460152
     11 O                    -0.449949       0.535725
  --------------------------------------------------------
  Sum of atomic charges =    -1.000000
  Sum of spin   charges =     1.000000

 -----------------------------------------------------------------
                    Cartesian Multipole Moments
 -----------------------------------------------------------------
    Charge (ESU x 10^10)
                -4.8032
    Dipole Moment (Debye)
         X      -6.8533      Y      -3.1827      Z       0.6683
       Tot       7.5857
    Quadrupole Moments (Debye-Ang)
        XX     -63.9656     XY     -11.3485     YY     -47.2662
        XZ      -3.5169     YZ       3.1669     ZZ     -55.6565
    Octopole Moments (Debye-Ang^2)
       XXX    -198.6531    XXY     -18.3536    XYY     -50.8537
       YYY      26.8126    XXZ      53.8281    XYZ      10.8427
       YYZ      50.0577    XZZ     -65.2728    YZZ     -19.4845
       ZZZ     153.8053
    Hexadecapole Moments (Debye-Ang^3)
      XXXX    -792.0240   XXXY     -88.2125   XXYY    -151.6084
      XYYY     -36.6472   YYYY    -240.4926   XXXZ     141.2671
      XXYZ       9.4396   XYYZ      37.3507   YYYZ     -61.6079
      XXZZ    -304.2522   XYZZ     -47.3164   YYZZ    -167.7756
      XZZZ     125.3933   YZZZ      15.3510   ZZZZ    -805.2883
 -----------------------------------------------------------------
 Calculating analytic gradient of the SCF energy
 Gradient of CDS energy
            1           2           3           4           5           6
    1   0.0016313  -0.0034571   0.0018804   0.0011799  -0.0006353  -0.0003017
    2   0.0013080   0.0000951  -0.0026247   0.0022171  -0.0010570   0.0003617
    3  -0.0009780   0.0015137   0.0003888  -0.0023035   0.0005071   0.0001056
            7           8           9          10          11
    1  -0.0001589  -0.0001660  -0.0000660   0.0001618  -0.0000684
    2  -0.0001996  -0.0000643  -0.0000640   0.0000344  -0.0000066
    3   0.0003827   0.0003206  -0.0001006   0.0000520   0.0001115
 Gradient of SCF Energy
            1           2           3           4           5           6
    1   0.0342890   0.0042788  -0.0013393  -0.0027355  -0.0109462  -0.0059064
    2   0.0097913  -0.0134316   0.0228349  -0.0021548  -0.0236690  -0.0186968
    3   0.0067796  -0.0253883   0.0147587   0.0283031   0.0124109  -0.0214416
            7           8           9          10          11
    1  -0.0038333  -0.0188575   0.0038114  -0.0195341   0.0207732
    2  -0.0078639   0.0151194   0.0129589  -0.0032372   0.0083487
    3  -0.0266553  -0.0210818   0.0257784  -0.0045267   0.0110629
 Max gradient component =       3.429E-02
 RMS gradient           =       1.660E-02
 Computing fast CPCM-SWIG gradient
 Updating gradient with PCM contributions...
 -- total gradient after adding PCM contribution --
---------------------------------------------------
  Atom         X              Y              Z     
---------------------------------------------------
   1       0.001053       0.000275       0.000095
   2      -0.000331      -0.000015      -0.000049
   3      -0.000036       0.000003      -0.000051
   4      -0.000026       0.000018       0.000022
   5      -0.000366      -0.000430       0.000143
   6      -0.000001      -0.000001      -0.000021
   7      -0.000026      -0.000008       0.000007
   8      -0.000276       0.000163      -0.000128
   9       0.000019      -0.000028       0.000005
  10       0.000033      -0.000002      -0.000020
  11      -0.000043       0.000024      -0.000003
---------------------------------------------------
 Number of fixed atoms: 0
 Gradient time:  CPU 120.97 s  wall 14.93 s
 ----------------------------------------------------------------
             Standard Nuclear Orientation (Angstroms)
    I     Atom           X                Y                Z
 ----------------------------------------------------------------
    1      C       1.9825847000    -0.3719881000    -1.7822707000
    2      C       0.5400026000    -0.7497494000    -2.0868995000
    3      O      -0.2678764000     0.3907778000    -2.2312629000
    4      O       0.0615611000    -1.6510673000    -1.1214145000
    5      O       2.4997389000     0.6401062000    -2.1999640000
    6      H      -0.1035043000     0.9666016000    -1.4716513000
    7      H       0.3220977000    -1.2756204000    -0.2624921000
    8      H       2.5568833000    -1.1264341000    -1.2247970000
    9      H       0.5202242000    -1.2717165000    -3.0445695000
   10      O       1.0558445000     0.3530660000     0.4790502000
   11      O       2.2178971000     0.5505065000     1.0717588000
 ----------------------------------------------------------------
 Nuclear Repulsion Energy =         312.09233390 hartrees
 There are       29 alpha and       28 beta electrons
 Discretize the solute cavity surface with Lebedev spheres
	Using 110 Lebedev grid points for each H atom
	Using 194 Lebedev grid points for other atoms
	Atomic van der Waals radii will be scaled by 1.20
 Remove points where switching function is < 1.0e-08
 Keep 1013 surface tesserae and discard 785 interior tesserae
 Molecular Surface Area = 118.395 Angst**2

                       Distance Matrix (Angstroms)
             C (  1)   C (  2)   O (  3)   O (  4)   O (  5)   H (  6)
   C (  2)  1.522020
   O (  3)  2.418260  1.405102
   O (  4)  2.400647  1.404792  2.347216
   O (  5)  1.210889  2.405213  2.779000  3.515317
   H (  6)  2.498014  1.933518  0.967265  2.646149  2.722850
   H (  7)  2.425592  1.911148  2.645942  0.972927  3.487969  2.582782
   H (  8)  1.099902  2.225516  3.360680  2.551972  2.018633  3.394024
   H (  9)  2.131058  1.090859  2.011581  2.013158  2.878698  2.805918
   O ( 10)  2.549142  2.840140  3.016531  2.750752  3.056851  2.350692
   O ( 11)  3.008630  3.805669  4.136972  3.782423  3.285062  3.468570
             H (  7)   H (  8)   H (  9)   O ( 10)
   H (  8)  2.437735
   H (  9)  2.789126  2.735079
   O ( 10)  1.934138  2.710191  3.916976
   O ( 11)  2.951105  2.863775  4.811107  1.319338
 
 Requested basis set is 6-311++G(2df,2p)
 There are 80 shells and 278 basis functions
 A cutoff of  1.0D-12 yielded   3020 shell pairs
 There are     36519 function pairs (     46170 Cartesian)
 Smallest overlap matrix eigenvalue = 6.09E-05
 Guess MOs from SCF MO coefficient file

 -----------------------------------------------------------------------
  General SCF calculation program by
  Eric Jon Sundstrom, Paul Horn, Yuezhi Mao, Dmitri Zuev, Alec White,
  David Stuck, Shaama M.S., Shane Yost, Joonho Lee, David Small,
  Daniel Levine, Susi Lehtola, Hugh Burton, Evgeny Epifanovsky,
  Bang C. Huynh
 -----------------------------------------------------------------------
 Exchange:     0.1500 Hartree-Fock + 1.0000 wB97M-V + LR-HF
 Correlation:  1.0000 wB97M-V
 Using SG-2 standard quadrature grid
 Nonlocal Correlation:  VV10 with C = 0.0100 and b = 6.00 and scale = 1.00000
 Grid used for NLC:  SG-1 standard quadrature
 
 Citation of the SMD model:
 Marenich, A.V.; Cramer, C.J.; Truhlar, D.G.
 J. Phys. Chem. B 2009, 113, 6378-6396.
 iSolventCode=           1
 Solvent: water                                                           
 
 vradii
            1           2           3           4           5           6
    1   1.8500000   1.8500000   1.5200000   1.5200000   1.5200000   1.2000000
            7           8           9          10          11
    1   1.2000000   1.2000000   1.2000000   1.5200000   1.5200000
 -------------------------------------------------------
 OpenMP BLAS3 based DFT computing Module                
 Release: version 1.0, May 2013, Q-Chem Inc. Pittsburgh 
 -------------------------------------------------------
 A unrestricted SCF calculation will be
 performed using Roothaan-Hall, DIIS, GDM
 SCF converges when RMS gradient is below 1.0e-07
 ---------------------------------------
  Cycle       Energy         DIIS error
 ---------------------------------------
    1    -454.6737700964      2.83e-04  Roothaan Step
 ---------------------------------------
  Cycle       Energy         DIIS error
 ---------------------------------------
    1    -454.7824305684      3.56e-04  
    2    -454.7854272774      4.06e-04  Done DIIS. Switching to GDM
 ---------------------------------------
  Cycle       Energy        RMS Gradient
 ---------------------------------------
    1    -454.7854272774      2.04e-02   Normal BFGS step
    2    -454.7824724947      3.77e-02  Line search: overstep
    3    -454.7894456029      5.39e-03   Normal BFGS step
    4    -454.7895979142      1.86e-03   Normal BFGS step
    5    -454.7896643553      1.95e-03   Normal BFGS step
    6    -454.7896704674      4.98e-04   Normal BFGS step
    7    -454.7896745446      5.18e-04   Normal BFGS step
    8    -454.7896754386      3.38e-04   Normal BFGS step
    9    -454.7896757788      8.89e-05   Normal BFGS step
   10    -454.7896758222      3.44e-05   Normal BFGS step
   11    -454.7896758387      2.55e-05   Normal BFGS step
   12    -454.7896758408      2.03e-05   Normal BFGS step
   13    -454.7896758417      1.82e-05   Normal BFGS step
   14    -454.7896758426      1.65e-05   Normal BFGS step
   15    -454.7896758444      1.38e-05   Normal BFGS step
   16    -454.7896758486      1.97e-05   Normal BFGS step
   17    -454.7896758570      2.46e-05   Normal BFGS step
   18    -454.7896758677      2.24e-05   Normal BFGS step
   19    -454.7896758755      1.20e-05   Normal BFGS step
   20    -454.7896758778      5.59e-06   Normal BFGS step
   21    -454.7896758781      1.80e-06   Normal BFGS step
   22    -454.7896758781      5.86e-07   Normal BFGS step
   23    -454.7896758782      2.72e-07   Normal BFGS step
   24    -454.7896758782      1.62e-07   Normal BFGS step
  GDM::WARNING energy changes are now smaller than effective accuracy.
  GDM::        calculation will continue, but THRESH should be increased
  GDM::        or SCF_CONVERGENCE decreased. 
  GDM::        effective_thresh = 3.26e-09
   25    -454.7896758782      1.15e-07   Normal BFGS step
   26    -454.7896758782      1.05e-07   Normal BFGS step
  GDM::WARNING energy changes are now smaller than effective accuracy.
  GDM::        calculation will continue, but THRESH should be increased
  GDM::        or SCF_CONVERGENCE decreased. 
  GDM::        effective_thresh = 3.26e-09
   27    -454.7896758781      9.29e-09  Convergence criterion met
 ---------------------------------------
 SCF time:   CPU 1483.00s  wall 152.00s 
<S^2> =          0.754984384
(3)  G-ENP(liq) elect-nuc-pol free energy of system     -454.789675878 a.u.
(4)  G-CDS(liq) cavity-dispersion-solvent structure 
     free energy                                                2.7665 kcal/mol
(6)  G-S(liq) free energy of system                     -454.785267194 a.u.
 SCF   energy in the final basis set =     -454.7852671940
 Total energy in the final basis set =     -454.7852671940
 
 --------------------------------------------------------------
 
                    Orbital Energies (a.u.)
 --------------------------------------------------------------
 
 Alpha MOs
 -- Occupied --
-19.3498 -19.3483 -19.3459 -19.3410 -19.3404 -10.4459 -10.4375  -1.2312
 -1.2072  -1.1808  -1.1342  -0.8764  -0.8321  -0.7269  -0.6437  -0.6251
 -0.5957  -0.5766  -0.5407  -0.5336  -0.5166  -0.4952  -0.4902  -0.4689
 -0.4404  -0.4108  -0.3653  -0.3333  -0.3022
 -- Virtual --
  0.0360   0.0462   0.0520   0.0589   0.0679   0.0953   0.1096   0.1131
  0.1141   0.1381   0.1664   0.1678   0.1766   0.1887   0.2054   0.2304
  0.2380   0.2413   0.2554   0.2629   0.2779   0.2859   0.2963   0.3043
  0.3201   0.3223   0.3234   0.3307   0.3432   0.3491   0.3517   0.3578
  0.3749   0.3857   0.3971   0.4114   0.4134   0.4186   0.4418   0.4689
  0.4940   0.5144   0.5728   0.5986   0.6196   0.6360   0.6436   0.6690
  0.6742   0.6868   0.7053   0.7473   0.8004   0.8076   0.8310   0.8384
  0.8905   0.9362   0.9779   0.9990   1.0435   1.0689   1.0842   1.0993
  1.1107   1.1282   1.1389   1.1403   1.1552   1.1724   1.1874   1.1977
  1.2106   1.2214   1.2331   1.2379   1.2481   1.2774   1.2981   1.3480
  1.3586   1.3735   1.3892   1.4217   1.4475   1.4614   1.4775   1.4966
  1.5068   1.5116   1.5723   1.5834   1.5988   1.6172   1.6502   1.6897
  1.7140   1.7333   1.7963   1.8362   1.8449   1.8851   1.9186   1.9416
  1.9757   2.0215   2.0382   2.1882   2.2043   2.2265   2.2462   2.2654
  2.2918   2.3330   2.3718   2.4174   2.4402   2.4655   2.5487   2.5856
  2.6295   2.6926   2.7282   2.8370   2.8935   2.9315   2.9793   3.0158
  3.0691   3.1099   3.1459   3.2221   3.2545   3.2716   3.3043   3.3752
  3.4151   3.4462   3.4972   3.5202   3.5802   3.6094   3.6305   3.6462
  3.6977   3.7817   3.8072   3.8500   3.8673   3.9231   3.9355   3.9689
  4.0055   4.1354   4.1644   4.1877   4.2628   4.2708   4.2818   4.3216
  4.3886   4.4391   4.5138   4.6279   4.6685   4.6869   4.7416   4.7956
  4.8259   4.8490   5.0861   5.0923   5.1232   5.1413   5.1752   5.1762
  5.2054   5.2123   5.2229   5.2311   5.2364   5.2468   5.2602   5.2693
  5.2744   5.2995   5.3096   5.3314   5.3725   5.3932   5.4099   5.4171
  5.4817   5.5091   5.5442   5.5625   5.5901   5.6281   5.6358   5.6546
  5.6576   5.7302   5.7929   5.8463   5.9857   6.0976   6.1779   6.3911
  6.4744   6.5057   6.5485   6.7018   6.7715   6.8068   6.8628   6.9380
  6.9575   6.9883   7.0155   7.0371   7.0652   7.0882   7.1184   7.1629
  7.1771   7.2556   7.2837   7.3232   7.3624   7.3891   7.4144   7.4627
  7.5025   7.5166   7.5567   7.6261   7.7204   7.7590   7.8085   7.8586
  7.9787   8.0042  24.7697  24.9807  50.4382  50.5153  50.5804  50.6346
 50.7219
 
 Beta MOs
 -- Occupied --
-19.3458 -19.3411 -19.3403 -19.3364 -19.3332 -10.4459 -10.4375  -1.2104
 -1.1989  -1.1808  -1.1341  -0.8349  -0.8320  -0.7263  -0.6431  -0.6248
 -0.5949  -0.5759  -0.5171  -0.5133  -0.4971  -0.4837  -0.4665  -0.4461
 -0.4391  -0.4107  -0.3652  -0.2828
 -- Virtual --
  0.0217   0.0367   0.0469   0.0526   0.0596   0.0694   0.0960   0.1106
  0.1139   0.1144   0.1388   0.1671   0.1689   0.1778   0.1903   0.2077
  0.2326   0.2435   0.2447   0.2569   0.2634   0.2785   0.2881   0.3011
  0.3079   0.3231   0.3246   0.3248   0.3340   0.3438   0.3497   0.3537
  0.3590   0.3756   0.3904   0.3996   0.4124   0.4169   0.4198   0.4421
  0.4694   0.4962   0.5149   0.5740   0.5991   0.6202   0.6360   0.6439
  0.6691   0.6744   0.6869   0.7060   0.7483   0.8006   0.8089   0.8313
  0.8387   0.8915   0.9377   0.9785   1.0000   1.0446   1.0696   1.0882
  1.1020   1.1174   1.1326   1.1415   1.1564   1.1622   1.1769   1.1903
  1.2025   1.2118   1.2261   1.2345   1.2395   1.2673   1.2842   1.3005
  1.3488   1.3655   1.3774   1.3926   1.4280   1.4491   1.4636   1.4821
  1.5031   1.5129   1.5138   1.5761   1.5906   1.6119   1.6323   1.6629
  1.6962   1.7167   1.7410   1.8119   1.8436   1.8475   1.8950   1.9197
  1.9461   1.9808   2.0252   2.0432   2.1894   2.2054   2.2343   2.2527
  2.2722   2.2948   2.3487   2.3774   2.4181   2.4431   2.4688   2.5493
  2.5857   2.6297   2.6931   2.7378   2.8375   2.8941   2.9323   2.9795
  3.0159   3.0692   3.1100   3.1458   3.2221   3.2546   3.2717   3.3045
  3.3753   3.4152   3.4463   3.4973   3.5202   3.5802   3.6095   3.6305
  3.6463   3.6977   3.7818   3.8072   3.8501   3.8675   3.9231   3.9357
  3.9690   4.0055   4.1355   4.1644   4.1883   4.2629   4.2708   4.2820
  4.3228   4.3897   4.4393   4.5140   4.6557   4.6797   4.6920   4.7456
  4.8219   4.8418   4.8697   5.1257   5.1293   5.1482   5.1754   5.1949
  5.1975   5.2087   5.2157   5.2410   5.2566   5.2621   5.2707   5.2748
  5.2865   5.2979   5.3059   5.3315   5.3476   5.3735   5.3957   5.4130
  5.4301   5.4822   5.5096   5.5451   5.5632   5.5922   5.6286   5.6569
  5.6631   5.6825   5.7310   5.7931   5.8467   5.9859   6.0979   6.1779
  6.3916   6.5151   6.5213   6.5500   6.7024   6.7719   6.8717   6.9312
  6.9557   6.9966   7.0087   7.0596   7.0696   7.0845   7.1069   7.1258
  7.1701   7.2013   7.2613   7.2865   7.3266   7.3649   7.3943   7.4222
  7.4930   7.5111   7.5229   7.5662   7.6281   7.7215   7.7594   7.8089
  7.8589   8.0008   8.0181  24.7696  24.9807  50.4492  50.5253  50.5804
 50.6351  50.7219
 --------------------------------------------------------------
 
          Ground-State Mulliken Net Atomic Charges

     Atom                 Charge (a.u.)    Spin (a.u.)
  --------------------------------------------------------
      1 C                     0.080609      -0.004376
      2 C                    -0.090457       0.002101
      3 O                    -0.430273      -0.000423
      4 O                    -0.413739       0.000993
      5 O                    -0.402417      -0.002248
      6 H                     0.340274       0.003945
      7 H                     0.318744       0.004070
      8 H                     0.238760      -0.000567
      9 H                     0.209900       0.000605
     10 O                    -0.401590       0.460072
     11 O                    -0.449811       0.535828
  --------------------------------------------------------
  Sum of atomic charges =    -1.000000
  Sum of spin   charges =     1.000000

 -----------------------------------------------------------------
                    Cartesian Multipole Moments
 -----------------------------------------------------------------
    Charge (ESU x 10^10)
                -4.8032
    Dipole Moment (Debye)
         X      -6.8640      Y      -3.1860      Z       0.6713
       Tot       7.5971
    Quadrupole Moments (Debye-Ang)
        XX     -64.0006     XY     -11.3502     YY     -47.2615
        XZ      -3.4876     YZ       3.1793     ZZ     -55.6602
    Octopole Moments (Debye-Ang^2)
       XXX    -198.7346    XXY     -18.3570    XYY     -50.8523
       YYY      26.8064    XXZ      53.9180    XYZ      10.8520
       YYZ      50.0623    XZZ     -65.3235    YZZ     -19.5158
       ZZZ     153.8040
    Hexadecapole Moments (Debye-Ang^3)
      XXXX    -792.1244   XXXY     -88.2290   XXYY    -151.5884
      XYYY     -36.6477   YYYY    -240.4720   XXXZ     141.4888
      XXYZ       9.4502   XYYZ      37.3726   YYYZ     -61.5681
      XXZZ    -304.3964   XYZZ     -47.3394   YYZZ    -167.7614
      XZZZ     125.5040   YZZZ      15.4575   ZZZZ    -805.2956
 -----------------------------------------------------------------
 Calculating analytic gradient of the SCF energy
 Gradient of CDS energy
            1           2           3           4           5           6
    1   0.0016341  -0.0034549   0.0018804   0.0011798  -0.0006426  -0.0003016
    2   0.0013181   0.0000958  -0.0026248   0.0022170  -0.0010665   0.0003617
    3  -0.0009824   0.0015146   0.0003886  -0.0023036   0.0005111   0.0001056
            7           8           9          10          11
    1  -0.0001589  -0.0001641  -0.0000660   0.0001618  -0.0000681
    2  -0.0001996  -0.0000657  -0.0000640   0.0000344  -0.0000065
    3   0.0003827   0.0003211  -0.0001007   0.0000520   0.0001112
 Gradient of SCF Energy
            1           2           3           4           5           6
    1   0.0324491   0.0049460  -0.0012365  -0.0026938  -0.0103125  -0.0059109
    2   0.0092396  -0.0133529   0.0228088  -0.0021355  -0.0228384  -0.0186981
    3   0.0066204  -0.0252540   0.0147729   0.0282723   0.0121152  -0.0214289
            7           8           9          10          11
    1  -0.0038288  -0.0184399   0.0037879  -0.0195424   0.0207819
    2  -0.0078470   0.0147517   0.0129577  -0.0032386   0.0083527
    3  -0.0266443  -0.0207792   0.0257762  -0.0045161   0.0110653
 Max gradient component =       3.245E-02
 RMS gradient           =       1.638E-02
 Computing fast CPCM-SWIG gradient
 Updating gradient with PCM contributions...
 -- total gradient after adding PCM contribution --
---------------------------------------------------
  Atom         X              Y              Z     
---------------------------------------------------
   1      -0.001086      -0.000280      -0.000057
   2       0.000354       0.000004       0.000021
   3       0.000077      -0.000013      -0.000012
   4       0.000004       0.000038       0.000019
   5       0.000404       0.000409      -0.000151
   6       0.000000       0.000000      -0.000020
   7      -0.000012       0.000008       0.000012
   8       0.000268      -0.000177       0.000160
   9       0.000002      -0.000018       0.000015
  10       0.000000       0.000001      -0.000009
  11      -0.000012       0.000029       0.000021
---------------------------------------------------
 Number of fixed atoms: 0
 Gradient time:  CPU 129.11 s  wall 15.14 s
 ----------------------------------------------------------------
             Standard Nuclear Orientation (Angstroms)
    I     Atom           X                Y                Z
 ----------------------------------------------------------------
    1      C       1.9835847000    -0.3709881000    -1.7822707000
    2      C       0.5400026000    -0.7497494000    -2.0868995000
    3      O      -0.2678764000     0.3907778000    -2.2312629000
    4      O       0.0615611000    -1.6510673000    -1.1214145000
    5      O       2.4997389000     0.6401062000    -2.1999640000
    6      H      -0.1035043000     0.9666016000    -1.4716513000
    7      H       0.3220977000    -1.2756204000    -0.2624921000
    8      H       2.5568833000    -1.1264341000    -1.2247970000
    9      H       0.5202242000    -1.2717165000    -3.0445695000
   10      O       1.0558445000     0.3530660000     0.4790502000
   11      O       2.2178971000     0.5505065000     1.0717588000
 ----------------------------------------------------------------
 Nuclear Repulsion Energy =         312.09469639 hartrees
 There are       29 alpha and       28 beta electrons
 Discretize the solute cavity surface with Lebedev spheres
	Using 110 Lebedev grid points for each H atom
	Using 194 Lebedev grid points for other atoms
	Atomic van der Waals radii will be scaled by 1.20
 Remove points where switching function is < 1.0e-08
 Keep 1013 surface tesserae and discard 785 interior tesserae
 Molecular Surface Area = 118.394 Angst**2

                       Distance Matrix (Angstroms)
             C (  1)   C (  2)   O (  3)   O (  4)   O (  5)   H (  6)
   C (  2)  1.523216
   O (  3)  2.418875  1.405102
   O (  4)  2.401980  1.404792  2.347216
   O (  5)  1.209626  2.405213  2.779000  3.515317
   H (  6)  2.498314  1.933518  0.967265  2.646149  2.722850
   H (  7)  2.426649  1.911148  2.645942  0.972927  3.487969  2.582782
   H (  8)  1.100067  2.225516  3.360680  2.551972  2.018633  3.394024
   H (  9)  2.132166  1.090859  2.011581  2.013158  2.878698  2.805918
   O ( 10)  2.549221  2.840140  3.016531  2.750752  3.056851  2.350692
   O ( 11)  3.008245  3.805669  4.136972  3.782423  3.285062  3.468570
             H (  7)   H (  8)   H (  9)   O ( 10)
   H (  8)  2.437735
   H (  9)  2.789126  2.735079
   O ( 10)  1.934138  2.710191  3.916976
   O ( 11)  2.951105  2.863775  4.811107  1.319338
 
 Requested basis set is 6-311++G(2df,2p)
 There are 80 shells and 278 basis functions
 A cutoff of  1.0D-12 yielded   3020 shell pairs
 There are     36519 function pairs (     46170 Cartesian)
 Smallest overlap matrix eigenvalue = 6.11E-05
 Guess MOs from SCF MO coefficient file

 -----------------------------------------------------------------------
  General SCF calculation program by
  Eric Jon Sundstrom, Paul Horn, Yuezhi Mao, Dmitri Zuev, Alec White,
  David Stuck, Shaama M.S., Shane Yost, Joonho Lee, David Small,
  Daniel Levine, Susi Lehtola, Hugh Burton, Evgeny Epifanovsky,
  Bang C. Huynh
 -----------------------------------------------------------------------
 Exchange:     0.1500 Hartree-Fock + 1.0000 wB97M-V + LR-HF
 Correlation:  1.0000 wB97M-V
 Using SG-2 standard quadrature grid
 Nonlocal Correlation:  VV10 with C = 0.0100 and b = 6.00 and scale = 1.00000
 Grid used for NLC:  SG-1 standard quadrature
 
 Citation of the SMD model:
 Marenich, A.V.; Cramer, C.J.; Truhlar, D.G.
 J. Phys. Chem. B 2009, 113, 6378-6396.
 iSolventCode=           1
 Solvent: water                                                           
 
 vradii
            1           2           3           4           5           6
    1   1.8500000   1.8500000   1.5200000   1.5200000   1.5200000   1.2000000
            7           8           9          10          11
    1   1.2000000   1.2000000   1.2000000   1.5200000   1.5200000
 -------------------------------------------------------
 OpenMP BLAS3 based DFT computing Module                
 Release: version 1.0, May 2013, Q-Chem Inc. Pittsburgh 
 -------------------------------------------------------
 A unrestricted SCF calculation will be
 performed using Roothaan-Hall, DIIS, GDM
 SCF converges when RMS gradient is below 1.0e-07
 ---------------------------------------
  Cycle       Energy         DIIS error
 ---------------------------------------
    1    -454.6737957991      2.83e-04  Roothaan Step
 ---------------------------------------
  Cycle       Energy         DIIS error
 ---------------------------------------
    1    -454.7824851544      3.54e-04  
    2    -454.7855082734      4.02e-04  Done DIIS. Switching to GDM
 ---------------------------------------
  Cycle       Energy        RMS Gradient
 ---------------------------------------
    1    -454.7855082734      2.05e-02   Normal BFGS step
    2    -454.7826196919      3.79e-02  Line search: overstep
    3    -454.7894510626      5.42e-03   Normal BFGS step
    4    -454.7896031831      1.85e-03   Normal BFGS step
    5    -454.7896695883      1.94e-03   Normal BFGS step
    6    -454.7896756929      4.95e-04   Normal BFGS step
    7    -454.7896797595      5.21e-04   Normal BFGS step
    8    -454.7896806604      3.37e-04   Normal BFGS step
    9    -454.7896809968      8.84e-05   Normal BFGS step
   10    -454.7896810397      3.65e-05   Normal BFGS step
   11    -454.7896810558      1.83e-05   Normal BFGS step
   12    -454.7896810574      5.12e-06   Normal BFGS step
   13    -454.7896810578      3.85e-06   Normal BFGS step
   14    -454.7896810579      3.59e-06   Normal BFGS step
   15    -454.7896810579      3.45e-06   Normal BFGS step
   16    -454.7896810580      3.24e-06   Normal BFGS step
   17    -454.7896810580      2.88e-06   Normal BFGS step
   18    -454.7896810582      2.73e-06   Normal BFGS step
   19    -454.7896810585      4.42e-06   Normal BFGS step
   20    -454.7896810588      4.85e-06   Normal BFGS step
   21    -454.7896810591      3.14e-06   Normal BFGS step
   22    -454.7896810592      8.85e-07   Normal BFGS step
   23    -454.7896810592      3.35e-07   Normal BFGS step
   24    -454.7896810592      1.88e-07   Normal BFGS step
   25    -454.7896810592      1.08e-07   Normal BFGS step
   26    -454.7896810592      1.27e-07   Normal BFGS step
   27    -454.7896810592      6.32e-08  Convergence criterion met
 ---------------------------------------
 SCF time:   CPU 1473.19s  wall 151.00s 
<S^2> =          0.754982038
(3)  G-ENP(liq) elect-nuc-pol free energy of system     -454.789681059 a.u.
(4)  G-CDS(liq) cavity-dispersion-solvent structure 
     free energy                                                2.7700 kcal/mol
(6)  G-S(liq) free energy of system                     -454.785266815 a.u.
 SCF   energy in the final basis set =     -454.7852668149
 Total energy in the final basis set =     -454.7852668149
 
 --------------------------------------------------------------
 
                    Orbital Energies (a.u.)
 --------------------------------------------------------------
 
 Alpha MOs
 -- Occupied --
-19.3498 -19.3483 -19.3459 -19.3411 -19.3403 -10.4458 -10.4374  -1.2312
 -1.2073  -1.1813  -1.1342  -0.8764  -0.8318  -0.7268  -0.6437  -0.6251
 -0.5956  -0.5768  -0.5407  -0.5336  -0.5167  -0.4952  -0.4902  -0.4691
 -0.4404  -0.4107  -0.3651  -0.3333  -0.3021
 -- Virtual --
  0.0360   0.0463   0.0520   0.0590   0.0680   0.0953   0.1096   0.1131
  0.1141   0.1381   0.1665   0.1679   0.1766   0.1887   0.2054   0.2304
  0.2380   0.2413   0.2554   0.2630   0.2778   0.2858   0.2964   0.3043
  0.3202   0.3223   0.3234   0.3307   0.3431   0.3491   0.3517   0.3578
  0.3748   0.3856   0.3972   0.4114   0.4134   0.4184   0.4418   0.4689
  0.4941   0.5145   0.5729   0.5986   0.6196   0.6360   0.6436   0.6692
  0.6741   0.6868   0.7053   0.7473   0.8006   0.8079   0.8313   0.8384
  0.8906   0.9361   0.9779   0.9991   1.0435   1.0689   1.0841   1.0992
  1.1107   1.1281   1.1389   1.1404   1.1551   1.1723   1.1873   1.1977
  1.2106   1.2214   1.2331   1.2378   1.2481   1.2774   1.2981   1.3478
  1.3587   1.3734   1.3892   1.4216   1.4474   1.4613   1.4775   1.4966
  1.5068   1.5117   1.5724   1.5835   1.5989   1.6173   1.6503   1.6899
  1.7140   1.7337   1.7964   1.8363   1.8450   1.8851   1.9185   1.9415
  1.9758   2.0215   2.0383   2.1886   2.2044   2.2265   2.2462   2.2655
  2.2917   2.3331   2.3718   2.4174   2.4402   2.4656   2.5489   2.5863
  2.6296   2.6929   2.7282   2.8369   2.8938   2.9314   2.9790   3.0158
  3.0684   3.1100   3.1454   3.2217   3.2547   3.2716   3.3040   3.3752
  3.4153   3.4465   3.4972   3.5202   3.5799   3.6096   3.6306   3.6461
  3.6982   3.7813   3.8073   3.8498   3.8674   3.9231   3.9356   3.9683
  4.0051   4.1352   4.1638   4.1876   4.2627   4.2704   4.2821   4.3216
  4.3885   4.4391   4.5129   4.6279   4.6685   4.6865   4.7409   4.7956
  4.8259   4.8490   5.0861   5.0923   5.1232   5.1411   5.1752   5.1762
  5.2054   5.2123   5.2229   5.2311   5.2364   5.2468   5.2602   5.2694
  5.2744   5.2995   5.3096   5.3315   5.3728   5.3932   5.4100   5.4172
  5.4819   5.5087   5.5449   5.5634   5.5901   5.6281   5.6357   5.6546
  5.6576   5.7304   5.7932   5.8482   5.9859   6.0980   6.1781   6.3949
  6.4745   6.5058   6.5486   6.7026   6.7744   6.8069   6.8630   6.9381
  6.9576   6.9884   7.0156   7.0373   7.0654   7.0882   7.1188   7.1636
  7.1773   7.2564   7.2837   7.3233   7.3625   7.3892   7.4145   7.4627
  7.5025   7.5167   7.5567   7.6261   7.7204   7.7594   7.8085   7.8586
  7.9787   8.0043  24.7696  24.9812  50.4382  50.5154  50.5803  50.6346
 50.7236
 
 Beta MOs
 -- Occupied --
-19.3458 -19.3411 -19.3403 -19.3363 -19.3331 -10.4458 -10.4374  -1.2105
 -1.1989  -1.1813  -1.1340  -0.8349  -0.8317  -0.7262  -0.6430  -0.6247
 -0.5948  -0.5762  -0.5172  -0.5134  -0.4972  -0.4837  -0.4667  -0.4461
 -0.4391  -0.4107  -0.3650  -0.2827
 -- Virtual --
  0.0217   0.0367   0.0470   0.0526   0.0597   0.0695   0.0960   0.1106
  0.1139   0.1144   0.1388   0.1671   0.1689   0.1778   0.1903   0.2077
  0.2326   0.2435   0.2448   0.2569   0.2634   0.2785   0.2881   0.3012
  0.3079   0.3231   0.3246   0.3248   0.3340   0.3438   0.3497   0.3537
  0.3590   0.3756   0.3904   0.3996   0.4124   0.4169   0.4196   0.4421
  0.4694   0.4963   0.5151   0.5741   0.5991   0.6202   0.6360   0.6440
  0.6693   0.6744   0.6869   0.7060   0.7484   0.8009   0.8091   0.8316
  0.8387   0.8915   0.9375   0.9785   1.0001   1.0445   1.0696   1.0881
  1.1018   1.1174   1.1325   1.1416   1.1563   1.1621   1.1767   1.1902
  1.2025   1.2118   1.2260   1.2345   1.2394   1.2673   1.2842   1.3004
  1.3486   1.3655   1.3774   1.3927   1.4279   1.4490   1.4635   1.4821
  1.5031   1.5130   1.5138   1.5762   1.5907   1.6120   1.6323   1.6630
  1.6963   1.7166   1.7414   1.8120   1.8437   1.8476   1.8950   1.9196
  1.9460   1.9810   2.0252   2.0433   2.1898   2.2056   2.2344   2.2527
  2.2722   2.2948   2.3487   2.3774   2.4181   2.4431   2.4690   2.5495
  2.5864   2.6297   2.6934   2.7378   2.8375   2.8944   2.9322   2.9792
  3.0159   3.0685   3.1101   3.1454   3.2218   3.2548   3.2717   3.3042
  3.3753   3.4154   3.4466   3.4973   3.5202   3.5800   3.6097   3.6307
  3.6462   3.6982   3.7814   3.8073   3.8499   3.8676   3.9231   3.9357
  3.9683   4.0051   4.1353   4.1638   4.1883   4.2628   4.2704   4.2823
  4.3228   4.3895   4.4393   4.5131   4.6558   4.6797   4.6915   4.7450
  4.8219   4.8418   4.8698   5.1256   5.1293   5.1481   5.1754   5.1949
  5.1975   5.2086   5.2157   5.2410   5.2567   5.2620   5.2707   5.2748
  5.2866   5.2979   5.3059   5.3316   5.3477   5.3738   5.3957   5.4131
  5.4301   5.4824   5.5092   5.5459   5.5640   5.5922   5.6286   5.6569
  5.6632   5.6825   5.7312   5.7935   5.8485   5.9861   6.0982   6.1781
  6.3955   6.5151   6.5213   6.5501   6.7032   6.7748   6.8718   6.9313
  6.9558   6.9967   7.0088   7.0596   7.0696   7.0851   7.1070   7.1259
  7.1708   7.2013   7.2621   7.2865   7.3267   7.3650   7.3944   7.4222
  7.4930   7.5110   7.5230   7.5662   7.6281   7.7214   7.7599   7.8089
  7.8589   8.0008   8.0181  24.7696  24.9812  50.4493  50.5253  50.5804
 50.6351  50.7236
 --------------------------------------------------------------
 
          Ground-State Mulliken Net Atomic Charges

     Atom                 Charge (a.u.)    Spin (a.u.)
  --------------------------------------------------------
      1 C                     0.080251      -0.004359
      2 C                    -0.090286       0.002097
      3 O                    -0.430358      -0.000422
      4 O                    -0.413890       0.000988
      5 O                    -0.401276      -0.002230
      6 H                     0.340261       0.003945
      7 H                     0.318752       0.004066
      8 H                     0.238348      -0.000568
      9 H                     0.209784       0.000607
     10 O                    -0.401706       0.460094
     11 O                    -0.449880       0.535783
  --------------------------------------------------------
  Sum of atomic charges =    -1.000000
  Sum of spin   charges =     1.000000

 -----------------------------------------------------------------
                    Cartesian Multipole Moments
 -----------------------------------------------------------------
    Charge (ESU x 10^10)
                -4.8032
    Dipole Moment (Debye)
         X      -6.8568      Y      -3.1785      Z       0.6676
       Tot       7.5871
    Quadrupole Moments (Debye-Ang)
        XX     -63.9783     XY     -11.3347     YY     -47.2660
        XZ      -3.5118     YZ       3.1641     ZZ     -55.6521
    Octopole Moments (Debye-Ang^2)
       XXX    -198.6723    XXY     -18.3235    XYY     -50.8590
       YYY      26.8091    XXZ      53.8467    XYZ      10.8247
       YYZ      50.0648    XZZ     -65.2678    YZZ     -19.4859
       ZZZ     153.7765
    Hexadecapole Moments (Debye-Ang^3)
      XXXX    -791.9911   XXXY     -88.1443   XXYY    -151.6125
      XYYY     -36.6406   YYYY    -240.4725   XXXZ     141.2817
      XXYZ       9.3985   XYYZ      37.3699   YYYZ     -61.5795
      XXZZ    -304.2385   XYZZ     -47.2918   YYZZ    -167.7706
      XZZZ     125.3439   YZZZ      15.3839   ZZZZ    -805.2095
 -----------------------------------------------------------------
 Calculating analytic gradient of the SCF energy
 Gradient of CDS energy
            1           2           3           4           5           6
    1   0.0016276  -0.0034557   0.0018803   0.0011799  -0.0006344  -0.0003017
    2   0.0013048   0.0000949  -0.0026248   0.0022171  -0.0010520   0.0003617
    3  -0.0009768   0.0015141   0.0003888  -0.0023036   0.0005053   0.0001056
            7           8           9          10          11
    1  -0.0001589  -0.0001645  -0.0000661   0.0001617  -0.0000683
    2  -0.0001996  -0.0000659  -0.0000640   0.0000343  -0.0000066
    3   0.0003827   0.0003211  -0.0001007   0.0000520   0.0001115
 Gradient of SCF Energy
            1           2           3           4           5           6
    1   0.0336670   0.0045709  -0.0012380  -0.0027429  -0.0110740  -0.0059000
    2   0.0108976  -0.0135126   0.0228115  -0.0021568  -0.0242398  -0.0186885
    3   0.0061563  -0.0253297   0.0147622   0.0283042   0.0126286  -0.0214275
            7           8           9          10          11
    1  -0.0038390  -0.0184630   0.0037806  -0.0195384   0.0207768
    2  -0.0078578   0.0146836   0.0129647  -0.0032474   0.0083456
    3  -0.0266565  -0.0207577   0.0257739  -0.0045208   0.0110670
 Max gradient component =       3.367E-02
 RMS gradient           =       1.657E-02
 Computing fast CPCM-SWIG gradient
 Updating gradient with PCM contributions...
 -- total gradient after adding PCM contribution --
---------------------------------------------------
  Atom         X              Y              Z     
---------------------------------------------------
   1       0.000264       0.001506      -0.000508
   2      -0.000010      -0.000144      -0.000026
   3       0.000102      -0.000029      -0.000017
   4      -0.000068      -0.000000       0.000035
   5      -0.000407      -0.001039       0.000379
   6       0.000003       0.000003      -0.000017
   7      -0.000018       0.000002       0.000011
   8       0.000159      -0.000289       0.000148
   9      -0.000015      -0.000028       0.000001
  10       0.000020      -0.000009      -0.000015
  11      -0.000029       0.000025       0.000008
---------------------------------------------------
 Number of fixed atoms: 0
 Gradient time:  CPU 133.21 s  wall 15.53 s
 ----------------------------------------------------------------
             Standard Nuclear Orientation (Angstroms)
    I     Atom           X                Y                Z
 ----------------------------------------------------------------
    1      C       1.9835847000    -0.3729881000    -1.7822707000
    2      C       0.5400026000    -0.7497494000    -2.0868995000
    3      O      -0.2678764000     0.3907778000    -2.2312629000
    4      O       0.0615611000    -1.6510673000    -1.1214145000
    5      O       2.4997389000     0.6401062000    -2.1999640000
    6      H      -0.1035043000     0.9666016000    -1.4716513000
    7      H       0.3220977000    -1.2756204000    -0.2624921000
    8      H       2.5568833000    -1.1264341000    -1.2247970000
    9      H       0.5202242000    -1.2717165000    -3.0445695000
   10      O       1.0558445000     0.3530660000     0.4790502000
   11      O       2.2178971000     0.5505065000     1.0717588000
 ----------------------------------------------------------------
 Nuclear Repulsion Energy =         312.07184519 hartrees
 There are       29 alpha and       28 beta electrons
 Discretize the solute cavity surface with Lebedev spheres
	Using 110 Lebedev grid points for each H atom
	Using 194 Lebedev grid points for other atoms
	Atomic van der Waals radii will be scaled by 1.20
 Remove points where switching function is < 1.0e-08
 Keep 1013 surface tesserae and discard 785 interior tesserae
 Molecular Surface Area = 118.404 Angst**2

                       Distance Matrix (Angstroms)
             C (  1)   C (  2)   O (  3)   O (  4)   O (  5)   H (  6)
   C (  2)  1.522720
   O (  3)  2.419506  1.405102
   O (  4)  2.400915  1.404792  2.347216
   O (  5)  1.211298  2.405213  2.779000  3.515317
   H (  6)  2.499385  1.933518  0.967265  2.646149  2.722850
   H (  7)  2.425904  1.911148  2.645942  0.972927  3.487969  2.582782
   H (  8)  1.098694  2.225516  3.360680  2.551972  2.018633  3.394024
   H (  9)  2.131322  1.090859  2.011581  2.013158  2.878698  2.805918
   O ( 10)  2.549790  2.840140  3.016531  2.750752  3.056851  2.350692
   O ( 11)  3.008858  3.805669  4.136972  3.782423  3.285062  3.468570
             H (  7)   H (  8)   H (  9)   O ( 10)
   H (  8)  2.437735
   H (  9)  2.789126  2.735079
   O ( 10)  1.934138  2.710191  3.916976
   O ( 11)  2.951105  2.863775  4.811107  1.319338
 
 Requested basis set is 6-311++G(2df,2p)
 There are 80 shells and 278 basis functions
 A cutoff of  1.0D-12 yielded   3020 shell pairs
 There are     36519 function pairs (     46170 Cartesian)
 Smallest overlap matrix eigenvalue = 6.10E-05
 Guess MOs from SCF MO coefficient file

 -----------------------------------------------------------------------
  General SCF calculation program by
  Eric Jon Sundstrom, Paul Horn, Yuezhi Mao, Dmitri Zuev, Alec White,
  David Stuck, Shaama M.S., Shane Yost, Joonho Lee, David Small,
  Daniel Levine, Susi Lehtola, Hugh Burton, Evgeny Epifanovsky,
  Bang C. Huynh
 -----------------------------------------------------------------------
 Exchange:     0.1500 Hartree-Fock + 1.0000 wB97M-V + LR-HF
 Correlation:  1.0000 wB97M-V
 Using SG-2 standard quadrature grid
 Nonlocal Correlation:  VV10 with C = 0.0100 and b = 6.00 and scale = 1.00000
 Grid used for NLC:  SG-1 standard quadrature
 
 Citation of the SMD model:
 Marenich, A.V.; Cramer, C.J.; Truhlar, D.G.
 J. Phys. Chem. B 2009, 113, 6378-6396.
 iSolventCode=           1
 Solvent: water                                                           
 
 vradii
            1           2           3           4           5           6
    1   1.8500000   1.8500000   1.5200000   1.5200000   1.5200000   1.2000000
            7           8           9          10          11
    1   1.2000000   1.2000000   1.2000000   1.5200000   1.5200000
 -------------------------------------------------------
 OpenMP BLAS3 based DFT computing Module                
 Release: version 1.0, May 2013, Q-Chem Inc. Pittsburgh 
 -------------------------------------------------------
 A unrestricted SCF calculation will be
 performed using Roothaan-Hall, DIIS, GDM
 SCF converges when RMS gradient is below 1.0e-07
 ---------------------------------------
  Cycle       Energy         DIIS error
 ---------------------------------------
    1    -454.6737828143      2.83e-04  Roothaan Step
 ---------------------------------------
  Cycle       Energy         DIIS error
 ---------------------------------------
    1    -454.7824017599      3.56e-04  
    2    -454.7853905436      4.08e-04  Done DIIS. Switching to GDM
 ---------------------------------------
  Cycle       Energy        RMS Gradient
 ---------------------------------------
    1    -454.7853905436      2.04e-02   Normal BFGS step
    2    -454.7824059239      3.78e-02  Line search: overstep
    3    -454.7894445612      5.40e-03   Normal BFGS step
    4    -454.7895978557      1.86e-03   Normal BFGS step
    5    -454.7896644953      1.96e-03   Normal BFGS step
    6    -454.7896706791      5.01e-04   Normal BFGS step
    7    -454.7896747872      5.19e-04   Normal BFGS step
    8    -454.7896756858      3.39e-04   Normal BFGS step
    9    -454.7896760279      8.97e-05   Normal BFGS step
   10    -454.7896760708      3.74e-05   Normal BFGS step
   11    -454.7896760870      1.92e-05   Normal BFGS step
[...]
 -- total gradient after adding PCM contribution --
---------------------------------------------------
  Atom         X              Y              Z     
---------------------------------------------------
   1      -0.000013       0.000047       0.000051
   2       0.000006       0.000030      -0.000007
   3       0.000016       0.000030       0.000006
   4      -0.000127      -0.000102      -0.000065
   5       0.000001      -0.000078       0.000056
   6       0.000006       0.000000       0.000053
   7      -0.000015      -0.000148      -0.000044
   8      -0.000044      -0.000002       0.000155
   9       0.000029       0.000019      -0.000043
  10      -0.000122      -0.000002      -0.000224
  11       0.000264       0.000206       0.000063
---------------------------------------------------
 Number of fixed atoms: 0
 Gradient time:  CPU 121.05 s  wall 15.69 s
rPathMan2.  file_steps = 952
 IRC --- Status = 3.  Assess initial corrector step
 IRC --- bisector search: b =  0.000000 E =     -454.785295 G.B =  -0.000364
 IRC --- bisector search: b =  0.000781 E =     -454.785295 G.B =   0.000395
 IRC --- performed gradient/energy interpolation
 IRC --- bisector search:  estimate b(min) =   3.746974945157456E-004
 ----------------------------------------------------------------
             Standard Nuclear Orientation (Angstroms)
    I     Atom           X                Y                Z
 ----------------------------------------------------------------
    1      C       1.9873143487    -0.3728907596    -1.7983384570
    2      C       0.5408683854    -0.7523139934    -2.0883545053
    3      O      -0.2668416260     0.3871491753    -2.2425730819
    4      O       0.0697415363    -1.6389250750    -1.1063308558
    5      O       2.4943493870     0.6464540308    -2.2070243968
    6      H      -0.1055371851     0.9694444247    -1.4872980922
    7      H       0.3370932055    -1.2433157326    -0.2562911354
    8      H       2.5669183062    -1.1275758291    -1.2472946997
    9      H       0.5155109611    -1.2861001999    -3.0394142608
   10      O       1.0383973319     0.3590914241     0.5039490828
   11      O       2.2089537847     0.5136592404     1.0944227149
 ----------------------------------------------------------------
 Nuclear Repulsion Energy =         311.54921590 hartrees
 There are       29 alpha and       28 beta electrons
 Discretize the solute cavity surface with Lebedev spheres
	Using 110 Lebedev grid points for each H atom
	Using 194 Lebedev grid points for other atoms
	Atomic van der Waals radii will be scaled by 1.20
 Remove points where switching function is < 1.0e-08
 Keep 1021 surface tesserae and discard 777 interior tesserae
 Molecular Surface Area = 118.798 Angst**2

                       Distance Matrix (Angstroms)
             C (  1)   C (  2)   O (  3)   O (  4)   O (  5)   H (  6)
   C (  2)  1.523246
   O (  3)  2.419964  1.405189
   O (  4)  2.399751  1.404425  2.347192
   O (  5)  1.209617  2.405561  2.773568  3.509018
   H (  6)  2.505721  1.934828  0.967227  2.641865  2.716936
   H (  7)  2.420492  1.907633  2.639786  0.974962  3.468479  2.570527
   H (  8)  1.099609  2.225552  3.363802  2.552889  2.018299  3.405454
   H (  9)  2.130828  1.090910  2.011665  2.014946  2.888501  2.807534
   O ( 10)  2.595529  2.864052  3.041023  2.742875  3.090591  2.376170
   O ( 11)  3.033671  3.809891  4.157055  3.748755  3.316419  3.497126
             H (  7)   H (  8)   H (  9)   O ( 10)
   H (  8)  2.442868
   H (  9)  2.789164  2.728570
   O ( 10)  1.907223  2.759241  3.941509
   O ( 11)  2.900905  2.881915  4.816170  1.320134
 
 Applying Cartesian multipole field
    Component          Value
    ---------          -----
     (2,0,0)        1.00000E-11
     (0,2,0)        2.00000E-11
     (0,0,2)       -3.00000E-11
 Nucleus-field energy     =    -0.0000000096 hartrees
 Requested basis set is 6-311++G(2df,2p)
 There are 80 shells and 278 basis functions
 A cutoff of  1.0D-12 yielded   3019 shell pairs
 There are     36442 function pairs (     46039 Cartesian)
 Smallest overlap matrix eigenvalue = 6.05E-05
 Guess MOs from SCF MO coefficient file

 -----------------------------------------------------------------------
  General SCF calculation program by
  Eric Jon Sundstrom, Paul Horn, Yuezhi Mao, Dmitri Zuev, Alec White,
  David Stuck, Shaama M.S., Shane Yost, Joonho Lee, David Small,
  Daniel Levine, Susi Lehtola, Hugh Burton, Evgeny Epifanovsky,
  Bang C. Huynh
 -----------------------------------------------------------------------
 Exchange:     0.1500 Hartree-Fock + 1.0000 wB97M-V + LR-HF
 Correlation:  1.0000 wB97M-V
 Using SG-2 standard quadrature grid
 Nonlocal Correlation:  VV10 with C = 0.0100 and b = 6.00 and scale = 1.00000
 Grid used for NLC:  SG-1 standard quadrature
 
 Citation of the SMD model:
 Marenich, A.V.; Cramer, C.J.; Truhlar, D.G.
 J. Phys. Chem. B 2009, 113, 6378-6396.
 iSolventCode=           1
 Solvent: water                                                           
 
 vradii
            1           2           3           4           5           6
    1   1.8500000   1.8500000   1.5200000   1.5200000   1.5200000   1.2000000
            7           8           9          10          11
    1   1.2000000   1.2000000   1.2000000   1.5200000   1.5200000
 -------------------------------------------------------
 OpenMP BLAS3 based DFT computing Module                
 Release: version 1.0, May 2013, Q-Chem Inc. Pittsburgh 
 -------------------------------------------------------
 A unrestricted SCF calculation will be
 performed using Roothaan-Hall, DIIS, GDM
 SCF converges when RMS gradient is below 1.0e-07
 ---------------------------------------
  Cycle       Energy         DIIS error
 ---------------------------------------
    1    -454.6738525662      2.81e-04  Roothaan Step
 ---------------------------------------
  Cycle       Energy         DIIS error
 ---------------------------------------
    1    -454.7826389535      3.50e-04  
    2    -454.7856899159      3.95e-04  Done DIIS. Switching to GDM
 ---------------------------------------
  Cycle       Energy        RMS Gradient
 ---------------------------------------
    1    -454.7856899159      1.76e-02   Normal BFGS step
    2    -454.7829644085      3.27e-02  Line search: overstep
    3    -454.7894920368      4.88e-03   Normal BFGS step
    4    -454.7896407214      1.78e-03   Normal BFGS step
    5    -454.7897035114      1.81e-03   Normal BFGS step
    6    -454.7897094685      4.86e-04   Normal BFGS step
    7    -454.7897133555      4.72e-04   Normal BFGS step
    8    -454.7897141999      3.14e-04   Normal BFGS step
    9    -454.7897145339      8.31e-05   Normal BFGS step
   10    -454.7897145745      3.53e-05   Normal BFGS step
   11    -454.7897145903      1.71e-05   Normal BFGS step
   12    -454.7897145918      7.22e-06   Normal BFGS step
   13    -454.7897145922      5.51e-06   Normal BFGS step
   14    -454.7897145923      5.18e-06   Normal BFGS step
   15    -454.7897145923      4.92e-06   Normal BFGS step
   16    -454.7897145925      4.37e-06   Normal BFGS step
   17    -454.7897145927      3.56e-06   Normal BFGS step
   18    -454.7897145932      4.73e-06   Normal BFGS step
   19    -454.7897145940      6.63e-06   Normal BFGS step
   20    -454.7897145949      5.85e-06   Normal BFGS step
   21    -454.7897145953      2.78e-06   Normal BFGS step
   22    -454.7897145954      5.55e-07   Normal BFGS step
   23    -454.7897145954      3.01e-07   Normal BFGS step
   24    -454.7897145954      1.25e-07   Normal BFGS step
   25    -454.7897145954      9.73e-08  Convergence criterion met
 ---------------------------------------
 SCF time:   CPU 1337.07s  wall 140.00s 
<S^2> =          0.754912436
(3)  G-ENP(liq) elect-nuc-pol free energy of system     -454.789714595 a.u.
(4)  G-CDS(liq) cavity-dispersion-solvent structure 
     free energy                                                2.7733 kcal/mol
(6)  G-S(liq) free energy of system                     -454.785295037 a.u.
 SCF   energy in the final basis set =     -454.7852950367
 Total energy in the final basis set =     -454.7852950367
 
 --------------------------------------------------------------
 
                    Orbital Energies (a.u.)
 --------------------------------------------------------------
 
 Alpha MOs
 -- Occupied --
-19.3493 -19.3477 -19.3461 -19.3431 -19.3393 -10.4461 -10.4381  -1.2302
 -1.2077  -1.1821  -1.1338  -0.8761  -0.8322  -0.7270  -0.6435  -0.6257
 -0.5955  -0.5777  -0.5407  -0.5332  -0.5145  -0.4957  -0.4920  -0.4694
 -0.4406  -0.4105  -0.3660  -0.3330  -0.3020
 -- Virtual --
  0.0359   0.0456   0.0521   0.0582   0.0676   0.0951   0.1096   0.1131
  0.1140   0.1382   0.1665   0.1677   0.1766   0.1891   0.2048   0.2301
  0.2381   0.2419   0.2554   0.2633   0.2778   0.2839   0.2973   0.3043
  0.3193   0.3222   0.3231   0.3311   0.3425   0.3494   0.3505   0.3575
  0.3746   0.3841   0.3977   0.4108   0.4136   0.4191   0.4418   0.4669
  0.4931   0.5167   0.5720   0.5988   0.6198   0.6355   0.6445   0.6666
  0.6745   0.6853   0.7029   0.7452   0.7999   0.8068   0.8298   0.8372
  0.8920   0.9356   0.9761   0.9988   1.0451   1.0678   1.0859   1.1001
  1.1123   1.1265   1.1380   1.1406   1.1549   1.1713   1.1866   1.1988
  1.2103   1.2196   1.2322   1.2371   1.2458   1.2773   1.2973   1.3470
  1.3586   1.3725   1.3879   1.4210   1.4445   1.4607   1.4785   1.4943
  1.5049   1.5113   1.5694   1.5836   1.5973   1.6140   1.6464   1.6907
  1.7083   1.7332   1.7933   1.8340   1.8421   1.8861   1.9139   1.9527
  1.9691   2.0278   2.0396   2.1847   2.2031   2.2251   2.2473   2.2754
  2.2935   2.3316   2.3692   2.4169   2.4403   2.4658   2.5512   2.5850
  2.6273   2.6871   2.7281   2.8346   2.8912   2.9316   2.9772   3.0154
  3.0668   3.1071   3.1469   3.2204   3.2516   3.2708   3.3015   3.3760
  3.4120   3.4430   3.4976   3.5155   3.5774   3.6083   3.6282   3.6469
  3.6964   3.7787   3.8075   3.8496   3.8671   3.9220   3.9346   3.9668
  4.0050   4.1353   4.1644   4.1886   4.2598   4.2666   4.2785   4.3245
  4.3925   4.4398   4.5128   4.6258   4.6696   4.6831   4.7376   4.7972
  4.8233   4.8532   5.0862   5.0924   5.1253   5.1396   5.1737   5.1753
  5.2042   5.2114   5.2220   5.2319   5.2354   5.2434   5.2608   5.2677
  5.2739   5.2987   5.3106   5.3357   5.3727   5.3902   5.4030   5.4157
  5.4823   5.5114   5.5454   5.5617   5.5866   5.6267   5.6345   5.6529
  5.6564   5.7314   5.7933   5.8463   5.9853   6.0965   6.1764   6.3939
  6.4707   6.5029   6.5484   6.7039   6.7743   6.8081   6.8603   6.9393
  6.9557   6.9842   7.0118   7.0339   7.0656   7.0965   7.1190   7.1591
  7.1749   7.2549   7.2848   7.3226   7.3595   7.3882   7.4181   7.4549
  7.4998   7.5152   7.5547   7.6275   7.7211   7.7562   7.8107   7.8600
  7.9747   8.0081  24.7689  24.9797  50.4386  50.5152  50.5804  50.6328
 50.7211
 
 Beta MOs
 -- Occupied --
-19.3460 -19.3431 -19.3393 -19.3358 -19.3326 -10.4461 -10.4381  -1.2105
 -1.1983  -1.1821  -1.1336  -0.8348  -0.8318  -0.7264  -0.6429  -0.6254
 -0.5946  -0.5772  -0.5168  -0.5122  -0.4977  -0.4854  -0.4670  -0.4455
 -0.4390  -0.4104  -0.3658  -0.2827
 -- Virtual --
  0.0212   0.0367   0.0468   0.0529   0.0588   0.0693   0.0958   0.1105
  0.1139   0.1143   0.1389   0.1673   0.1687   0.1779   0.1907   0.2069
  0.2324   0.2442   0.2445   0.2569   0.2636   0.2785   0.2860   0.3017
  0.3085   0.3228   0.3239   0.3243   0.3341   0.3432   0.3499   0.3530
  0.3583   0.3754   0.3885   0.3999   0.4119   0.4171   0.4205   0.4420
  0.4675   0.4951   0.5172   0.5730   0.5993   0.6202   0.6356   0.6449
  0.6667   0.6747   0.6854   0.7037   0.7464   0.8002   0.8081   0.8301
  0.8376   0.8928   0.9371   0.9767   0.9998   1.0457   1.0684   1.0900
  1.1024   1.1181   1.1313   1.1417   1.1556   1.1627   1.1738   1.1896
  1.2049   1.2115   1.2248   1.2342   1.2384   1.2656   1.2830   1.3001
  1.3478   1.3643   1.3757   1.3918   1.4290   1.4462   1.4629   1.4825
  1.5015   1.5124   1.5128   1.5734   1.5910   1.6090   1.6276   1.6597
  1.6978   1.7120   1.7390   1.8106   1.8416   1.8444   1.8945   1.9156
  1.9567   1.9749   2.0306   2.0456   2.1858   2.2044   2.2346   2.2522
  2.2821   2.2954   2.3497   2.3745   2.4177   2.4427   2.4692   2.5517
  2.5851   2.6275   2.6875   2.7377   2.8352   2.8917   2.9324   2.9774
  3.0155   3.0669   3.1073   3.1468   3.2205   3.2517   3.2708   3.3017
  3.3761   3.4122   3.4431   3.4977   3.5156   3.5775   3.6083   3.6283
  3.6470   3.6964   3.7787   3.8076   3.8497   3.8672   3.9220   3.9348
  3.9668   4.0050   4.1354   4.1644   4.1890   4.2599   4.2668   4.2786
  4.3255   4.3936   4.4400   4.5130   4.6559   4.6772   4.6894   4.7420
  4.8236   4.8393   4.8734   5.1256   5.1292   5.1484   5.1741   5.1934
  5.1969   5.2077   5.2155   5.2391   5.2552   5.2624   5.2694   5.2738
  5.2885   5.2970   5.3065   5.3315   5.3498   5.3738   5.3934   5.4133
  5.4214   5.4827   5.5118   5.5464   5.5623   5.5884   5.6270   5.6551
  5.6619   5.6817   5.7321   5.7935   5.8466   5.9855   6.0967   6.1764
  6.3945   6.5123   6.5174   6.5500   6.7045   6.7747   6.8736   6.9280
  6.9537   6.9971   7.0070   7.0550   7.0707   7.0804   7.1129   7.1268
  7.1674   7.1989   7.2604   7.2877   7.3254   7.3620   7.3927   7.4245
  7.4891   7.5102   7.5192   7.5632   7.6295   7.7221   7.7567   7.8110
  7.8602   7.9974   8.0215  24.7689  24.9797  50.4497  50.5252  50.5804
 50.6333  50.7211
 --------------------------------------------------------------
 
          Ground-State Mulliken Net Atomic Charges

     Atom                 Charge (a.u.)    Spin (a.u.)
  --------------------------------------------------------
      1 C                     0.082543      -0.003267
      2 C                    -0.093561       0.002275
      3 O                    -0.429655      -0.000489
      4 O                    -0.413563       0.000700
      5 O                    -0.392862      -0.001319
      6 H                     0.340262       0.003801
      7 H                     0.315789       0.002138
      8 H                     0.238153      -0.000803
      9 H                     0.209396       0.000878
     10 O                    -0.403308       0.461494
     11 O                    -0.453194       0.534591
  --------------------------------------------------------
  Sum of atomic charges =    -1.000000
  Sum of spin   charges =     1.000000

 -----------------------------------------------------------------
                    Cartesian Multipole Moments
 -----------------------------------------------------------------
    Charge (ESU x 10^10)
                -4.8032
    Dipole Moment (Debye)
         X      -6.7368      Y      -3.0885      Z       0.4309
       Tot       7.4235
    Quadrupole Moments (Debye-Ang)
        XX     -63.4643     XY     -11.1077     YY     -47.3547
        XZ      -3.9828     YZ       3.2930     ZZ     -55.4485
    Octopole Moments (Debye-Ang^2)
       XXX    -196.6379    XXY     -17.5889    XYY     -50.8225
       YYY      26.9900    XXZ      52.3342    XYZ      11.0088
       YYZ      49.3537    XZZ     -64.7622    YZZ     -19.6629
       ZZZ     152.8165
    Hexadecapole Moments (Debye-Ang^3)
      XXXX    -782.9071   XXXY     -84.6718   XXYY    -150.5369
      XYYY     -34.9476   YYYY    -238.0976   XXXZ     137.4356
      XXYZ      10.1615   XYYZ      37.0973   YYYZ     -60.0867
      XXZZ    -303.5534   XYZZ     -46.8502   YYZZ    -167.5399
      XZZZ     123.3363   YZZZ      17.0883   ZZZZ    -810.7663
 -----------------------------------------------------------------
 Calculating analytic gradient of the SCF energy
 Gradient of CDS energy
            1           2           3           4           5           6
    1   0.0016232  -0.0034669   0.0018674   0.0011959  -0.0006247  -0.0003035
    2   0.0013215   0.0000357  -0.0025998   0.0022427  -0.0010652   0.0003615
    3  -0.0009706   0.0016083   0.0004095  -0.0024099   0.0004929   0.0001007
            7           8           9          10          11
    1  -0.0001549  -0.0001629  -0.0000649   0.0001587  -0.0000675
    2  -0.0001965  -0.0000690  -0.0000625   0.0000382  -0.0000067
    3   0.0003805   0.0003200  -0.0001003   0.0000574   0.0001115
 Gradient of SCF Energy
            1           2           3           4           5           6
    1   0.0333461   0.0039639  -0.0013014  -0.0026760  -0.0106282  -0.0057627
    2   0.0105436  -0.0138310   0.0227267  -0.0017532  -0.0237187  -0.0186681
    3   0.0070816  -0.0250578   0.0146995   0.0283312   0.0119823  -0.0212012
            7           8           9          10          11
    1  -0.0037153  -0.0186301   0.0040290  -0.0199197   0.0212943
    2  -0.0081117   0.0148336   0.0132110  -0.0026286   0.0073965
    3  -0.0264909  -0.0205978   0.0252825  -0.0051256   0.0110964
 Max gradient component =       3.335E-02
 RMS gradient           =       1.649E-02
 Computing fast CPCM-SWIG gradient
 Updating gradient with PCM contributions...
 -- total gradient after adding PCM contribution --
---------------------------------------------------
  Atom         X              Y              Z     
---------------------------------------------------
   1      -0.000014      -0.000003       0.000077
   2      -0.000027      -0.000013      -0.000003
   3       0.000021       0.000031       0.000015
   4      -0.000097      -0.000053      -0.000073
   5       0.000017      -0.000040       0.000040
   6       0.000004      -0.000001       0.000048
   7      -0.000025      -0.000162      -0.000063
   8      -0.000053       0.000008       0.000146
   9       0.000033       0.000029      -0.000030
  10       0.000114       0.000033      -0.000099
  11       0.000025       0.000173      -0.000058
---------------------------------------------------
 Number of fixed atoms: 0
 Gradient time:  CPU 120.90 s  wall 15.11 s
rPathMan2.  file_steps = 952
 IRC --- Status = 4.  Checking bisector search.
 IRC --- Bisector search finished successfully.
 ------------------------------------------------------------------------
 Reaction path following.  The coordinates are cartesian              
 Step   3 E=    -454.785295 |G|=  0.000384 S_lin= 0.1503 S_tot= 0.1504
 ------------------------------------------------------------------------
  IRC -- convergence criterion reached.
 ----------------------------------------------------------------
             Standard Nuclear Orientation (Angstroms)
    I     Atom           X                Y                Z
 ----------------------------------------------------------------
    1      C       1.9835847000    -0.3719881000    -1.7822707000
    2      C       0.5400026000    -0.7497494000    -2.0868995000
    3      O      -0.2678764000     0.3907778000    -2.2312629000
    4      O       0.0615611000    -1.6510673000    -1.1214145000
    5      O       2.4997389000     0.6401062000    -2.1999640000
    6      H      -0.1035043000     0.9666016000    -1.4716513000
    7      H       0.3220977000    -1.2756204000    -0.2624921000
    8      H       2.5568833000    -1.1264341000    -1.2247970000
    9      H       0.5202242000    -1.2717165000    -3.0445695000
   10      O       1.0558445000     0.3530660000     0.4790502000
   11      O       2.2178971000     0.5505065000     1.0717588000
 ----------------------------------------------------------------
 Nuclear Repulsion Energy =         312.08326647 hartrees
 There are       29 alpha and       28 beta electrons
 Here is where we should summarize the reaction path
 Total job time:  2596.26s(wall), 24821.48s(cpu) 
 Wed Feb 28 22:43:04 2024

        *************************************************************
        *                                                           *
        *  Thank you very much for using Q-Chem.  Have a nice day.  *
        *                                                           *
        *************************************************************


