
Running Job 1 of 2 Q_in.in
qchem Q_in.in_304523.0 /scratch/ari.fischer/qChem1963430.hpc-mn1/qchem304523/ 0
/usr/local/qchem-5.4.1/exe/qcprog.exe_s Q_in.in_304523.0 /scratch/ari.fischer/qChem1963430.hpc-mn1/qchem304523/
                  Welcome to Q-Chem
     A Quantum Leap Into The Future Of Chemistry


 Q-Chem 5.4, Q-Chem, Inc., Pleasanton, CA (2021)

 License issued to: Nanyang Technological University (site)

 E. Epifanovsky,  A. T. B. Gilbert,  Xintian Feng,  Joonho Lee,  Yuezhi Mao,  
 N. Mardirossian,  P. Pokhilko,  A. White,  M. Wormit,  M. P. Coons,  
 A. L. Dempwolff,  Zhengting Gan,  D. Hait,  P. R. Horn,  L. D. Jacobson,  
 I. Kaliman,  J. Kussmann,  A. W. Lange,  Ka Un Lao,  D. S. Levine,  Jie Liu,  
 S. C. McKenzie,  A. F. Morrison,  K. Nanda,  F. Plasser,  D. R. Rehn,  
 M. L. Vidal,  Zhi-Qiang You,  Ying Zhu,  B. Alam,  B. Albrecht,  
 A. Aldossary,  E. Alguire,  J. H. Andersen,  D. Barton,  K. Begam,  A. Behn,  
 Y. A. Bernard,  E. J. Berquist,  H. Burton,  A. Carreras,  K. Carter-Fenk,  
 R. Chakraborty,  A. D. Chien,  K. D. Closser,  V. Cofer-Shabica,  
 S. Dasgupta,  Jia Deng,  M. de Wergifosse,  M. Diedenhofen,  Hainam Do,  
 S. Ehlert,  Po-Tung Fang,  S. Fatehi,  Qingguo Feng,  T. Friedhoff,  
 J. Gayvert,  Qinghui Ge,  G. Gidofalvi,  M. Goldey,  J. Gomes,  
 C. Gonzalez-Espinoza,  S. Gulania,  A. Gunina,  M. W. D. Hanson-Heine,  
 P. H. P. Harbach,  A. W. Hauser,  M. F. Herbst,  M. Hernandez Vera,  
 M. Hodecker,  Z. C. Holden,  S. Houck,  Xunkun Huang,  Kerwin Hui,  
 B. C. Huynh,  M. Ivanov,  Hyunjun Ji,  Hanjie Jiang,  B. Kaduk,  S. Kaehler,  
 K. Khistyaev,  Jaehoon Kim,  P. Klunzinger,  Z. Koczor-Benda,  
 Joong Hoon Koh,  D. Kosenkov,  L. Koulias,  T. Kowalczyk,  C. M. Krauter,  
 K. Kue,  A. Kunitsa,  T. Kus,  A. Landau,  K. V. Lawler,  D. Lefrancois,  
 S. Lehtola,  Rain Li,  Yi-Pei Li,  Jiashu Liang,  M. Liebenthal,  
 Hung-Hsuan Lin,  You-Sheng Lin,  Fenglai Liu,  Kuan-Yu Liu,  
 M. Loipersberger,  A. Luenser,  A. Manjanath,  P. Manohar,  E. Mansoor,  
 S. F. Manzer,  Shan-Ping Mao,  A. V. Marenich,  T. Markovich,  S. Mason,  
 S. A. Maurer,  P. F. McLaughlin,  M. F. S. J. Menger,  J.-M. Mewes,  
 S. A. Mewes,  P. Morgante,  J. W. Mullinax,  K. J. Oosterbaan,  G. Paran,  
 Alexander C. Paul,  Suranjan K. Paul,  F. Pavosevic,  Zheng Pei,  S. Prager,  
 E. I. Proynov,  E. Ramos,  B. Rana,  A. E. Rask,  A. Rettig,  R. M. Richard,  
 F. Rob,  E. Rossomme,  T. Scheele,  M. Scheurer,  M. Schneider,  
 N. Sergueev,  S. M. Sharada,  W. Skomorowski,  D. W. Small,  C. J. Stein,  
 Yu-Chuan Su,  E. J. Sundstrom,  Zhen Tao,  J. Thirman,  T. Tsuchimochi,  
 N. M. Tubman,  S. P. Veccham,  O. Vydrov,  J. Wenzel,  J. Witte,  A. Yamada,  
 Kun Yao,  S. Yeganeh,  S. R. Yost,  A. Zech,  Igor Ying Zhang,  Xing Zhang,  
 Yu Zhang,  D. Zuev,  A. Aspuru-Guzik,  A. T. Bell,  N. A. Besley,  
 K. B. Bravaya,  B. R. Brooks,  D. Casanova,  Jeng-Da Chai,  S. Coriani,  
 C. J. Cramer,  A. E. DePrince, III,  R. A. DiStasio Jr.,  A. Dreuw,  
 B. D. Dunietz,  T. R. Furlani,  W. A. Goddard III,  S. Grimme,  
 S. Hammes-Schiffer,  T. Head-Gordon,  W. J. Hehre,  Chao-Ping Hsu,  
 T.-C. Jagau,  Yousung Jung,  A. Klamt,  Jing Kong,  D. S. Lambrecht,  
 WanZhen Liang,  N. J. Mayhall,  C. W. McCurdy,  J. B. Neaton,  
 C. Ochsenfeld,  J. A. Parkhill,  R. Peverati,  V. A. Rassolov,  Yihan Shao,  
 L. V. Slipchenko,  T. Stauch,  R. P. Steele,  J. E. Subotnik,  
 A. J. W. Thom,  A. Tkatchenko,  D. G. Truhlar,  T. Van Voorhis,  
 T. A. Wesolowski,  K. B. Whaley,  H. L. Woodcock III,  P. M. Zimmerman,  
 S. Faraji,  P. M. W. Gill,  M. Head-Gordon,  J. M. Herbert,  A. I. Krylov

 Additional authors for Version 5.4.1: 
 S. Kotaru,  Shaozhi Li,  Xiangyuan Li,  F. Matz,  A. Molle,  Haisheng Ren,  
 Yingli Su,  Hung-Yi Tsai,  C. Utku,  Fang Wang

 Contributors to earlier versions of Q-Chem not listed above: 
 R. D. Adamson,  B. Austin,  R. Baer,  J. Baker,  G. J. O. Beran,  
 K. Brandhorst,  S. T. Brown,  E. F. C. Byrd,  A. K. Chakraborty,  
 G. K. L. Chan,  Chun-Min Chang,  Yunqing Chen,  C.-L. Cheng,  
 Siu Hung Chien,  D. M. Chipman,  D. L. Crittenden,  H. Dachsel,  
 R. J. Doerksen,  A. D. Dutoi,  R. G. Edgar,  J. Fosso-Tande,  
 L. Fusti-Molnar,  D. Ghosh,  A. Ghysels,  A. Golubeva-Zadorozhnaya,  
 J. Gonthier,  M. S. Gordon,  S. R. Gwaltney,  G. Hawkins,  J. E. Herr,  
 A. Heyden,  S. Hirata,  E. G. Hohenstein,  G. Kedziora,  F. J. Keil,  
 C. Kelley,  Jihan Kim,  R. A. King,  R. Z. Khaliullin,  P. P. Korambath,  
 W. Kurlancheek,  A. Laurent,  A. M. Lee,  M. S. Lee,  S. V. Levchenko,  
 Ching Yeh Lin,  D. Liotard,  E. Livshits,  R. C. Lochan,  I. Lotan,  
 L. A. Martinez-Martinez,  P. E. Maslen,  N. Nair,  D. P. O'Neill,  
 D. Neuhauser,  E. Neuscamman,  C. M. Oana,  R. Olivares-Amaya,  R. Olson,  
 T. M. Perrine,  B. Peters,  P. A. Pieniazek,  A. Prociuk,  Y. M. Rhee,  
 J. Ritchie,  M. A. Rohrdanz,  E. Rosta,  N. J. Russ,  H. F. Schaefer III,  
 M. W. Schmidt,  N. E. Schultz,  S. Sharma,  N. Shenvi,  C. D. Sherrill,  
 A. C. Simmonett,  A. Sodt,  T. Stein,  D. Stuck,  K. S. Thanthiriwatte,  
 V. Vanovschi,  L. Vogt,  Tao Wang,  A. Warshel,  M. A. Watson,  
 C. F. Williams,  Q. Wu,  X. Xu,  Jun Yang,  W. Zhang,  Yan Zhao

 Please cite Q-Chem as follows:
 Y. Shao et al., Mol. Phys. 113, 184-215 (2015)
 DOI: 10.1080/00268976.2014.952696

 Q-Chem 5.4.1 for Intel X86 EM64T Linux

 Parts of Q-Chem use Armadillo 9.800.1 (Horizon Scraper).
 http://arma.sourceforge.net/

 Q-Chem begins on Wed Feb 28 16:26:56 2024  

 Host: 
0

     Scratch files written to /scratch/ari.fischer/qChem1963430.hpc-mn1/qchem304523//
 Aug1521 |scratch|qcdevops|jenkins|workspace|build_RNUM 8249   
 Processing $rem in /usr/local/qchem-5.4.1/config/preferences:
 Processing $rem in /home/ari.fischer/.qchemrc:
 Symmetry turned off for PCM/SM12/SMD calculation


!!********************************************.
!!******************Warning*******************.
!!Desired Analytical derivatives not available.
!!Finite difference job might take a long time.
!!********************************************.
!!********************************************.


 2-order derivative to be evaluated numerically with 1-order analytical derivatives

 Checking the input file for inconsistencies... 	...done.

--------------------------------------------------------------
User input:
--------------------------------------------------------------
$molecule
-1 2
C    2.0106176   -0.3471794   -1.8921415
C    0.5543104   -0.7716087   -2.0637551
O   -0.2662397    0.3560460   -2.2718073
O    0.1558191   -1.5680935   -0.9794623
O    2.4568919    0.6811260   -2.3616470
H   -0.1005869    0.9555594   -1.5193255
H    0.4073335   -0.9920208   -0.2058774
H    2.6492666   -1.0722381   -1.3556736
H    0.4786535   -1.3843432   -2.9695400
O    1.0821113    0.4839904    0.4068300
O    1.9582760    0.1132443    1.3378872
$end

$rem
BASIS = 6-311++G(2df,2p)
GUI = 2
JOB_TYPE = Frequency
METHOD = wB97M-V
SCF_ALGORITHM = DIIS_GDM
MAX_SCF_CYCLES = 400
SCF_CONVERGENCE = 6
THRESH = 11
solvent_method = SMD
$end

--------------------------------------------------------------
 ----------------------------------------------------------------
             Standard Nuclear Orientation (Angstroms)
    I     Atom           X                Y                Z
 ----------------------------------------------------------------
    1      C       2.0106176000    -0.3471794000    -1.8921415000
    2      C       0.5543104000    -0.7716087000    -2.0637551000
    3      O      -0.2662397000     0.3560460000    -2.2718073000
    4      O       0.1558191000    -1.5680935000    -0.9794623000
    5      O       2.4568919000     0.6811260000    -2.3616470000
    6      H      -0.1005869000     0.9555594000    -1.5193255000
    7      H       0.4073335000    -0.9920208000    -0.2058774000
    8      H       2.6492666000    -1.0722381000    -1.3556736000
    9      H       0.4786535000    -1.3843432000    -2.9695400000
   10      O       1.0821113000     0.4839904000     0.4068300000
   11      O       1.9582760000     0.1132443000     1.3378872000
 ----------------------------------------------------------------
 Nuclear Repulsion Energy =         311.24404680 hartrees
 There are       29 alpha and       28 beta electrons
 Requested basis set is 6-311++G(2df,2p)
 There are 80 shells and 278 basis functions

 Total QAlloc Memory Limit 288000 MB
 Mega-Array Size       188 MB
 MEM_STATIC part       192 MB
 
 Citation of the SMD model:
 Marenich, A.V.; Cramer, C.J.; Truhlar, D.G.
 J. Phys. Chem. B 2009, 113, 6378-6396.
 iSolventCode=           1
 Solvent: water                                                           
 
 vradii
            1           2           3           4           5           6
    1   1.8500000   1.8500000   1.5200000   1.5200000   1.5200000   1.2000000
            7           8           9          10          11
    1   1.2000000   1.2000000   1.2000000   1.5200000   1.5200000
 Changing PCM_VDW_RADII to SMD_RADIUS
 Discretize the solute cavity surface with Lebedev spheres
	Using 110 Lebedev grid points for each H atom
	Using 194 Lebedev grid points for other atoms
	Atomic van der Waals radii will be scaled by 1.20
 Remove points where switching function is < 1.0e-08
 Keep 1002 surface tesserae and discard 796 interior tesserae
 Molecular Surface Area = 118.916 Angst**2

                       Distance Matrix (Angstroms)
             C (  1)   C (  2)   O (  3)   O (  4)   O (  5)   H (  6)
   C (  2)  1.526572
   O (  3)  2.413038  1.410033
   O (  4)  2.400811  1.403166  2.355972
   O (  5)  1.215322  2.412259  2.743938  3.502051
   H (  6)  2.508646  1.925722  0.976261  2.593457  2.706569
   H (  7)  2.414503  1.876671  2.557157  0.996771  3.412836  2.403372
   H (  8)  1.105161  2.231726  3.373348  2.569959  2.030585  3.420590
   H (  9)  2.140890  1.096181  2.017586  2.024449  2.923889  2.813145
   O ( 10)  2.615002  2.821151  3.001586  2.644026  3.097313  2.308945
   O ( 11)  3.263099  3.784872  4.247036  3.383173  3.775932  3.621060
             H (  7)   H (  8)   H (  9)   O ( 10)
   H (  8)  2.520859
   H (  9)  2.792281  2.722781
   O ( 10)  1.734746  2.825640  3.905727
   O ( 11)  2.451580  3.022930  4.794370  1.331159
 
 A cutoff of  1.0D-11 yielded   2968 shell pairs
 There are     35729 function pairs (     45065 Cartesian)
 Smallest overlap matrix eigenvalue = 5.93E-05
 Guess from superposition of atomic densities
 Warning:  Energy on first SCF cycle will be non-variational
 SAD guess density has 56.000000 electrons

 -----------------------------------------------------------------------
  General SCF calculation program by
  Eric Jon Sundstrom, Paul Horn, Yuezhi Mao, Dmitri Zuev, Alec White,
  David Stuck, Shaama M.S., Shane Yost, Joonho Lee, David Small,
  Daniel Levine, Susi Lehtola, Hugh Burton, Evgeny Epifanovsky,
  Bang C. Huynh
 -----------------------------------------------------------------------
 Exchange:     0.1500 Hartree-Fock + 1.0000 wB97M-V + LR-HF
 Correlation:  1.0000 wB97M-V
 Using SG-2 standard quadrature grid
 Nonlocal Correlation:  VV10 with C = 0.0100 and b = 6.00 and scale = 1.00000
 Grid used for NLC:  SG-1 standard quadrature
 using 16 threads for integral computing
 -------------------------------------------------------
 OpenMP Integral computing Module                
 Release: version 1.0, May 2013, Q-Chem Inc. Pittsburgh 
 -------------------------------------------------------
 
 Citation of the SMD model:
 Marenich, A.V.; Cramer, C.J.; Truhlar, D.G.
 J. Phys. Chem. B 2009, 113, 6378-6396.
 iSolventCode=           1
 Solvent: water                                                           
 
 vradii
            1           2           3           4           5           6
    1   1.8500000   1.8500000   1.5200000   1.5200000   1.5200000   1.2000000
            7           8           9          10          11
    1   1.2000000   1.2000000   1.2000000   1.5200000   1.5200000
 -------------------------------------------------------
 OpenMP BLAS3 based DFT computing Module                
 Release: version 1.0, May 2013, Q-Chem Inc. Pittsburgh 
 -------------------------------------------------------
 A unrestricted SCF calculation will be
 performed using DIIS, GDM
 SCF converges when RMS gradient is below 1.0e-06
 ---------------------------------------
  Cycle       Energy         DIIS error
 ---------------------------------------
    1    -455.2901727395      1.39e-02  
    2    -454.6248642717      2.30e-03  Done DIIS. Switching to GDM
 ---------------------------------------
  Cycle       Energy        RMS Gradient
 ---------------------------------------
    1    -454.6248642717      1.00e-01   Descent step
    2    -454.7717324639      1.62e-02   Normal BFGS step
    3    -454.7865107765      1.26e-02   Normal BFGS step
    4    -454.7883288191      1.02e-02   Normal BFGS step
    5    -454.7890448878      5.12e-03   Normal BFGS step
    6    -454.7890874440      2.80e-03   Normal BFGS step
    7    -454.7891291794      6.70e-04   Normal BFGS step
    8    -454.7891317283      2.96e-04   Normal BFGS step
    9    -454.7891329929      3.06e-04   Normal BFGS step
   10    -454.7891332665      2.88e-04   Normal BFGS step
   11    -454.7891335277      2.70e-04   Normal BFGS step
   12    -454.7891338958      2.46e-04   Normal BFGS step
   13    -454.7891343847      3.18e-04   Normal BFGS step
   14    -454.7891351154      4.45e-04   Normal BFGS step
   15    -454.7891361080      4.56e-04   Normal BFGS step
   16    -454.7891370500      2.92e-04   Normal BFGS step
   17    -454.7891374787      1.03e-04   Normal BFGS step
   18    -454.7891375804      3.59e-05   Normal BFGS step
   19    -454.7891375948      1.24e-05   Normal BFGS step
   20    -454.7891375968      4.75e-06   Normal BFGS step
   21    -454.7891375972      3.11e-06   Normal BFGS step
   22    -454.7891375973      1.47e-06   Normal BFGS step
   23    -454.7891375974      5.16e-07  Convergence criterion met
 ---------------------------------------
 SCF time:   CPU 875.82s  wall 59.00s 
<S^2> =          0.754891334
(3)  G-ENP(liq) elect-nuc-pol free energy of system     -454.789137597 a.u.
(4)  G-CDS(liq) cavity-dispersion-solvent structure 
     free energy                                                2.7552 kcal/mol
(6)  G-S(liq) free energy of system                     -454.784746858 a.u.
 SCF   energy in the final basis set =     -454.7847468577
 Total energy in the final basis set =     -454.7847468577
 
 --------------------------------------------------------------
 
                    Orbital Energies (a.u.)
 --------------------------------------------------------------
 
 Alpha MOs
 -- Occupied --
-19.3536 -19.3520 -19.3469 -19.3456 -19.3344 -10.4458 -10.4398  -1.2289
 -1.2055  -1.1796  -1.1286  -0.8838  -0.8289  -0.7226  -0.6397  -0.6235
 -0.5914  -0.5769  -0.5429  -0.5343  -0.5143  -0.5015  -0.4899  -0.4668
 -0.4390  -0.4089  -0.3656  -0.3382  -0.3088
 -- Virtual --
  0.0359   0.0446   0.0522   0.0574   0.0669   0.0942   0.1115   0.1122
  0.1150   0.1367   0.1612   0.1680   0.1759   0.1908   0.2073   0.2279
  0.2371   0.2413   0.2538   0.2676   0.2725   0.2818   0.3041   0.3071
  0.3132   0.3165   0.3257   0.3356   0.3392   0.3441   0.3493   0.3560
  0.3750   0.3761   0.3885   0.4121   0.4223   0.4426   0.4583   0.4727
  0.5094   0.5264   0.5793   0.6051   0.6117   0.6272   0.6326   0.6590
  0.6664   0.6810   0.7151   0.7576   0.7867   0.8082   0.8174   0.8349
  0.9015   0.9409   0.9690   1.0086   1.0467   1.0610   1.0825   1.0951
  1.1196   1.1252   1.1316   1.1501   1.1570   1.1764   1.1830   1.2019
  1.2137   1.2272   1.2324   1.2374   1.2422   1.2867   1.3126   1.3448
  1.3552   1.3906   1.4010   1.4227   1.4464   1.4544   1.4744   1.4978
  1.5099   1.5257   1.5507   1.5788   1.5971   1.6191   1.6443   1.6783
  1.7003   1.7320   1.7841   1.8193   1.8421   1.8650   1.9231   1.9549
  2.0005   2.0473   2.0978   2.1826   2.2049   2.2141   2.2503   2.2946
  2.3176   2.3561   2.3875   2.4317   2.4500   2.4894   2.5689   2.5871
  2.6208   2.6802   2.7432   2.8460   2.8765   2.9144   2.9719   3.0086
  3.0798   3.1086   3.1482   3.2348   3.2477   3.2682   3.3021   3.3954
  3.4138   3.4352   3.4924   3.5205   3.5690   3.5973   3.6213   3.6543
  3.6900   3.7729   3.8179   3.8382   3.8772   3.9094   3.9262   3.9618
  3.9989   4.1328   4.1580   4.2138   4.2414   4.2525   4.2558   4.3267
  4.4127   4.4394   4.5071   4.6025   4.6542   4.6621   4.7223   4.7937
  4.8047   4.8356   5.0945   5.1115   5.1225   5.1367   5.1678   5.1707
  5.2044   5.2070   5.2224   5.2338   5.2348   5.2446   5.2515   5.2644
  5.2812   5.3030   5.3383   5.3543   5.3677   5.3852   5.4259   5.4500
  5.4874   5.5115   5.5390   5.5513   5.5658   5.6058   5.6151   5.6187
  5.6368   5.7370   5.7827   5.8264   5.9507   6.0691   6.1694   6.3776
  6.4229   6.4570   6.5457   6.6919   6.7537   6.8145   6.8532   6.9429
  6.9475   6.9616   7.0009   7.0312   7.0810   7.1106   7.1312   7.1558
  7.1688   7.2393   7.2403   7.2795   7.3542   7.3857   7.4266   7.4465
  7.4805   7.5056   7.5437   7.6189   7.7110   7.7520   7.8300   7.8735
  7.9697   8.0203  24.7501  24.9487  50.4448  50.5161  50.5777  50.6371
 50.7110
 
 Beta MOs
 -- Occupied --
-19.3469 -19.3454 -19.3402 -19.3367 -19.3344 -10.4458 -10.4399  -1.2092
 -1.1961  -1.1793  -1.1285  -0.8424  -0.8287  -0.7219  -0.6391  -0.6232
 -0.5903  -0.5764  -0.5178  -0.5112  -0.5041  -0.4867  -0.4629  -0.4440
 -0.4384  -0.4089  -0.3653  -0.2898
 -- Virtual --
  0.0154   0.0366   0.0471   0.0541   0.0581   0.0684   0.0947   0.1119
  0.1131   0.1156   0.1372   0.1638   0.1682   0.1774   0.1926   0.2087
  0.2306   0.2411   0.2436   0.2556   0.2692   0.2735   0.2834   0.3070
  0.3116   0.3158   0.3221   0.3267   0.3387   0.3408   0.3477   0.3496
  0.3571   0.3755   0.3794   0.3897   0.4128   0.4237   0.4430   0.4599
  0.4740   0.5107   0.5271   0.5802   0.6064   0.6119   0.6272   0.6330
  0.6592   0.6665   0.6812   0.7164   0.7587   0.7869   0.8089   0.8182
  0.8351   0.9021   0.9440   0.9697   1.0097   1.0475   1.0626   1.0873
  1.0998   1.1244   1.1303   1.1366   1.1551   1.1585   1.1775   1.1982
  1.2027   1.2203   1.2297   1.2333   1.2412   1.2624   1.2899   1.3197
  1.3466   1.3567   1.3943   1.4083   1.4274   1.4494   1.4627   1.4800
  1.5014   1.5173   1.5269   1.5582   1.5811   1.6004   1.6349   1.6566
  1.6941   1.7074   1.7376   1.7978   1.8201   1.8514   1.8692   1.9267
  1.9578   2.0034   2.0520   2.1024   2.1847   2.2104   2.2206   2.2564
  2.2996   2.3345   2.3626   2.3929   2.4326   2.4522   2.4924   2.5696
  2.5876   2.6210   2.6809   2.7524   2.8467   2.8765   2.9150   2.9721
  3.0084   3.0798   3.1088   3.1481   3.2348   3.2478   3.2681   3.3020
  3.3953   3.4139   3.4354   3.4924   3.5205   3.5690   3.5973   3.6213
  3.6544   3.6900   3.7728   3.8179   3.8382   3.8773   3.9093   3.9263
  3.9618   3.9990   4.1329   4.1581   4.2138   4.2416   4.2527   4.2558
  4.3268   4.4129   4.4397   4.5073   4.6347   4.6615   4.6662   4.7260
  4.8200   4.8266   4.8523   5.1298   5.1371   5.1663   5.1715   5.1853
  5.1955   5.2078   5.2136   5.2367   5.2499   5.2567   5.2661   5.2717
  5.2885   5.2995   5.3247   5.3480   5.3674   5.3685   5.3905   5.4269
  5.4646   5.4878   5.5141   5.5417   5.5521   5.5678   5.6125   5.6250
  5.6422   5.6517   5.7372   5.7828   5.8269   5.9509   6.0694   6.1695
  6.3784   6.4672   6.4681   6.5468   6.6921   6.7548   6.8806   6.9240
  6.9493   6.9894   6.9986   7.0224   7.0627   7.0839   7.1333   7.1552
  7.1689   7.1797   7.2409   7.2538   7.2854   7.3571   7.3903   7.4413
  7.4812   7.4904   7.5072   7.5510   7.6211   7.7127   7.7527   7.8303
  7.8735   7.9905   8.0353  24.7501  24.9487  50.4559  50.5258  50.5777
 50.6377  50.7111
 --------------------------------------------------------------
 
          Ground-State Mulliken Net Atomic Charges

     Atom                 Charge (a.u.)    Spin (a.u.)
  --------------------------------------------------------
      1 C                     0.111422       0.001373
      2 C                    -0.116034      -0.002426
      3 O                    -0.432388      -0.000412
      4 O                    -0.418678      -0.000284
      5 O                    -0.387064       0.006934
      6 H                     0.341899       0.000641
      7 H                     0.303523      -0.001684
      8 H                     0.225661      -0.000854
      9 H                     0.202962       0.000755
     10 O                    -0.363137       0.456909
     11 O                    -0.468165       0.539047
  --------------------------------------------------------
  Sum of atomic charges =    -1.000000
  Sum of spin   charges =     1.000000

 -----------------------------------------------------------------
                    Cartesian Multipole Moments
 -----------------------------------------------------------------
    Charge (ESU x 10^10)
                -4.8032
    Dipole Moment (Debye)
         X      -6.1269      Y      -2.1309      Z       0.2184
       Tot       6.4905
    Quadrupole Moments (Debye-Ang)
        XX     -59.5602     XY      -9.0384     YY     -48.0514
        XZ      -4.0739     YZ       5.6528     ZZ     -57.3890
    Octopole Moments (Debye-Ang^2)
       XXX    -180.1586    XXY     -12.0661    XYY     -51.3006
       YYY      30.1670    XXZ      52.2742    XYZ      14.3383
       YYZ      47.6530    XZZ     -68.5674    YZZ     -19.6313
       ZZZ     156.1168
    Hexadecapole Moments (Debye-Ang^3)
      XXXX    -700.4464   XXXY     -60.2424   XXYY    -142.0448
      XYYY     -17.4867   YYYY    -224.2208   XXXZ     147.8181
      XXYZ      22.8141   XYYZ      42.4219   YYYZ     -39.2562
      XXZZ    -312.7321   XYZZ     -42.6336   YYZZ    -168.7803
      XZZZ     138.2464   YZZZ      39.6084   ZZZZ    -883.0206
 -----------------------------------------------------------------
 Calculating analytic gradient of the SCF energy
 Gradient of CDS energy
            1           2           3           4           5           6
    1   0.0016388  -0.0027310   0.0011671   0.0011276  -0.0006070  -0.0003028
    2   0.0014747  -0.0010692  -0.0015331   0.0022166  -0.0011520   0.0003655
    3  -0.0010717   0.0022764   0.0003381  -0.0029321   0.0005804   0.0000847
            7           8           9          10          11
    1  -0.0001776  -0.0001557  -0.0000703   0.0001206  -0.0000097
    2  -0.0001474  -0.0001057  -0.0000651  -0.0000712   0.0000868
    3   0.0003331   0.0003116  -0.0001050   0.0000961   0.0000884
 Gradient of SCF Energy
            1           2           3           4           5           6
    1   0.0310806   0.0021601  -0.0053016  -0.0035083  -0.0071975  -0.0022975
    2   0.0103465  -0.0166871   0.0211014  -0.0058535  -0.0160215  -0.0147757
    3   0.0097950  -0.0190935   0.0053799   0.0247822   0.0083204  -0.0133411
            7           8           9          10          11
    1  -0.0015480  -0.0176283   0.0042592  -0.0170224   0.0170038
    2  -0.0046181   0.0111643   0.0139170   0.0059664  -0.0045398
    3  -0.0206979  -0.0178497   0.0211108  -0.0180190   0.0196128
 Max gradient component =       3.108E-02
 RMS gradient           =       1.453E-02
 Computing fast CPCM-SWIG gradient
 Updating gradient with PCM contributions...
 -- total gradient after adding PCM contribution --
---------------------------------------------------
  Atom         X              Y              Z     
---------------------------------------------------
   1      -0.003983      -0.004271       0.003682
   2       0.000340       0.001344       0.007112
   3      -0.002605      -0.001150      -0.009969
   4      -0.002349      -0.008715      -0.005168
   5       0.002665       0.008604      -0.004135
   6       0.003232       0.002876       0.008127
   7       0.003125       0.006366       0.003994
   8       0.001384      -0.002698       0.001944
   9      -0.001296      -0.001744      -0.002639
  10      -0.006008       0.001949      -0.009218
  11       0.005495      -0.002561       0.006269
---------------------------------------------------
 Number of fixed atoms: 0
 Gradient time:  CPU 83.59 s  wall 7.30 s
 ######################################################
 ######################################################
 # Starting finite difference calculation for IDERIV  #
 Finite diff step size:  1.88973e-03 a.u.
 ----------------------------------------------------------------
             Standard Nuclear Orientation (Angstroms)
    I     Atom           X                Y                Z
 ----------------------------------------------------------------
    1      C       2.0116176000    -0.3471794000    -1.8921415000
    2      C       0.5543104000    -0.7716087000    -2.0637551000
    3      O      -0.2662397000     0.3560460000    -2.2718073000
    4      O       0.1558191000    -1.5680935000    -0.9794623000
    5      O       2.4568919000     0.6811260000    -2.3616470000
    6      H      -0.1005869000     0.9555594000    -1.5193255000
    7      H       0.4073335000    -0.9920208000    -0.2058774000
    8      H       2.6492666000    -1.0722381000    -1.3556736000
    9      H       0.4786535000    -1.3843432000    -2.9695400000
   10      O       1.0821113000     0.4839904000     0.4068300000
   11      O       1.9582760000     0.1132443000     1.3378872000
 ----------------------------------------------------------------
 Nuclear Repulsion Energy =         311.23390789 hartrees
 There are       29 alpha and       28 beta electrons
 Discretize the solute cavity surface with Lebedev spheres
	Using 110 Lebedev grid points for each H atom
	Using 194 Lebedev grid points for other atoms
	Atomic van der Waals radii will be scaled by 1.20
 Remove points where switching function is < 1.0e-08
 Keep 1002 surface tesserae and discard 796 interior tesserae
 Molecular Surface Area = 118.921 Angst**2

                       Distance Matrix (Angstroms)
             C (  1)   C (  2)   O (  3)   O (  4)   O (  5)   H (  6)
   C (  2)  1.527526
   O (  3)  2.413981  1.410033
   O (  4)  2.401583  1.403166  2.355972
   O (  5)  1.214955  2.412259  2.743938  3.502051
   H (  6)  2.509488  1.925722  0.976261  2.593457  2.706569
   H (  7)  2.415168  1.876671  2.557157  0.996771  3.412836  2.403372
   H (  8)  1.104583  2.231726  3.373348  2.569959  2.030585  3.420590
   H (  9)  2.141606  1.096181  2.017586  2.024449  2.923889  2.813145
   O ( 10)  2.615358  2.821151  3.001586  2.644026  3.097313  2.308945
   O ( 11)  3.263115  3.784872  4.247036  3.383173  3.775932  3.621060
             H (  7)   H (  8)   H (  9)   O ( 10)
   H (  8)  2.520859
   H (  9)  2.792281  2.722781
   O ( 10)  1.734746  2.825640  3.905727
   O ( 11)  2.451580  3.022930  4.794370  1.331159
 
 Requested basis set is 6-311++G(2df,2p)
 There are 80 shells and 278 basis functions
 A cutoff of  1.0D-11 yielded   2968 shell pairs
 There are     35729 function pairs (     45065 Cartesian)
 Smallest overlap matrix eigenvalue = 5.94E-05
 Guess MOs from SCF MO coefficient file

 -----------------------------------------------------------------------
  General SCF calculation program by
  Eric Jon Sundstrom, Paul Horn, Yuezhi Mao, Dmitri Zuev, Alec White,
  David Stuck, Shaama M.S., Shane Yost, Joonho Lee, David Small,
  Daniel Levine, Susi Lehtola, Hugh Burton, Evgeny Epifanovsky,
  Bang C. Huynh
 -----------------------------------------------------------------------
 Exchange:     0.1500 Hartree-Fock + 1.0000 wB97M-V + LR-HF
 Correlation:  1.0000 wB97M-V
 Using SG-2 standard quadrature grid
 Nonlocal Correlation:  VV10 with C = 0.0100 and b = 6.00 and scale = 1.00000
 Grid used for NLC:  SG-1 standard quadrature
 
 Citation of the SMD model:
 Marenich, A.V.; Cramer, C.J.; Truhlar, D.G.
 J. Phys. Chem. B 2009, 113, 6378-6396.
 iSolventCode=           1
 Solvent: water                                                           
 
 vradii
            1           2           3           4           5           6
    1   1.8500000   1.8500000   1.5200000   1.5200000   1.5200000   1.2000000
            7           8           9          10          11
    1   1.2000000   1.2000000   1.2000000   1.5200000   1.5200000
 -------------------------------------------------------
 OpenMP BLAS3 based DFT computing Module                
 Release: version 1.0, May 2013, Q-Chem Inc. Pittsburgh 
 -------------------------------------------------------
 A unrestricted SCF calculation will be
 performed using Roothaan-Hall, DIIS, GDM
 SCF converges when RMS gradient is below 1.0e-06
 ---------------------------------------
  Cycle       Energy         DIIS error
 ---------------------------------------
    1    -454.6760982148      2.66e-04  Roothaan Step
 ---------------------------------------
  Cycle       Energy         DIIS error
 ---------------------------------------
    1    -454.7830722054      3.21e-04  
    2    -454.7859630903      3.50e-04  Done DIIS. Switching to GDM
 ---------------------------------------
  Cycle       Energy        RMS Gradient
 ---------------------------------------
    1    -454.7859630903      1.73e-02   Normal BFGS step
    2    -454.7838349788      3.24e-02  Line search: overstep
    3    -454.7889657587      4.54e-03   Normal BFGS step
    4    -454.7890910545      1.56e-03   Normal BFGS step
    5    -454.7891388024      1.77e-03   Normal BFGS step
    6    -454.7891437623      3.24e-04   Normal BFGS step
    7    -454.7891464760      3.83e-04   Normal BFGS step
    8    -454.7891469241      2.89e-04   Normal BFGS step
    9    -454.7891471604      1.07e-04   Normal BFGS step
   10    -454.7891471998      2.85e-05   Normal BFGS step
   11    -454.7891472112      1.60e-05   Normal BFGS step
   12    -454.7891472126      1.71e-05   Normal BFGS step
   13    -454.7891472134      1.93e-05   Normal BFGS step
   14    -454.7891472146      2.07e-05   Normal BFGS step
   15    -454.7891472172      2.20e-05   Normal BFGS step
   16    -454.7891472215      2.01e-05   Normal BFGS step
   17    -454.7891472269      1.67e-05   Normal BFGS step
   18    -454.7891472299      8.24e-06   Normal BFGS step
   19    -454.7891472305      1.50e-06   Normal BFGS step
   20    -454.7891472307      7.87e-07  Convergence criterion met
 ---------------------------------------
 SCF time:   CPU 813.62s  wall 55.00s 
<S^2> =          0.754891187
(3)  G-ENP(liq) elect-nuc-pol free energy of system     -454.789147231 a.u.
(4)  G-CDS(liq) cavity-dispersion-solvent structure 
     free energy                                                2.7572 kcal/mol
(6)  G-S(liq) free energy of system                     -454.784753395 a.u.
 SCF   energy in the final basis set =     -454.7847533948
 Total energy in the final basis set =     -454.7847533948
 
 --------------------------------------------------------------
 
                    Orbital Energies (a.u.)
 --------------------------------------------------------------
 
 Alpha MOs
 -- Occupied --
-19.3535 -19.3520 -19.3469 -19.3456 -19.3343 -10.4458 -10.4398  -1.2289
 -1.2055  -1.1797  -1.1285  -0.8837  -0.8286  -0.7226  -0.6396  -0.6235
 -0.5914  -0.5770  -0.5429  -0.5343  -0.5143  -0.5016  -0.4899  -0.4668
 -0.4390  -0.4089  -0.3655  -0.3382  -0.3088
 -- Virtual --
  0.0359   0.0447   0.0522   0.0574   0.0669   0.0942   0.1115   0.1122
  0.1150   0.1367   0.1612   0.1680   0.1759   0.1908   0.2073   0.2279
  0.2371   0.2413   0.2539   0.2676   0.2725   0.2818   0.3041   0.3071
  0.3132   0.3165   0.3258   0.3356   0.3391   0.3441   0.3493   0.3560
  0.3750   0.3761   0.3885   0.4119   0.4223   0.4426   0.4583   0.4727
  0.5093   0.5264   0.5794   0.6052   0.6117   0.6272   0.6326   0.6591
  0.6663   0.6811   0.7151   0.7576   0.7867   0.8082   0.8176   0.8350
  0.9014   0.9409   0.9690   1.0085   1.0468   1.0609   1.0824   1.0950
  1.1196   1.1252   1.1316   1.1501   1.1570   1.1764   1.1830   1.2019
  1.2136   1.2272   1.2324   1.2374   1.2421   1.2867   1.3126   1.3448
  1.3551   1.3907   1.4009   1.4227   1.4464   1.4544   1.4744   1.4978
  1.5099   1.5257   1.5507   1.5788   1.5972   1.6192   1.6443   1.6784
  1.7003   1.7320   1.7841   1.8193   1.8421   1.8651   1.9230   1.9549
  2.0005   2.0471   2.0978   2.1826   2.2049   2.2141   2.2503   2.2946
  2.3175   2.3561   2.3875   2.4317   2.4500   2.4894   2.5688   2.5872
  2.6208   2.6800   2.7432   2.8460   2.8764   2.9143   2.9717   3.0086
  3.0796   3.1084   3.1481   3.2346   3.2478   3.2682   3.3018   3.3952
  3.4139   3.4355   3.4924   3.5204   3.5687   3.5973   3.6215   3.6543
  3.6902   3.7726   3.8178   3.8380   3.8773   3.9094   3.9265   3.9612
  3.9984   4.1325   4.1575   4.2137   4.2415   4.2524   4.2561   4.3266
  4.4125   4.4393   4.5066   4.6026   4.6542   4.6626   4.7218   4.7937
  4.8047   4.8356   5.0945   5.1115   5.1226   5.1368   5.1678   5.1707
  5.2044   5.2070   5.2224   5.2338   5.2348   5.2446   5.2515   5.2643
  5.2812   5.3030   5.3383   5.3544   5.3677   5.3852   5.4259   5.4500
  5.4875   5.5112   5.5391   5.5515   5.5659   5.6058   5.6151   5.6187
  5.6367   5.7370   5.7829   5.8276   5.9508   6.0692   6.1695   6.3784
  6.4229   6.4570   6.5456   6.6923   6.7544   6.8145   6.8533   6.9429
  6.9475   6.9616   7.0008   7.0312   7.0810   7.1107   7.1314   7.1559
  7.1688   7.2393   7.2403   7.2796   7.3541   7.3857   7.4266   7.4464
  7.4804   7.5057   7.5436   7.6189   7.7110   7.7521   7.8300   7.8735
  7.9697   8.0203  24.7499  24.9487  50.4448  50.5161  50.5776  50.6370
 50.7114
 
 Beta MOs
 -- Occupied --
-19.3469 -19.3454 -19.3402 -19.3367 -19.3344 -10.4458 -10.4398  -1.2092
 -1.1961  -1.1794  -1.1285  -0.8424  -0.8285  -0.7219  -0.6390  -0.6232
 -0.5903  -0.5765  -0.5178  -0.5112  -0.5041  -0.4866  -0.4629  -0.4440
 -0.4385  -0.4089  -0.3652  -0.2898
 -- Virtual --
  0.0154   0.0366   0.0472   0.0541   0.0582   0.0684   0.0947   0.1119
  0.1131   0.1156   0.1372   0.1638   0.1682   0.1774   0.1926   0.2087
  0.2306   0.2411   0.2436   0.2557   0.2692   0.2735   0.2834   0.3070
  0.3116   0.3157   0.3221   0.3268   0.3387   0.3407   0.3477   0.3496
  0.3570   0.3755   0.3794   0.3897   0.4127   0.4237   0.4430   0.4599
  0.4740   0.5106   0.5271   0.5803   0.6065   0.6119   0.6272   0.6330
  0.6593   0.6665   0.6812   0.7164   0.7587   0.7868   0.8090   0.8184
  0.8351   0.9020   0.9439   0.9697   1.0097   1.0476   1.0625   1.0872
  1.0997   1.1244   1.1303   1.1366   1.1551   1.1585   1.1776   1.1981
  1.2027   1.2203   1.2297   1.2333   1.2411   1.2624   1.2900   1.3197
  1.3466   1.3566   1.3944   1.4083   1.4274   1.4493   1.4628   1.4800
  1.5015   1.5173   1.5269   1.5582   1.5812   1.6005   1.6349   1.6566
  1.6941   1.7074   1.7376   1.7978   1.8201   1.8514   1.8692   1.9267
  1.9578   2.0034   2.0518   2.1024   2.1847   2.2105   2.2206   2.2564
  2.2995   2.3345   2.3626   2.3929   2.4326   2.4522   2.4924   2.5695
  2.5876   2.6209   2.6807   2.7524   2.8466   2.8764   2.9149   2.9718
  3.0085   3.0797   3.1085   3.1480   3.2346   3.2479   3.2681   3.3018
  3.3952   3.4140   3.4356   3.4923   3.5204   3.5688   3.5972   3.6215
  3.6543   3.6901   3.7725   3.8178   3.8380   3.8773   3.9093   3.9266
  3.9613   3.9985   4.1326   4.1577   4.2137   4.2417   4.2526   4.2562
  4.3267   4.4128   4.4396   4.5068   4.6348   4.6614   4.6665   4.7256
  4.8199   4.8266   4.8523   5.1300   5.1371   5.1663   5.1715   5.1853
  5.1955   5.2078   5.2135   5.2367   5.2498   5.2567   5.2661   5.2717
  5.2885   5.2994   5.3247   5.3481   5.3674   5.3686   5.3905   5.4270
  5.4646   5.4880   5.5138   5.5419   5.5523   5.5679   5.6125   5.6250
  5.6422   5.6517   5.7372   5.7830   5.8281   5.9510   6.0695   6.1696
  6.3791   6.4672   6.4681   6.5467   6.6926   6.7555   6.8807   6.9240
  6.9493   6.9894   6.9986   7.0224   7.0628   7.0838   7.1335   7.1553
  7.1690   7.1797   7.2409   7.2538   7.2856   7.3570   7.3903   7.4412
  7.4811   7.4904   7.5073   7.5510   7.6211   7.7126   7.7528   7.8303
  7.8735   7.9905   8.0353  24.7499  24.9486  50.4559  50.5259  50.5777
 50.6377  50.7115
 --------------------------------------------------------------
 
          Ground-State Mulliken Net Atomic Charges

     Atom                 Charge (a.u.)    Spin (a.u.)
  --------------------------------------------------------
      1 C                     0.111205       0.001357
      2 C                    -0.116100      -0.002398
      3 O                    -0.432430      -0.000413
      4 O                    -0.418731      -0.000291
      5 O                    -0.386618       0.006923
      6 H                     0.341897       0.000641
      7 H                     0.303527      -0.001683
      8 H                     0.225798      -0.000856
      9 H                     0.202885       0.000756
     10 O                    -0.363200       0.456943
     11 O                    -0.468233       0.539020
  --------------------------------------------------------
  Sum of atomic charges =    -1.000000
  Sum of spin   charges =     1.000000

 -----------------------------------------------------------------
                    Cartesian Multipole Moments
 -----------------------------------------------------------------
    Charge (ESU x 10^10)
                -4.8032
    Dipole Moment (Debye)
         X      -6.1219      Y      -2.1291      Z       0.2176
       Tot       6.4852
    Quadrupole Moments (Debye-Ang)
        XX     -59.5442     XY      -9.0393     YY     -48.0522
        XZ      -4.0860     YZ       5.6482     ZZ     -57.3889
    Octopole Moments (Debye-Ang^2)
       XXX    -180.1238    XXY     -12.0705    XYY     -51.2998
       YYY      30.1724    XXZ      52.2363    XYZ      14.3365
       YYZ      47.6535    XZZ     -68.5456    YZZ     -19.6148
       ZZZ     156.1159
    Hexadecapole Moments (Debye-Ang^3)
      XXXX    -700.4206   XXXY     -60.2550   XXYY    -142.0515
      XYYY     -17.4851   YYYY    -224.2253   XXXZ     147.7308
      XXYZ      22.8153   XYYZ      42.4171   YYYZ     -39.2709
      XXZZ    -312.6688   XYZZ     -42.6243   YYZZ    -168.7865
      XZZZ     138.1942   YZZZ      39.5592   ZZZZ    -883.0210
 -----------------------------------------------------------------
 Calculating analytic gradient of the SCF energy
 Gradient of CDS energy
            1           2           3           4           5           6
    1   0.0016381  -0.0027322   0.0011671   0.0011276  -0.0006038  -0.0003028
    2   0.0014700  -0.0010697  -0.0015330   0.0022167  -0.0011476   0.0003655
    3  -0.0010694   0.0022760   0.0003382  -0.0029320   0.0005783   0.0000847
            7           8           9          10          11
    1  -0.0001776  -0.0001567  -0.0000703   0.0001205  -0.0000097
    2  -0.0001474  -0.0001050  -0.0000650  -0.0000713   0.0000868
    3   0.0003331   0.0003113  -0.0001049   0.0000962   0.0000884
 Gradient of SCF Energy
            1           2           3           4           5           6
    1   0.0319678   0.0018424  -0.0053586  -0.0035272  -0.0074613  -0.0022960
    2   0.0105475  -0.0167276   0.0211129  -0.0058624  -0.0163652  -0.0147741
    3   0.0098409  -0.0191370   0.0053749   0.0247965   0.0084663  -0.0133470
            7           8           9          10          11
    1  -0.0015468  -0.0178685   0.0042698  -0.0170255   0.0170040
    2  -0.0046252   0.0113493   0.0139171   0.0059684  -0.0045406
    3  -0.0207004  -0.0179982   0.0211125  -0.0180220   0.0196136
 Max gradient component =       3.197E-02
 RMS gradient           =       1.464E-02
 Computing fast CPCM-SWIG gradient
 Updating gradient with PCM contributions...
 -- total gradient after adding PCM contribution --
---------------------------------------------------
  Atom         X              Y              Z     
---------------------------------------------------
   1      -0.002935      -0.004064       0.003729
   2       0.000000       0.001332       0.007098
   3      -0.002667      -0.001140      -0.009985
   4      -0.002362      -0.008727      -0.005170
   5       0.002328       0.008253      -0.003994
   6       0.003229       0.002876       0.008126
   7       0.003123       0.006361       0.003995
   8       0.001085      -0.002529       0.001804
   9      -0.001289      -0.001750      -0.002645
  10      -0.006003       0.001948      -0.009219
  11       0.005490      -0.002560       0.006262
---------------------------------------------------
 Number of fixed atoms: 0
 Gradient time:  CPU 82.73 s  wall 7.25 s
 ----------------------------------------------------------------
             Standard Nuclear Orientation (Angstroms)
    I     Atom           X                Y                Z
 ----------------------------------------------------------------
    1      C       2.0096176000    -0.3471794000    -1.8921415000
    2      C       0.5543104000    -0.7716087000    -2.0637551000
    3      O      -0.2662397000     0.3560460000    -2.2718073000
    4      O       0.1558191000    -1.5680935000    -0.9794623000
    5      O       2.4568919000     0.6811260000    -2.3616470000
    6      H      -0.1005869000     0.9555594000    -1.5193255000
    7      H       0.4073335000    -0.9920208000    -0.2058774000
    8      H       2.6492666000    -1.0722381000    -1.3556736000
    9      H       0.4786535000    -1.3843432000    -2.9695400000
   10      O       1.0821113000     0.4839904000     0.4068300000
   11      O       1.9582760000     0.1132443000     1.3378872000
 ----------------------------------------------------------------
 Nuclear Repulsion Energy =         311.25418987 hartrees
 There are       29 alpha and       28 beta electrons
 Discretize the solute cavity surface with Lebedev spheres
	Using 110 Lebedev grid points for each H atom
	Using 194 Lebedev grid points for other atoms
	Atomic van der Waals radii will be scaled by 1.20
 Remove points where switching function is < 1.0e-08
 Keep 1002 surface tesserae and discard 796 interior tesserae
 Molecular Surface Area = 118.910 Angst**2

                       Distance Matrix (Angstroms)
             C (  1)   C (  2)   O (  3)   O (  4)   O (  5)   H (  6)
   C (  2)  1.525618
   O (  3)  2.412094  1.410033
   O (  4)  2.400038  1.403166  2.355972
   O (  5)  1.215690  2.412259  2.743938  3.502051
   H (  6)  2.507804  1.925722  0.976261  2.593457  2.706569
   H (  7)  2.413840  1.876671  2.557157  0.996771  3.412836  2.403372
   H (  8)  1.105739  2.231726  3.373348  2.569959  2.030585  3.420590
   H (  9)  2.140175  1.096181  2.017586  2.024449  2.923889  2.813145
   O ( 10)  2.614647  2.821151  3.001586  2.644026  3.097313  2.308945
   O ( 11)  3.263083  3.784872  4.247036  3.383173  3.775932  3.621060
             H (  7)   H (  8)   H (  9)   O ( 10)
   H (  8)  2.520859
   H (  9)  2.792281  2.722781
   O ( 10)  1.734746  2.825640  3.905727
   O ( 11)  2.451580  3.022930  4.794370  1.331159
 
 Requested basis set is 6-311++G(2df,2p)
 There are 80 shells and 278 basis functions
 A cutoff of  1.0D-11 yielded   2968 shell pairs
 There are     35729 function pairs (     45065 Cartesian)
 Smallest overlap matrix eigenvalue = 5.91E-05
 Guess MOs from SCF MO coefficient file

 -----------------------------------------------------------------------
  General SCF calculation program by
  Eric Jon Sundstrom, Paul Horn, Yuezhi Mao, Dmitri Zuev, Alec White,
  David Stuck, Shaama M.S., Shane Yost, Joonho Lee, David Small,
  Daniel Levine, Susi Lehtola, Hugh Burton, Evgeny Epifanovsky,
  Bang C. Huynh
 -----------------------------------------------------------------------
 Exchange:     0.1500 Hartree-Fock + 1.0000 wB97M-V + LR-HF
 Correlation:  1.0000 wB97M-V
 Using SG-2 standard quadrature grid
 Nonlocal Correlation:  VV10 with C = 0.0100 and b = 6.00 and scale = 1.00000
 Grid used for NLC:  SG-1 standard quadrature
 
 Citation of the SMD model:
 Marenich, A.V.; Cramer, C.J.; Truhlar, D.G.
 J. Phys. Chem. B 2009, 113, 6378-6396.
 iSolventCode=           1
 Solvent: water                                                           
 
 vradii
            1           2           3           4           5           6
    1   1.8500000   1.8500000   1.5200000   1.5200000   1.5200000   1.2000000
            7           8           9          10          11
    1   1.2000000   1.2000000   1.2000000   1.5200000   1.5200000
 -------------------------------------------------------
 OpenMP BLAS3 based DFT computing Module                
 Release: version 1.0, May 2013, Q-Chem Inc. Pittsburgh 
 -------------------------------------------------------
 A unrestricted SCF calculation will be
 performed using Roothaan-Hall, DIIS, GDM
 SCF converges when RMS gradient is below 1.0e-06
 ---------------------------------------
  Cycle       Energy         DIIS error
 ---------------------------------------
    1    -454.6760591858      2.66e-04  Roothaan Step
 ---------------------------------------
  Cycle       Energy         DIIS error
 ---------------------------------------
    1    -454.7830317923      3.22e-04  
    2    -454.7859083744      3.52e-04  Done DIIS. Switching to GDM
 ---------------------------------------
  Cycle       Energy        RMS Gradient
 ---------------------------------------
    1    -454.7859083744      1.72e-02   Normal BFGS step
    2    -454.7837505617      3.22e-02  Line search: overstep
    3    -454.7889445099      4.53e-03   Normal BFGS step
    4    -454.7890697598      1.57e-03   Normal BFGS step
    5    -454.7891175810      1.77e-03   Normal BFGS step
    6    -454.7891225325      3.26e-04   Normal BFGS step
    7    -454.7891252514      3.81e-04   Normal BFGS step
    8    -454.7891256950      2.88e-04   Normal BFGS step
    9    -454.7891259288      1.07e-04   Normal BFGS step
   10    -454.7891259679      2.42e-05   Normal BFGS step
   11    -454.7891259788      1.21e-05   Normal BFGS step
   12    -454.7891259797      3.83e-06   Normal BFGS step
   13    -454.7891259800      1.09e-06   Normal BFGS step
   14    -454.7891259801      1.18e-06   Normal BFGS step
   15    -454.7891259801      1.25e-06   Normal BFGS step
   16    -454.7891259802      1.33e-06   Normal BFGS step
   17    -454.7891259804      1.42e-06   Normal BFGS step
   18    -454.7891259804      1.40e-06   Normal BFGS step
   19    -454.7891259804      1.14e-06   Normal BFGS step
  GDM::WARNING energy changes are now smaller than effective accuracy.
  GDM::        calculation will continue, but THRESH should be increased
  GDM::        or SCF_CONVERGENCE decreased. 
  GDM::        effective_thresh = 1.60e-09
   20    -454.7891259800      8.31e-07  Convergence criterion met
 ---------------------------------------
 SCF time:   CPU 794.58s  wall 54.00s 
<S^2> =          0.754891537
(3)  G-ENP(liq) elect-nuc-pol free energy of system     -454.789125980 a.u.
(4)  G-CDS(liq) cavity-dispersion-solvent structure 
     free energy                                                2.7533 kcal/mol
(6)  G-S(liq) free energy of system                     -454.784738338 a.u.
 SCF   energy in the final basis set =     -454.7847383380
 Total energy in the final basis set =     -454.7847383380
 
 --------------------------------------------------------------
 
                    Orbital Energies (a.u.)
 --------------------------------------------------------------
 
 Alpha MOs
 -- Occupied --
-19.3536 -19.3520 -19.3469 -19.3456 -19.3344 -10.4458 -10.4399  -1.2289
 -1.2054  -1.1794  -1.1286  -0.8838  -0.8291  -0.7226  -0.6397  -0.6235
 -0.5915  -0.5769  -0.5429  -0.5343  -0.5143  -0.5015  -0.4899  -0.4668
 -0.4389  -0.4089  -0.3658  -0.3383  -0.3088
 -- Virtual --
  0.0358   0.0446   0.0522   0.0573   0.0669   0.0942   0.1115   0.1122
  0.1150   0.1367   0.1612   0.1680   0.1759   0.1908   0.2073   0.2278
  0.2371   0.2413   0.2538   0.2675   0.2726   0.2818   0.3041   0.3072
  0.3132   0.3165   0.3257   0.3356   0.3393   0.3441   0.3493   0.3561
  0.3750   0.3761   0.3885   0.4122   0.4223   0.4426   0.4583   0.4728
  0.5094   0.5264   0.5793   0.6050   0.6117   0.6272   0.6326   0.6590
  0.6664   0.6810   0.7151   0.7576   0.7868   0.8082   0.8173   0.8349
  0.9015   0.9410   0.9690   1.0086   1.0466   1.0610   1.0825   1.0952
  1.1196   1.1252   1.1316   1.1501   1.1571   1.1764   1.1830   1.2019
  1.2137   1.2273   1.2324   1.2375   1.2423   1.2867   1.3126   1.3448
  1.3553   1.3906   1.4011   1.4227   1.4465   1.4544   1.4745   1.4977
  1.5098   1.5256   1.5507   1.5787   1.5970   1.6191   1.6443   1.6783
  1.7003   1.7319   1.7841   1.8193   1.8421   1.8650   1.9232   1.9549
  2.0005   2.0476   2.0978   2.1826   2.2049   2.2140   2.2504   2.2947
  2.3176   2.3561   2.3875   2.4317   2.4500   2.4893   2.5689   2.5870
  2.6209   2.6804   2.7432   2.8461   2.8765   2.9145   2.9721   3.0085
  3.0800   3.1089   3.1483   3.2350   3.2477   3.2683   3.3023   3.3955
  3.4137   3.4350   3.4925   3.5205   3.5692   3.5973   3.6211   3.6544
  3.6899   3.7732   3.8180   3.8383   3.8771   3.9093   3.9259   3.9623
  3.9994   4.1331   4.1584   4.2138   4.2414   4.2525   4.2555   4.3269
  4.4128   4.4395   4.5075   4.6024   4.6543   4.6616   4.7227   4.7937
  4.8047   4.8356   5.0945   5.1114   5.1225   5.1365   5.1678   5.1707
  5.2044   5.2071   5.2224   5.2338   5.2348   5.2446   5.2515   5.2645
  5.2812   5.3030   5.3383   5.3542   5.3677   5.3852   5.4258   5.4500
  5.4872   5.5118   5.5388   5.5512   5.5656   5.6058   5.6151   5.6187
  5.6368   5.7369   5.7825   5.8252   5.9506   6.0690   6.1693   6.3769
  6.4229   6.4570   6.5458   6.6914   6.7529   6.8145   6.8532   6.9429
  6.9475   6.9616   7.0009   7.0311   7.0811   7.1106   7.1310   7.1556
  7.1688   7.2393   7.2403   7.2793   7.3543   7.3857   7.4266   7.4465
  7.4806   7.5055   7.5437   7.6190   7.7111   7.7519   7.8301   7.8734
  7.9697   8.0203  24.7502  24.9488  50.4448  50.5161  50.5777  50.6371
 50.7105
 
 Beta MOs
 -- Occupied --
-19.3469 -19.3454 -19.3402 -19.3367 -19.3344 -10.4458 -10.4400  -1.2092
 -1.1960  -1.1791  -1.1286  -0.8424  -0.8289  -0.7219  -0.6391  -0.6232
 -0.5904  -0.5764  -0.5178  -0.5111  -0.5041  -0.4867  -0.4628  -0.4440
 -0.4384  -0.4089  -0.3655  -0.2899
 -- Virtual --
  0.0153   0.0366   0.0471   0.0541   0.0581   0.0684   0.0947   0.1119
  0.1131   0.1156   0.1372   0.1638   0.1682   0.1774   0.1926   0.2087
  0.2306   0.2411   0.2436   0.2556   0.2692   0.2736   0.2834   0.3070
  0.3116   0.3158   0.3221   0.3267   0.3387   0.3408   0.3477   0.3496
  0.3571   0.3755   0.3794   0.3897   0.4129   0.4236   0.4430   0.4599
  0.4741   0.5107   0.5270   0.5802   0.6063   0.6119   0.6272   0.6330
  0.6592   0.6666   0.6812   0.7164   0.7587   0.7869   0.8089   0.8181
  0.8350   0.9021   0.9440   0.9697   1.0098   1.0475   1.0626   1.0873
  1.0999   1.1244   1.1303   1.1366   1.1552   1.1586   1.1775   1.1982
  1.2028   1.2203   1.2298   1.2333   1.2413   1.2624   1.2899   1.3197
  1.3466   1.3567   1.3943   1.4084   1.4275   1.4494   1.4627   1.4800
  1.5013   1.5173   1.5268   1.5582   1.5811   1.6003   1.6349   1.6566
  1.6941   1.7074   1.7375   1.7978   1.8201   1.8515   1.8692   1.9268
  1.9579   2.0034   2.0522   2.1023   2.1847   2.2104   2.2206   2.2565
  2.2997   2.3345   2.3626   2.3929   2.4326   2.4521   2.4924   2.5696
  2.5875   2.6210   2.6811   2.7523   2.8467   2.8765   2.9151   2.9723
  3.0084   3.0800   3.1090   3.1482   3.2350   3.2477   3.2682   3.3023
  3.3955   3.4138   3.4351   3.4924   3.5206   3.5692   3.5973   3.6210
  3.6544   3.6899   3.7731   3.8180   3.8383   3.8772   3.9093   3.9260
  3.9623   3.9994   4.1332   4.1586   4.2138   4.2416   4.2527   4.2555
  4.3270   4.4131   4.4398   4.5078   4.6345   4.6615   4.6658   4.7264
  4.8200   4.8266   4.8523   5.1296   5.1371   5.1663   5.1715   5.1853
  5.1955   5.2079   5.2136   5.2366   5.2500   5.2567   5.2661   5.2717
  5.2885   5.2995   5.3247   5.3480   5.3673   5.3684   5.3905   5.4269
  5.4646   5.4877   5.5144   5.5416   5.5520   5.5677   5.6125   5.6250
  5.6422   5.6517   5.7371   5.7826   5.8257   5.9509   6.0693   6.1694
  6.3776   6.4672   6.4681   6.5469   6.6916   6.7540   6.8806   6.9239
  6.9493   6.9894   6.9986   7.0224   7.0626   7.0839   7.1330   7.1552
  7.1688   7.1797   7.2409   7.2538   7.2853   7.3572   7.3902   7.4413
  7.4813   7.4903   7.5071   7.5511   7.6211   7.7128   7.7526   7.8303
  7.8735   7.9905   8.0353  24.7502  24.9488  50.4559  50.5258  50.5777
 50.6377  50.7107
 --------------------------------------------------------------
 
          Ground-State Mulliken Net Atomic Charges

     Atom                 Charge (a.u.)    Spin (a.u.)
  --------------------------------------------------------
      1 C                     0.111637       0.001392
      2 C                    -0.115969      -0.002454
      3 O                    -0.432345      -0.000412
      4 O                    -0.418625      -0.000277
      5 O                    -0.387508       0.006942
      6 H                     0.341900       0.000641
      7 H                     0.303518      -0.001684
      8 H                     0.225525      -0.000853
      9 H                     0.203039       0.000754
     10 O                    -0.363078       0.456873
     11 O                    -0.468095       0.539078
  --------------------------------------------------------
  Sum of atomic charges =    -1.000000
  Sum of spin   charges =     1.000000

 -----------------------------------------------------------------
                    Cartesian Multipole Moments
 -----------------------------------------------------------------
    Charge (ESU x 10^10)
                -4.8032
    Dipole Moment (Debye)
         X      -6.1318      Y      -2.1326      Z       0.2193
       Tot       6.4958
    Quadrupole Moments (Debye-Ang)
        XX     -59.5761     XY      -9.0376     YY     -48.0505
        XZ      -4.0617     YZ       5.6574     ZZ     -57.3890
    Octopole Moments (Debye-Ang^2)
       XXX    -180.1932    XXY     -12.0616    XYY     -51.3015
       YYY      30.1616    XXZ      52.3121    XYZ      14.3400
       YYZ      47.6526    XZZ     -68.5891    YZZ     -19.6478
       ZZZ     156.1178
    Hexadecapole Moments (Debye-Ang^3)
      XXXX    -700.4720   XXXY     -60.2296   XXYY    -142.0381
      XYYY     -17.4882   YYYY    -224.2164   XXXZ     147.9053
      XXYZ      22.8128   XYYZ      42.4267   YYYZ     -39.2415
      XXZZ    -312.7952   XYZZ     -42.6427   YYZZ    -168.7742
      XZZZ     138.2987   YZZZ      39.6575   ZZZZ    -883.0202
 -----------------------------------------------------------------
 Calculating analytic gradient of the SCF energy
 Gradient of CDS energy
            1           2           3           4           5           6
    1   0.0016396  -0.0027298   0.0011671   0.0011275  -0.0006102  -0.0003028
    2   0.0014795  -0.0010688  -0.0015331   0.0022166  -0.0011565   0.0003655
    3  -0.0010741   0.0022768   0.0003380  -0.0029321   0.0005824   0.0000847
            7           8           9          10          11
    1  -0.0001776  -0.0001546  -0.0000702   0.0001206  -0.0000096
    2  -0.0001474  -0.0001064  -0.0000651  -0.0000712   0.0000868
    3   0.0003331   0.0003118  -0.0001051   0.0000961   0.0000883
 Gradient of SCF Energy
            1           2           3           4           5           6
    1   0.0301909   0.0024799  -0.0052444  -0.0034893  -0.0069334  -0.0022991
    2   0.0101442  -0.0166458   0.0210898  -0.0058445  -0.0156781  -0.0147773
    3   0.0097492  -0.0190501   0.0053850   0.0247679   0.0081748  -0.0133354
            7           8           9          10          11
    1  -0.0015492  -0.0173883   0.0042485  -0.0170194   0.0170037
    2  -0.0046111   0.0109802   0.0139171   0.0059645  -0.0045389
    3  -0.0206954  -0.0177017   0.0211094  -0.0180158   0.0196120
 Max gradient component =       3.019E-02
 RMS gradient           =       1.443E-02
 Computing fast CPCM-SWIG gradient
 Updating gradient with PCM contributions...
 -- total gradient after adding PCM contribution --
---------------------------------------------------
  Atom         X              Y              Z     
---------------------------------------------------
   1      -0.005034      -0.004478       0.003636
   2       0.000681       0.001357       0.007126
   3      -0.002542      -0.001160      -0.009953
   4      -0.002335      -0.008704      -0.005166
   5       0.003002       0.008955      -0.004275
   6       0.003234       0.002876       0.008128
   7       0.003126       0.006370       0.003994
   8       0.001683      -0.002867       0.002084
   9      -0.001303      -0.001738      -0.002634
  10      -0.006012       0.001950      -0.009216
  11       0.005501      -0.002561       0.006276
---------------------------------------------------
 Number of fixed atoms: 0
 Gradient time:  CPU 83.60 s  wall 7.33 s
 ----------------------------------------------------------------
             Standard Nuclear Orientation (Angstroms)
    I     Atom           X                Y                Z
 ----------------------------------------------------------------
    1      C       2.0106176000    -0.3461794000    -1.8921415000
    2      C       0.5543104000    -0.7716087000    -2.0637551000
    3      O      -0.2662397000     0.3560460000    -2.2718073000
    4      O       0.1558191000    -1.5680935000    -0.9794623000
    5      O       2.4568919000     0.6811260000    -2.3616470000
    6      H      -0.1005869000     0.9555594000    -1.5193255000
    7      H       0.4073335000    -0.9920208000    -0.2058774000
    8      H       2.6492666000    -1.0722381000    -1.3556736000
    9      H       0.4786535000    -1.3843432000    -2.9695400000
   10      O       1.0821113000     0.4839904000     0.4068300000
   11      O       1.9582760000     0.1132443000     1.3378872000
 ----------------------------------------------------------------
 Nuclear Repulsion Energy =         311.25495238 hartrees
 There are       29 alpha and       28 beta electrons
 Discretize the solute cavity surface with Lebedev spheres
	Using 110 Lebedev grid points for each H atom
	Using 194 Lebedev grid points for other atoms
	Atomic van der Waals radii will be scaled by 1.20
 Remove points where switching function is < 1.0e-08
 Keep 1002 surface tesserae and discard 796 interior tesserae
 Molecular Surface Area = 118.912 Angst**2

                       Distance Matrix (Angstroms)
             C (  1)   C (  2)   O (  3)   O (  4)   O (  5)   H (  6)
   C (  2)  1.526850
   O (  3)  2.412747  1.410033
   O (  4)  2.401319  1.403166  2.355972
   O (  5)  1.214476  2.412259  2.743938  3.502051
   H (  6)  2.508127  1.925722  0.976261  2.593457  2.706569
   H (  7)  2.414771  1.876671  2.557157  0.996771  3.412836  2.403372
   H (  8)  1.105817  2.231726  3.373348  2.569959  2.030585  3.420590
   H (  9)  2.141375  1.096181  2.017586  2.024449  2.923889  2.813145
   O ( 10)  2.614685  2.821151  3.001586  2.644026  3.097313  2.308945
   O ( 11)  3.262958  3.784872  4.247036  3.383173  3.775932  3.621060
             H (  7)   H (  8)   H (  9)   O ( 10)
   H (  8)  2.520859
   H (  9)  2.792281  2.722781
   O ( 10)  1.734746  2.825640  3.905727
   O ( 11)  2.451580  3.022930  4.794370  1.331159
 
 Requested basis set is 6-311++G(2df,2p)
 There are 80 shells and 278 basis functions
 A cutoff of  1.0D-11 yielded   2968 shell pairs
 There are     35729 function pairs (     45065 Cartesian)
 Smallest overlap matrix eigenvalue = 5.93E-05
 Guess MOs from SCF MO coefficient file

 -----------------------------------------------------------------------
  General SCF calculation program by
  Eric Jon Sundstrom, Paul Horn, Yuezhi Mao, Dmitri Zuev, Alec White,
  David Stuck, Shaama M.S., Shane Yost, Joonho Lee, David Small,
  Daniel Levine, Susi Lehtola, Hugh Burton, Evgeny Epifanovsky,
  Bang C. Huynh
 -----------------------------------------------------------------------
 Exchange:     0.1500 Hartree-Fock + 1.0000 wB97M-V + LR-HF
 Correlation:  1.0000 wB97M-V
 Using SG-2 standard quadrature grid
 Nonlocal Correlation:  VV10 with C = 0.0100 and b = 6.00 and scale = 1.00000
 Grid used for NLC:  SG-1 standard quadrature
 
 Citation of the SMD model:
 Marenich, A.V.; Cramer, C.J.; Truhlar, D.G.
 J. Phys. Chem. B 2009, 113, 6378-6396.
 iSolventCode=           1
 Solvent: water                                                           
 
 vradii
            1           2           3           4           5           6
    1   1.8500000   1.8500000   1.5200000   1.5200000   1.5200000   1.2000000
            7           8           9          10          11
    1   1.2000000   1.2000000   1.2000000   1.5200000   1.5200000
 -------------------------------------------------------
 OpenMP BLAS3 based DFT computing Module                
 Release: version 1.0, May 2013, Q-Chem Inc. Pittsburgh 
 -------------------------------------------------------
 A unrestricted SCF calculation will be
 performed using Roothaan-Hall, DIIS, GDM
 SCF converges when RMS gradient is below 1.0e-06
 ---------------------------------------
  Cycle       Energy         DIIS error
 ---------------------------------------
    1    -454.6761060427      2.66e-04  Roothaan Step
 ---------------------------------------
  Cycle       Energy         DIIS error
 ---------------------------------------
    1    -454.7830940567      3.21e-04  
    2    -454.7859934671      3.49e-04  Done DIIS. Switching to GDM
 ---------------------------------------
  Cycle       Energy        RMS Gradient
 ---------------------------------------
    1    -454.7859934671      1.73e-02   Normal BFGS step
    2    -454.7838897405      3.25e-02  Line search: overstep
    3    -454.7889660127      4.55e-03   Normal BFGS step
    4    -454.7890909739      1.55e-03   Normal BFGS step
    5    -454.7891386923      1.76e-03   Normal BFGS step
    6    -454.7891436123      3.23e-04   Normal BFGS step
    7    -454.7891463153      3.83e-04   Normal BFGS step
    8    -454.7891467635      2.89e-04   Normal BFGS step
    9    -454.7891469994      1.06e-04   Normal BFGS step
   10    -454.7891470385      2.81e-05   Normal BFGS step
   11    -454.7891470498      1.57e-05   Normal BFGS step
   12    -454.7891470511      1.59e-05   Normal BFGS step
   13    -454.7891470519      1.79e-05   Normal BFGS step
   14    -454.7891470528      1.91e-05   Normal BFGS step
   15    -454.7891470550      2.03e-05   Normal BFGS step
   16    -454.7891470587      1.88e-05   Normal BFGS step
   17    -454.7891470635      1.56e-05   Normal BFGS step
   18    -454.7891470662      8.11e-06   Normal BFGS step
   19    -454.7891470669      1.48e-06   Normal BFGS step
   20    -454.7891470670      7.61e-07  Convergence criterion met
 ---------------------------------------
 SCF time:   CPU 808.71s  wall 54.00s 
<S^2> =          0.754890918
(3)  G-ENP(liq) elect-nuc-pol free energy of system     -454.789147067 a.u.
(4)  G-CDS(liq) cavity-dispersion-solvent structure 
     free energy                                                2.7570 kcal/mol
(6)  G-S(liq) free energy of system                     -454.784753549 a.u.
 SCF   energy in the final basis set =     -454.7847535491
 Total energy in the final basis set =     -454.7847535491
 
 --------------------------------------------------------------
 
                    Orbital Energies (a.u.)
 --------------------------------------------------------------
 
 Alpha MOs
 -- Occupied --
-19.3536 -19.3520 -19.3469 -19.3456 -19.3344 -10.4458 -10.4398  -1.2289
 -1.2056  -1.1799  -1.1285  -0.8838  -0.8287  -0.7225  -0.6396  -0.6234
 -0.5914  -0.5771  -0.5429  -0.5343  -0.5143  -0.5017  -0.4899  -0.4669
 -0.4390  -0.4089  -0.3655  -0.3382  -0.3088
 -- Virtual --
  0.0359   0.0447   0.0522   0.0574   0.0669   0.0942   0.1115   0.1122
  0.1150   0.1367   0.1612   0.1680   0.1759   0.1908   0.2073   0.2279
  0.2371   0.2412   0.2539   0.2676   0.2725   0.2818   0.3041   0.3072
  0.3132   0.3165   0.3257   0.3356   0.3392   0.3441   0.3493   0.3561
  0.3750   0.3761   0.3885   0.4120   0.4223   0.4426   0.4583   0.4727
  0.5094   0.5265   0.5792   0.6051   0.6117   0.6272   0.6325   0.6592
  0.6664   0.6811   0.7151   0.7575   0.7869   0.8082   0.8179   0.8350
  0.9016   0.9409   0.9691   1.0086   1.0466   1.0610   1.0824   1.0950
  1.1196   1.1252   1.1316   1.1500   1.1570   1.1763   1.1830   1.2019
  1.2137   1.2272   1.2324   1.2374   1.2422   1.2867   1.3126   1.3448
  1.3551   1.3907   1.4010   1.4226   1.4464   1.4543   1.4744   1.4977
  1.5098   1.5258   1.5507   1.5788   1.5972   1.6192   1.6444   1.6783
  1.7004   1.7322   1.7840   1.8194   1.8422   1.8651   1.9232   1.9551
  2.0004   2.0474   2.0978   2.1830   2.2051   2.2140   2.2504   2.2947
  2.3177   2.3561   2.3875   2.4317   2.4501   2.4894   2.5692   2.5876
  2.6208   2.6806   2.7432   2.8461   2.8766   2.9144   2.9717   3.0087
  3.0797   3.1086   3.1478   3.2348   3.2476   3.2685   3.3019   3.3954
  3.4140   3.4354   3.4927   3.5204   3.5688   3.5974   3.6212   3.6543
  3.6903   3.7728   3.8181   3.8381   3.8772   3.9093   3.9259   3.9617
  3.9989   4.1331   4.1574   4.2138   4.2416   4.2525   4.2552   4.3268
  4.4127   4.4395   4.5066   4.6025   4.6542   4.6615   4.7220   4.7937
  4.8048   4.8356   5.0945   5.1114   5.1225   5.1364   5.1678   5.1708
  5.2044   5.2070   5.2224   5.2339   5.2348   5.2447   5.2515   5.2645
  5.2813   5.3030   5.3383   5.3544   5.3677   5.3855   5.4259   5.4499
  5.4875   5.5112   5.5391   5.5517   5.5666   5.6059   5.6151   5.6186
  5.6367   5.7370   5.7828   5.8271   5.9507   6.0694   6.1696   6.3804
  6.4229   6.4570   6.5459   6.6927   6.7552   6.8146   6.8533   6.9430
  6.9475   6.9616   7.0010   7.0316   7.0811   7.1107   7.1316   7.1562
  7.1689   7.2395   7.2403   7.2798   7.3544   7.3858   7.4266   7.4465
  7.4806   7.5057   7.5437   7.6189   7.7111   7.7524   7.8300   7.8734
  7.9697   8.0203  24.7503  24.9492  50.4448  50.5161  50.5777  50.6371
 50.7121
 
 Beta MOs
 -- Occupied --
-19.3469 -19.3454 -19.3402 -19.3367 -19.3344 -10.4457 -10.4398  -1.2093
 -1.1961  -1.1795  -1.1285  -0.8424  -0.8286  -0.7218  -0.6390  -0.6232
 -0.5903  -0.5766  -0.5178  -0.5113  -0.5041  -0.4866  -0.4629  -0.4441
 -0.4385  -0.4089  -0.3652  -0.2898
 -- Virtual --
  0.0154   0.0366   0.0472   0.0541   0.0582   0.0685   0.0946   0.1119
  0.1131   0.1156   0.1371   0.1638   0.1682   0.1774   0.1926   0.2087
  0.2306   0.2411   0.2436   0.2556   0.2692   0.2735   0.2834   0.3070
  0.3116   0.3158   0.3221   0.3267   0.3387   0.3408   0.3477   0.3496
  0.3571   0.3755   0.3794   0.3897   0.4128   0.4237   0.4430   0.4599
  0.4740   0.5107   0.5272   0.5801   0.6064   0.6119   0.6272   0.6330
  0.6594   0.6665   0.6812   0.7164   0.7587   0.7870   0.8090   0.8186
  0.8351   0.9022   0.9439   0.9698   1.0098   1.0475   1.0626   1.0872
  1.0997   1.1244   1.1302   1.1366   1.1551   1.1585   1.1774   1.1981
  1.2028   1.2203   1.2297   1.2333   1.2412   1.2624   1.2900   1.3197
  1.3466   1.3566   1.3943   1.4084   1.4273   1.4493   1.4627   1.4799
  1.5013   1.5173   1.5269   1.5582   1.5811   1.6004   1.6350   1.6567
  1.6941   1.7075   1.7378   1.7978   1.8202   1.8516   1.8692   1.9268
  1.9580   2.0033   2.0521   2.1024   2.1851   2.2105   2.2206   2.2565
  2.2997   2.3346   2.3626   2.3929   2.4326   2.4522   2.4925   2.5699
  2.5881   2.6210   2.6812   2.7524   2.8467   2.8766   2.9150   2.9719
  3.0085   3.0797   3.1088   3.1477   3.2347   3.2477   3.2684   3.3019
  3.3954   3.4141   3.4355   3.4927   3.5205   3.5689   3.5974   3.6212
  3.6543   3.6903   3.7728   3.8181   3.8381   3.8773   3.9092   3.9261
  3.9618   3.9989   4.1331   4.1576   4.2138   4.2418   4.2527   4.2552
  4.3269   4.4129   4.4398   4.5069   4.6345   4.6614   4.6656   4.7258
  4.8199   4.8267   4.8523   5.1294   5.1371   5.1663   5.1715   5.1853
  5.1956   5.2077   5.2136   5.2367   5.2500   5.2567   5.2661   5.2718
  5.2886   5.2995   5.3247   5.3480   5.3674   5.3686   5.3907   5.4270
  5.4644   5.4880   5.5139   5.5419   5.5525   5.5686   5.6125   5.6250
  5.6422   5.6517   5.7372   5.7829   5.8276   5.9509   6.0697   6.1697
  6.3812   6.4672   6.4681   6.5470   6.6929   6.7563   6.8807   6.9240
  6.9494   6.9894   6.9987   7.0225   7.0632   7.0839   7.1338   7.1553
  7.1691   7.1798   7.2411   7.2538   7.2858   7.3572   7.3904   7.4413
  7.4813   7.4904   7.5073   7.5511   7.6211   7.7127   7.7530   7.8303
  7.8735   7.9905   8.0353  24.7503  24.9491  50.4559  50.5259  50.5777
 50.6378  50.7122
 --------------------------------------------------------------
 
          Ground-State Mulliken Net Atomic Charges

     Atom                 Charge (a.u.)    Spin (a.u.)
  --------------------------------------------------------
      1 C                     0.111238       0.001399
      2 C                    -0.115752      -0.002431
      3 O                    -0.432430      -0.000413
      4 O                    -0.418771      -0.000282
      5 O                    -0.386494       0.006924
      6 H                     0.341883       0.000641
      7 H                     0.303530      -0.001684
      8 H                     0.225153      -0.000854
      9 H                     0.202930       0.000756
     10 O                    -0.363127       0.456882
     11 O                    -0.468160       0.539062
  --------------------------------------------------------
  Sum of atomic charges =    -1.000000
  Sum of spin   charges =     1.000000

 -----------------------------------------------------------------
                    Cartesian Multipole Moments
 -----------------------------------------------------------------
    Charge (ESU x 10^10)
                -4.8032
    Dipole Moment (Debye)
         X      -6.1252      Y      -2.1250      Z       0.2163
       Tot       6.4869
    Quadrupole Moments (Debye-Ang)
        XX     -59.5563     XY      -9.0232     YY     -48.0543
        XZ      -4.0837     YZ       5.6425     ZZ     -57.3803
    Octopole Moments (Debye-Ang^2)
       XXX    -180.1413    XXY     -12.0314    XYY     -51.3066
       YYY      30.1650    XXZ      52.2478    XYZ      14.3132
       YYZ      47.6564    XZZ     -68.5333    YZZ     -19.6144
       ZZZ     156.0843
    Hexadecapole Moments (Debye-Ang^3)
      XXXX    -700.3823   XXXY     -60.1550   XXYY    -142.0589
      XYYY     -17.4841   YYYY    -224.2147   XXXZ     147.7235
      XXYZ      22.7609   XYYZ      42.4267   YYYZ     -39.2498
      XXZZ    -312.6388   XYZZ     -42.5910   YYZZ    -168.7825
      XZZZ     138.1314   YZZZ      39.5815   ZZZZ    -882.9011
 -----------------------------------------------------------------
 Calculating analytic gradient of the SCF energy
 Gradient of CDS energy
            1           2           3           4           5           6
    1   0.0016341  -0.0027308   0.0011670   0.0011276  -0.0006027  -0.0003029
    2   0.0014656  -0.0010698  -0.0015331   0.0022166  -0.0011413   0.0003655
    3  -0.0010676   0.0022763   0.0003382  -0.0029321   0.0005759   0.0000847
            7           8           9          10          11
    1  -0.0001776  -0.0001551  -0.0000704   0.0001205  -0.0000097
    2  -0.0001474  -0.0001065  -0.0000651  -0.0000713   0.0000868
    3   0.0003331   0.0003118  -0.0001050   0.0000962   0.0000884
 Gradient of SCF Energy
            1           2           3           4           5           6
    1   0.0313070   0.0021110  -0.0052509  -0.0035254  -0.0075658  -0.0022892
    2   0.0116826  -0.0168026   0.0210899  -0.0058643  -0.0169947  -0.0147666
    3   0.0092404  -0.0191002   0.0053726   0.0248003   0.0087203  -0.0133339
            7           8           9          10          11
    1  -0.0015583  -0.0174446   0.0042357  -0.0170224   0.0170031
    2  -0.0046193   0.0109388   0.0139211   0.0059598  -0.0045447
    3  -0.0207016  -0.0177001   0.0211076  -0.0180146   0.0196093
 Max gradient component =       3.131E-02
 RMS gradient           =       1.460E-02
 Computing fast CPCM-SWIG gradient
 Updating gradient with PCM contributions...
 -- total gradient after adding PCM contribution --
---------------------------------------------------
  Atom         X              Y              Z     
---------------------------------------------------
   1      -0.003774      -0.002810       0.003146
   2       0.000311       0.001208       0.007093
   3      -0.002525      -0.001174      -0.009957
   4      -0.002395      -0.008736      -0.005145
   5       0.002316       0.007592      -0.003721
   6       0.003237       0.002879       0.008130
   7       0.003123       0.006365       0.003995
   8       0.001544      -0.002956       0.002055
   9      -0.001326      -0.001751      -0.002647
  10      -0.006006       0.001943      -0.009219
  11       0.005495      -0.002560       0.006270
---------------------------------------------------
 Number of fixed atoms: 0
 Gradient time:  CPU 84.06 s  wall 7.38 s
 ----------------------------------------------------------------
             Standard Nuclear Orientation (Angstroms)
    I     Atom           X                Y                Z
 ----------------------------------------------------------------
    1      C       2.0106176000    -0.3481794000    -1.8921415000
    2      C       0.5543104000    -0.7716087000    -2.0637551000
    3      O      -0.2662397000     0.3560460000    -2.2718073000
    4      O       0.1558191000    -1.5680935000    -0.9794623000
    5      O       2.4568919000     0.6811260000    -2.3616470000
    6      H      -0.1005869000     0.9555594000    -1.5193255000
    7      H       0.4073335000    -0.9920208000    -0.2058774000
    8      H       2.6492666000    -1.0722381000    -1.3556736000
    9      H       0.4786535000    -1.3843432000    -2.9695400000
   10      O       1.0821113000     0.4839904000     0.4068300000
   11      O       1.9582760000     0.1132443000     1.3378872000
 ----------------------------------------------------------------
 Nuclear Repulsion Energy =         311.23315028 hartrees
 There are       29 alpha and       28 beta electrons
 Discretize the solute cavity surface with Lebedev spheres
	Using 110 Lebedev grid points for each H atom
	Using 194 Lebedev grid points for other atoms
	Atomic van der Waals radii will be scaled by 1.20
 Remove points where switching function is < 1.0e-08
 Keep 1002 surface tesserae and discard 796 interior tesserae
 Molecular Surface Area = 118.919 Angst**2

                       Distance Matrix (Angstroms)
             C (  1)   C (  2)   O (  3)   O (  4)   O (  5)   H (  6)
   C (  2)  1.526294
   O (  3)  2.413329  1.410033
   O (  4)  2.400302  1.403166  2.355972
   O (  5)  1.216168  2.412259  2.743938  3.502051
   H (  6)  2.509165  1.925722  0.976261  2.593457  2.706569
   H (  7)  2.414237  1.876671  2.557157  0.996771  3.412836  2.403372
   H (  8)  1.104505  2.231726  3.373348  2.569959  2.030585  3.420590
   H (  9)  2.140406  1.096181  2.017586  2.024449  2.923889  2.813145
   O ( 10)  2.615320  2.821151  3.001586  2.644026  3.097313  2.308945
   O ( 11)  3.263240  3.784872  4.247036  3.383173  3.775932  3.621060
             H (  7)   H (  8)   H (  9)   O ( 10)
   H (  8)  2.520859
   H (  9)  2.792281  2.722781
   O ( 10)  1.734746  2.825640  3.905727
   O ( 11)  2.451580  3.022930  4.794370  1.331159
 
 Requested basis set is 6-311++G(2df,2p)
 There are 80 shells and 278 basis functions
 A cutoff of  1.0D-11 yielded   2968 shell pairs
 There are     35729 function pairs (     45065 Cartesian)
 Smallest overlap matrix eigenvalue = 5.92E-05
 Guess MOs from SCF MO coefficient file

 -----------------------------------------------------------------------
  General SCF calculation program by
  Eric Jon Sundstrom, Paul Horn, Yuezhi Mao, Dmitri Zuev, Alec White,
  David Stuck, Shaama M.S., Shane Yost, Joonho Lee, David Small,
  Daniel Levine, Susi Lehtola, Hugh Burton, Evgeny Epifanovsky,
  Bang C. Huynh
 -----------------------------------------------------------------------
 Exchange:     0.1500 Hartree-Fock + 1.0000 wB97M-V + LR-HF
 Correlation:  1.0000 wB97M-V
 Using SG-2 standard quadrature grid
 Nonlocal Correlation:  VV10 with C = 0.0100 and b = 6.00 and scale = 1.00000
 Grid used for NLC:  SG-1 standard quadrature
 
 Citation of the SMD model:
 Marenich, A.V.; Cramer, C.J.; Truhlar, D.G.
 J. Phys. Chem. B 2009, 113, 6378-6396.
 iSolventCode=           1
 Solvent: water                                                           
 
 vradii
            1           2           3           4           5           6
    1   1.8500000   1.8500000   1.5200000   1.5200000   1.5200000   1.2000000
            7           8           9          10          11
    1   1.2000000   1.2000000   1.2000000   1.5200000   1.5200000
 -------------------------------------------------------
 OpenMP BLAS3 based DFT computing Module                
 Release: version 1.0, May 2013, Q-Chem Inc. Pittsburgh 
 -------------------------------------------------------
 A unrestricted SCF calculation will be
 performed using Roothaan-Hall, DIIS, GDM
 SCF converges when RMS gradient is below 1.0e-06
 ---------------------------------------
  Cycle       Energy         DIIS error
 ---------------------------------------
    1    -454.6760714482      2.66e-04  Roothaan Step
 ---------------------------------------
  Cycle       Energy         DIIS error
 ---------------------------------------
    1    -454.7830055168      3.23e-04  
    2    -454.7858748581      3.54e-04  Done DIIS. Switching to GDM
 ---------------------------------------
  Cycle       Energy        RMS Gradient
 ---------------------------------------
    1    -454.7858748581      1.71e-02   Normal BFGS step
    2    -454.7836911928      3.21e-02  Line search: overstep
    3    -454.7889429148      4.53e-03   Normal BFGS step
    4    -454.7890689572      1.57e-03   Normal BFGS step
    5    -454.7891168323      1.79e-03   Normal BFGS step
    6    -454.7891218656      3.27e-04   Normal BFGS step
    7    -454.7891246050      3.82e-04   Normal BFGS step
    8    -454.7891250532      2.90e-04   Normal BFGS step
    9    -454.7891252899      1.08e-04   Normal BFGS step
   10    -454.7891253295      2.78e-05   Normal BFGS step
   11    -454.7891253409      1.54e-05   Normal BFGS step
   12    -454.7891253421      1.38e-05   Normal BFGS step
   13    -454.7891253427      1.56e-05   Normal BFGS step
   14    -454.7891253434      1.66e-05   Normal BFGS step
   15    -454.7891253450      1.76e-05   Normal BFGS step
   16    -454.7891253477      1.66e-05   Normal BFGS step
   17    -454.7891253514      1.34e-05   Normal BFGS step
   18    -454.7891253538      7.76e-06   Normal BFGS step
   19    -454.7891253544      1.61e-06   Normal BFGS step
   20    -454.7891253545      7.24e-07  Convergence criterion met
 ---------------------------------------
 SCF time:   CPU 809.39s  wall 55.00s 
<S^2> =          0.754891764
(3)  G-ENP(liq) elect-nuc-pol free energy of system     -454.789125355 a.u.
(4)  G-CDS(liq) cavity-dispersion-solvent structure 
     free energy                                                2.7535 kcal/mol
(6)  G-S(liq) free energy of system                     -454.784737410 a.u.
 SCF   energy in the final basis set =     -454.7847374103
 Total energy in the final basis set =     -454.7847374103
 
 --------------------------------------------------------------
 
                    Orbital Energies (a.u.)
 --------------------------------------------------------------
 
 Alpha MOs
 -- Occupied --
-19.3536 -19.3520 -19.3470 -19.3456 -19.3344 -10.4459 -10.4399  -1.2289
 -1.2053  -1.1793  -1.1286  -0.8838  -0.8290  -0.7227  -0.6397  -0.6235
 -0.5914  -0.5768  -0.5429  -0.5343  -0.5143  -0.5014  -0.4899  -0.4667
 -0.4389  -0.4089  -0.3658  -0.3382  -0.3088
 -- Virtual --
  0.0358   0.0445   0.0521   0.0573   0.0669   0.0942   0.1115   0.1122
  0.1150   0.1368   0.1612   0.1680   0.1759   0.1908   0.2073   0.2279
[...]
  5.4818   5.5088   5.5445   5.5627   5.5899   5.6281   5.6358   5.6546
  5.6576   5.7303   5.7931   5.8475   5.9858   6.0977   6.1779   6.3921
  6.4744   6.5058   6.5484   6.7021   6.7726   6.8068   6.8629   6.9380
  6.9575   6.9883   7.0155   7.0371   7.0652   7.0882   7.1186   7.1631
  7.1771   7.2558   7.2837   7.3233   7.3624   7.3891   7.4144   7.4626
  7.5024   7.5167   7.5567   7.6261   7.7203   7.7591   7.8085   7.8586
  7.9787   8.0042  24.7694  24.9808  50.4382  50.5154  50.5803  50.6346
 50.7224
 
 Beta MOs
 -- Occupied --
-19.3458 -19.3411 -19.3403 -19.3363 -19.3331 -10.4458 -10.4374  -1.2104
 -1.1989  -1.1810  -1.1340  -0.8349  -0.8318  -0.7263  -0.6430  -0.6248
 -0.5949  -0.5760  -0.5171  -0.5133  -0.4972  -0.4837  -0.4666  -0.4461
 -0.4391  -0.4107  -0.3651  -0.2827
 -- Virtual --
  0.0217   0.0367   0.0470   0.0526   0.0596   0.0695   0.0960   0.1106
  0.1139   0.1144   0.1388   0.1671   0.1689   0.1779   0.1903   0.2077
  0.2326   0.2435   0.2448   0.2569   0.2634   0.2785   0.2881   0.3011
  0.3080   0.3230   0.3246   0.3248   0.3340   0.3438   0.3497   0.3537
  0.3590   0.3756   0.3904   0.3997   0.4124   0.4168   0.4196   0.4421
  0.4694   0.4962   0.5149   0.5741   0.5991   0.6202   0.6360   0.6439
  0.6692   0.6744   0.6869   0.7060   0.7484   0.8007   0.8089   0.8314
  0.8387   0.8914   0.9376   0.9785   1.0000   1.0446   1.0696   1.0882
  1.1019   1.1174   1.1326   1.1416   1.1563   1.1622   1.1768   1.1902
  1.2025   1.2118   1.2260   1.2345   1.2394   1.2673   1.2841   1.3005
  1.3487   1.3655   1.3774   1.3927   1.4280   1.4490   1.4636   1.4821
  1.5032   1.5129   1.5138   1.5763   1.5906   1.6119   1.6323   1.6629
  1.6963   1.7166   1.7411   1.8120   1.8435   1.8476   1.8950   1.9197
  1.9461   1.9807   2.0251   2.0432   2.1894   2.2055   2.2344   2.2527
  2.2722   2.2947   2.3487   2.3773   2.4181   2.4431   2.4689   2.5492
  2.5858   2.6297   2.6929   2.7378   2.8375   2.8942   2.9322   2.9794
  3.0158   3.0688   3.1099   3.1457   3.2219   3.2548   3.2715   3.3044
  3.3752   3.4152   3.4465   3.4973   3.5200   3.5801   3.6095   3.6307
  3.6463   3.6979   3.7815   3.8070   3.8499   3.8678   3.9231   3.9360
  3.9684   4.0050   4.1352   4.1641   4.1882   4.2631   4.2708   4.2820
  4.3228   4.3895   4.4392   4.5136   4.6560   4.6799   4.6919   4.7452
  4.8219   4.8418   4.8698   5.1258   5.1293   5.1483   5.1754   5.1949
  5.1975   5.2087   5.2157   5.2410   5.2566   5.2621   5.2707   5.2748
  5.2866   5.2979   5.3059   5.3316   5.3477   5.3736   5.3956   5.4131
  5.4301   5.4823   5.5093   5.5455   5.5634   5.5920   5.6286   5.6569
  5.6632   5.6825   5.7311   5.7934   5.8478   5.9861   6.0980   6.1780
  6.3926   6.5151   6.5213   6.5499   6.7027   6.7730   6.8718   6.9312
  6.9557   6.9966   7.0086   7.0596   7.0696   7.0846   7.1070   7.1258
  7.1703   7.2013   7.2615   7.2865   7.3266   7.3649   7.3943   7.4222
  7.4929   7.5111   7.5229   7.5662   7.6281   7.7214   7.7595   7.8088
  7.8589   8.0008   8.0181  24.7694  24.9808  50.4493  50.5253  50.5804
 50.6351  50.7224
 --------------------------------------------------------------
 
          Ground-State Mulliken Net Atomic Charges

     Atom                 Charge (a.u.)    Spin (a.u.)
  --------------------------------------------------------
      1 C                     0.080404      -0.004361
      2 C                    -0.090556       0.002103
      3 O                    -0.430320      -0.000423
      4 O                    -0.413792       0.000986
      5 O                    -0.401873      -0.002232
      6 H                     0.340276       0.003946
      7 H                     0.318729       0.004053
      8 H                     0.238883      -0.000569
      9 H                     0.209834       0.000608
     10 O                    -0.401705       0.460112
     11 O                    -0.449880       0.535776
  --------------------------------------------------------
  Sum of atomic charges =    -1.000000
  Sum of spin   charges =     1.000000

 -----------------------------------------------------------------
                    Cartesian Multipole Moments
 -----------------------------------------------------------------
    Charge (ESU x 10^10)
                -4.8032
    Dipole Moment (Debye)
         X      -6.8587      Y      -3.1843      Z       0.6698
       Tot       7.5914
    Quadrupole Moments (Debye-Ang)
        XX     -63.9831     XY     -11.3494     YY     -47.2638
        XZ      -3.5023     YZ       3.1731     ZZ     -55.6583
    Octopole Moments (Debye-Ang^2)
       XXX    -198.6939    XXY     -18.3553    XYY     -50.8530
       YYY      26.8095    XXZ      53.8731    XYZ      10.8473
       YYZ      50.0600    XZZ     -65.2981    YZZ     -19.5002
       ZZZ     153.8046
    Hexadecapole Moments (Debye-Ang^3)
      XXXX    -792.0744   XXXY     -88.2207   XXYY    -151.5984
      XYYY     -36.6474   YYYY    -240.4823   XXXZ     141.3780
      XXYZ       9.4449   XYYZ      37.3616   YYYZ     -61.5880
      XXZZ    -304.3243   XYZZ     -47.3279   YYZZ    -167.7685
      XZZZ     125.4486   YZZZ      15.4042   ZZZZ    -805.2920
 -----------------------------------------------------------------
 Calculating analytic gradient of the SCF energy
 Gradient of CDS energy
            1           2           3           4           5           6
    1   0.0016327  -0.0034560   0.0018804   0.0011798  -0.0006389  -0.0003017
    2   0.0013130   0.0000954  -0.0026247   0.0022171  -0.0010618   0.0003617
    3  -0.0009802   0.0015141   0.0003887  -0.0023035   0.0005091   0.0001056
            7           8           9          10          11
    1  -0.0001589  -0.0001650  -0.0000660   0.0001618  -0.0000682
    2  -0.0001996  -0.0000650  -0.0000640   0.0000344  -0.0000065
    3   0.0003827   0.0003208  -0.0001007   0.0000520   0.0001114
 Gradient of SCF Energy
            1           2           3           4           5           6
    1   0.0333702   0.0046114  -0.0012880  -0.0027147  -0.0106295  -0.0059086
    2   0.0095156  -0.0133925   0.0228219  -0.0021452  -0.0232532  -0.0186975
    3   0.0067002  -0.0253214   0.0147658   0.0282877   0.0122629  -0.0214352
            7           8           9          10          11
    1  -0.0038311  -0.0186487   0.0037996  -0.0195383   0.0207775
    2  -0.0078554   0.0149352   0.0129583  -0.0032379   0.0083507
    3  -0.0266497  -0.0209303   0.0257772  -0.0045214   0.0110641
 Max gradient component =       3.337E-02
 RMS gradient           =       1.649E-02
 Computing fast CPCM-SWIG gradient
 Updating gradient with PCM contributions...
 -- total gradient after adding PCM contribution --
---------------------------------------------------
  Atom         X              Y              Z     
---------------------------------------------------
   1      -0.000016      -0.000003       0.000019
   2       0.000011      -0.000006      -0.000014
   3       0.000020      -0.000005      -0.000031
   4      -0.000011       0.000028       0.000021
   5       0.000019      -0.000010      -0.000004
   6      -0.000000      -0.000000      -0.000020
   7      -0.000019       0.000000       0.000010
   8      -0.000004      -0.000007       0.000016
   9       0.000011      -0.000023       0.000010
  10       0.000017      -0.000001      -0.000015
  11      -0.000027       0.000026       0.000009
---------------------------------------------------
 Number of fixed atoms: 0
 Gradient time:  CPU 97.54 s  wall 8.28 s
 Geometry Optimization Parameters
   NAtoms,    NIC,     NZ,  NCons,   NDum,   NFix, NCnnct, MaxDiis
       11      59       0       0       0       0       0       0

 Cartesian Hessian Update
 Hessian updated using Powell/Murtagh-Sargent update
  Mixing factors:     0.996087 Powell                      0.003913 Murtagh-Sargent


** GEOMETRY OPTIMIZATION IN DELOCALIZED INTERNAL COORDINATES **
   Searching for a Transition State

   Optimization Cycle:  50

                       Coordinates (Angstroms)
     ATOM                X               Y               Z
      1  C         1.9835846518   -0.3719880506   -1.7822707147
      2  C         0.5400026133   -0.7497493586   -2.0868994968
      3  O        -0.2678763913    0.3907778362   -2.2312629277
      4  O         0.0615610668   -1.6510672894   -1.1214145366
      5  O         2.4997388883    0.6401062072   -2.1999639977
      6  H        -0.1035042979    0.9666015823   -1.4716512933
      7  H         0.3220976539   -1.2756203631   -0.2624921003
      8  H         2.5568833091   -1.1264341286   -1.2247969553
      9  H         0.5202242391   -1.2717165149   -3.0445694873
     10  O         1.0558444933    0.3530659949    0.4790501776
     11  O         2.2178970737    0.5505064844    1.0717588321
   Point Group: c1    Number of degrees of freedom:    27


   Energy is   -454.785268235

 Hessian updated using Powell/Murtagh-Sargent update
  Mixing factors:     0.963469 Powell                      0.036531 Murtagh-Sargent

 27 Hessian modes will be used to form the next step
  Hessian Eigenvalues:
    -0.004924    0.003307    0.005735    0.008006    0.012015    0.027513
     0.042502    0.068776    0.074897    0.084620    0.093348    0.106245
     0.132507    0.184648    0.205713    0.217965    0.230918    0.294962
     0.314347    0.329037    0.341412    0.420910    0.469721    0.479657
     0.503337    0.570095    0.806133

 Transition state search - taking P-RFO step
 Searching for Lamda that Maximizes Along the Lowest mode
 Value Taken    Lamda =   0.00000000
 Searching for Lamda that Minimizes Along All other modes
 Value Taken    Lamda =  -0.00000012
 Step Taken.  Stepsize is  0.003309

                             Maximum     Tolerance    Cnvgd?
         Gradient           0.000069      0.000300     YES
         Displacement       0.002420      0.001200      NO
         Energy change     -0.000000      0.000001     YES


                       Distance Matrix (Angstroms)
             C (  1)   C (  2)   O (  3)   O (  4)   O (  5)   H (  6)
   C (  2)  1.522968
   O (  3)  2.419190  1.405102
   O (  4)  2.401447  1.404792  2.347216
   O (  5)  1.210462  2.405213  2.779000  3.515317
   H (  6)  2.498849  1.933518  0.967265  2.646149  2.722850
   H (  7)  2.426276  1.911148  2.645942  0.972927  3.487969  2.582782
   H (  8)  1.099380  2.225516  3.360680  2.551972  2.018633  3.394024
   H (  9)  2.131744  1.090859  2.011581  2.013158  2.878698  2.805918
   O ( 10)  2.549505  2.840139  3.016531  2.750752  3.056851  2.350692
   O ( 11)  3.008552  3.805669  4.136972  3.782423  3.285062  3.468570
             H (  7)   H (  8)   H (  9)   O ( 10)
   H (  8)  2.437735
   H (  9)  2.789126  2.735079
   O ( 10)  1.934138  2.710191  3.916976
   O ( 11)  2.951105  2.863775  4.811107  1.319338
 
 Final energy is   -454.785268234597     


 ******************************
 **  OPTIMIZATION CONVERGED  **
 ******************************

                       Coordinates (Angstroms)
     ATOM                X               Y               Z
      1  C         1.9835846518   -0.3719880506   -1.7822707147
      2  C         0.5400026133   -0.7497493586   -2.0868994968
      3  O        -0.2678763913    0.3907778362   -2.2312629277
      4  O         0.0615610668   -1.6510672894   -1.1214145366
      5  O         2.4997388883    0.6401062072   -2.1999639977
      6  H        -0.1035042979    0.9666015823   -1.4716512933
      7  H         0.3220976539   -1.2756203631   -0.2624921003
      8  H         2.5568833091   -1.1264341286   -1.2247969553
      9  H         0.5202242391   -1.2717165149   -3.0445694873
     10  O         1.0558444933    0.3530659949    0.4790501776
     11  O         2.2178970737    0.5505064844    1.0717588321

Z-matrix Print:
$molecule
-1 2
O 
O  1 1.319338
H  1 1.934138 2 129.227215
O  3 0.972927 1 139.908050 2 -114.442222 0
C  4 1.404792 3 105.542515 1 10.038470 0
H  5 1.090859 4 106.869291 3 164.117815 0
O  5 1.405102 4 113.302449 3 -78.622179 0
H  7 0.967265 5 107.747653 4 75.400087 0
C  5 1.522968 4 110.151173 3 46.861076 0
H  9 1.099380 5 115.182393 4 26.878098 0
O  9 1.210462 5 122.857831 4 -158.147327 0
$end

 
 --------------------------------------------------------------
 
                    Orbital Energies (a.u.)
 --------------------------------------------------------------
 
 Alpha MOs
 -- Occupied --
-19.3498 -19.3483 -19.3459 -19.3411 -19.3403 -10.4458 -10.4374  -1.2312
 -1.2072  -1.1809  -1.1342  -0.8764  -0.8319  -0.7269  -0.6437  -0.6252
 -0.5957  -0.5767  -0.5407  -0.5336  -0.5166  -0.4952  -0.4902  -0.4690
 -0.4404  -0.4108  -0.3652  -0.3333  -0.3021
 -- Virtual --
  0.0360   0.0462   0.0520   0.0589   0.0679   0.0953   0.1096   0.1131
  0.1141   0.1381   0.1665   0.1678   0.1766   0.1887   0.2054   0.2304
  0.2380   0.2413   0.2554   0.2629   0.2778   0.2858   0.2963   0.3043
  0.3202   0.3223   0.3234   0.3307   0.3431   0.3491   0.3517   0.3577
  0.3748   0.3856   0.3972   0.4114   0.4134   0.4183   0.4418   0.4689
  0.4940   0.5144   0.5729   0.5987   0.6196   0.6360   0.6436   0.6690
  0.6741   0.6868   0.7053   0.7473   0.8004   0.8077   0.8311   0.8384
  0.8905   0.9362   0.9779   0.9990   1.0436   1.0689   1.0842   1.0992
  1.1107   1.1282   1.1389   1.1404   1.1552   1.1724   1.1873   1.1977
  1.2106   1.2214   1.2331   1.2378   1.2481   1.2774   1.2981   1.3479
  1.3586   1.3735   1.3893   1.4216   1.4475   1.4614   1.4774   1.4966
  1.5068   1.5116   1.5725   1.5834   1.5988   1.6173   1.6502   1.6898
  1.7139   1.7335   1.7963   1.8362   1.8450   1.8851   1.9186   1.9416
  1.9756   2.0215   2.0381   2.1881   2.2044   2.2265   2.2462   2.2655
  2.2917   2.3330   2.3717   2.4174   2.4402   2.4656   2.5487   2.5857
  2.6295   2.6924   2.7282   2.8369   2.8936   2.9314   2.9792   3.0157
  3.0686   3.1098   3.1458   3.2218   3.2547   3.2715   3.3042   3.3751
  3.4151   3.4464   3.4973   3.5199   3.5800   3.6095   3.6306   3.6461
  3.6979   3.7815   3.8069   3.8498   3.8677   3.9230   3.9359   3.9683
  4.0050   4.1351   4.1640   4.1876   4.2630   4.2707   4.2818   4.3216
  4.3884   4.4390   4.5134   4.6279   4.6688   4.6868   4.7411   4.7956
  4.8259   4.8490   5.0861   5.0923   5.1232   5.1414   5.1752   5.1762
  5.2054   5.2122   5.2229   5.2311   5.2364   5.2468   5.2602   5.2693
  5.2745   5.2995   5.3096   5.3314   5.3727   5.3931   5.4099   5.4171
  5.4818   5.5088   5.5445   5.5627   5.5899   5.6281   5.6358   5.6546
  5.6576   5.7303   5.7931   5.8475   5.9858   6.0977   6.1779   6.3921
  6.4744   6.5058   6.5484   6.7021   6.7726   6.8068   6.8629   6.9380
  6.9575   6.9883   7.0155   7.0371   7.0652   7.0882   7.1186   7.1631
  7.1771   7.2558   7.2837   7.3233   7.3624   7.3891   7.4144   7.4626
  7.5024   7.5167   7.5567   7.6261   7.7203   7.7591   7.8085   7.8586
  7.9787   8.0042  24.7694  24.9808  50.4382  50.5154  50.5803  50.6346
 50.7224
 
 Beta MOs
 -- Occupied --
-19.3458 -19.3411 -19.3403 -19.3363 -19.3331 -10.4458 -10.4374  -1.2104
 -1.1989  -1.1810  -1.1340  -0.8349  -0.8318  -0.7263  -0.6430  -0.6248
 -0.5949  -0.5760  -0.5171  -0.5133  -0.4972  -0.4837  -0.4666  -0.4461
 -0.4391  -0.4107  -0.3651  -0.2827
 -- Virtual --
  0.0217   0.0367   0.0470   0.0526   0.0596   0.0695   0.0960   0.1106
  0.1139   0.1144   0.1388   0.1671   0.1689   0.1779   0.1903   0.2077
  0.2326   0.2435   0.2448   0.2569   0.2634   0.2785   0.2881   0.3011
  0.3080   0.3230   0.3246   0.3248   0.3340   0.3438   0.3497   0.3537
  0.3590   0.3756   0.3904   0.3997   0.4124   0.4168   0.4196   0.4421
  0.4694   0.4962   0.5149   0.5741   0.5991   0.6202   0.6360   0.6439
  0.6692   0.6744   0.6869   0.7060   0.7484   0.8007   0.8089   0.8314
  0.8387   0.8914   0.9376   0.9785   1.0000   1.0446   1.0696   1.0882
  1.1019   1.1174   1.1326   1.1416   1.1563   1.1622   1.1768   1.1902
  1.2025   1.2118   1.2260   1.2345   1.2394   1.2673   1.2841   1.3005
  1.3487   1.3655   1.3774   1.3927   1.4280   1.4490   1.4636   1.4821
  1.5032   1.5129   1.5138   1.5763   1.5906   1.6119   1.6323   1.6629
  1.6963   1.7166   1.7411   1.8120   1.8435   1.8476   1.8950   1.9197
  1.9461   1.9807   2.0251   2.0432   2.1894   2.2055   2.2344   2.2527
  2.2722   2.2947   2.3487   2.3773   2.4181   2.4431   2.4689   2.5492
  2.5858   2.6297   2.6929   2.7378   2.8375   2.8942   2.9322   2.9794
  3.0158   3.0688   3.1099   3.1457   3.2219   3.2548   3.2715   3.3044
  3.3752   3.4152   3.4465   3.4973   3.5200   3.5801   3.6095   3.6307
  3.6463   3.6979   3.7815   3.8070   3.8499   3.8678   3.9231   3.9360
  3.9684   4.0050   4.1352   4.1641   4.1882   4.2631   4.2708   4.2820
  4.3228   4.3895   4.4392   4.5136   4.6560   4.6799   4.6919   4.7452
  4.8219   4.8418   4.8698   5.1258   5.1293   5.1483   5.1754   5.1949
  5.1975   5.2087   5.2157   5.2410   5.2566   5.2621   5.2707   5.2748
  5.2866   5.2979   5.3059   5.3316   5.3477   5.3736   5.3956   5.4131
  5.4301   5.4823   5.5093   5.5455   5.5634   5.5920   5.6286   5.6569
  5.6632   5.6825   5.7311   5.7934   5.8478   5.9861   6.0980   6.1780
  6.3926   6.5151   6.5213   6.5499   6.7027   6.7730   6.8718   6.9312
  6.9557   6.9966   7.0086   7.0596   7.0696   7.0846   7.1070   7.1258
  7.1703   7.2013   7.2615   7.2865   7.3266   7.3649   7.3943   7.4222
  7.4929   7.5111   7.5229   7.5662   7.6281   7.7214   7.7595   7.8088
  7.8589   8.0008   8.0181  24.7694  24.9808  50.4493  50.5253  50.5804
 50.6351  50.7224
 --------------------------------------------------------------
 
          Ground-State Mulliken Net Atomic Charges

     Atom                 Charge (a.u.)    Spin (a.u.)
  --------------------------------------------------------
      1 C                     0.080404      -0.004361
      2 C                    -0.090556       0.002103
      3 O                    -0.430320      -0.000423
      4 O                    -0.413792       0.000986
      5 O                    -0.401873      -0.002232
      6 H                     0.340276       0.003946
      7 H                     0.318729       0.004053
      8 H                     0.238883      -0.000569
      9 H                     0.209834       0.000608
     10 O                    -0.401705       0.460112
     11 O                    -0.449880       0.535776
  --------------------------------------------------------
  Sum of atomic charges =    -1.000000
  Sum of spin   charges =     1.000000

 -----------------------------------------------------------------
                    Cartesian Multipole Moments
 -----------------------------------------------------------------
    Charge (ESU x 10^10)
                -4.8032
    Dipole Moment (Debye)
         X      -6.8587      Y      -3.1843      Z       0.6698
       Tot       7.5914
    Quadrupole Moments (Debye-Ang)
        XX     -63.9831     XY     -11.3494     YY     -47.2638
        XZ      -3.5023     YZ       3.1731     ZZ     -55.6583
    Octopole Moments (Debye-Ang^2)
       XXX    -198.6939    XXY     -18.3553    XYY     -50.8530
       YYY      26.8095    XXZ      53.8731    XYZ      10.8473
       YYZ      50.0600    XZZ     -65.2981    YZZ     -19.5002
       ZZZ     153.8046
    Hexadecapole Moments (Debye-Ang^3)
      XXXX    -792.0744   XXXY     -88.2207   XXYY    -151.5984
      XYYY     -36.6474   YYYY    -240.4823   XXXZ     141.3780
      XXYZ       9.4449   XYYZ      37.3616   YYYZ     -61.5880
      XXZZ    -304.3243   XYZZ     -47.3279   YYZZ    -167.7685
      XZZZ     125.4486   YZZZ      15.4042   ZZZZ    -805.2920
 -----------------------------------------------------------------
 Total job time:  3815.79s(wall), 55453.76s(cpu) 
 Wed Feb 28 18:39:21 2024

        *************************************************************
        *                                                           *
        *  Thank you very much for using Q-Chem.  Have a nice day.  *
        *                                                           *
        *************************************************************


