
Running Job 1 of 1 Q_in.in
qchem Q_in.in_258198.0 /scratch/ari.fischer/qChem1854169.hpc-mn1/qchem258198/ 0
/usr/local/qchem-5.4.1/exe/qcprog.exe_s Q_in.in_258198.0 /scratch/ari.fischer/qChem1854169.hpc-mn1/qchem258198/
                  Welcome to Q-Chem
     A Quantum Leap Into The Future Of Chemistry


 Q-Chem 5.4, Q-Chem, Inc., Pleasanton, CA (2021)

 License issued to: Nanyang Technological University (site)

 E. Epifanovsky,  A. T. B. Gilbert,  Xintian Feng,  Joonho Lee,  Yuezhi Mao,  
 N. Mardirossian,  P. Pokhilko,  A. White,  M. Wormit,  M. P. Coons,  
 A. L. Dempwolff,  Zhengting Gan,  D. Hait,  P. R. Horn,  L. D. Jacobson,  
 I. Kaliman,  J. Kussmann,  A. W. Lange,  Ka Un Lao,  D. S. Levine,  Jie Liu,  
 S. C. McKenzie,  A. F. Morrison,  K. Nanda,  F. Plasser,  D. R. Rehn,  
 M. L. Vidal,  Zhi-Qiang You,  Ying Zhu,  B. Alam,  B. Albrecht,  
 A. Aldossary,  E. Alguire,  J. H. Andersen,  D. Barton,  K. Begam,  A. Behn,  
 Y. A. Bernard,  E. J. Berquist,  H. Burton,  A. Carreras,  K. Carter-Fenk,  
 R. Chakraborty,  A. D. Chien,  K. D. Closser,  V. Cofer-Shabica,  
 S. Dasgupta,  Jia Deng,  M. de Wergifosse,  M. Diedenhofen,  Hainam Do,  
 S. Ehlert,  Po-Tung Fang,  S. Fatehi,  Qingguo Feng,  T. Friedhoff,  
 J. Gayvert,  Qinghui Ge,  G. Gidofalvi,  M. Goldey,  J. Gomes,  
 C. Gonzalez-Espinoza,  S. Gulania,  A. Gunina,  M. W. D. Hanson-Heine,  
 P. H. P. Harbach,  A. W. Hauser,  M. F. Herbst,  M. Hernandez Vera,  
 M. Hodecker,  Z. C. Holden,  S. Houck,  Xunkun Huang,  Kerwin Hui,  
 B. C. Huynh,  M. Ivanov,  Hyunjun Ji,  Hanjie Jiang,  B. Kaduk,  S. Kaehler,  
 K. Khistyaev,  Jaehoon Kim,  P. Klunzinger,  Z. Koczor-Benda,  
 Joong Hoon Koh,  D. Kosenkov,  L. Koulias,  T. Kowalczyk,  C. M. Krauter,  
 K. Kue,  A. Kunitsa,  T. Kus,  A. Landau,  K. V. Lawler,  D. Lefrancois,  
 S. Lehtola,  Rain Li,  Yi-Pei Li,  Jiashu Liang,  M. Liebenthal,  
 Hung-Hsuan Lin,  You-Sheng Lin,  Fenglai Liu,  Kuan-Yu Liu,  
 M. Loipersberger,  A. Luenser,  A. Manjanath,  P. Manohar,  E. Mansoor,  
 S. F. Manzer,  Shan-Ping Mao,  A. V. Marenich,  T. Markovich,  S. Mason,  
 S. A. Maurer,  P. F. McLaughlin,  M. F. S. J. Menger,  J.-M. Mewes,  
 S. A. Mewes,  P. Morgante,  J. W. Mullinax,  K. J. Oosterbaan,  G. Paran,  
 Alexander C. Paul,  Suranjan K. Paul,  F. Pavosevic,  Zheng Pei,  S. Prager,  
 E. I. Proynov,  E. Ramos,  B. Rana,  A. E. Rask,  A. Rettig,  R. M. Richard,  
 F. Rob,  E. Rossomme,  T. Scheele,  M. Scheurer,  M. Schneider,  
 N. Sergueev,  S. M. Sharada,  W. Skomorowski,  D. W. Small,  C. J. Stein,  
 Yu-Chuan Su,  E. J. Sundstrom,  Zhen Tao,  J. Thirman,  T. Tsuchimochi,  
 N. M. Tubman,  S. P. Veccham,  O. Vydrov,  J. Wenzel,  J. Witte,  A. Yamada,  
 Kun Yao,  S. Yeganeh,  S. R. Yost,  A. Zech,  Igor Ying Zhang,  Xing Zhang,  
 Yu Zhang,  D. Zuev,  A. Aspuru-Guzik,  A. T. Bell,  N. A. Besley,  
 K. B. Bravaya,  B. R. Brooks,  D. Casanova,  Jeng-Da Chai,  S. Coriani,  
 C. J. Cramer,  A. E. DePrince, III,  R. A. DiStasio Jr.,  A. Dreuw,  
 B. D. Dunietz,  T. R. Furlani,  W. A. Goddard III,  S. Grimme,  
 S. Hammes-Schiffer,  T. Head-Gordon,  W. J. Hehre,  Chao-Ping Hsu,  
 T.-C. Jagau,  Yousung Jung,  A. Klamt,  Jing Kong,  D. S. Lambrecht,  
 WanZhen Liang,  N. J. Mayhall,  C. W. McCurdy,  J. B. Neaton,  
 C. Ochsenfeld,  J. A. Parkhill,  R. Peverati,  V. A. Rassolov,  Yihan Shao,  
 L. V. Slipchenko,  T. Stauch,  R. P. Steele,  J. E. Subotnik,  
 A. J. W. Thom,  A. Tkatchenko,  D. G. Truhlar,  T. Van Voorhis,  
 T. A. Wesolowski,  K. B. Whaley,  H. L. Woodcock III,  P. M. Zimmerman,  
 S. Faraji,  P. M. W. Gill,  M. Head-Gordon,  J. M. Herbert,  A. I. Krylov

 Additional authors for Version 5.4.1: 
 S. Kotaru,  Shaozhi Li,  Xiangyuan Li,  F. Matz,  A. Molle,  Haisheng Ren,  
 Yingli Su,  Hung-Yi Tsai,  C. Utku,  Fang Wang

 Contributors to earlier versions of Q-Chem not listed above: 
 R. D. Adamson,  B. Austin,  R. Baer,  J. Baker,  G. J. O. Beran,  
 K. Brandhorst,  S. T. Brown,  E. F. C. Byrd,  A. K. Chakraborty,  
 G. K. L. Chan,  Chun-Min Chang,  Yunqing Chen,  C.-L. Cheng,  
 Siu Hung Chien,  D. M. Chipman,  D. L. Crittenden,  H. Dachsel,  
 R. J. Doerksen,  A. D. Dutoi,  R. G. Edgar,  J. Fosso-Tande,  
 L. Fusti-Molnar,  D. Ghosh,  A. Ghysels,  A. Golubeva-Zadorozhnaya,  
 J. Gonthier,  M. S. Gordon,  S. R. Gwaltney,  G. Hawkins,  J. E. Herr,  
 A. Heyden,  S. Hirata,  E. G. Hohenstein,  G. Kedziora,  F. J. Keil,  
 C. Kelley,  Jihan Kim,  R. A. King,  R. Z. Khaliullin,  P. P. Korambath,  
 W. Kurlancheek,  A. Laurent,  A. M. Lee,  M. S. Lee,  S. V. Levchenko,  
 Ching Yeh Lin,  D. Liotard,  E. Livshits,  R. C. Lochan,  I. Lotan,  
 L. A. Martinez-Martinez,  P. E. Maslen,  N. Nair,  D. P. O'Neill,  
 D. Neuhauser,  E. Neuscamman,  C. M. Oana,  R. Olivares-Amaya,  R. Olson,  
 T. M. Perrine,  B. Peters,  P. A. Pieniazek,  A. Prociuk,  Y. M. Rhee,  
 J. Ritchie,  M. A. Rohrdanz,  E. Rosta,  N. J. Russ,  H. F. Schaefer III,  
 M. W. Schmidt,  N. E. Schultz,  S. Sharma,  N. Shenvi,  C. D. Sherrill,  
 A. C. Simmonett,  A. Sodt,  T. Stein,  D. Stuck,  K. S. Thanthiriwatte,  
 V. Vanovschi,  L. Vogt,  Tao Wang,  A. Warshel,  M. A. Watson,  
 C. F. Williams,  Q. Wu,  X. Xu,  Jun Yang,  W. Zhang,  Yan Zhao

 Please cite Q-Chem as follows:
 Y. Shao et al., Mol. Phys. 113, 184-215 (2015)
 DOI: 10.1080/00268976.2014.952696

 Q-Chem 5.4.1 for Intel X86 EM64T Linux

 Parts of Q-Chem use Armadillo 9.800.1 (Horizon Scraper).
 http://arma.sourceforge.net/

 Q-Chem begins on Thu Dec  7 15:55:43 2023  

 Host: 
0

     Scratch files written to /scratch/ari.fischer/qChem1854169.hpc-mn1/qchem258198//
 Aug1521 |scratch|qcdevops|jenkins|workspace|build_RNUM 8249   
 Processing $rem in /usr/local/qchem-5.4.1/config/preferences:
 Processing $rem in /home/ari.fischer/.qchemrc:
 Symmetry turned off for PCM/SM12/SMD calculation

 Checking the input file for inconsistencies... 	...done.

--------------------------------------------------------------
User input:
--------------------------------------------------------------
$molecule
-1 2
C         0.2893629763    0.0315406487    0.5566337965
O         0.6541680611   -1.1565349345    0.4174602413
C        -1.2484564108    0.2451230646    0.4406601187
O        -1.9097781564   -0.9131982675    0.1604466214
O        -1.5417753257    1.2702625386   -0.4185445904
O         0.9759381516    1.0444137214    0.7745928551
O        -1.7384232270    0.7473130169    1.7662032033
O        -1.5108119417   -0.1144755690    2.7119986494
H        -1.2217318192   -1.6053856353    0.1817768981
H        -2.4856635083    1.2394733162   -0.6302879932
$end

$rem
BASIS = def2-TZVP
JOB_TYPE = SP
METHOD = wB97M-V
SCF_ALGORITHM = DIIS_GDM
MAX_SCF_CYCLES = 400
SCF_CONVERGENCE = 7
THRESH = 12
Solvent_method = SMD
$end
--------------------------------------------------------------
 ----------------------------------------------------------------
             Standard Nuclear Orientation (Angstroms)
    I     Atom           X                Y                Z
 ----------------------------------------------------------------
    1      C       0.2893629763     0.0315406487     0.5566337965
    2      O       0.6541680611    -1.1565349345     0.4174602413
    3      C      -1.2484564108     0.2451230646     0.4406601187
    4      O      -1.9097781564    -0.9131982675     0.1604466214
    5      O      -1.5417753257     1.2702625386    -0.4185445904
    6      O       0.9759381516     1.0444137214     0.7745928551
    7      O      -1.7384232270     0.7473130169     1.7662032033
    8      O      -1.5108119417    -0.1144755690     2.7119986494
    9      H      -1.2217318192    -1.6053856353     0.1817768981
   10      H      -2.4856635083     1.2394733162    -0.6302879932
 ----------------------------------------------------------------
 Nuclear Repulsion Energy =         403.67858861 hartrees
 There are       32 alpha and       31 beta electrons
 Requested basis set is def2-TZVP
 There are 96 shells and 260 basis functions

 Total QAlloc Memory Limit 288000 MB
 Mega-Array Size       188 MB
 MEM_STATIC part       192 MB
 
 Citation of the SMD model:
 Marenich, A.V.; Cramer, C.J.; Truhlar, D.G.
 J. Phys. Chem. B 2009, 113, 6378-6396.
 iSolventCode=           1
 Solvent: water                                                           
 
 vradii
            1           2           3           4           5           6
    1   1.8500000   1.5200000   1.8500000   1.5200000   1.5200000   1.5200000
            7           8           9          10
    1   1.5200000   1.5200000   1.2000000   1.2000000
 Changing PCM_VDW_RADII to SMD_RADIUS
 Discretize the solute cavity surface with Lebedev spheres
	Using 110 Lebedev grid points for each H atom
	Using 194 Lebedev grid points for other atoms
	Atomic van der Waals radii will be scaled by 1.20
 Remove points where switching function is < 1.0e-08
 Keep 960 surface tesserae and discard 812 interior tesserae
 Molecular Surface Area = 114.611 Angst**2

                       Distance Matrix (Angstroms)
             C (  1)   O (  2)   C (  3)   O (  4)   O (  5)   O (  6)
   O (  2)  1.250590
   C (  3)  1.556906  2.363295
   O (  4)  2.426050  2.588260  1.362929
   O (  5)  2.416293  3.377931  1.369372  2.288702
   O (  6)  1.242901  2.252833  2.387113  3.540731  2.795258
   O (  7)  2.467246  3.341891  1.499776  2.316272  2.255054  2.905050
   O (  8)  2.812036  3.322338  2.314545  2.703248  3.423267  3.358644
   H (  9)  2.259082  1.943197  1.868721  0.976210  2.955024  3.493225
   H ( 10)  3.250947  4.086218  1.914770  2.364508  0.967837  3.740912
             O (  7)   O (  8)   H (  9)
   O (  8)  1.299621
   H (  9)  2.883152  2.951000
   H ( 10)  2.558077  3.735558  3.217172
 
 A cutoff of  1.0D-12 yielded   4284 shell pairs
 There are     32166 function pairs (     42870 Cartesian)
 Smallest overlap matrix eigenvalue = 4.22E-04

 Scale SEOQF with 1.000000e-01/1.000000e-01/1.000000e-01

 Standard Electronic Orientation quadrupole field applied
 Nucleus-field energy     =    -0.0000000025 hartrees
 Guess from superposition of atomic densities
 Warning:  Energy on first SCF cycle will be non-variational
 SAD guess density has 62.000000 electrons

 -----------------------------------------------------------------------
  General SCF calculation program by
  Eric Jon Sundstrom, Paul Horn, Yuezhi Mao, Dmitri Zuev, Alec White,
  David Stuck, Shaama M.S., Shane Yost, Joonho Lee, David Small,
  Daniel Levine, Susi Lehtola, Hugh Burton, Evgeny Epifanovsky,
  Bang C. Huynh
 -----------------------------------------------------------------------
 Exchange:     0.1500 Hartree-Fock + 1.0000 wB97M-V + LR-HF
 Correlation:  1.0000 wB97M-V
 Using SG-2 standard quadrature grid
 Nonlocal Correlation:  VV10 with C = 0.0100 and b = 6.00 and scale = 1.00000
 Grid used for NLC:  SG-1 standard quadrature
 
 Citation of the SMD model:
 Marenich, A.V.; Cramer, C.J.; Truhlar, D.G.
 J. Phys. Chem. B 2009, 113, 6378-6396.
 iSolventCode=           1
 Solvent: water                                                           
 
 vradii
            1           2           3           4           5           6
    1   1.8500000   1.5200000   1.8500000   1.5200000   1.5200000   1.5200000
            7           8           9          10
    1   1.5200000   1.5200000   1.2000000   1.2000000
 using 4 threads for integral computing
 -------------------------------------------------------
 OpenMP Integral computing Module                
 Release: version 1.0, May 2013, Q-Chem Inc. Pittsburgh 
 -------------------------------------------------------
 -------------------------------------------------------
 OpenMP BLAS3 based DFT computing Module                
 Release: version 1.0, May 2013, Q-Chem Inc. Pittsburgh 
 -------------------------------------------------------
 A unrestricted SCF calculation will be
 performed using DIIS, GDM
 SCF converges when RMS gradient is below 1.0e-07
 ---------------------------------------
  Cycle       Energy         DIIS error
 ---------------------------------------
    1    -529.9953419380      1.67e-02  
    2    -528.6414567351      3.24e-03  Done DIIS. Switching to GDM
 ---------------------------------------
  Cycle       Energy        RMS Gradient
 ---------------------------------------
    1    -528.6414567351      1.53e-01   Descent step
    2    -528.8662505979      5.53e-02   Normal BFGS step
    3    -528.9047837822      2.53e-02   Normal BFGS step
    4    -528.9060121822      1.73e-02   Normal BFGS step
    5    -528.9083627020      6.78e-03   Normal BFGS step
    6    -528.9085548769      4.39e-03   Normal BFGS step
    7    -528.9086610663      1.98e-03   Normal BFGS step
    8    -528.9086831758      2.12e-03   Normal BFGS step
    9    -528.9086913404      1.60e-03   Normal BFGS step
   10    -528.9086974684      7.27e-04   Normal BFGS step
   11    -528.9087016236      7.55e-04   Normal BFGS step
   12    -528.9087041929      5.85e-04   Normal BFGS step
   13    -528.9087053686      2.41e-04   Normal BFGS step
   14    -528.9087055854      3.78e-05   Normal BFGS step
   15    -528.9087056119      2.52e-05   Normal BFGS step
   16    -528.9087056193      9.44e-06   Normal BFGS step
   17    -528.9087056200      2.86e-06   Normal BFGS step
   18    -528.9087056202      1.20e-06   Normal BFGS step
   19    -528.9087056203      4.93e-07   Normal BFGS step
   20    -528.9087056203      1.60e-07   Normal BFGS step
   21    -528.9087056203      6.47e-08  Convergence criterion met
 ---------------------------------------
 SCF time:   CPU 819.50s  wall 206.00s 
<S^2> =          0.753679545
(3)  G-ENP(liq) elect-nuc-pol free energy of system     -528.908705620 a.u.
(4)  G-CDS(liq) cavity-dispersion-solvent structure 
     free energy                                                3.9645 kcal/mol
(6)  G-S(liq) free energy of system                     -528.902387735 a.u.
 SCF   energy in the final basis set =     -528.9023877347
 Total energy in the final basis set =     -528.9023877347
 
 --------------------------------------------------------------
 
                    Orbital Energies (a.u.)
 --------------------------------------------------------------
 
 Alpha MOs
 -- Occupied --
-19.4531 -19.4121 -19.3613 -19.3551 -19.2976 -19.2919 -10.5076 -10.4522
 -1.3436  -1.2327  -1.1780  -1.1608  -1.0936  -0.9893  -0.8061  -0.7142
 -0.6722  -0.6627  -0.6089  -0.6040  -0.5848  -0.5429  -0.5249  -0.5223
 -0.5065  -0.4734  -0.4324  -0.4113  -0.3966  -0.3806  -0.3711  -0.3627
 -- Virtual --
  0.1076   0.1304   0.1520   0.1960   0.2111   0.2602   0.2773   0.2838
  0.3002   0.3199   0.3245   0.3362   0.3623   0.3682   0.3997   0.4227
  0.4483   0.4666   0.4728   0.4986   0.5031   0.5205   0.5283   0.5627
  0.5747   0.5866   0.6117   0.6274   0.6452   0.6481   0.6583   0.6663
  0.6836   0.7209   0.7330   0.7766   0.7835   0.7945   0.8196   0.8445
  0.9006   0.9228   0.9452   0.9681   0.9868   1.0120   1.0290   1.0747
  1.1145   1.1478   1.1743   1.2234   1.3144   1.3680   1.3901   1.4174
  1.4299   1.5051   1.5446   1.5685   1.5959   1.6235   1.6284   1.6545
  1.6775   1.6953   1.7289   1.7605   1.7777   1.8466   1.8625   1.8704
  1.9133   1.9340   1.9780   1.9959   2.0250   2.0458   2.0820   2.1203
  2.1266   2.1641   2.1787   2.2049   2.2181   2.2345   2.2545   2.3136
  2.3315   2.3522   2.3560   2.3714   2.3961   2.4309   2.4824   2.5393
  2.5953   2.6100   2.6641   2.7029   2.7543   2.7622   2.7864   2.8204
  2.8468   2.8775   2.8921   2.9293   2.9672   2.9882   3.0033   3.0360
  3.0656   3.0912   3.1072   3.1528   3.1683   3.2145   3.2419   3.2751
  3.3392   3.3571   3.3756   3.4173   3.4301   3.4609   3.4845   3.5102
  3.5813   3.6013   3.6421   3.6999   3.7138   3.7781   3.8384   3.8803
  3.9149   4.0252   4.0579   4.1784   4.2367   4.3686   4.4046   4.5004
  4.5363   4.5976   4.7439   4.7654   4.8549   4.8651   5.0101   5.0598
  5.1610   5.1877   5.2276   5.2781   5.2952   5.3040   5.3226   5.3459
  5.3602   5.3846   5.4216   5.4264   5.4868   5.5119   5.5609   5.5983
  5.6329   5.6506   5.6670   5.6801   5.7266   5.8119   5.8668   5.9586
  6.0262   6.0525   6.1270   6.1665   6.2165   6.2457   6.2838   6.3145
  6.3394   6.3562   6.3707   6.3978   6.4334   6.4667   6.4846   6.5250
  6.5403   6.5642   6.5772   6.6038   6.6724   6.6853   6.7195   6.7453
  6.8013   6.8475   6.8740   6.8989   6.9306   6.9879   7.0179   7.0432
  7.0636   7.0898   7.1605   7.1921   7.2177   7.2530   7.2980   7.3572
  7.4022   7.4677   7.6148   8.6639  23.0656  23.8217  43.8961  44.2179
 44.2746  44.3158  44.4606  44.5654
 
 Beta MOs
 -- Occupied --
-19.4429 -19.3933 -19.3614 -19.3550 -19.2974 -19.2919 -10.5080 -10.4521
 -1.3194  -1.2292  -1.1778  -1.1606  -1.0934  -0.9544  -0.7997  -0.7082
 -0.6688  -0.6523  -0.5996  -0.5753  -0.5481  -0.5385  -0.5227  -0.5154
 -0.5012  -0.4673  -0.4294  -0.3913  -0.3805  -0.3710  -0.3613
 -- Virtual --
 -0.0245   0.1086   0.1312   0.1527   0.1968   0.2258   0.2626   0.2790
  0.2854   0.3032   0.3211   0.3272   0.3374   0.3643   0.3696   0.4020
  0.4246   0.4496   0.4669   0.4796   0.5027   0.5048   0.5240   0.5319
  0.5641   0.5815   0.5873   0.6173   0.6291   0.6456   0.6500   0.6621
  0.6688   0.6865   0.7226   0.7349   0.7788   0.7848   0.7957   0.8219
  0.8465   0.9021   0.9247   0.9463   0.9689   0.9888   1.0133   1.0301
  1.0778   1.1153   1.1482   1.1753   1.2249   1.3165   1.3697   1.4098
  1.4226   1.4312   1.5068   1.5495   1.5786   1.6027   1.6280   1.6291
  1.6626   1.6872   1.6973   1.7357   1.7653   1.7834   1.8490   1.8640
  1.8714   1.9171   1.9360   1.9884   1.9983   2.0314   2.0533   2.0902
  2.1234   2.1290   2.1686   2.1907   2.2067   2.2220   2.2406   2.2568
  2.3170   2.3358   2.3563   2.3635   2.3722   2.4007   2.4352   2.4841
  2.5418   2.5962   2.6485   2.6657   2.7057   2.7627   2.7712   2.8096
  2.8427   2.8548   2.8811   2.8991   2.9373   2.9752   3.0001   3.0138
  3.0417   3.0697   3.0973   3.1086   3.1567   3.1731   3.2172   3.2457
  3.2762   3.3402   3.3601   3.3778   3.4201   3.4325   3.4636   3.4850
  3.5121   3.5849   3.6024   3.6432   3.7015   3.7141   3.7785   3.8384
  3.8805   3.9163   4.0262   4.0583   4.1789   4.2373   4.3753   4.4140
  4.5016   4.5439   4.6001   4.7484   4.7976   4.8667   4.8946   5.0240
  5.0834   5.1714   5.2377   5.2726   5.2814   5.2975   5.3058   5.3234
  5.3519   5.3634   5.3909   5.4314   5.4334   5.4950   5.5172   5.5621
  5.6029   5.6357   5.6585   5.6761   5.6878   5.7348   5.8271   5.8686
  5.9629   6.0298   6.0568   6.1315   6.1770   6.2264   6.2506   6.3162
  6.3308   6.3530   6.3788   6.4099   6.4389   6.4533   6.5014   6.5151
  6.5288   6.5483   6.5713   6.5881   6.6087   6.6871   6.6940   6.7311
  6.7713   6.8026   6.8486   6.8821   6.8997   6.9483   6.9942   7.0218
  7.0468   7.0649   7.0920   7.1671   7.2172   7.2293   7.2545   7.2995
  7.3593   7.4105   7.4684   7.6330   8.6819  23.0654  23.8218  43.9106
 44.2194  44.2755  44.3166  44.4649  44.5691
 --------------------------------------------------------------
 
          Ground-State Mulliken Net Atomic Charges

     Atom                 Charge (a.u.)    Spin (a.u.)
  --------------------------------------------------------
      1 C                     0.308105       0.008457
      2 O                    -0.582913       0.002912
      3 C                     0.278884      -0.009489
      4 O                    -0.465064       0.003163
      5 O                    -0.473636      -0.001243
      6 O                    -0.585487      -0.000672
      7 O                    -0.016880       0.311778
      8 O                    -0.231081       0.685225
      9 H                     0.378386      -0.000300
     10 H                     0.389684       0.000170
  --------------------------------------------------------
  Sum of atomic charges =    -1.000000
  Sum of spin   charges =     1.000000

 -----------------------------------------------------------------
                    Cartesian Multipole Moments
 -----------------------------------------------------------------
    Charge (ESU x 10^10)
                -4.8032
    Dipole Moment (Debye)
         X      -3.5567      Y      -0.9695      Z      -5.7632
       Tot       6.8414
    Quadrupole Moments (Debye-Ang)
        XX     -50.7103     XY      -3.0227     YY     -53.6470
        XZ       3.9294     YZ      -1.8302     ZZ     -57.0124
    Octopole Moments (Debye-Ang^2)
       XXX      87.5200    XXY       5.6430    XYY      25.1852
       YYY     -27.1990    XXZ     -53.9692    XYZ       1.8756
       YYZ     -41.5890    XZZ      46.8484    YZZ      -7.5768
       ZZZ    -134.5014
    Hexadecapole Moments (Debye-Ang^3)
      XXXX    -513.4026   XXXY     -22.7461   XXYY    -131.3039
      XYYY      30.2989   YYYY    -252.2875   XXXZ     126.1784
      XXYZ     -16.4336   XYYZ      33.4555   YYYZ     -15.0478
      XXZZ    -188.0722   XYZZ       6.3439   YYZZ    -119.6833
      XZZZ     142.0853   YZZZ     -14.6660   ZZZZ    -517.2342
 -----------------------------------------------------------------
 Total job time:  207.10s(wall), 821.72s(cpu) 
 Thu Dec  7 15:59:10 2023

        *************************************************************
        *                                                           *
        *  Thank you very much for using Q-Chem.  Have a nice day.  *
        *                                                           *
        *************************************************************


