
Running Job 1 of 2 Q_in.in
qchem Q_in.in_89416.0 /scratch/ari.fischer/qChem1710992.hpc-mn1/qchem89416/ 0
/usr/local/qchem-5.4.1/exe/qcprog.exe_s Q_in.in_89416.0 /scratch/ari.fischer/qChem1710992.hpc-mn1/qchem89416/
                  Welcome to Q-Chem
     A Quantum Leap Into The Future Of Chemistry


 Q-Chem 5.4, Q-Chem, Inc., Pleasanton, CA (2021)

 License issued to: Nanyang Technological University (site)

 E. Epifanovsky,  A. T. B. Gilbert,  Xintian Feng,  Joonho Lee,  Yuezhi Mao,  
 N. Mardirossian,  P. Pokhilko,  A. White,  M. Wormit,  M. P. Coons,  
 A. L. Dempwolff,  Zhengting Gan,  D. Hait,  P. R. Horn,  L. D. Jacobson,  
 I. Kaliman,  J. Kussmann,  A. W. Lange,  Ka Un Lao,  D. S. Levine,  Jie Liu,  
 S. C. McKenzie,  A. F. Morrison,  K. Nanda,  F. Plasser,  D. R. Rehn,  
 M. L. Vidal,  Zhi-Qiang You,  Ying Zhu,  B. Alam,  B. Albrecht,  
 A. Aldossary,  E. Alguire,  J. H. Andersen,  D. Barton,  K. Begam,  A. Behn,  
 Y. A. Bernard,  E. J. Berquist,  H. Burton,  A. Carreras,  K. Carter-Fenk,  
 R. Chakraborty,  A. D. Chien,  K. D. Closser,  V. Cofer-Shabica,  
 S. Dasgupta,  Jia Deng,  M. de Wergifosse,  M. Diedenhofen,  Hainam Do,  
 S. Ehlert,  Po-Tung Fang,  S. Fatehi,  Qingguo Feng,  T. Friedhoff,  
 J. Gayvert,  Qinghui Ge,  G. Gidofalvi,  M. Goldey,  J. Gomes,  
 C. Gonzalez-Espinoza,  S. Gulania,  A. Gunina,  M. W. D. Hanson-Heine,  
 P. H. P. Harbach,  A. W. Hauser,  M. F. Herbst,  M. Hernandez Vera,  
 M. Hodecker,  Z. C. Holden,  S. Houck,  Xunkun Huang,  Kerwin Hui,  
 B. C. Huynh,  M. Ivanov,  Hyunjun Ji,  Hanjie Jiang,  B. Kaduk,  S. Kaehler,  
 K. Khistyaev,  Jaehoon Kim,  P. Klunzinger,  Z. Koczor-Benda,  
 Joong Hoon Koh,  D. Kosenkov,  L. Koulias,  T. Kowalczyk,  C. M. Krauter,  
 K. Kue,  A. Kunitsa,  T. Kus,  A. Landau,  K. V. Lawler,  D. Lefrancois,  
 S. Lehtola,  Rain Li,  Yi-Pei Li,  Jiashu Liang,  M. Liebenthal,  
 Hung-Hsuan Lin,  You-Sheng Lin,  Fenglai Liu,  Kuan-Yu Liu,  
 M. Loipersberger,  A. Luenser,  A. Manjanath,  P. Manohar,  E. Mansoor,  
 S. F. Manzer,  Shan-Ping Mao,  A. V. Marenich,  T. Markovich,  S. Mason,  
 S. A. Maurer,  P. F. McLaughlin,  M. F. S. J. Menger,  J.-M. Mewes,  
 S. A. Mewes,  P. Morgante,  J. W. Mullinax,  K. J. Oosterbaan,  G. Paran,  
 Alexander C. Paul,  Suranjan K. Paul,  F. Pavosevic,  Zheng Pei,  S. Prager,  
 E. I. Proynov,  E. Ramos,  B. Rana,  A. E. Rask,  A. Rettig,  R. M. Richard,  
 F. Rob,  E. Rossomme,  T. Scheele,  M. Scheurer,  M. Schneider,  
 N. Sergueev,  S. M. Sharada,  W. Skomorowski,  D. W. Small,  C. J. Stein,  
 Yu-Chuan Su,  E. J. Sundstrom,  Zhen Tao,  J. Thirman,  T. Tsuchimochi,  
 N. M. Tubman,  S. P. Veccham,  O. Vydrov,  J. Wenzel,  J. Witte,  A. Yamada,  
 Kun Yao,  S. Yeganeh,  S. R. Yost,  A. Zech,  Igor Ying Zhang,  Xing Zhang,  
 Yu Zhang,  D. Zuev,  A. Aspuru-Guzik,  A. T. Bell,  N. A. Besley,  
 K. B. Bravaya,  B. R. Brooks,  D. Casanova,  Jeng-Da Chai,  S. Coriani,  
 C. J. Cramer,  A. E. DePrince, III,  R. A. DiStasio Jr.,  A. Dreuw,  
 B. D. Dunietz,  T. R. Furlani,  W. A. Goddard III,  S. Grimme,  
 S. Hammes-Schiffer,  T. Head-Gordon,  W. J. Hehre,  Chao-Ping Hsu,  
 T.-C. Jagau,  Yousung Jung,  A. Klamt,  Jing Kong,  D. S. Lambrecht,  
 WanZhen Liang,  N. J. Mayhall,  C. W. McCurdy,  J. B. Neaton,  
 C. Ochsenfeld,  J. A. Parkhill,  R. Peverati,  V. A. Rassolov,  Yihan Shao,  
 L. V. Slipchenko,  T. Stauch,  R. P. Steele,  J. E. Subotnik,  
 A. J. W. Thom,  A. Tkatchenko,  D. G. Truhlar,  T. Van Voorhis,  
 T. A. Wesolowski,  K. B. Whaley,  H. L. Woodcock III,  P. M. Zimmerman,  
 S. Faraji,  P. M. W. Gill,  M. Head-Gordon,  J. M. Herbert,  A. I. Krylov

 Additional authors for Version 5.4.1: 
 S. Kotaru,  Shaozhi Li,  Xiangyuan Li,  F. Matz,  A. Molle,  Haisheng Ren,  
 Yingli Su,  Hung-Yi Tsai,  C. Utku,  Fang Wang

 Contributors to earlier versions of Q-Chem not listed above: 
 R. D. Adamson,  B. Austin,  R. Baer,  J. Baker,  G. J. O. Beran,  
 K. Brandhorst,  S. T. Brown,  E. F. C. Byrd,  A. K. Chakraborty,  
 G. K. L. Chan,  Chun-Min Chang,  Yunqing Chen,  C.-L. Cheng,  
 Siu Hung Chien,  D. M. Chipman,  D. L. Crittenden,  H. Dachsel,  
 R. J. Doerksen,  A. D. Dutoi,  R. G. Edgar,  J. Fosso-Tande,  
 L. Fusti-Molnar,  D. Ghosh,  A. Ghysels,  A. Golubeva-Zadorozhnaya,  
 J. Gonthier,  M. S. Gordon,  S. R. Gwaltney,  G. Hawkins,  J. E. Herr,  
 A. Heyden,  S. Hirata,  E. G. Hohenstein,  G. Kedziora,  F. J. Keil,  
 C. Kelley,  Jihan Kim,  R. A. King,  R. Z. Khaliullin,  P. P. Korambath,  
 W. Kurlancheek,  A. Laurent,  A. M. Lee,  M. S. Lee,  S. V. Levchenko,  
 Ching Yeh Lin,  D. Liotard,  E. Livshits,  R. C. Lochan,  I. Lotan,  
 L. A. Martinez-Martinez,  P. E. Maslen,  N. Nair,  D. P. O'Neill,  
 D. Neuhauser,  E. Neuscamman,  C. M. Oana,  R. Olivares-Amaya,  R. Olson,  
 T. M. Perrine,  B. Peters,  P. A. Pieniazek,  A. Prociuk,  Y. M. Rhee,  
 J. Ritchie,  M. A. Rohrdanz,  E. Rosta,  N. J. Russ,  H. F. Schaefer III,  
 M. W. Schmidt,  N. E. Schultz,  S. Sharma,  N. Shenvi,  C. D. Sherrill,  
 A. C. Simmonett,  A. Sodt,  T. Stein,  D. Stuck,  K. S. Thanthiriwatte,  
 V. Vanovschi,  L. Vogt,  Tao Wang,  A. Warshel,  M. A. Watson,  
 C. F. Williams,  Q. Wu,  X. Xu,  Jun Yang,  W. Zhang,  Yan Zhao

 Please cite Q-Chem as follows:
 Y. Shao et al., Mol. Phys. 113, 184-215 (2015)
 DOI: 10.1080/00268976.2014.952696

 Q-Chem 5.4.1 for Intel X86 EM64T Linux

 Parts of Q-Chem use Armadillo 9.800.1 (Horizon Scraper).
 http://arma.sourceforge.net/

 Q-Chem begins on Thu Aug 31 16:47:56 2023  

 Host: 
0

     Scratch files written to /scratch/ari.fischer/qChem1710992.hpc-mn1/qchem89416//
 Aug1521 |scratch|qcdevops|jenkins|workspace|build_RNUM 8249   
 Processing $rem in /usr/local/qchem-5.4.1/config/preferences:
 Processing $rem in /home/ari.fischer/.qchemrc:
 Symmetry turned off for PCM/SM12/SMD calculation


!!********************************************.
!!******************Warning*******************.
!!Desired Analytical derivatives not available.
!!Finite difference job might take a long time.
!!********************************************.
!!********************************************.


 2-order derivative to be evaluated numerically with 1-order analytical derivatives

 Checking the input file for inconsistencies... 	...done.

--------------------------------------------------------------
User input:
--------------------------------------------------------------
$molecule
0 2
C        -0.8879616665   -0.7378520920    0.2174537040
O        -0.5303919011   -1.6361589609    0.9859185005
O        -1.4876823690   -0.5156365480   -0.7747935549
O        -0.2632173821    0.6311554173    0.8894757567
O         0.3479937295    0.2423807884    1.9518529618
H         0.0852773892   -0.9147752047    1.8000274319
$end

$rem
BASIS = 6-311++G(2df,2p)
GUI = 2
JOB_TYPE = Frequency
METHOD = wB97M-V
SOLVENT_METHOD = SMD
SCF_ALGORITHM = DIIS_GDM
MAX_SCF_CYCLES = 400
SCF_CONVERGENCE = 7
THRESH = 12
$end

--------------------------------------------------------------
 ----------------------------------------------------------------
             Standard Nuclear Orientation (Angstroms)
    I     Atom           X                Y                Z
 ----------------------------------------------------------------
    1      C      -0.8879616665    -0.7378520920     0.2174537040
    2      O      -0.5303919011    -1.6361589609     0.9859185005
    3      O      -1.4876823690    -0.5156365480    -0.7747935549
    4      O      -0.2632173821     0.6311554173     0.8894757567
    5      O       0.3479937295     0.2423807884     1.9518529618
    6      H       0.0852773892    -0.9147752047     1.8000274319
 ----------------------------------------------------------------
 Nuclear Repulsion Energy =         175.74982467 hartrees
 There are       20 alpha and       19 beta electrons
 Requested basis set is 6-311++G(2df,2p)
 There are 46 shells and 180 basis functions

 Total QAlloc Memory Limit 288000 MB
 Mega-Array Size       188 MB
 MEM_STATIC part       192 MB
 
 Citation of the SMD model:
 Marenich, A.V.; Cramer, C.J.; Truhlar, D.G.
 J. Phys. Chem. B 2009, 113, 6378-6396.
 iSolventCode=           1
 Solvent: water                                                           
 
 vradii
            1           2           3           4           5           6
    1   1.8500000   1.5200000   1.5200000   1.5200000   1.5200000   1.2000000
 Changing PCM_VDW_RADII to SMD_RADIUS
 Discretize the solute cavity surface with Lebedev spheres
	Using 110 Lebedev grid points for each H atom
	Using 194 Lebedev grid points for other atoms
	Atomic van der Waals radii will be scaled by 1.20
 Remove points where switching function is < 1.0e-08
 Keep 615 surface tesserae and discard 465 interior tesserae
 Molecular Surface Area = 77.152 Angst**2

                       Distance Matrix (Angstroms)
             C (  1)   O (  2)   O (  3)   O (  4)   O (  5)
   O (  2)  1.235050
   O (  3)  1.180508  2.296102
   O (  4)  1.648060  2.285038  2.363099
   O (  5)  2.344479  2.287685  3.373262  1.285834
   H (  6)  1.866289  1.249887  3.043553  1.827691  1.196278
 
 A cutoff of  1.0D-12 yielded   1046 shell pairs
 There are     16296 function pairs (     21185 Cartesian)
 Smallest overlap matrix eigenvalue = 3.96E-04
 Guess from superposition of atomic densities
 Warning:  Energy on first SCF cycle will be non-variational
 SAD guess density has 39.000000 electrons

 -----------------------------------------------------------------------
  General SCF calculation program by
  Eric Jon Sundstrom, Paul Horn, Yuezhi Mao, Dmitri Zuev, Alec White,
  David Stuck, Shaama M.S., Shane Yost, Joonho Lee, David Small,
  Daniel Levine, Susi Lehtola, Hugh Burton, Evgeny Epifanovsky,
  Bang C. Huynh
 -----------------------------------------------------------------------
 Exchange:     0.1500 Hartree-Fock + 1.0000 wB97M-V + LR-HF
 Correlation:  1.0000 wB97M-V
 Using SG-2 standard quadrature grid
 Nonlocal Correlation:  VV10 with C = 0.0100 and b = 6.00 and scale = 1.00000
 Grid used for NLC:  SG-1 standard quadrature
 using 8 threads for integral computing
 -------------------------------------------------------
 OpenMP Integral computing Module                
 Release: version 1.0, May 2013, Q-Chem Inc. Pittsburgh 
 -------------------------------------------------------
 
 Citation of the SMD model:
 Marenich, A.V.; Cramer, C.J.; Truhlar, D.G.
 J. Phys. Chem. B 2009, 113, 6378-6396.
 iSolventCode=           1
 Solvent: water                                                           
 
 vradii
            1           2           3           4           5           6
    1   1.8500000   1.5200000   1.5200000   1.5200000   1.5200000   1.2000000
 -------------------------------------------------------
 OpenMP BLAS3 based DFT computing Module                
 Release: version 1.0, May 2013, Q-Chem Inc. Pittsburgh 
 -------------------------------------------------------
 A unrestricted SCF calculation will be
 performed using DIIS, GDM
 SCF converges when RMS gradient is below 1.0e-07
 ---------------------------------------
  Cycle       Energy         DIIS error
 ---------------------------------------
    1    -340.3376396156      1.92e-02  
    2    -339.3661667988      3.41e-03  Done DIIS. Switching to GDM
 ---------------------------------------
  Cycle       Energy        RMS Gradient
 ---------------------------------------
    1    -339.3661667988      1.92e-01   Descent step
    2    -339.4996546890      2.05e-02   Normal BFGS step
    3    -339.5076299105      2.59e-02   Normal BFGS step
    4    -339.5088721476      1.21e-02   Normal BFGS step
    5    -339.5094343305      4.47e-03   Normal BFGS step
    6    -339.5094991618      1.49e-03   Normal BFGS step
    7    -339.5095080739      1.35e-03   Normal BFGS step
    8    -339.5095124787      3.92e-04   Normal BFGS step
    9    -339.5095135540      2.20e-04   Normal BFGS step
   10    -339.5095138070      9.31e-05   Normal BFGS step
   11    -339.5095138500      5.37e-05   Normal BFGS step
   12    -339.5095138598      2.02e-05   Normal BFGS step
   13    -339.5095138613      6.85e-06   Normal BFGS step
   14    -339.5095138615      1.78e-06   Normal BFGS step
   15    -339.5095138615      3.78e-07   Normal BFGS step
   16    -339.5095138615      1.65e-07   Normal BFGS step
   17    -339.5095138615      1.21e-07   Normal BFGS step
   18    -339.5095138615      8.46e-08  Convergence criterion met
 ---------------------------------------
 SCF time:   CPU 189.62s  wall 24.00s 
<S^2> =          0.754347522
(3)  G-ENP(liq) elect-nuc-pol free energy of system     -339.509513862 a.u.
(4)  G-CDS(liq) cavity-dispersion-solvent structure 
     free energy                                                3.8460 kcal/mol
(6)  G-S(liq) free energy of system                     -339.503384910 a.u.
 SCF   energy in the final basis set =     -339.5033849104
 Total energy in the final basis set =     -339.5033849104
 
 --------------------------------------------------------------
 
                    Orbital Energies (a.u.)
 --------------------------------------------------------------
 
 Alpha MOs
 -- Occupied --
-19.4940 -19.4832 -19.3930 -19.3720 -10.5480  -1.4080  -1.2688  -1.2121
 -1.0226  -0.7730  -0.7044  -0.6755  -0.6584  -0.6149  -0.5954  -0.5392
 -0.5033  -0.4641  -0.4386  -0.4273
 -- Virtual --
  0.0381   0.0639   0.0822   0.0851   0.1077   0.1085   0.1650   0.1709
  0.1886   0.2127   0.2221   0.2301   0.2438   0.2543   0.2637   0.2901
  0.2979   0.3116   0.3150   0.3215   0.3334   0.3606   0.3761   0.3911
  0.4299   0.4633   0.5622   0.6283   0.6560   0.6608   0.7320   0.7684
  0.8241   0.8479   0.9129   0.9589   0.9997   1.0567   1.0580   1.0628
  1.0953   1.1083   1.1153   1.1378   1.1555   1.1711   1.1906   1.1917
  1.2593   1.3606   1.3696   1.4469   1.4728   1.4905   1.5291   1.5778
  1.6235   1.6882   1.7399   1.7632   1.8496   1.8895   1.9482   2.0567
  2.0626   2.1058   2.1894   2.2058   2.3139   2.3570   2.4249   2.5366
  2.5895   2.6154   2.7208   2.7896   2.8134   2.9041   2.9644   3.0341
  3.1382   3.1883   3.2999   3.3444   3.3756   3.4688   3.5206   3.6154
  3.6692   3.6875   3.7754   3.8533   3.9570   4.0721   4.3587   4.4880
  4.6534   4.6621   4.7837   4.9079   4.9752   4.9947   5.0744   5.0887
  5.1034   5.1262   5.1263   5.1673   5.1688   5.1756   5.1991   5.2437
  5.2512   5.3074   5.3125   5.3363   5.4054   5.4269   5.4931   5.5245
  5.6105   5.6534   5.7160   5.7705   5.9152   6.2341   6.2736   6.3171
  6.4807   6.6285   6.7638   6.8418   6.8726   6.8841   6.9248   6.9252
  7.0295   7.0373   7.0519   7.0872   7.1975   7.1977   7.2797   7.3169
  7.4285   7.4509   7.4652   7.4854   7.5328   7.6252   7.7568   7.9546
  7.9882   8.1131   8.2064  25.1322  50.4217  50.4440  50.6740  50.8468
 
 Beta MOs
 -- Occupied --
-19.4801 -19.4669 -19.3934 -19.3715 -10.5483  -1.3817  -1.2664  -1.2117
 -0.9832  -0.7630  -0.7026  -0.6419  -0.6272  -0.6110  -0.5514  -0.5298
 -0.4977  -0.4588  -0.4178
 -- Virtual --
 -0.0735   0.0386   0.0647   0.0827   0.0857   0.1094   0.1139   0.1694
  0.1775   0.1914   0.2186   0.2267   0.2323   0.2508   0.2553   0.2652
  0.2926   0.2983   0.3133   0.3165   0.3237   0.3352   0.3637   0.3765
  0.3936   0.4298   0.4634   0.5636   0.6301   0.6567   0.6621   0.7320
  0.7682   0.8240   0.8548   0.9138   0.9621   1.0059   1.0607   1.0630
  1.0879   1.0979   1.1125   1.1201   1.1572   1.1658   1.1734   1.1932
  1.1942   1.2607   1.3750   1.3876   1.4532   1.4862   1.4990   1.5365
  1.5823   1.6495   1.6921   1.7405   1.7665   1.8521   1.9013   1.9605
  2.0592   2.0703   2.1137   2.2042   2.2229   2.3223   2.3710   2.4278
  2.5377   2.5923   2.6250   2.7235   2.7931   2.8129   2.9029   2.9640
  3.0363   3.1371   3.1879   3.2995   3.3432   3.3756   3.4707   3.5218
  3.6164   3.6683   3.6872   3.7741   3.8559   3.9583   4.0704   4.3586
  4.5296   4.6737   4.6885   4.7996   4.9220   5.0162   5.0489   5.1020
  5.1081   5.1336   5.1375   5.1528   5.1722   5.1845   5.1961   5.2251
  5.2592   5.2710   5.3159   5.3363   5.3447   5.4100   5.4357   5.5119
  5.5318   5.6356   5.6569   5.7199   5.7835   5.9257   6.2383   6.2747
  6.3253   6.5299   6.6396   6.8041   6.8561   6.8862   6.9118   6.9290
  6.9553   7.0578   7.0896   7.0997   7.1095   7.2003   7.2064   7.3117
  7.3574   7.4322   7.4635   7.4884   7.4942   7.5412   7.6357   7.7624
  7.9597   8.0006   8.1320   8.2069  25.1320  50.4336  50.4556  50.6740
 50.8470
 --------------------------------------------------------------
 
          Ground-State Mulliken Net Atomic Charges

     Atom                 Charge (a.u.)    Spin (a.u.)
  --------------------------------------------------------
      1 C                     0.480848      -0.014323
      2 O                    -0.384722      -0.008017
      3 O                    -0.389190       0.016870
      4 O                    -0.047954       0.457675
      5 O                    -0.025498       0.554636
      6 H                     0.366516      -0.006841
  --------------------------------------------------------
  Sum of atomic charges =     0.000000
  Sum of spin   charges =     1.000000

 -----------------------------------------------------------------
                    Cartesian Multipole Moments
 -----------------------------------------------------------------
    Charge (ESU x 10^10)
                 0.0000
    Dipole Moment (Debye)
         X       1.6824      Y       0.0508      Z       2.6439
       Tot       3.1342
    Quadrupole Moments (Debye-Ang)
        XX     -29.4508     XY      -1.7491     YY     -30.4441
        XZ      -2.5146     YZ      -1.6939     ZZ     -25.7712
    Octopole Moments (Debye-Ang^2)
       XXX      49.8015    XXY      12.7980    XYY      18.0208
       YYY      40.8949    XXZ     -13.3548    XYZ      -0.7685
       YYZ     -19.9918    XZZ      17.3434    YZZ       8.0955
       ZZZ     -46.4435
    Hexadecapole Moments (Debye-Ang^3)
      XXXX    -142.5990   XXXY     -37.9522   XXYY     -50.1746
      XYYY     -40.3218   YYYY    -169.4635   XXXZ     -22.8995
      XXYZ       0.8450   XYYZ      -2.8320   YYYZ      14.2837
      XXZZ     -64.0557   XYZZ     -16.7696   YYZZ     -64.6701
      XZZZ     -17.6876   YZZZ      -3.3773   ZZZZ    -218.8165
 -----------------------------------------------------------------
 Calculating analytic gradient of the SCF energy
 Gradient of CDS energy
            1           2           3           4           5           6
    1  -0.0005575  -0.0003209   0.0005561   0.0001801  -0.0000120   0.0001541
    2  -0.0015085   0.0011116   0.0001317   0.0000890   0.0002816  -0.0001055
    3  -0.0005357  -0.0007597   0.0008438   0.0002681  -0.0000861   0.0002697
 Gradient of SCF Energy
            1           2           3           4           5           6
    1   0.0023670  -0.0031718  -0.0028487  -0.0018489   0.0032793   0.0022231
    2   0.0061869  -0.0109187  -0.0002576   0.0029790   0.0052859  -0.0032754
    3   0.0019603  -0.0026196  -0.0040979  -0.0037693   0.0041135   0.0044130
 Max gradient component =       1.092E-02
 RMS gradient           =       4.256E-03
 Computing fast CPCM-SWIG gradient
 Updating gradient with PCM contributions...
 -- total gradient after adding PCM contribution --
---------------------------------------------------
  Atom         X              Y              Z     
---------------------------------------------------
   1      -0.000047      -0.000017       0.000110
   2      -0.000036       0.000023      -0.000023
   3      -0.000142      -0.000051       0.000112
   4       0.000037      -0.000010      -0.000063
   5       0.000103       0.000024      -0.000091
   6       0.000084       0.000031      -0.000046
---------------------------------------------------
 Number of fixed atoms: 0
 Gradient time:  CPU 26.92 s  wall 3.96 s
 ######################################################
 ######################################################
 # Starting finite difference calculation for IDERIV  #
 Finite diff step size:  1.88973e-03 a.u.
 ----------------------------------------------------------------
             Standard Nuclear Orientation (Angstroms)
    I     Atom           X                Y                Z
 ----------------------------------------------------------------
    1      C      -0.8869616665    -0.7378520920     0.2174537040
    2      O      -0.5303919011    -1.6361589609     0.9859185005
    3      O      -1.4876823690    -0.5156365480    -0.7747935549
    4      O      -0.2632173821     0.6311554173     0.8894757567
    5      O       0.3479937295     0.2423807884     1.9518529618
    6      H       0.0852773892    -0.9147752047     1.8000274319
 ----------------------------------------------------------------
 Nuclear Repulsion Energy =         175.75183437 hartrees
 There are       20 alpha and       19 beta electrons
 Discretize the solute cavity surface with Lebedev spheres
	Using 110 Lebedev grid points for each H atom
	Using 194 Lebedev grid points for other atoms
	Atomic van der Waals radii will be scaled by 1.20
 Remove points where switching function is < 1.0e-08
 Keep 615 surface tesserae and discard 465 interior tesserae
 Molecular Surface Area = 77.152 Angst**2

                       Distance Matrix (Angstroms)
             C (  1)   O (  2)   O (  3)   O (  4)   O (  5)
   O (  2)  1.234761
   O (  3)  1.181016  2.296102
   O (  4)  1.647681  2.285038  2.363099
   O (  5)  2.343952  2.287685  3.373262  1.285834
   H (  6)  1.865768  1.249887  3.043553  1.827691  1.196278
 
 Requested basis set is 6-311++G(2df,2p)
 There are 46 shells and 180 basis functions
 A cutoff of  1.0D-12 yielded   1046 shell pairs
 There are     16296 function pairs (     21185 Cartesian)
 Smallest overlap matrix eigenvalue = 3.96E-04
 Guess MOs from SCF MO coefficient file

 -----------------------------------------------------------------------
  General SCF calculation program by
  Eric Jon Sundstrom, Paul Horn, Yuezhi Mao, Dmitri Zuev, Alec White,
  David Stuck, Shaama M.S., Shane Yost, Joonho Lee, David Small,
  Daniel Levine, Susi Lehtola, Hugh Burton, Evgeny Epifanovsky,
  Bang C. Huynh
 -----------------------------------------------------------------------
 Exchange:     0.1500 Hartree-Fock + 1.0000 wB97M-V + LR-HF
 Correlation:  1.0000 wB97M-V
 Using SG-2 standard quadrature grid
 Nonlocal Correlation:  VV10 with C = 0.0100 and b = 6.00 and scale = 1.00000
 Grid used for NLC:  SG-1 standard quadrature
 
 Citation of the SMD model:
 Marenich, A.V.; Cramer, C.J.; Truhlar, D.G.
 J. Phys. Chem. B 2009, 113, 6378-6396.
 iSolventCode=           1
 Solvent: water                                                           
 
 vradii
            1           2           3           4           5           6
    1   1.8500000   1.5200000   1.5200000   1.5200000   1.5200000   1.2000000
 -------------------------------------------------------
 OpenMP BLAS3 based DFT computing Module                
 Release: version 1.0, May 2013, Q-Chem Inc. Pittsburgh 
 -------------------------------------------------------
 A unrestricted SCF calculation will be
 performed using Roothaan-Hall, DIIS, GDM
 SCF converges when RMS gradient is below 1.0e-07
 ---------------------------------------
  Cycle       Energy         DIIS error
 ---------------------------------------
    1    -339.4941605913      3.21e-04  Roothaan Step
 ---------------------------------------
  Cycle       Energy         DIIS error
 ---------------------------------------
    1    -339.5054484283      4.58e-04  
    2    -339.5065839245      5.32e-04  Done DIIS. Switching to GDM
 ---------------------------------------
  Cycle       Energy        RMS Gradient
 ---------------------------------------
    1    -339.5065839245      2.35e-02   Normal BFGS step
    2    -339.5050271890      3.60e-02  Line search: overstep
    3    -339.5094327852      2.86e-03   Normal BFGS step
    4    -339.5094954082      1.14e-03   Normal BFGS step
    5    -339.5095076604      9.01e-04   Normal BFGS step
    6    -339.5095113146      1.54e-04   Normal BFGS step
    7    -339.5095118467      4.38e-04   Normal BFGS step
    8    -339.5095120487      6.71e-05   Normal BFGS step
    9    -339.5095121437      5.42e-05   Normal BFGS step
   10    -339.5095121575      2.13e-05   Normal BFGS step
   11    -339.5095121602      1.27e-05   Normal BFGS step
   12    -339.5095121606      3.54e-06   Normal BFGS step
   13    -339.5095121607      1.61e-06   Normal BFGS step
   14    -339.5095121607      1.15e-06   Normal BFGS step
   15    -339.5095121607      6.73e-07   Normal BFGS step
   16    -339.5095121607      3.43e-07   Normal BFGS step
   17    -339.5095121607      1.52e-07   Normal BFGS step
   18    -339.5095121607      8.98e-08  Convergence criterion met
 ---------------------------------------
 SCF time:   CPU 202.36s  wall 26.00s 
<S^2> =          0.754347305
(3)  G-ENP(liq) elect-nuc-pol free energy of system     -339.509512161 a.u.
(4)  G-CDS(liq) cavity-dispersion-solvent structure 
     free energy                                                3.8453 kcal/mol
(6)  G-S(liq) free energy of system                     -339.503384268 a.u.
 SCF   energy in the final basis set =     -339.5033842676
 Total energy in the final basis set =     -339.5033842676
 
 --------------------------------------------------------------
 
                    Orbital Energies (a.u.)
 --------------------------------------------------------------
 
 Alpha MOs
 -- Occupied --
-19.4941 -19.4833 -19.3931 -19.3719 -10.5480  -1.4081  -1.2688  -1.2120
 -1.0227  -0.7731  -0.7044  -0.6756  -0.6585  -0.6148  -0.5954  -0.5391
 -0.5034  -0.4641  -0.4386  -0.4273
 -- Virtual --
  0.0381   0.0639   0.0822   0.0851   0.1076   0.1085   0.1651   0.1709
  0.1886   0.2127   0.2221   0.2301   0.2438   0.2543   0.2637   0.2901
  0.2979   0.3116   0.3150   0.3215   0.3334   0.3606   0.3761   0.3911
  0.4299   0.4634   0.5621   0.6283   0.6559   0.6608   0.7319   0.7683
  0.8241   0.8479   0.9128   0.9588   0.9997   1.0567   1.0580   1.0628
  1.0953   1.1083   1.1154   1.1378   1.1555   1.1711   1.1906   1.1917
  1.2592   1.3606   1.3696   1.4470   1.4728   1.4905   1.5291   1.5778
  1.6235   1.6882   1.7398   1.7632   1.8494   1.8895   1.9481   2.0568
  2.0626   2.1057   2.1893   2.2058   2.3139   2.3569   2.4251   2.5364
  2.5896   2.6154   2.7209   2.7895   2.8134   2.9041   2.9645   3.0344
  3.1383   3.1883   3.3001   3.3447   3.3757   3.4691   3.5208   3.6155
  3.6689   3.6871   3.7753   3.8533   3.9570   4.0720   4.3577   4.4880
  4.6534   4.6621   4.7836   4.9078   4.9751   4.9947   5.0744   5.0887
  5.1035   5.1262   5.1264   5.1673   5.1688   5.1755   5.1991   5.2438
  5.2511   5.3074   5.3124   5.3365   5.4056   5.4270   5.4929   5.5241
  5.6104   5.6533   5.7160   5.7704   5.9158   6.2333   6.2734   6.3168
  6.4806   6.6283   6.7636   6.8412   6.8725   6.8843   6.9241   6.9252
  7.0290   7.0374   7.0516   7.0871   7.1970   7.1978   7.2794   7.3169
  7.4290   7.4507   7.4652   7.4854   7.5332   7.6252   7.7567   7.9545
  7.9882   8.1130   8.2053  25.1322  50.4216  50.4440  50.6741  50.8457
 
 Beta MOs
 -- Occupied --
-19.4802 -19.4670 -19.3935 -19.3714 -10.5484  -1.3818  -1.2664  -1.2115
 -0.9833  -0.7632  -0.7026  -0.6419  -0.6272  -0.6109  -0.5515  -0.5297
 -0.4978  -0.4587  -0.4178
 -- Virtual --
 -0.0736   0.0386   0.0647   0.0827   0.0857   0.1094   0.1138   0.1694
  0.1774   0.1914   0.2186   0.2267   0.2323   0.2508   0.2552   0.2652
  0.2926   0.2983   0.3133   0.3165   0.3236   0.3352   0.3637   0.3765
  0.3936   0.4298   0.4635   0.5636   0.6301   0.6565   0.6621   0.7319
  0.7681   0.8240   0.8548   0.9138   0.9620   1.0058   1.0606   1.0629
  1.0879   1.0980   1.1125   1.1201   1.1572   1.1658   1.1735   1.1932
  1.1943   1.2607   1.3750   1.3875   1.4533   1.4861   1.4990   1.5365
  1.5824   1.6494   1.6921   1.7404   1.7664   1.8519   1.9013   1.9604
  2.0593   2.0703   2.1136   2.2041   2.2229   2.3223   2.3708   2.4279
  2.5375   2.5923   2.6250   2.7236   2.7930   2.8129   2.9030   2.9642
  3.0366   3.1372   3.1879   3.2996   3.3435   3.3757   3.4710   3.5220
  3.6165   3.6679   3.6868   3.7739   3.8558   3.9582   4.0703   4.3576
  4.5295   4.6736   4.6884   4.7995   4.9220   5.0162   5.0489   5.1021
  5.1081   5.1336   5.1375   5.1527   5.1722   5.1844   5.1960   5.2252
  5.2593   5.2710   5.3158   5.3363   5.3449   5.4102   5.4358   5.5117
  5.5314   5.6355   5.6568   5.7199   5.7835   5.9263   6.2375   6.2746
  6.3249   6.5298   6.6394   6.8038   6.8558   6.8864   6.9114   6.9291
  6.9549   7.0570   7.0896   7.0996   7.1095   7.2004   7.2059   7.3114
  7.3573   7.4328   7.4633   7.4885   7.4942   7.5415   7.6357   7.7622
  7.9596   8.0005   8.1320   8.2058  25.1320  50.4335  50.4555  50.6740
 50.8459
 --------------------------------------------------------------
 
          Ground-State Mulliken Net Atomic Charges

     Atom                 Charge (a.u.)    Spin (a.u.)
  --------------------------------------------------------
      1 C                     0.480785      -0.014345
      2 O                    -0.384396      -0.008025
      3 O                    -0.389886       0.016934
      4 O                    -0.047729       0.457495
      5 O                    -0.025263       0.554782
      6 H                     0.366488      -0.006841
  --------------------------------------------------------
  Sum of atomic charges =    -0.000000
  Sum of spin   charges =     1.000000

 -----------------------------------------------------------------
                    Cartesian Multipole Moments
 -----------------------------------------------------------------
    Charge (ESU x 10^10)
                 0.0000
    Dipole Moment (Debye)
         X       1.6898      Y       0.0512      Z       2.6507
       Tot       3.1439
    Quadrupole Moments (Debye-Ang)
        XX     -29.4632     XY      -1.7523     YY     -30.4405
        XZ      -2.5181     YZ      -1.6967     ZZ     -25.7680
    Octopole Moments (Debye-Ang^2)
       XXX      49.8150    XXY      12.8056    XYY      18.0194
       YYY      40.8899    XXZ     -13.3469    XYZ      -0.7639
       YYZ     -19.9810    XZZ      17.3435    YZZ       8.0957
       ZZZ     -46.4196
    Hexadecapole Moments (Debye-Ang^3)
      XXXX    -142.6029   XXXY     -37.9566   XXYY     -50.1737
      XYYY     -40.3108   YYYY    -169.4362   XXXZ     -22.9117
      XXYZ       0.8395   XYYZ      -2.8432   YYYZ      14.2699
      XXZZ     -64.0498   XYZZ     -16.7643   YYZZ     -64.6621
      XZZZ     -17.7004   YZZZ      -3.3863   ZZZZ    -218.7908
 -----------------------------------------------------------------
 Calculating analytic gradient of the SCF energy
 Gradient of CDS energy
            1           2           3           4           5           6
    1  -0.0005624  -0.0003188   0.0005594   0.0001798  -0.0000121   0.0001541
    2  -0.0015049   0.0011087   0.0001308   0.0000890   0.0002817  -0.0001054
    3  -0.0005430  -0.0007572   0.0008483   0.0002681  -0.0000860   0.0002696
 Gradient of SCF Energy
            1           2           3           4           5           6
    1   0.0031525  -0.0034095  -0.0033164  -0.0019094   0.0032903   0.0021924
    2   0.0058059  -0.0107643  -0.0001308   0.0030851   0.0052687  -0.0032647
    3   0.0026825  -0.0027854  -0.0046278  -0.0037458   0.0040993   0.0043772
 Max gradient component =       1.076E-02
 RMS gradient           =       4.319E-03
 Computing fast CPCM-SWIG gradient
 Updating gradient with PCM contributions...
 -- total gradient after adding PCM contribution --
---------------------------------------------------
  Atom         X              Y              Z     
---------------------------------------------------
   1       0.000727      -0.000404       0.000848
   2      -0.000256       0.000188      -0.000184
   3      -0.000613       0.000080      -0.000431
   4      -0.000016       0.000087      -0.000030
   5       0.000108       0.000002      -0.000118
   6       0.000051       0.000047      -0.000085
---------------------------------------------------
 Number of fixed atoms: 0
 Gradient time:  CPU 26.71 s  wall 3.91 s
 ----------------------------------------------------------------
             Standard Nuclear Orientation (Angstroms)
    I     Atom           X                Y                Z
 ----------------------------------------------------------------
    1      C      -0.8889616665    -0.7378520920     0.2174537040
    2      O      -0.5303919011    -1.6361589609     0.9859185005
    3      O      -1.4876823690    -0.5156365480    -0.7747935549
    4      O      -0.2632173821     0.6311554173     0.8894757567
    5      O       0.3479937295     0.2423807884     1.9518529618
    6      H       0.0852773892    -0.9147752047     1.8000274319
 ----------------------------------------------------------------
 Nuclear Repulsion Energy =         175.74779775 hartrees
 There are       20 alpha and       19 beta electrons
 Discretize the solute cavity surface with Lebedev spheres
	Using 110 Lebedev grid points for each H atom
	Using 194 Lebedev grid points for other atoms
	Atomic van der Waals radii will be scaled by 1.20
 Remove points where switching function is < 1.0e-08
 Keep 615 surface tesserae and discard 465 interior tesserae
 Molecular Surface Area = 77.152 Angst**2

                       Distance Matrix (Angstroms)
             C (  1)   O (  2)   O (  3)   O (  4)   O (  5)
   O (  2)  1.235340
   O (  3)  1.180000  2.296102
   O (  4)  1.648439  2.285038  2.363099
   O (  5)  2.345007  2.287685  3.373262  1.285834
   H (  6)  1.866811  1.249887  3.043553  1.827691  1.196278
 
 Requested basis set is 6-311++G(2df,2p)
 There are 46 shells and 180 basis functions
 A cutoff of  1.0D-12 yielded   1046 shell pairs
 There are     16296 function pairs (     21185 Cartesian)
 Smallest overlap matrix eigenvalue = 3.96E-04
 Guess MOs from SCF MO coefficient file

 -----------------------------------------------------------------------
  General SCF calculation program by
  Eric Jon Sundstrom, Paul Horn, Yuezhi Mao, Dmitri Zuev, Alec White,
  David Stuck, Shaama M.S., Shane Yost, Joonho Lee, David Small,
  Daniel Levine, Susi Lehtola, Hugh Burton, Evgeny Epifanovsky,
  Bang C. Huynh
 -----------------------------------------------------------------------
 Exchange:     0.1500 Hartree-Fock + 1.0000 wB97M-V + LR-HF
 Correlation:  1.0000 wB97M-V
 Using SG-2 standard quadrature grid
 Nonlocal Correlation:  VV10 with C = 0.0100 and b = 6.00 and scale = 1.00000
 Grid used for NLC:  SG-1 standard quadrature
 
 Citation of the SMD model:
 Marenich, A.V.; Cramer, C.J.; Truhlar, D.G.
 J. Phys. Chem. B 2009, 113, 6378-6396.
 iSolventCode=           1
 Solvent: water                                                           
 
 vradii
            1           2           3           4           5           6
    1   1.8500000   1.5200000   1.5200000   1.5200000   1.5200000   1.2000000
 -------------------------------------------------------
 OpenMP BLAS3 based DFT computing Module                
 Release: version 1.0, May 2013, Q-Chem Inc. Pittsburgh 
 -------------------------------------------------------
 A unrestricted SCF calculation will be
 performed using Roothaan-Hall, DIIS, GDM
 SCF converges when RMS gradient is below 1.0e-07
 ---------------------------------------
  Cycle       Energy         DIIS error
 ---------------------------------------
    1    -339.4941664932      3.22e-04  Roothaan Step
 ---------------------------------------
  Cycle       Energy         DIIS error
 ---------------------------------------
    1    -339.5054940160      4.56e-04  
    2    -339.5066431828      5.27e-04  Done DIIS. Switching to GDM
 ---------------------------------------
  Cycle       Energy        RMS Gradient
 ---------------------------------------
    1    -339.5066431828      2.30e-02   Normal BFGS step
    2    -339.5051294327      3.53e-02  Line search: overstep
    3    -339.5094363814      2.81e-03   Normal BFGS step
    4    -339.5094976531      1.17e-03   Normal BFGS step
    5    -339.5095096579      9.29e-04   Normal BFGS step
    6    -339.5095132628      1.58e-04   Normal BFGS step
    7    -339.5095137786      4.35e-04   Normal BFGS step
    8    -339.5095139817      7.22e-05   Normal BFGS step
    9    -339.5095140736      5.40e-05   Normal BFGS step
   10    -339.5095140882      2.14e-05   Normal BFGS step
   11    -339.5095140909      1.30e-05   Normal BFGS step
   12    -339.5095140913      4.83e-06   Normal BFGS step
   13    -339.5095140914      3.63e-06   Normal BFGS step
   14    -339.5095140914      2.27e-06   Normal BFGS step
   15    -339.5095140915      1.04e-06   Normal BFGS step
   16    -339.5095140915      5.64e-07   Normal BFGS step
   17    -339.5095140915      2.26e-07   Normal BFGS step
   18    -339.5095140915      1.10e-07   Normal BFGS step
   19    -339.5095140915      3.54e-08  Convergence criterion met
 ---------------------------------------
 SCF time:   CPU 209.19s  wall 27.00s 
<S^2> =          0.754347753
(3)  G-ENP(liq) elect-nuc-pol free energy of system     -339.509514091 a.u.
(4)  G-CDS(liq) cavity-dispersion-solvent structure 
     free energy                                                3.8466 kcal/mol
(6)  G-S(liq) free energy of system                     -339.503384091 a.u.
 SCF   energy in the final basis set =     -339.5033840914
 Total energy in the final basis set =     -339.5033840914
 
 --------------------------------------------------------------
 
                    Orbital Energies (a.u.)
 --------------------------------------------------------------
 
 Alpha MOs
 -- Occupied --
-19.4939 -19.4831 -19.3930 -19.3721 -10.5479  -1.4079  -1.2689  -1.2123
 -1.0225  -0.7729  -0.7044  -0.6754  -0.6584  -0.6150  -0.5955  -0.5393
 -0.5032  -0.4641  -0.4386  -0.4273
 -- Virtual --
  0.0381   0.0639   0.0822   0.0851   0.1078   0.1084   0.1650   0.1710
  0.1886   0.2127   0.2221   0.2301   0.2438   0.2543   0.2637   0.2901
  0.2979   0.3116   0.3150   0.3215   0.3334   0.3606   0.3761   0.3911
  0.4298   0.4633   0.5622   0.6284   0.6562   0.6608   0.7320   0.7685
  0.8241   0.8478   0.9129   0.9589   0.9997   1.0567   1.0580   1.0628
  1.0952   1.1082   1.1153   1.1378   1.1555   1.1711   1.1906   1.1917
  1.2593   1.3606   1.3696   1.4469   1.4729   1.4905   1.5291   1.5777
  1.6236   1.6882   1.7400   1.7633   1.8499   1.8895   1.9483   2.0565
  2.0626   2.1059   2.1895   2.2058   2.3138   2.3572   2.4248   2.5368
  2.5895   2.6154   2.7207   2.7897   2.8134   2.9040   2.9642   3.0339
  3.1381   3.1883   3.2998   3.3441   3.3756   3.4686   3.5204   3.6153
  3.6696   3.6879   3.7755   3.8534   3.9570   4.0722   4.3597   4.4881
  4.6535   4.6622   4.7838   4.9079   4.9753   4.9948   5.0745   5.0887
  5.1033   5.1262   5.1262   5.1673   5.1689   5.1756   5.1991   5.2436
  5.2512   5.3075   5.3126   5.3361   5.4052   5.4268   5.4934   5.5249
  5.6105   5.6534   5.7160   5.7705   5.9145   6.2349   6.2737   6.3175
  6.4808   6.6287   6.7639   6.8423   6.8726   6.8839   6.9251   6.9256
  7.0300   7.0373   7.0522   7.0874   7.1975   7.1981   7.2800   7.3169
  7.4281   7.4511   7.4651   7.4854   7.5325   7.6252   7.7570   7.9547
  7.9882   8.1131   8.2075  25.1323  50.4218  50.4441  50.6739  50.8479
 
 Beta MOs
 -- Occupied --
-19.4799 -19.4668 -19.3933 -19.3717 -10.5483  -1.3816  -1.2665  -1.2118
 -0.9831  -0.7629  -0.7025  -0.6418  -0.6272  -0.6111  -0.5514  -0.5300
 -0.4976  -0.4588  -0.4178
 -- Virtual --
 -0.0734   0.0386   0.0647   0.0827   0.0857   0.1094   0.1139   0.1694
  0.1775   0.1914   0.2186   0.2267   0.2323   0.2508   0.2553   0.2652
  0.2926   0.2983   0.3133   0.3165   0.3237   0.3352   0.3637   0.3765
  0.3936   0.4298   0.4633   0.5637   0.6302   0.6568   0.6621   0.7320
  0.7683   0.8240   0.8547   0.9138   0.9621   1.0059   1.0607   1.0630
  1.0878   1.0979   1.1125   1.1201   1.1571   1.1658   1.1734   1.1932
  1.1942   1.2608   1.3751   1.3876   1.4531   1.4863   1.4990   1.5365
  1.5823   1.6496   1.6921   1.7406   1.7665   1.8524   1.9013   1.9606
  2.0591   2.0703   2.1138   2.2043   2.2228   2.3222   2.3711   2.4277
  2.5378   2.5922   2.6250   2.7234   2.7932   2.8129   2.9029   2.9639
  3.0361   3.1370   3.1879   3.2994   3.3429   3.3756   3.4705   3.5216
  3.6162   3.6686   3.6876   3.7742   3.8559   3.9583   4.0705   4.3596
  4.5296   4.6737   4.6885   4.7997   4.9220   5.0163   5.0490   5.1019
  5.1080   5.1336   5.1374   5.1529   5.1721   5.1845   5.1961   5.2251
  5.2591   5.2710   5.3160   5.3363   5.3445   5.4098   5.4356   5.5122
  5.5322   5.6356   5.6570   5.7199   5.7836   5.9251   6.2391   6.2749
  6.3256   6.5299   6.6398   6.8045   6.8565   6.8860   6.9121   6.9290
  6.9558   7.0586   7.0897   7.0998   7.1095   7.2002   7.2069   7.3120
  7.3574   7.4317   7.4637   7.4884   7.4941   7.5408   7.6357   7.7626
  7.9598   8.0006   8.1321   8.2080  25.1320  50.4337  50.4557  50.6739
 50.8481
 --------------------------------------------------------------
 
          Ground-State Mulliken Net Atomic Charges

     Atom                 Charge (a.u.)    Spin (a.u.)
  --------------------------------------------------------
      1 C                     0.480911      -0.014301
      2 O                    -0.385047      -0.008010
      3 O                    -0.388494       0.016807
      4 O                    -0.048178       0.457855
      5 O                    -0.025734       0.554490
      6 H                     0.366543      -0.006841
  --------------------------------------------------------
  Sum of atomic charges =     0.000000
  Sum of spin   charges =     1.000000

 -----------------------------------------------------------------
                    Cartesian Multipole Moments
 -----------------------------------------------------------------
    Charge (ESU x 10^10)
                -0.0000
    Dipole Moment (Debye)
         X       1.6749      Y       0.0504      Z       2.6371
       Tot       3.1244
    Quadrupole Moments (Debye-Ang)
        XX     -29.4385     XY      -1.7460     YY     -30.4477
        XZ      -2.5112     YZ      -1.6911     ZZ     -25.7744
    Octopole Moments (Debye-Ang^2)
       XXX      49.7879    XXY      12.7905    XYY      18.0222
       YYY      40.8999    XXZ     -13.3628    XYZ      -0.7732
       YYZ     -20.0026    XZZ      17.3433    YZZ       8.0954
       ZZZ     -46.4674
    Hexadecapole Moments (Debye-Ang^3)
      XXXX    -142.5950   XXXY     -37.9479   XXYY     -50.1755
      XYYY     -40.3329   YYYY    -169.4909   XXXZ     -22.8872
      XXYZ       0.8505   XYYZ      -2.8207   YYYZ      14.2976
      XXZZ     -64.0617   XYZZ     -16.7750   YYZZ     -64.6781
      XZZZ     -17.6747   YZZZ      -3.3684   ZZZZ    -218.8422
 -----------------------------------------------------------------
 Calculating analytic gradient of the SCF energy
 Gradient of CDS energy
            1           2           3           4           5           6
    1  -0.0005526  -0.0003231   0.0005529   0.0001804  -0.0000118   0.0001541
    2  -0.0015121   0.0011146   0.0001326   0.0000890   0.0002815  -0.0001056
    3  -0.0005284  -0.0007623   0.0008393   0.0002680  -0.0000863   0.0002697
 Gradient of SCF Energy
            1           2           3           4           5           6
    1   0.0015811  -0.0029338  -0.0023808  -0.0017885   0.0032682   0.0022538
    2   0.0065682  -0.0110731  -0.0003850   0.0028729   0.0053031  -0.0032861
    3   0.0012362  -0.0024539  -0.0035658  -0.0037927   0.0041275   0.0044487
 Max gradient component =       1.107E-02
 RMS gradient           =       4.218E-03
 Computing fast CPCM-SWIG gradient
 Updating gradient with PCM contributions...
 -- total gradient after adding PCM contribution --
---------------------------------------------------
  Atom         X              Y              Z     
---------------------------------------------------
   1      -0.000820       0.000370      -0.000630
   2       0.000185      -0.000142       0.000138
   3       0.000330      -0.000182       0.000658
   4       0.000089      -0.000107      -0.000095
   5       0.000098       0.000046      -0.000064
   6       0.000118       0.000014      -0.000007
---------------------------------------------------
 Number of fixed atoms: 0
 Gradient time:  CPU 26.89 s  wall 3.85 s
 ----------------------------------------------------------------
             Standard Nuclear Orientation (Angstroms)
    I     Atom           X                Y                Z
 ----------------------------------------------------------------
    1      C      -0.8879616665    -0.7368520920     0.2174537040
    2      O      -0.5303919011    -1.6361589609     0.9859185005
    3      O      -1.4876823690    -0.5156365480    -0.7747935549
    4      O      -0.2632173821     0.6311554173     0.8894757567
    5      O       0.3479937295     0.2423807884     1.9518529618
    6      H       0.0852773892    -0.9147752047     1.8000274319
 ----------------------------------------------------------------
 Nuclear Repulsion Energy =         175.75075711 hartrees
 There are       20 alpha and       19 beta electrons
 Discretize the solute cavity surface with Lebedev spheres
	Using 110 Lebedev grid points for each H atom
	Using 194 Lebedev grid points for other atoms
	Atomic van der Waals radii will be scaled by 1.20
 Remove points where switching function is < 1.0e-08
 Keep 615 surface tesserae and discard 465 interior tesserae
 Molecular Surface Area = 77.150 Angst**2

                       Distance Matrix (Angstroms)
             C (  1)   O (  2)   O (  3)   O (  4)   O (  5)
   O (  2)  1.235778
   O (  3)  1.180320  2.296102
   O (  4)  1.647229  2.285038  2.363099
   O (  5)  2.344061  2.287685  3.373262  1.285834
   H (  6)  1.866384  1.249887  3.043553  1.827691  1.196278
 
 Requested basis set is 6-311++G(2df,2p)
 There are 46 shells and 180 basis functions
 A cutoff of  1.0D-12 yielded   1046 shell pairs
 There are     16296 function pairs (     21185 Cartesian)
 Smallest overlap matrix eigenvalue = 3.96E-04
 Guess MOs from SCF MO coefficient file

 -----------------------------------------------------------------------
  General SCF calculation program by
  Eric Jon Sundstrom, Paul Horn, Yuezhi Mao, Dmitri Zuev, Alec White,
  David Stuck, Shaama M.S., Shane Yost, Joonho Lee, David Small,
  Daniel Levine, Susi Lehtola, Hugh Burton, Evgeny Epifanovsky,
  Bang C. Huynh
 -----------------------------------------------------------------------
 Exchange:     0.1500 Hartree-Fock + 1.0000 wB97M-V + LR-HF
 Correlation:  1.0000 wB97M-V
 Using SG-2 standard quadrature grid
 Nonlocal Correlation:  VV10 with C = 0.0100 and b = 6.00 and scale = 1.00000
 Grid used for NLC:  SG-1 standard quadrature
 
 Citation of the SMD model:
 Marenich, A.V.; Cramer, C.J.; Truhlar, D.G.
 J. Phys. Chem. B 2009, 113, 6378-6396.
 iSolventCode=           1
 Solvent: water                                                           
 
 vradii
            1           2           3           4           5           6
    1   1.8500000   1.5200000   1.5200000   1.5200000   1.5200000   1.2000000
 -------------------------------------------------------
 OpenMP BLAS3 based DFT computing Module                
 Release: version 1.0, May 2013, Q-Chem Inc. Pittsburgh 
 -------------------------------------------------------
 A unrestricted SCF calculation will be
 performed using Roothaan-Hall, DIIS, GDM
 SCF converges when RMS gradient is below 1.0e-07
 ---------------------------------------
  Cycle       Energy         DIIS error
 ---------------------------------------
    1    -339.4941944743      3.20e-04  Roothaan Step
 ---------------------------------------
  Cycle       Energy         DIIS error
 ---------------------------------------
    1    -339.5054749978      4.56e-04  
    2    -339.5066197340      5.29e-04  Done DIIS. Switching to GDM
 ---------------------------------------
  Cycle       Energy        RMS Gradient
 ---------------------------------------
    1    -339.5066197340      2.32e-02   Normal BFGS step
    2    -339.5050954758      3.55e-02  Line search: overstep
    3    -339.5094312836      2.83e-03   Normal BFGS step
    4    -339.5094936219      1.17e-03   Normal BFGS step
    5    -339.5095058582      9.08e-04   Normal BFGS step
    6    -339.5095095248      1.54e-04   Normal BFGS step
    7    -339.5095100686      4.42e-04   Normal BFGS step
    8    -339.5095102762      6.61e-05   Normal BFGS step
    9    -339.5095103732      5.33e-05   Normal BFGS step
   10    -339.5095103866      2.12e-05   Normal BFGS step
   11    -339.5095103893      1.25e-05   Normal BFGS step
   12    -339.5095103897      3.41e-06   Normal BFGS step
   13    -339.5095103897      1.37e-06   Normal BFGS step
   14    -339.5095103898      9.83e-07   Normal BFGS step
   15    -339.5095103898      6.01e-07   Normal BFGS step
   16    -339.5095103898      3.23e-07   Normal BFGS step
   17    -339.5095103898      1.35e-07   Normal BFGS step
   18    -339.5095103898      8.58e-08  Convergence criterion met
 ---------------------------------------
 SCF time:   CPU 201.36s  wall 25.00s 
<S^2> =          0.754345479
(3)  G-ENP(liq) elect-nuc-pol free energy of system     -339.509510390 a.u.
(4)  G-CDS(liq) cavity-dispersion-solvent structure 
     free energy                                                3.8442 kcal/mol
(6)  G-S(liq) free energy of system                     -339.503384298 a.u.
 SCF   energy in the final basis set =     -339.5033842978
 Total energy in the final basis set =     -339.5033842978
 
 --------------------------------------------------------------
 
                    Orbital Energies (a.u.)
 --------------------------------------------------------------
 
 Alpha MOs
 -- Occupied --
-19.4942 -19.4833 -19.3929 -19.3720 -10.5480  -1.4081  -1.2687  -1.2120
 -1.0228  -0.7730  -0.7043  -0.6756  -0.6586  -0.6149  -0.5953  -0.5392
 -0.5032  -0.4640  -0.4387  -0.4274
 -- Virtual --
  0.0381   0.0639   0.0822   0.0851   0.1076   0.1084   0.1651   0.1709
  0.1886   0.2127   0.2220   0.2301   0.2438   0.2543   0.2637   0.2901
  0.2979   0.3116   0.3150   0.3215   0.3334   0.3606   0.3761   0.3911
  0.4298   0.4633   0.5622   0.6284   0.6556   0.6609   0.7320   0.7682
  0.8242   0.8477   0.9130   0.9588   0.9997   1.0567   1.0579   1.0629
  1.0952   1.1083   1.1154   1.1378   1.1555   1.1710   1.1906   1.1917
  1.2592   1.3605   1.3696   1.4471   1.4729   1.4905   1.5293   1.5778
  1.6235   1.6879   1.7394   1.7634   1.8493   1.8895   1.9482   2.0568
  2.0629   2.1059   2.1891   2.2058   2.3141   2.3568   2.4252   2.5363
  2.5896   2.6153   2.7208   2.7897   2.8134   2.9040   2.9644   3.0346
  3.1383   3.1883   3.2999   3.3450   3.3757   3.4692   3.5206   3.6153
  3.6687   3.6869   3.7754   3.8534   3.9566   4.0721   4.3573   4.4880
  4.6534   4.6621   4.7837   4.9079   4.9751   4.9948   5.0743   5.0886
  5.1033   5.1262   5.1263   5.1674   5.1687   5.1756   5.1992   5.2438
  5.2512   5.3075   5.3124   5.3364   5.4052   5.4271   5.4930   5.5244
  5.6103   5.6532   5.7156   5.7703   5.9170   6.2320   6.2729   6.3166
  6.4806   6.6283   6.7636   6.8409   6.8725   6.8849   6.9235   6.9251
  7.0287   7.0375   7.0514   7.0870   7.1969   7.1980   7.2795   7.3167
  7.4290   7.4504   7.4654   7.4850   7.5335   7.6258   7.7569   7.9547
  7.9880   8.1130   8.2041  25.1317  50.4216  50.4439  50.6738  50.8453
 
 Beta MOs
 -- Occupied --
-19.4802 -19.4670 -19.3932 -19.3716 -10.5483  -1.3818  -1.2663  -1.2115
 -0.9834  -0.7631  -0.7025  -0.6420  -0.6272  -0.6110  -0.5515  -0.5298
 -0.4976  -0.4587  -0.4179
 -- Virtual --
 -0.0736   0.0386   0.0647   0.0827   0.0857   0.1094   0.1138   0.1695
  0.1774   0.1915   0.2186   0.2267   0.2323   0.2508   0.2553   0.2652
  0.2926   0.2983   0.3134   0.3165   0.3236   0.3351   0.3637   0.3765
  0.3936   0.4298   0.4634   0.5637   0.6302   0.6562   0.6622   0.7320
  0.7679   0.8241   0.8546   0.9140   0.9620   1.0059   1.0607   1.0630
  1.0878   1.0979   1.1126   1.1202   1.1572   1.1658   1.1734   1.1932
  1.1943   1.2607   1.3751   1.3875   1.4534   1.4862   1.4991   1.5367
  1.5824   1.6494   1.6918   1.7400   1.7666   1.8518   1.9013   1.9606
  2.0593   2.0705   2.1139   2.2039   2.2229   2.3225   2.3708   2.4281
  2.5374   2.5924   2.6248   2.7235   2.7932   2.8129   2.9029   2.9641
  3.0368   3.1372   3.1879   3.2995   3.3438   3.3757   3.4711   3.5218
  3.6163   3.6678   3.6866   3.7740   3.8559   3.9578   4.0703   4.3572
  4.5295   4.6737   4.6885   4.7996   4.9220   5.0163   5.0489   5.1019
  5.1080   5.1337   5.1374   5.1527   5.1722   5.1846   5.1959   5.2252
  5.2593   5.2710   5.3157   5.3363   5.3449   5.4097   5.4360   5.5118
  5.5317   5.6355   5.6568   5.7195   5.7834   5.9276   6.2361   6.2740
  6.3249   6.5297   6.6393   6.8036   6.8557   6.8871   6.9110   6.9290
  6.9545   7.0565   7.0895   7.0995   7.1097   7.2006   7.2059   7.3116
  7.3571   7.4327   7.4631   7.4885   7.4938   7.5418   7.6362   7.7625
  7.9598   8.0004   8.1320   8.2046  25.1314  50.4335  50.4555  50.6738
 50.8454
 --------------------------------------------------------------
 
          Ground-State Mulliken Net Atomic Charges

     Atom                 Charge (a.u.)    Spin (a.u.)
  --------------------------------------------------------
      1 C                     0.480801      -0.014327
      2 O                    -0.385582      -0.008030
      3 O                    -0.388966       0.016946
      4 O                    -0.047667       0.457194
      5 O                    -0.025060       0.555044
      6 H                     0.366474      -0.006827
  --------------------------------------------------------
  Sum of atomic charges =     0.000000
  Sum of spin   charges =     1.000000

 -----------------------------------------------------------------
                    Cartesian Multipole Moments
 -----------------------------------------------------------------
    Charge (ESU x 10^10)
                 0.0000
    Dipole Moment (Debye)
         X       1.6835      Y       0.0616      Z       2.6439
       Tot       3.1349
    Quadrupole Moments (Debye-Ang)
        XX     -29.4502     XY      -1.7552     YY     -30.4599
        XZ      -2.5104     YZ      -1.6846     ZZ     -25.7669
    Octopole Moments (Debye-Ang^2)
       XXX      49.8009    XXY      12.8025    XYY      18.0319
       YYY      40.9201    XXZ     -13.3579    XYZ      -0.7751
       YYZ     -20.0032    XZZ      17.3486    YZZ       8.1029
       ZZZ     -46.4349
    Hexadecapole Moments (Debye-Ang^3)
      XXXX    -142.5882   XXXY     -37.9483   XXYY     -50.1833
      XYYY     -40.3327   YYYY    -169.4969   XXXZ     -22.8874
      XXYZ       0.8562   XYYZ      -2.8212   YYYZ      14.3114
      XXZZ     -64.0544   XYZZ     -16.7711   YYZZ     -64.6769
      XZZZ     -17.6716   YZZZ      -3.3534   ZZZZ    -218.7784
 -----------------------------------------------------------------
 Calculating analytic gradient of the SCF energy
 Gradient of CDS energy
            1           2           3           4           5           6
    1  -0.0005538  -0.0003238   0.0005550   0.0001804  -0.0000119   0.0001542
    2  -0.0015176   0.0011204   0.0001326   0.0000888   0.0002816  -0.0001058
    3  -0.0005281  -0.0007661   0.0008420   0.0002685  -0.0000861   0.0002698
 Gradient of SCF Energy
            1           2           3           4           5           6
    1   0.0019844  -0.0030505  -0.0027081  -0.0017952   0.0032581   0.0023113
    2   0.0068732  -0.0115012  -0.0004511   0.0029859   0.0051740  -0.0030808
    3   0.0012881  -0.0023317  -0.0038663  -0.0037073   0.0041110   0.0045062
 Max gradient component =       1.150E-02
 RMS gradient           =       4.331E-03
 Computing fast CPCM-SWIG gradient
 Updating gradient with PCM contributions...
 -- total gradient after adding PCM contribution --
---------------------------------------------------
  Atom         X              Y              Z     
---------------------------------------------------
   1      -0.000433       0.000665      -0.000572
   2       0.000096      -0.000553       0.000284
   3       0.000000      -0.000229       0.000343
   4       0.000092      -0.000013       0.000005
   5       0.000077      -0.000071      -0.000104
   6       0.000167       0.000201       0.000044
---------------------------------------------------
 Number of fixed atoms: 0
 Gradient time:  CPU 26.59 s  wall 3.85 s
 ----------------------------------------------------------------
             Standard Nuclear Orientation (Angstroms)
    I     Atom           X                Y                Z
 ----------------------------------------------------------------
    1      C      -0.8879616665    -0.7388520920     0.2174537040
    2      O      -0.5303919011    -1.6361589609     0.9859185005
    3      O      -1.4876823690    -0.5156365480    -0.7747935549
    4      O      -0.2632173821     0.6311554173     0.8894757567
    5      O       0.3479937295     0.2423807884     1.9518529618
    6      H       0.0852773892    -0.9147752047     1.8000274319
 ----------------------------------------------------------------
 Nuclear Repulsion Energy =         175.74889101 hartrees
 There are       20 alpha and       19 beta electrons
 Discretize the solute cavity surface with Lebedev spheres
	Using 110 Lebedev grid points for each H atom
	Using 194 Lebedev grid points for other atoms
	Atomic van der Waals radii will be scaled by 1.20
 Remove points where switching function is < 1.0e-08
 Keep 615 surface tesserae and discard 465 interior tesserae
 Molecular Surface Area = 77.154 Angst**2

                       Distance Matrix (Angstroms)
             C (  1)   O (  2)   O (  3)   O (  4)   O (  5)
   O (  2)  1.234323
   O (  3)  1.180697  2.296102
   O (  4)  1.648890  2.285038  2.363099
   O (  5)  2.344898  2.287685  3.373262  1.285834
   H (  6)  1.866195  1.249887  3.043553  1.827691  1.196278
 
 Requested basis set is 6-311++G(2df,2p)
 There are 46 shells and 180 basis functions
 A cutoff of  1.0D-12 yielded   1046 shell pairs
 There are     16296 function pairs (     21185 Cartesian)
 Smallest overlap matrix eigenvalue = 3.96E-04
 Guess MOs from SCF MO coefficient file

 -----------------------------------------------------------------------
  General SCF calculation program by
  Eric Jon Sundstrom, Paul Horn, Yuezhi Mao, Dmitri Zuev, Alec White,
  David Stuck, Shaama M.S., Shane Yost, Joonho Lee, David Small,
  Daniel Levine, Susi Lehtola, Hugh Burton, Evgeny Epifanovsky,
  Bang C. Huynh
 -----------------------------------------------------------------------
 Exchange:     0.1500 Hartree-Fock + 1.0000 wB97M-V + LR-HF
 Correlation:  1.0000 wB97M-V
 Using SG-2 standard quadrature grid
 Nonlocal Correlation:  VV10 with C = 0.0100 and b = 6.00 and scale = 1.00000
 Grid used for NLC:  SG-1 standard quadrature
 
 Citation of the SMD model:
 Marenich, A.V.; Cramer, C.J.; Truhlar, D.G.
 J. Phys. Chem. B 2009, 113, 6378-6396.
 iSolventCode=           1
 Solvent: water                                                           
 
 vradii
            1           2           3           4           5           6
    1   1.8500000   1.5200000   1.5200000   1.5200000   1.5200000   1.2000000
 -------------------------------------------------------
 OpenMP BLAS3 based DFT computing Module                
 Release: version 1.0, May 2013, Q-Chem Inc. Pittsburgh 
 -------------------------------------------------------
 A unrestricted SCF calculation will be
 performed using Roothaan-Hall, DIIS, GDM
 SCF converges when RMS gradient is below 1.0e-07
 ---------------------------------------
  Cycle       Energy         DIIS error
 ---------------------------------------
    1    -339.4941727581      3.21e-04  Roothaan Step
 ---------------------------------------
  Cycle       Energy         DIIS error
 ---------------------------------------
    1    -339.5054551633      4.58e-04  
    2    -339.5065806467      5.33e-04  Done DIIS. Switching to GDM
 ---------------------------------------
  Cycle       Energy        RMS Gradient
 ---------------------------------------
    1    -339.5065806467      2.35e-02   Normal BFGS step
    2    -339.5050135440      3.62e-02  Line search: overstep
    3    -339.5094376774      2.88e-03   Normal BFGS step
    4    -339.5094996212      1.17e-03   Normal BFGS step
    5    -339.5095116626      8.92e-04   Normal BFGS step
    6    -339.5095152345      1.55e-04   Normal BFGS step
    7    -339.5095157322      4.26e-04   Normal BFGS step
    8    -339.5095159200      6.88e-05   Normal BFGS step
    9    -339.5095160079      5.59e-05   Normal BFGS step
   10    -339.5095160225      2.09e-05   Normal BFGS step
   11    -339.5095160251      1.32e-05   Normal BFGS step
   12    -339.5095160255      3.92e-06   Normal BFGS step
   13    -339.5095160256      1.23e-06   Normal BFGS step
   14    -339.5095160256      6.20e-07   Normal BFGS step
   15    -339.5095160256      2.21e-07   Normal BFGS step
   16    -339.5095160256      1.26e-07   Normal BFGS step
   17    -339.5095160256      7.68e-08  Convergence criterion met
 ---------------------------------------
 SCF time:   CPU 192.46s  wall 24.00s 
<S^2> =          0.754349570
(3)  G-ENP(liq) elect-nuc-pol free energy of system     -339.509516026 a.u.
(4)  G-CDS(liq) cavity-dispersion-solvent structure 
     free energy                                                3.8478 kcal/mol
(6)  G-S(liq) free energy of system                     -339.503384232 a.u.
 SCF   energy in the final basis set =     -339.5033842323
 Total energy in the final basis set =     -339.5033842323
 
 --------------------------------------------------------------
 
                    Orbital Energies (a.u.)
 --------------------------------------------------------------
 
 Alpha MOs
 -- Occupied --
-19.4938 -19.4831 -19.3932 -19.3720 -10.5480  -1.4079  -1.2690  -1.2123
 -1.0224  -0.7729  -0.7045  -0.6754  -0.6583  -0.6150  -0.5955  -0.5392
 -0.5033  -0.4642  -0.4385  -0.4273
 -- Virtual --
  0.0381   0.0639   0.0822   0.0851   0.1078   0.1085   0.1649   0.1710
  0.1886   0.2127   0.2221   0.2301   0.2437   0.2543   0.2637   0.2901
  0.2979   0.3116   0.3149   0.3215   0.3334   0.3606   0.3761   0.3911
  0.4299   0.4634   0.5622   0.6283   0.6565   0.6607   0.7319   0.7687
  0.8240   0.8480   0.9127   0.9590   0.9997   1.0567   1.0580   1.0628
  1.0953   1.1082   1.1153   1.1379   1.1555   1.1712   1.1906   1.1918
  1.2593   1.3607   1.3695   1.4468   1.4728   1.4904   1.5289   1.5778
  1.6236   1.6885   1.7404   1.7631   1.8500   1.8895   1.9482   2.0565
  2.0623   2.1057   2.1897   2.2058   2.3136   2.3572   2.4247   2.5369
  2.5894   2.6155   2.7208   2.7895   2.8135   2.9041   2.9643   3.0336
  3.1381   3.1884   3.3000   3.3438   3.3755   3.4684   3.5206   3.6155
  3.6697   3.6880   3.7755   3.8533   3.9574   4.0722   4.3601   4.4881
  4.6535   4.6621   4.7837   4.9078   4.9753   4.9946   5.0745   5.0887
  5.1035   5.1261   5.1263   5.1673   5.1690   5.1755   5.1990   5.2435
  5.2511   5.3074   5.3127   5.3361   5.4056   5.4267   5.4932   5.5246
  5.6106   5.6535   5.7164   5.7707   5.9133   6.2362   6.2743   6.3176
  6.4808   6.6288   6.7639   6.8426   6.8726   6.8832   6.9251   6.9263
  7.0303   7.0372   7.0525   7.0874   7.1973   7.1982   7.2798   7.3171
  7.4281   7.4513   7.4649   7.4858   7.5322   7.6246   7.7567   7.9545
  7.9883   8.1131   8.2087  25.1328  50.4218  50.4441  50.6742  50.8484
 
 Beta MOs
 -- Occupied --
-19.4799 -19.4668 -19.3936 -19.3715 -10.5483  -1.3816  -1.2666  -1.2118
 -0.9830  -0.7630  -0.7027  -0.6418  -0.6273  -0.6111  -0.5514  -0.5298
 -0.4977  -0.4588  -0.4177
 -- Virtual --
 -0.0734   0.0386   0.0647   0.0827   0.0857   0.1094   0.1139   0.1693
  0.1775   0.1914   0.2186   0.2268   0.2323   0.2508   0.2553   0.2652
  0.2926   0.2982   0.3133   0.3165   0.3237   0.3352   0.3637   0.3765
  0.3937   0.4298   0.4634   0.5636   0.6301   0.6571   0.6620   0.7319
  0.7684   0.8239   0.8549   0.9136   0.9621   1.0059   1.0606   1.0629
  1.0879   1.0980   1.1125   1.1201   1.1571   1.1659   1.1735   1.1932
  1.1942   1.2607   1.3750   1.3876   1.4530   1.4862   1.4990   1.5363
  1.5823   1.6496   1.6924   1.7410   1.7663   1.8524   1.9013   1.9605
  2.0591   2.0700   2.1136   2.2045   2.2229   2.3220   2.3711   2.4276
  2.5380   2.5922   2.6251   2.7235   2.7930   2.8129   2.9030   2.9639
  3.0358   3.1370   3.1880   3.2996   3.3426   3.3756   3.4704   3.5218
  3.6165   3.6688   3.6877   3.7741   3.8559   3.9587   4.0704   4.3600
  4.5296   4.6737   4.6885   4.7996   4.9220   5.0161   5.0490   5.1020
  5.1081   5.1336   5.1375   5.1529   5.1721   5.1844   5.1962   5.2250
  5.2591   5.2711   5.3160   5.3363   5.3446   5.4102   5.4355   5.5121
  5.5319   5.6356   5.6570   5.7203   5.7837   5.9239   6.2405   6.2754
  6.3257   6.5300   6.6398   6.8047   6.8566   6.8854   6.9125   6.9290
  6.9562   7.0591   7.0898   7.0999   7.1093   7.2000   7.2070   7.3118
  7.3576   7.4317   7.4638   7.4883   7.4946   7.5405   7.6351   7.7623
  7.9596   8.0007   8.1321   8.2092  25.1326  50.4337  50.4557  50.6742
 50.8486
 --------------------------------------------------------------
 
          Ground-State Mulliken Net Atomic Charges

     Atom                 Charge (a.u.)    Spin (a.u.)
  --------------------------------------------------------
      1 C                     0.480896      -0.014319
      2 O                    -0.383862      -0.008005
      3 O                    -0.389414       0.016795
      4 O                    -0.048240       0.458155
      5 O                    -0.025937       0.554228
      6 H                     0.366557      -0.006854
  --------------------------------------------------------
  Sum of atomic charges =     0.000000
  Sum of spin   charges =     1.000000

 -----------------------------------------------------------------
                    Cartesian Multipole Moments
 -----------------------------------------------------------------
    Charge (ESU x 10^10)
                -0.0000
    Dipole Moment (Debye)
         X       1.6813      Y       0.0400      Z       2.6439
       Tot       3.1335
    Quadrupole Moments (Debye-Ang)
        XX     -29.4514     XY      -1.7431     YY     -30.4283
        XZ      -2.5189     YZ      -1.7032     ZZ     -25.7754
    Octopole Moments (Debye-Ang^2)
       XXX      49.8021    XXY      12.7936    XYY      18.0097
       YYY      40.8696    XXZ     -13.3518    XYZ      -0.7620
       YYZ     -19.9804    XZZ      17.3382    YZZ       8.0881
       ZZZ     -46.4521
    Hexadecapole Moments (Debye-Ang^3)
      XXXX    -142.6098   XXXY     -37.9562   XXYY     -50.1659
      XYYY     -40.3109   YYYY    -169.4302   XXXZ     -22.9115
      XXYZ       0.8339   XYYZ      -2.8428   YYYZ      14.2560
      XXZZ     -64.0571   XYZZ     -16.7682   YYZZ     -64.6633
      XZZZ     -17.7035   YZZZ      -3.4013   ZZZZ    -218.8546
 -----------------------------------------------------------------
 Calculating analytic gradient of the SCF energy
 Gradient of CDS energy
            1           2           3           4           5           6
    1  -0.0005611  -0.0003180   0.0005572   0.0001799  -0.0000120   0.0001541
    2  -0.0014995   0.0011029   0.0001309   0.0000893   0.0002816  -0.0001052
    3  -0.0005433  -0.0007534   0.0008456   0.0002677  -0.0000861   0.0002695
 Gradient of SCF Energy
            1           2           3           4           5           6
    1   0.0027513  -0.0032943  -0.0029897  -0.0019026   0.0033005   0.0021348
    2   0.0054985  -0.0103340  -0.0000638   0.0029714   0.0053981  -0.0034701
    3   0.0026358  -0.0029101  -0.0043301  -0.0038311   0.0041159   0.0043196
 Max gradient component =       1.033E-02
 RMS gradient           =       4.203E-03
 Computing fast CPCM-SWIG gradient
 Updating gradient with PCM contributions...
 -- total gradient after adding PCM contribution --
---------------------------------------------------
  Atom         X              Y              Z     
---------------------------------------------------
   1       0.000342      -0.000701       0.000795
   2      -0.000169       0.000601      -0.000332
   3      -0.000284       0.000128      -0.000119
   4      -0.000019      -0.000008      -0.000130
   5       0.000129       0.000119      -0.000078
   6       0.000001      -0.000140      -0.000136
---------------------------------------------------
 Number of fixed atoms: 0
 Gradient time:  CPU 26.79 s  wall 4.02 s
 ----------------------------------------------------------------
             Standard Nuclear Orientation (Angstroms)
    I     Atom           X                Y                Z
 ----------------------------------------------------------------
    1      C      -0.8879616665    -0.7378520920     0.2184537040
    2      O      -0.5303919011    -1.6361589609     0.9859185005
    3      O      -1.4876823690    -0.5156365480    -0.7747935549
    4      O      -0.2632173821     0.6311554173     0.8894757567
    5      O       0.3479937295     0.2423807884     1.9518529618
    6      H       0.0852773892    -0.9147752047     1.8000274319
 ----------------------------------------------------------------
 Nuclear Repulsion Energy =         175.75288024 hartrees
 There are       20 alpha and       19 beta electrons
 Discretize the solute cavity surface with Lebedev spheres
	Using 110 Lebedev grid points for each H atom
	Using 194 Lebedev grid points for other atoms
	Atomic van der Waals radii will be scaled by 1.20
 Remove points where switching function is < 1.0e-08
 Keep 615 surface tesserae and discard 465 interior tesserae
 Molecular Surface Area = 77.149 Angst**2

                       Distance Matrix (Angstroms)
             C (  1)   O (  2)   O (  3)   O (  4)   O (  5)
   O (  2)  1.234428
   O (  3)  1.181349  2.296102
   O (  4)  1.647652  2.285038  2.363099
   O (  5)  2.343740  2.287685  3.373262  1.285834
   H (  6)  1.865441  1.249887  3.043553  1.827691  1.196278
 
 Requested basis set is 6-311++G(2df,2p)
 There are 46 shells and 180 basis functions
 A cutoff of  1.0D-12 yielded   1046 shell pairs
 There are     16296 function pairs (     21185 Cartesian)
 Smallest overlap matrix eigenvalue = 3.96E-04
 Guess MOs from SCF MO coefficient file

 -----------------------------------------------------------------------
  General SCF calculation program by
  Eric Jon Sundstrom, Paul Horn, Yuezhi Mao, Dmitri Zuev, Alec White,
  David Stuck, Shaama M.S., Shane Yost, Joonho Lee, David Small,
  Daniel Levine, Susi Lehtola, Hugh Burton, Evgeny Epifanovsky,
  Bang C. Huynh
 -----------------------------------------------------------------------
 Exchange:     0.1500 Hartree-Fock + 1.0000 wB97M-V + LR-HF
 Correlation:  1.0000 wB97M-V
 Using SG-2 standard quadrature grid
 Nonlocal Correlation:  VV10 with C = 0.0100 and b = 6.00 and scale = 1.00000
 Grid used for NLC:  SG-1 standard quadrature
 
 Citation of the SMD model:
 Marenich, A.V.; Cramer, C.J.; Truhlar, D.G.
 J. Phys. Chem. B 2009, 113, 6378-6396.
 iSolventCode=           1
 Solvent: water                                                           
 
 vradii
            1           2           3           4           5           6
    1   1.8500000   1.5200000   1.5200000   1.5200000   1.5200000   1.2000000
 -------------------------------------------------------
 OpenMP BLAS3 based DFT computing Module                
 Release: version 1.0, May 2013, Q-Chem Inc. Pittsburgh 
 -------------------------------------------------------
 A unrestricted SCF calculation will be
 performed using Roothaan-Hall, DIIS, GDM
 SCF converges when RMS gradient is below 1.0e-07
 ---------------------------------------
  Cycle       Energy         DIIS error
 ---------------------------------------
    1    -339.4941544638      3.21e-04  Roothaan Step
 ---------------------------------------
  Cycle       Energy         DIIS error
 ---------------------------------------
    1    -339.5054402509      4.58e-04  
    2    -339.5065764173      5.33e-04  Done DIIS. Switching to GDM
 ---------------------------------------
  Cycle       Energy        RMS Gradient
 ---------------------------------------
    1    -339.5065764173      2.36e-02   Normal BFGS step
    2    -339.5050144642      3.61e-02  Line search: overstep
    3    -339.5094310968      2.86e-03   Normal BFGS step
    4    -339.5094941274      1.18e-03   Normal BFGS step
    5    -339.5095064818      9.06e-04   Normal BFGS step
    6    -339.5095101752      1.54e-04   Normal BFGS step
    7    -339.5095107228      4.44e-04   Normal BFGS step
    8    -339.5095109312      6.67e-05   Normal BFGS step
    9    -339.5095110290      5.37e-05   Normal BFGS step
   10    -339.5095110425      2.13e-05   Normal BFGS step
   11    -339.5095110453      1.25e-05   Normal BFGS step
   12    -339.5095110456      3.40e-06   Normal BFGS step
   13    -339.5095110457      1.58e-06   Normal BFGS step
   14    -339.5095110457      1.12e-06   Normal BFGS step
   15    -339.5095110457      6.65e-07   Normal BFGS step
   16    -339.5095110457      3.37e-07   Normal BFGS step
   17    -339.5095110457      1.51e-07   Normal BFGS step
   18    -339.5095110457      9.02e-08  Convergence criterion met
 ---------------------------------------
 SCF time:   CPU 201.68s  wall 25.00s 
<S^2> =          0.754347625
(3)  G-ENP(liq) elect-nuc-pol free energy of system     -339.509511046 a.u.
(4)  G-CDS(liq) cavity-dispersion-solvent structure 
     free energy                                                3.8453 kcal/mol
(6)  G-S(liq) free energy of system                     -339.503383120 a.u.
 SCF   energy in the final basis set =     -339.5033831201
 Total energy in the final basis set =     -339.5033831201
 
 --------------------------------------------------------------
 
                    Orbital Energies (a.u.)
 --------------------------------------------------------------
 
 Alpha MOs
 -- Occupied --
-19.4942 -19.4833 -19.3932 -19.3718 -10.5480  -1.4082  -1.2688  -1.2120
 -1.0227  -0.7731  -0.7045  -0.6756  -0.6585  -0.6148  -0.5954  -0.5390
 -0.5034  -0.4641  -0.4386  -0.4273
 -- Virtual --
  0.0381   0.0639   0.0822   0.0851   0.1076   0.1085   0.1651   0.1709
  0.1886   0.2127   0.2221   0.2301   0.2438   0.2542   0.2637   0.2901
  0.2979   0.3116   0.3150   0.3215   0.3334   0.3606   0.3762   0.3911
  0.4299   0.4635   0.5620   0.6282   0.6559   0.6608   0.7319   0.7684
  0.8240   0.8480   0.9128   0.9588   0.9996   1.0566   1.0580   1.0628
  1.0954   1.1083   1.1153   1.1378   1.1555   1.1712   1.1906   1.1917
  1.2592   1.3606   1.3695   1.4470   1.4727   1.4905   1.5290   1.5778
  1.6234   1.6882   1.7399   1.7632   1.8493   1.8894   1.9481   2.0567
  2.0626   2.1056   2.1893   2.2058   2.3139   2.3568   2.4251   2.5364
  2.5896   2.6154   2.7209   2.7894   2.8134   2.9041   2.9646   3.0344
  3.1384   3.1884   3.3001   3.3448   3.3757   3.4692   3.5209   3.6156
  3.6688   3.6870   3.7752   3.8533   3.9570   4.0720   4.3575   4.4879
  4.6534   4.6620   4.7836   4.9078   4.9751   4.9946   5.0744   5.0887
  5.1036   5.1262   5.1265   5.1673   5.1688   5.1755   5.1991   5.2438
  5.2511   5.3074   5.3124   5.3366   5.4057   5.4270   5.4927   5.5238
  5.6104   5.6534   5.7161   5.7705   5.9157   6.2334   6.2735   6.3167
  6.4806   6.6283   6.7636   6.8411   6.8725   6.8842   6.9241   6.9251
  7.0289   7.0374   7.0516   7.0870   7.1968   7.1978   7.2792   7.3169
  7.4292   7.4506   7.4652   7.4856   7.5332   7.6251   7.7565   7.9544
  7.9882   8.1130   8.2052  25.1323  50.4216  50.4439  50.6741  50.8455
 
 Beta MOs
 -- Occupied --
-19.4802 -19.4670 -19.3935 -19.3714 -10.5484  -1.3819  -1.2664  -1.2115
 -0.9833  -0.7632  -0.7027  -0.6419  -0.6273  -0.6109  -0.5515  -0.5296
 -0.4978  -0.4587  -0.4178
 -- Virtual --
 -0.0736   0.0386   0.0647   0.0827   0.0858   0.1094   0.1138   0.1694
  0.1774   0.1914   0.2186   0.2267   0.2323   0.2508   0.2552   0.2652
  0.2926   0.2982   0.3133   0.3165   0.3236   0.3352   0.3637   0.3765
  0.3936   0.4298   0.4635   0.5635   0.6300   0.6565   0.6621   0.7319
  0.7681   0.8239   0.8549   0.9138   0.9620   1.0058   1.0606   1.0629
  1.0879   1.0981   1.1126   1.1201   1.1572   1.1658   1.1735   1.1932
  1.1942   1.2607   1.3750   1.3875   1.4532   1.4861   1.4990   1.5364
  1.5824   1.6494   1.6921   1.7405   1.7664   1.8518   1.9012   1.9604
  2.0593   2.0703   2.1136   2.2041   2.2229   2.3223   2.3708   2.4279
  2.5374   2.5924   2.6250   2.7236   2.7929   2.8129   2.9030   2.9642
  3.0366   3.1372   3.1880   3.2997   3.3435   3.3757   3.4711   3.5222
  3.6166   3.6678   3.6867   3.7739   3.8558   3.9583   4.0703   4.3574
  4.5295   4.6736   4.6884   4.7995   4.9220   5.0161   5.0489   5.1021
  5.1082   5.1336   5.1376   5.1527   5.1722   5.1844   5.1960   5.2251
  5.2593   5.2710   5.3157   5.3363   5.3450   5.4103   5.4358   5.5116
  5.5311   5.6355   5.6569   5.7200   5.7835   5.9263   6.2376   6.2747
  6.3248   6.5297   6.6393   6.8037   6.8557   6.8864   6.9114   6.9291
  6.9549   7.0569   7.0896   7.0996   7.1094   7.2004   7.2057   7.3113
  7.3574   7.4330   7.4632   7.4885   7.4943   7.5415   7.6356   7.7621
  7.9595   8.0005   8.1320   8.2057  25.1321  50.4335  50.4555  50.6741
 50.8456
 --------------------------------------------------------------
 
          Ground-State Mulliken Net Atomic Charges

     Atom                 Charge (a.u.)    Spin (a.u.)
  --------------------------------------------------------
      1 C                     0.480755      -0.014357
      2 O                    -0.384007      -0.008026
      3 O                    -0.390336       0.016953
      4 O                    -0.047662       0.457500
      5 O                    -0.025227       0.554773
      6 H                     0.366476      -0.006844
  --------------------------------------------------------
  Sum of atomic charges =     0.000000
  Sum of spin   charges =     1.000000

 -----------------------------------------------------------------
                    Cartesian Multipole Moments
 -----------------------------------------------------------------
    Charge (ESU x 10^10)
                 0.0000
    Dipole Moment (Debye)
         X       1.6890      Y       0.0497      Z       2.6577
       Tot       3.1494
    Quadrupole Moments (Debye-Ang)
        XX     -29.4627     XY      -1.7508     YY     -30.4355
        XZ      -2.5249     YZ      -1.7018     ZZ     -25.7652
    Octopole Moments (Debye-Ang^2)
       XXX      49.8357    XXY      12.8017    XYY      18.0237
       YYY      40.8782    XXZ     -13.3395    XYZ      -0.7596
       YYZ     -19.9759    XZZ      17.3480    YZZ       8.0947
       ZZZ     -46.4244
    Hexadecapole Moments (Debye-Ang^3)
      XXXX    -142.6822   XXXY     -37.9654   XXYY     -50.1789
      XYYY     -40.3198   YYYY    -169.4009   XXXZ     -22.9188
      XXYZ       0.8337   XYYZ      -2.8440   YYYZ      14.2659
      XXZZ     -64.0609   XYZZ     -16.7684   YYZZ     -64.6594
      XZZZ     -17.6911   YZZZ      -3.3776   ZZZZ    -218.7918
 -----------------------------------------------------------------
 Calculating analytic gradient of the SCF energy
 Gradient of CDS energy
            1           2           3           4           5           6
    1  -0.0005648  -0.0003184   0.0005607   0.0001801  -0.0000118   0.0001541
    2  -0.0015009   0.0011053   0.0001302   0.0000890   0.0002817  -0.0001052
    3  -0.0005497  -0.0007533   0.0008519   0.0002678  -0.0000862   0.0002696
 Gradient of SCF Energy
            1           2           3           4           5           6
    1   0.0030895  -0.0033303  -0.0033806  -0.0018126   0.0032647   0.0021694
    2   0.0055158  -0.0105754  -0.0000480   0.0031232   0.0052891  -0.0033047
[...]
  5.2479   5.2753   5.3094   5.3361   5.4192   5.5129   5.5567   5.5689
  5.5921   5.6401   5.8213   5.8288   5.9799   6.1737   6.3779   6.4406
  6.5140   6.5595   6.7388   6.7701   6.8724   6.8892   6.8899   6.9636
  6.9950   7.0652   7.0847   7.1564   7.1613   7.2260   7.2397   7.3104
  7.4022   7.4084   7.4670   7.5205   7.6030   7.7231   7.7563   7.8096
  7.9348   8.0024   8.1062  25.1814  50.3911  50.4513  50.5726  50.7208
 
 Beta MOs
 -- Occupied --
-19.4885 -19.4393 -19.4145 -19.3631 -10.5592  -1.3713  -1.2714  -1.2105
 -1.0032  -0.7685  -0.7378  -0.6451  -0.6398  -0.5974  -0.5429  -0.5376
 -0.4765  -0.4653  -0.4150
 -- Virtual --
 -0.0683   0.0378   0.0661   0.0830   0.0853   0.1041   0.1123   0.1573
  0.2011   0.2215   0.2239   0.2253   0.2311   0.2517   0.2571   0.2671
  0.2930   0.2985   0.3084   0.3164   0.3243   0.3383   0.3584   0.3812
  0.4148   0.4330   0.4688   0.5753   0.5824   0.6366   0.6869   0.7377
  0.7535   0.8190   0.8502   0.9155   0.9449   1.0264   1.0511   1.0883
  1.0957   1.0971   1.1078   1.1279   1.1466   1.1650   1.1676   1.1907
  1.1916   1.2164   1.3313   1.4066   1.4750   1.4833   1.5275   1.5437
  1.6060   1.6074   1.6561   1.6795   1.7691   1.8099   1.8380   1.9101
  1.9463   2.0791   2.1650   2.1706   2.1932   2.2530   2.3593   2.4322
  2.4820   2.5093   2.5691   2.7155   2.8034   2.8074   2.8918   3.0160
  3.1409   3.1566   3.1708   3.3131   3.3839   3.4405   3.5423   3.5864
  3.5996   3.6589   3.7048   3.7641   3.9107   4.0830   4.1567   4.2926
  4.5457   4.6850   4.7710   4.8108   4.9708   5.0636   5.0889   5.1089
  5.1123   5.1331   5.1439   5.1523   5.1535   5.1748   5.2001   5.2242
  5.2435   5.2578   5.2822   5.3223   5.3465   5.4285   5.5173   5.5684
  5.5843   5.5955   5.6493   5.8354   5.8372   5.9815   6.1796   6.3853
  6.4809   6.5203   6.5695   6.7764   6.8192   6.8930   6.9350   6.9420
  7.0014   7.0075   7.0847   7.1092   7.1614   7.1977   7.2318   7.2451
  7.3286   7.4196   7.4413   7.4685   7.5308   7.6111   7.7253   7.7622
  7.8119   7.9381   8.0163   8.1227  25.1811  50.4040  50.4597  50.5728
 50.7216
 --------------------------------------------------------------
 
          Ground-State Mulliken Net Atomic Charges

     Atom                 Charge (a.u.)    Spin (a.u.)
  --------------------------------------------------------
      1 C                     0.525784      -0.011481
      2 O                    -0.291895      -0.003100
      3 O                    -0.435720       0.039409
      4 O                    -0.049803       0.242946
      5 O                    -0.091972       0.735097
      6 H                     0.343606      -0.002871
  --------------------------------------------------------
  Sum of atomic charges =    -0.000000
  Sum of spin   charges =     1.000000

 -----------------------------------------------------------------
                    Cartesian Multipole Moments
 -----------------------------------------------------------------
    Charge (ESU x 10^10)
                -0.0000
    Dipole Moment (Debye)
         X       1.8095      Y      -0.6907      Z       3.0098
       Tot       3.5791
    Quadrupole Moments (Debye-Ang)
        XX     -29.8391     XY      -2.2675     YY     -29.4468
        XZ      -2.9719     YZ      -3.7960     ZZ     -25.4575
    Octopole Moments (Debye-Ang^2)
       XXX      49.3714    XXY      11.5266    XYY      18.2609
       YYY      31.8408    XXZ     -13.4606    XYZ      -0.8180
       YYZ     -16.9511    XZZ      16.1432    YZZ       2.5362
       ZZZ     -46.5206
    Hexadecapole Moments (Debye-Ang^3)
      XXXX    -137.3533   XXXY     -37.1405   XXYY     -50.9080
      XYYY     -40.0078   YYYY    -167.0063   XXXZ     -20.0120
      XXYZ      -0.8524   XYYZ      -2.8070   YYYZ       0.6363
      XXZZ     -61.1556   XYZZ     -16.0911   YYZZ     -58.5727
      XZZZ     -16.2079   YZZZ     -14.9267   ZZZZ    -209.1076
 -----------------------------------------------------------------
 Calculating analytic gradient of the SCF energy
 Gradient of CDS energy
            1           2           3           4           5           6
    1  -0.0004527  -0.0005273   0.0006172   0.0001873   0.0000042   0.0001713
    2  -0.0025795   0.0021376   0.0002603   0.0000720   0.0002262  -0.0001165
    3  -0.0001299  -0.0013202   0.0009169   0.0002838  -0.0000459   0.0002954
 Gradient of SCF Energy
            1           2           3           4           5           6
    1   0.0020274  -0.0091507  -0.0042328  -0.0002175   0.0017169   0.0098566
    2   0.0014632  -0.0089238  -0.0004515   0.0021847   0.0002617   0.0054656
    3   0.0027347  -0.0123263  -0.0064932  -0.0009422   0.0028279   0.0141992
 Max gradient component =       1.420E-02
 RMS gradient           =       6.389E-03
 Computing fast CPCM-SWIG gradient
 Updating gradient with PCM contributions...
 -- total gradient after adding PCM contribution --
---------------------------------------------------
  Atom         X              Y              Z     
---------------------------------------------------
   1       0.001315      -0.000591       0.002235
   2       0.000239       0.000862       0.000197
   3      -0.001432      -0.000149      -0.002150
   4       0.000101      -0.001002       0.000272
   5       0.000006      -0.002383       0.000412
   6      -0.000229       0.003264      -0.000966
---------------------------------------------------
 Number of fixed atoms: 0
 Gradient time:  CPU 30.66 s  wall 8.21 s
rPathMan2.  file_steps = 952
 IRC --- Status = 3.  Assess initial corrector step
 IRC --- bisector search: b =  0.000000 E =     -339.520724 G.B =  -0.003345
 IRC --- bisector search: b =  0.003939 E =     -339.520724 G.B =   0.003457
 IRC --- performed gradient/energy interpolation
 IRC --- bisector search:  estimate b(min) =   1.931360510296508E-003
 ----------------------------------------------------------------
             Standard Nuclear Orientation (Angstroms)
    I     Atom           X                Y                Z
 ----------------------------------------------------------------
    1      C      -0.8226370126    -0.5915478156     0.2869919820
    2      O      -0.5177837712    -1.6251667539     1.0058079913
    3      O      -1.4509805771    -0.5331761282    -0.7202388217
    4      O      -0.3145175946     0.6438574777     0.8090919291
    5      O       0.3577121502     0.4888732422     1.9169219802
    6      H       0.0122251161    -1.3137274528     1.7713614318
 ----------------------------------------------------------------
 Nuclear Repulsion Energy =         176.27606189 hartrees
 There are       20 alpha and       19 beta electrons
 Discretize the solute cavity surface with Lebedev spheres
	Using 110 Lebedev grid points for each H atom
	Using 194 Lebedev grid points for other atoms
	Atomic van der Waals radii will be scaled by 1.20
 Remove points where switching function is < 1.0e-08
 Keep 616 surface tesserae and discard 464 interior tesserae
 Molecular Surface Area = 77.585 Angst**2

                       Distance Matrix (Angstroms)
             C (  1)   O (  2)   O (  3)   O (  4)   O (  5)
   O (  2)  1.295376
   O (  3)  1.188586  2.245559
   O (  4)  1.434225  2.286588  2.239600
   O (  5)  2.284120  2.462882  3.357167  1.305067
   H (  6)  1.849835  0.981823  2.993042  2.205643  1.841173
 
 Applying Cartesian multipole field
    Component          Value
    ---------          -----
     (2,0,0)        1.00000E-11
     (0,2,0)        2.00000E-11
     (0,0,2)       -3.00000E-11
 Nucleus-field energy     =    -0.0000000022 hartrees
 Requested basis set is 6-311++G(2df,2p)
 There are 46 shells and 180 basis functions
 A cutoff of  1.0D-12 yielded   1046 shell pairs
 There are     16295 function pairs (     21187 Cartesian)
 Smallest overlap matrix eigenvalue = 3.99E-04
 Guess MOs from SCF MO coefficient file

 -----------------------------------------------------------------------
  General SCF calculation program by
  Eric Jon Sundstrom, Paul Horn, Yuezhi Mao, Dmitri Zuev, Alec White,
  David Stuck, Shaama M.S., Shane Yost, Joonho Lee, David Small,
  Daniel Levine, Susi Lehtola, Hugh Burton, Evgeny Epifanovsky,
  Bang C. Huynh
 -----------------------------------------------------------------------
 Exchange:     0.1500 Hartree-Fock + 1.0000 wB97M-V + LR-HF
 Correlation:  1.0000 wB97M-V
 Using SG-2 standard quadrature grid
 Nonlocal Correlation:  VV10 with C = 0.0100 and b = 6.00 and scale = 1.00000
 Grid used for NLC:  SG-1 standard quadrature
 
 Citation of the SMD model:
 Marenich, A.V.; Cramer, C.J.; Truhlar, D.G.
 J. Phys. Chem. B 2009, 113, 6378-6396.
 iSolventCode=           1
 Solvent: water                                                           
 
 vradii
            1           2           3           4           5           6
    1   1.8500000   1.5200000   1.5200000   1.5200000   1.5200000   1.2000000
 -------------------------------------------------------
 OpenMP BLAS3 based DFT computing Module                
 Release: version 1.0, May 2013, Q-Chem Inc. Pittsburgh 
 -------------------------------------------------------
 A unrestricted SCF calculation will be
 performed using Roothaan-Hall, DIIS, GDM
 SCF converges when RMS gradient is below 1.0e-07
 ---------------------------------------
  Cycle       Energy         DIIS error
 ---------------------------------------
    1    -339.5078582655      3.65e-04  Roothaan Step
 ---------------------------------------
  Cycle       Energy         DIIS error
 ---------------------------------------
    1    -339.5214943370      4.98e-04  
    2    -339.5231509639      5.60e-04  Done DIIS. Switching to GDM
 ---------------------------------------
  Cycle       Energy        RMS Gradient
 ---------------------------------------
    1    -339.5231509639      2.57e-02   Normal BFGS step
    2    -339.5215351178      3.95e-02  Line search: overstep
    3    -339.5263100757      3.43e-03   Normal BFGS step
    4    -339.5263895170      1.46e-03   Normal BFGS step
    5    -339.5264023772      5.81e-04   Normal BFGS step
    6    -339.5264056704      5.19e-04   Normal BFGS step
    7    -339.5264062397      1.38e-04   Normal BFGS step
    8    -339.5264064066      1.74e-04   Normal BFGS step
    9    -339.5264064885      2.81e-05   Normal BFGS step
   10    -339.5264064988      2.10e-05   Normal BFGS step
   11    -339.5264065008      8.13e-06   Normal BFGS step
   12    -339.5264065010      1.33e-06   Normal BFGS step
   13    -339.5264065011      7.20e-07   Normal BFGS step
   14    -339.5264065011      6.40e-07   Normal BFGS step
   15    -339.5264065011      5.12e-07   Normal BFGS step
   16    -339.5264065011      3.58e-07   Normal BFGS step
   17    -339.5264065011      1.32e-07   Normal BFGS step
   18    -339.5264065011      6.80e-08  Convergence criterion met
 ---------------------------------------
 SCF time:   CPU 283.55s  wall 65.00s 
<S^2> =          0.753913922
(3)  G-ENP(liq) elect-nuc-pol free energy of system     -339.526406501 a.u.
(4)  G-CDS(liq) cavity-dispersion-solvent structure 
     free energy                                                3.5639 kcal/mol
(6)  G-S(liq) free energy of system                     -339.520727023 a.u.
 SCF   energy in the final basis set =     -339.5207270234
 Total energy in the final basis set =     -339.5207270234
 
 --------------------------------------------------------------
 
                    Orbital Energies (a.u.)
 --------------------------------------------------------------
 
 Alpha MOs
 -- Occupied --
-19.4965 -19.4597 -19.4140 -19.3643 -10.5586  -1.3927  -1.2766  -1.2122
 -1.0399  -0.7693  -0.7517  -0.6760  -0.6573  -0.6043  -0.5853  -0.5460
 -0.4865  -0.4746  -0.4329  -0.4296
 -- Virtual --
  0.0374   0.0652   0.0825   0.0842   0.0948   0.1118   0.1498   0.1981
  0.2154   0.2165   0.2208   0.2298   0.2466   0.2554   0.2648   0.2907
  0.2980   0.3078   0.3147   0.3215   0.3377   0.3567   0.3807   0.4124
  0.4331   0.4688   0.5750   0.5819   0.6364   0.6855   0.7371   0.7537
  0.8181   0.8443   0.9148   0.9427   1.0206   1.0499   1.0629   1.0842
  1.0944   1.1054   1.1247   1.1384   1.1447   1.1661   1.1857   1.1899
  1.2104   1.3300   1.3816   1.4633   1.4638   1.5241   1.5346   1.5971
  1.6046   1.6452   1.6655   1.7571   1.8064   1.8274   1.9049   1.9370
  2.0687   2.1591   2.1646   2.1845   2.2417   2.3430   2.4298   2.4808
  2.5067   2.5609   2.7121   2.7997   2.8083   2.8906   3.0144   3.1399
  3.1562   3.1692   3.3112   3.3834   3.4403   3.5412   3.5877   3.5994
  3.6568   3.7032   3.7643   3.9096   4.0842   4.1567   4.2931   4.5077
  4.6643   4.7455   4.8004   4.9546   4.9906   5.0472   5.0743   5.0785
  5.1054   5.1231   5.1272   5.1446   5.1626   5.1773   5.2007   5.2172
  5.2480   5.2755   5.3095   5.3363   5.4195   5.5133   5.5574   5.5691
  5.5929   5.6404   5.8210   5.8289   5.9808   6.1741   6.3791   6.4412
  6.5182   6.5601   6.7389   6.7708   6.8724   6.8892   6.8900   6.9639
  6.9950   7.0654   7.0850   7.1578   7.1613   7.2262   7.2394   7.3104
  7.4020   7.4086   7.4672   7.5211   7.6021   7.7232   7.7578   7.8102
  7.9357   8.0027   8.1066  25.1823  50.3912  50.4514  50.5723  50.7233
 
 Beta MOs
 -- Occupied --
-19.4883 -19.4392 -19.4142 -19.3632 -10.5590  -1.3711  -1.2713  -1.2109
 -1.0031  -0.7682  -0.7377  -0.6450  -0.6398  -0.5976  -0.5427  -0.5375
 -0.4768  -0.4655  -0.4149
 -- Virtual --
 -0.0682   0.0378   0.0661   0.0830   0.0853   0.1044   0.1123   0.1573
  0.2011   0.2215   0.2239   0.2254   0.2311   0.2517   0.2571   0.2671
  0.2931   0.2985   0.3084   0.3164   0.3244   0.3383   0.3584   0.3812
  0.4148   0.4330   0.4688   0.5754   0.5830   0.6367   0.6870   0.7379
  0.7536   0.8189   0.8501   0.9160   0.9450   1.0265   1.0512   1.0884
  1.0956   1.0972   1.1079   1.1277   1.1465   1.1651   1.1675   1.1906
  1.1916   1.2165   1.3317   1.4067   1.4750   1.4833   1.5279   1.5437
  1.6061   1.6076   1.6562   1.6796   1.7693   1.8102   1.8382   1.9104
  1.9467   2.0792   2.1652   2.1709   2.1932   2.2531   2.3595   2.4323
  2.4823   2.5096   2.5692   2.7156   2.8035   2.8075   2.8919   3.0158
  3.1403   3.1561   3.1708   3.3126   3.3840   3.4403   3.5422   3.5881
  3.6002   3.6583   3.7044   3.7643   3.9111   4.0847   4.1573   4.2929
  4.5458   4.6851   4.7711   4.8110   4.9711   5.0636   5.0887   5.1090
  5.1123   5.1331   5.1438   5.1524   5.1537   5.1749   5.2001   5.2242
  5.2435   5.2579   5.2824   5.3223   5.3467   5.4288   5.5176   5.5691
  5.5845   5.5963   5.6496   5.8356   5.8369   5.9824   6.1799   6.3866
  6.4821   6.5239   6.5700   6.7771   6.8193   6.8929   6.9351   6.9421
  7.0016   7.0074   7.0849   7.1096   7.1628   7.1978   7.2319   7.2449
  7.3286   7.4194   7.4415   7.4688   7.5313   7.6103   7.7255   7.7638
  7.8125   7.9390   8.0166   8.1231  25.1821  50.4041  50.4598  50.5725
 50.7241
 --------------------------------------------------------------
 
          Ground-State Mulliken Net Atomic Charges

     Atom                 Charge (a.u.)    Spin (a.u.)
  --------------------------------------------------------
      1 C                     0.526122      -0.011416
      2 O                    -0.292958      -0.003096
      3 O                    -0.434439       0.039243
      4 O                    -0.050129       0.243202
      5 O                    -0.092182       0.734936
      6 H                     0.343586      -0.002869
  --------------------------------------------------------
  Sum of atomic charges =     0.000000
  Sum of spin   charges =     1.000000

 -----------------------------------------------------------------
                    Cartesian Multipole Moments
 -----------------------------------------------------------------
    Charge (ESU x 10^10)
                -0.0000
    Dipole Moment (Debye)
         X       1.7996      Y      -0.6878      Z       2.9935
       Tot       3.5598
    Quadrupole Moments (Debye-Ang)
        XX     -29.8197     XY      -2.2652     YY     -29.4587
        XZ      -2.9599     YZ      -3.7847     ZZ     -25.4624
    Octopole Moments (Debye-Ang^2)
       XXX      49.3203    XXY      11.5198    XYY      18.2565
       YYY      31.8652    XXZ     -13.4837    XYZ      -0.8289
       YYZ     -16.9802    XZZ      16.1353    YZZ       2.5411
       ZZZ     -46.5635
    Hexadecapole Moments (Debye-Ang^3)
      XXXX    -137.2208   XXXY     -37.1200   XXYY     -50.8972
      XYYY     -40.0096   YYYY    -167.0893   XXXZ     -19.9650
      XXYZ      -0.8355   XYYZ      -2.7821   YYYZ       0.6823
      XXZZ     -61.1388   XYZZ     -16.0940   YYZZ     -58.5904
      XZZZ     -16.1723   YZZZ     -14.9030   ZZZZ    -209.1111
 -----------------------------------------------------------------
 Calculating analytic gradient of the SCF energy
 Gradient of CDS energy
            1           2           3           4           5           6
    1  -0.0004386  -0.0005320   0.0006075   0.0001875   0.0000042   0.0001714
    2  -0.0025941   0.0021523   0.0002610   0.0000719   0.0002260  -0.0001170
    3  -0.0001042  -0.0013311   0.0009015   0.0002842  -0.0000460   0.0002957
 Gradient of SCF Energy
            1           2           3           4           5           6
    1   0.0007117  -0.0091059  -0.0030675  -0.0002114   0.0017299   0.0099432
    2   0.0019348  -0.0091250  -0.0005899   0.0020180   0.0002930   0.0054690
    3   0.0005453  -0.0122091  -0.0046186  -0.0008941   0.0028412   0.0143353
 Max gradient component =       1.434E-02
 RMS gradient           =       6.242E-03
 Computing fast CPCM-SWIG gradient
 Updating gradient with PCM contributions...
 -- total gradient after adding PCM contribution --
---------------------------------------------------
  Atom         X              Y              Z     
---------------------------------------------------
   1      -0.000020      -0.000127       0.000017
   2       0.000264       0.000652       0.000286
   3      -0.000253      -0.000282      -0.000255
   4       0.000102      -0.001162       0.000310
   5       0.000026      -0.002343       0.000434
   6      -0.000119       0.003262      -0.000793
---------------------------------------------------
 Number of fixed atoms: 0
 Gradient time:  CPU 29.30 s  wall 7.37 s
rPathMan2.  file_steps = 952
 IRC --- Status = 4.  Checking bisector search.
 IRC --- Bisector search finished successfully.
 ------------------------------------------------------------------------
 Reaction path following.  The coordinates are cartesian              
 Step  12 E=    -339.520727 |G|=  0.004384 S_lin= 0.9864 S_tot= 1.0456
 ------------------------------------------------------------------------
  IRC -- convergence criterion reached.
 ----------------------------------------------------------------
             Standard Nuclear Orientation (Angstroms)
    I     Atom           X                Y                Z
 ----------------------------------------------------------------
    1      C      -0.8879616665    -0.7378520920     0.2174537040
    2      O      -0.5303919011    -1.6361589609     0.9859185005
    3      O      -1.4876823690    -0.5156365480    -0.7747935549
    4      O      -0.2632173821     0.6311554173     0.8894757567
    5      O       0.3479937295     0.2423807884     1.9518529618
    6      H       0.0852773892    -0.9147752047     1.8000274319
 ----------------------------------------------------------------
 Nuclear Repulsion Energy =         175.74982467 hartrees
 There are       20 alpha and       19 beta electrons
 Here is where we should summarize the reaction path
 Total job time:  4240.86s(wall), 28964.99s(cpu) 
 Thu Aug 31 18:17:05 2023

        *************************************************************
        *                                                           *
        *  Thank you very much for using Q-Chem.  Have a nice day.  *
        *                                                           *
        *************************************************************


