
Running Job 1 of 2 Q_in.in
qchem Q_in.in_184291.0 /scratch/ari.fischer/qChem1656002.hpc-mn1/qchem184291/ 0
/usr/local/qchem-5.4.1/exe/qcprog.exe_s Q_in.in_184291.0 /scratch/ari.fischer/qChem1656002.hpc-mn1/qchem184291/
                  Welcome to Q-Chem
     A Quantum Leap Into The Future Of Chemistry


 Q-Chem 5.4, Q-Chem, Inc., Pleasanton, CA (2021)

 License issued to: Nanyang Technological University (site)

 E. Epifanovsky,  A. T. B. Gilbert,  Xintian Feng,  Joonho Lee,  Yuezhi Mao,  
 N. Mardirossian,  P. Pokhilko,  A. White,  M. Wormit,  M. P. Coons,  
 A. L. Dempwolff,  Zhengting Gan,  D. Hait,  P. R. Horn,  L. D. Jacobson,  
 I. Kaliman,  J. Kussmann,  A. W. Lange,  Ka Un Lao,  D. S. Levine,  Jie Liu,  
 S. C. McKenzie,  A. F. Morrison,  K. Nanda,  F. Plasser,  D. R. Rehn,  
 M. L. Vidal,  Zhi-Qiang You,  Ying Zhu,  B. Alam,  B. Albrecht,  
 A. Aldossary,  E. Alguire,  J. H. Andersen,  D. Barton,  K. Begam,  A. Behn,  
 Y. A. Bernard,  E. J. Berquist,  H. Burton,  A. Carreras,  K. Carter-Fenk,  
 R. Chakraborty,  A. D. Chien,  K. D. Closser,  V. Cofer-Shabica,  
 S. Dasgupta,  Jia Deng,  M. de Wergifosse,  M. Diedenhofen,  Hainam Do,  
 S. Ehlert,  Po-Tung Fang,  S. Fatehi,  Qingguo Feng,  T. Friedhoff,  
 J. Gayvert,  Qinghui Ge,  G. Gidofalvi,  M. Goldey,  J. Gomes,  
 C. Gonzalez-Espinoza,  S. Gulania,  A. Gunina,  M. W. D. Hanson-Heine,  
 P. H. P. Harbach,  A. W. Hauser,  M. F. Herbst,  M. Hernandez Vera,  
 M. Hodecker,  Z. C. Holden,  S. Houck,  Xunkun Huang,  Kerwin Hui,  
 B. C. Huynh,  M. Ivanov,  Hyunjun Ji,  Hanjie Jiang,  B. Kaduk,  S. Kaehler,  
 K. Khistyaev,  Jaehoon Kim,  P. Klunzinger,  Z. Koczor-Benda,  
 Joong Hoon Koh,  D. Kosenkov,  L. Koulias,  T. Kowalczyk,  C. M. Krauter,  
 K. Kue,  A. Kunitsa,  T. Kus,  A. Landau,  K. V. Lawler,  D. Lefrancois,  
 S. Lehtola,  Rain Li,  Yi-Pei Li,  Jiashu Liang,  M. Liebenthal,  
 Hung-Hsuan Lin,  You-Sheng Lin,  Fenglai Liu,  Kuan-Yu Liu,  
 M. Loipersberger,  A. Luenser,  A. Manjanath,  P. Manohar,  E. Mansoor,  
 S. F. Manzer,  Shan-Ping Mao,  A. V. Marenich,  T. Markovich,  S. Mason,  
 S. A. Maurer,  P. F. McLaughlin,  M. F. S. J. Menger,  J.-M. Mewes,  
 S. A. Mewes,  P. Morgante,  J. W. Mullinax,  K. J. Oosterbaan,  G. Paran,  
 Alexander C. Paul,  Suranjan K. Paul,  F. Pavosevic,  Zheng Pei,  S. Prager,  
 E. I. Proynov,  E. Ramos,  B. Rana,  A. E. Rask,  A. Rettig,  R. M. Richard,  
 F. Rob,  E. Rossomme,  T. Scheele,  M. Scheurer,  M. Schneider,  
 N. Sergueev,  S. M. Sharada,  W. Skomorowski,  D. W. Small,  C. J. Stein,  
 Yu-Chuan Su,  E. J. Sundstrom,  Zhen Tao,  J. Thirman,  T. Tsuchimochi,  
 N. M. Tubman,  S. P. Veccham,  O. Vydrov,  J. Wenzel,  J. Witte,  A. Yamada,  
 Kun Yao,  S. Yeganeh,  S. R. Yost,  A. Zech,  Igor Ying Zhang,  Xing Zhang,  
 Yu Zhang,  D. Zuev,  A. Aspuru-Guzik,  A. T. Bell,  N. A. Besley,  
 K. B. Bravaya,  B. R. Brooks,  D. Casanova,  Jeng-Da Chai,  S. Coriani,  
 C. J. Cramer,  A. E. DePrince, III,  R. A. DiStasio Jr.,  A. Dreuw,  
 B. D. Dunietz,  T. R. Furlani,  W. A. Goddard III,  S. Grimme,  
 S. Hammes-Schiffer,  T. Head-Gordon,  W. J. Hehre,  Chao-Ping Hsu,  
 T.-C. Jagau,  Yousung Jung,  A. Klamt,  Jing Kong,  D. S. Lambrecht,  
 WanZhen Liang,  N. J. Mayhall,  C. W. McCurdy,  J. B. Neaton,  
 C. Ochsenfeld,  J. A. Parkhill,  R. Peverati,  V. A. Rassolov,  Yihan Shao,  
 L. V. Slipchenko,  T. Stauch,  R. P. Steele,  J. E. Subotnik,  
 A. J. W. Thom,  A. Tkatchenko,  D. G. Truhlar,  T. Van Voorhis,  
 T. A. Wesolowski,  K. B. Whaley,  H. L. Woodcock III,  P. M. Zimmerman,  
 S. Faraji,  P. M. W. Gill,  M. Head-Gordon,  J. M. Herbert,  A. I. Krylov

 Additional authors for Version 5.4.1: 
 S. Kotaru,  Shaozhi Li,  Xiangyuan Li,  F. Matz,  A. Molle,  Haisheng Ren,  
 Yingli Su,  Hung-Yi Tsai,  C. Utku,  Fang Wang

 Contributors to earlier versions of Q-Chem not listed above: 
 R. D. Adamson,  B. Austin,  R. Baer,  J. Baker,  G. J. O. Beran,  
 K. Brandhorst,  S. T. Brown,  E. F. C. Byrd,  A. K. Chakraborty,  
 G. K. L. Chan,  Chun-Min Chang,  Yunqing Chen,  C.-L. Cheng,  
 Siu Hung Chien,  D. M. Chipman,  D. L. Crittenden,  H. Dachsel,  
 R. J. Doerksen,  A. D. Dutoi,  R. G. Edgar,  J. Fosso-Tande,  
 L. Fusti-Molnar,  D. Ghosh,  A. Ghysels,  A. Golubeva-Zadorozhnaya,  
 J. Gonthier,  M. S. Gordon,  S. R. Gwaltney,  G. Hawkins,  J. E. Herr,  
 A. Heyden,  S. Hirata,  E. G. Hohenstein,  G. Kedziora,  F. J. Keil,  
 C. Kelley,  Jihan Kim,  R. A. King,  R. Z. Khaliullin,  P. P. Korambath,  
 W. Kurlancheek,  A. Laurent,  A. M. Lee,  M. S. Lee,  S. V. Levchenko,  
 Ching Yeh Lin,  D. Liotard,  E. Livshits,  R. C. Lochan,  I. Lotan,  
 L. A. Martinez-Martinez,  P. E. Maslen,  N. Nair,  D. P. O'Neill,  
 D. Neuhauser,  E. Neuscamman,  C. M. Oana,  R. Olivares-Amaya,  R. Olson,  
 T. M. Perrine,  B. Peters,  P. A. Pieniazek,  A. Prociuk,  Y. M. Rhee,  
 J. Ritchie,  M. A. Rohrdanz,  E. Rosta,  N. J. Russ,  H. F. Schaefer III,  
 M. W. Schmidt,  N. E. Schultz,  S. Sharma,  N. Shenvi,  C. D. Sherrill,  
 A. C. Simmonett,  A. Sodt,  T. Stein,  D. Stuck,  K. S. Thanthiriwatte,  
 V. Vanovschi,  L. Vogt,  Tao Wang,  A. Warshel,  M. A. Watson,  
 C. F. Williams,  Q. Wu,  X. Xu,  Jun Yang,  W. Zhang,  Yan Zhao

 Please cite Q-Chem as follows:
 Y. Shao et al., Mol. Phys. 113, 184-215 (2015)
 DOI: 10.1080/00268976.2014.952696

 Q-Chem 5.4.1 for Intel X86 EM64T Linux

 Parts of Q-Chem use Armadillo 9.800.1 (Horizon Scraper).
 http://arma.sourceforge.net/

 Q-Chem begins on Mon Jul 31 11:36:20 2023  

 Host: 
0

     Scratch files written to /scratch/ari.fischer/qChem1656002.hpc-mn1/qchem184291//
 Aug1521 |scratch|qcdevops|jenkins|workspace|build_RNUM 8249   
 Processing $rem in /usr/local/qchem-5.4.1/config/preferences:
 Processing $rem in /home/ari.fischer/.qchemrc:
 Symmetry turned off for PCM/SM12/SMD calculation


!!********************************************.
!!******************Warning*******************.
!!Desired Analytical derivatives not available.
!!Finite difference job might take a long time.
!!********************************************.
!!********************************************.


 2-order derivative to be evaluated numerically with 1-order analytical derivatives

 Checking the input file for inconsistencies... 	...done.

--------------------------------------------------------------
User input:
--------------------------------------------------------------
$molecule
0 2
C   -0.8657511   -0.5776906    0.1819016
O   -0.5286371   -1.5479089    0.9987631
O   -1.5350302   -0.6883800   -0.8316552
O   -0.2602640    0.6996019    0.9578884
O    0.3673186    0.1469554    1.9329355
H    0.0863816   -0.9634644    1.8301014
$end

$rem
BASIS = 6-311++G(2df,2p)
GUI = 2
JOB_TYPE = Frequency
METHOD = wB97M-V
SCF_ALGORITHM = DIIS_GDM
MAX_SCF_CYCLES = 400
SCF_CONVERGENCE = 6
THRESH = 11
SYMMETRY_IGNORE = 1
solvent_method = SMD
$end

--------------------------------------------------------------
 ----------------------------------------------------------------
             Standard Nuclear Orientation (Angstroms)
    I     Atom           X                Y                Z
 ----------------------------------------------------------------
    1      C      -0.8657511000    -0.5776906000     0.1819016000
    2      O      -0.5286371000    -1.5479089000     0.9987631000
    3      O      -1.5350302000    -0.6883800000    -0.8316552000
    4      O      -0.2602640000     0.6996019000     0.9578884000
    5      O       0.3673186000     0.1469554000     1.9329355000
    6      H       0.0863816000    -0.9634644000     1.8301014000
 ----------------------------------------------------------------
 Nuclear Repulsion Energy =         174.64330800 hartrees
 There are       20 alpha and       19 beta electrons
 Requested basis set is 6-311++G(2df,2p)
 There are 46 shells and 180 basis functions

 Total QAlloc Memory Limit 288000 MB
 Mega-Array Size       188 MB
 MEM_STATIC part       192 MB
 
 Citation of the SMD model:
 Marenich, A.V.; Cramer, C.J.; Truhlar, D.G.
 J. Phys. Chem. B 2009, 113, 6378-6396.
 iSolventCode=           1
 Solvent: water                                                           
 
 vradii
            1           2           3           4           5           6
    1   1.8500000   1.5200000   1.5200000   1.5200000   1.5200000   1.2000000
 Changing PCM_VDW_RADII to SMD_RADIUS
 Discretize the solute cavity surface with Lebedev spheres
	Using 110 Lebedev grid points for each H atom
	Using 194 Lebedev grid points for other atoms
	Atomic van der Waals radii will be scaled by 1.20
 Remove points where switching function is < 1.0e-08
 Keep 612 surface tesserae and discard 468 interior tesserae
 Molecular Surface Area = 77.091 Angst**2

                       Distance Matrix (Angstroms)
             C (  1)   O (  2)   O (  3)   O (  4)   O (  5)
   O (  2)  1.312338
   O (  3)  1.219625  2.258771
   O (  4)  1.612528  2.263846  2.598844
   O (  5)  2.260905  2.132599  3.458277  1.284521
   H (  6)  1.942148  1.187833  3.128833  1.909636  1.150014
 
 A cutoff of  1.0D-11 yielded   1031 shell pairs
 There are     16065 function pairs (     20871 Cartesian)
 Smallest overlap matrix eigenvalue = 4.69E-04
 Guess from superposition of atomic densities
 Warning:  Energy on first SCF cycle will be non-variational
 SAD guess density has 39.000000 electrons

 -----------------------------------------------------------------------
  General SCF calculation program by
  Eric Jon Sundstrom, Paul Horn, Yuezhi Mao, Dmitri Zuev, Alec White,
  David Stuck, Shaama M.S., Shane Yost, Joonho Lee, David Small,
  Daniel Levine, Susi Lehtola, Hugh Burton, Evgeny Epifanovsky,
  Bang C. Huynh
 -----------------------------------------------------------------------
 Exchange:     0.1500 Hartree-Fock + 1.0000 wB97M-V + LR-HF
 Correlation:  1.0000 wB97M-V
 Using SG-2 standard quadrature grid
 Nonlocal Correlation:  VV10 with C = 0.0100 and b = 6.00 and scale = 1.00000
 Grid used for NLC:  SG-1 standard quadrature
 using 16 threads for integral computing
 -------------------------------------------------------
 OpenMP Integral computing Module                
 Release: version 1.0, May 2013, Q-Chem Inc. Pittsburgh 
 -------------------------------------------------------
 
 Citation of the SMD model:
 Marenich, A.V.; Cramer, C.J.; Truhlar, D.G.
 J. Phys. Chem. B 2009, 113, 6378-6396.
 iSolventCode=           1
 Solvent: water                                                           
 
 vradii
            1           2           3           4           5           6
    1   1.8500000   1.5200000   1.5200000   1.5200000   1.5200000   1.2000000
 -------------------------------------------------------
 OpenMP BLAS3 based DFT computing Module                
 Release: version 1.0, May 2013, Q-Chem Inc. Pittsburgh 
 -------------------------------------------------------
 A unrestricted SCF calculation will be
 performed using DIIS, GDM
 SCF converges when RMS gradient is below 1.0e-06
 ---------------------------------------
  Cycle       Energy         DIIS error
 ---------------------------------------
    1    -340.2099383427      1.83e-02  
    2    -339.2941614961      3.79e-03  Done DIIS. Switching to GDM
 ---------------------------------------
  Cycle       Energy        RMS Gradient
 ---------------------------------------
    1    -339.2941614961      2.45e-01   Descent step
    2    -339.4619503540      3.21e-02   Normal BFGS step
    3    -339.4736585287      2.82e-02   Normal BFGS step
    4    -339.4755609071      1.15e-02   Normal BFGS step
    5    -339.4764630887      4.84e-03   Normal BFGS step
    6    -339.4765701738      2.67e-03   Normal BFGS step
    7    -339.4765936591      1.69e-03   Normal BFGS step
    8    -339.4766023284      7.90e-04   Normal BFGS step
    9    -339.4766053264      2.68e-04   Normal BFGS step
   10    -339.4766058214      1.53e-04   Normal BFGS step
   11    -339.4766059639      1.06e-04   Normal BFGS step
   12    -339.4766059904      7.61e-05   Normal BFGS step
   13    -339.4766060094      3.86e-05   Normal BFGS step
   14    -339.4766060167      2.07e-05   Normal BFGS step
   15    -339.4766060196      6.93e-06   Normal BFGS step
   16    -339.4766060202      2.94e-06   Normal BFGS step
   17    -339.4766060204      9.56e-07  Convergence criterion met
 ---------------------------------------
 SCF time:   CPU 245.24s  wall 15.00s 
<S^2> =          0.754361153
(3)  G-ENP(liq) elect-nuc-pol free energy of system     -339.476606020 a.u.
(4)  G-CDS(liq) cavity-dispersion-solvent structure 
     free energy                                                3.5339 kcal/mol
(6)  G-S(liq) free energy of system                     -339.470974385 a.u.
 SCF   energy in the final basis set =     -339.4709743850
 Total energy in the final basis set =     -339.4709743850
 
 --------------------------------------------------------------
 
                    Orbital Energies (a.u.)
 --------------------------------------------------------------
 
 Alpha MOs
 -- Occupied --
-19.5218 -19.4902 -19.3763 -19.3684 -10.5599  -1.4256  -1.2435  -1.1688
 -1.0481  -0.7841  -0.7059  -0.6868  -0.6700  -0.6029  -0.5741  -0.5389
 -0.4901  -0.4618  -0.4394  -0.4178
 -- Virtual --
  0.0352   0.0577   0.0780   0.0822   0.0866   0.1006   0.1394   0.1626
  0.1850   0.2126   0.2153   0.2332   0.2481   0.2622   0.2707   0.2882
  0.3043   0.3142   0.3187   0.3254   0.3478   0.3658   0.3673   0.3830
  0.4181   0.4595   0.5629   0.6099   0.6299   0.6908   0.7282   0.7622
  0.8273   0.8378   0.9171   0.9213   1.0008   1.0493   1.0532   1.0666
  1.0903   1.1097   1.1271   1.1356   1.1393   1.1752   1.1946   1.2046
  1.2261   1.3412   1.3725   1.4419   1.4779   1.5004   1.5298   1.5826
  1.6054   1.6206   1.6968   1.7547   1.8448   1.9276   1.9686   2.0198
  2.0928   2.1203   2.1734   2.2095   2.3127   2.3302   2.3966   2.4834
  2.5416   2.5911   2.6505   2.8001   2.8193   2.8425   3.0096   3.0736
  3.1664   3.1835   3.2730   3.3970   3.4015   3.4382   3.5044   3.5456
  3.6242   3.6931   3.7337   3.8465   3.8935   3.9679   4.1488   4.4734
  4.6551   4.6612   4.7738   4.8866   4.9630   5.0014   5.0603   5.0964
  5.1031   5.1163   5.1410   5.1508   5.1717   5.1787   5.1944   5.1966
  5.2566   5.2983   5.3124   5.3351   5.4075   5.4318   5.5221   5.5392
  5.5761   5.6189   5.6519   5.8073   5.9236   6.0651   6.1167   6.3786
  6.4698   6.5242   6.6148   6.6807   6.7989   6.8713   6.8787   6.9291
  7.0170   7.0236   7.0506   7.0685   7.1740   7.2419   7.2572   7.3014
  7.3428   7.3721   7.4057   7.5020   7.5895   7.6601   7.7267   7.8219
  7.9787   8.0126   8.1255  24.9666  50.4089  50.4303  50.5833  50.6555
 
 Beta MOs
 -- Occupied --
-19.5092 -19.4728 -19.3757 -19.3689 -10.5603  -1.3987  -1.2419  -1.1680
 -1.0095  -0.7727  -0.7024  -0.6520  -0.6216  -0.6000  -0.5486  -0.5285
 -0.4853  -0.4422  -0.4103
 -- Virtual --
 -0.0895   0.0362   0.0594   0.0827   0.0852   0.0877   0.1031   0.1429
  0.1706   0.1874   0.2180   0.2203   0.2348   0.2491   0.2637   0.2750
  0.2901   0.3050   0.3160   0.3203   0.3270   0.3502   0.3666   0.3699
  0.3839   0.4180   0.4594   0.5634   0.6124   0.6306   0.6937   0.7284
  0.7625   0.8305   0.8389   0.9197   0.9274   1.0071   1.0524   1.0662
  1.0850   1.0914   1.1129   1.1395   1.1416   1.1527   1.1759   1.2004
  1.2069   1.2289   1.3667   1.3789   1.4448   1.4938   1.5106   1.5334
  1.5973   1.6151   1.6252   1.7040   1.7585   1.8499   1.9342   1.9833
  2.0233   2.0983   2.1271   2.1847   2.2285   2.3277   2.3418   2.3987
  2.4852   2.5504   2.5932   2.6571   2.8005   2.8214   2.8423   3.0100
  3.0755   3.1663   3.1824   3.2720   3.3968   3.4012   3.4389   3.5048
  3.5460   3.6245   3.6931   3.7338   3.8484   3.8964   3.9686   4.1485
  4.5146   4.6810   4.6827   4.7886   4.8989   5.0210   5.0393   5.1005
  5.1226   5.1270   5.1294   5.1557   5.1682   5.1802   5.1924   5.2094
  5.2208   5.2730   5.3066   5.3203   5.3463   5.4267   5.4371   5.5342
  5.5532   5.5795   5.6411   5.6696   5.8114   5.9333   6.0708   6.1180
  6.3822   6.5184   6.5342   6.6199   6.6924   6.8578   6.8861   6.9229
  6.9358   7.0495   7.0623   7.0774   7.1042   7.1969   7.2588   7.2640
  7.3165   7.3510   7.4058   7.4323   7.5205   7.6037   7.6627   7.7284
  7.8267   7.9902   8.0204   8.1442  24.9662  50.4201  50.4424  50.5831
 50.6559
 --------------------------------------------------------------
 
          Ground-State Mulliken Net Atomic Charges

     Atom                 Charge (a.u.)    Spin (a.u.)
  --------------------------------------------------------
      1 C                     0.441281      -0.014862
      2 O                    -0.455795      -0.012824
      3 O                    -0.383851       0.023943
      4 O                     0.001326       0.404968
      5 O                     0.031863       0.601204
      6 H                     0.365176      -0.002429
  --------------------------------------------------------
  Sum of atomic charges =     0.000000
  Sum of spin   charges =     1.000000

 -----------------------------------------------------------------
                    Cartesian Multipole Moments
 -----------------------------------------------------------------
    Charge (ESU x 10^10)
                 0.0000
    Dipole Moment (Debye)
         X       2.1242      Y       1.4974      Z       2.9584
       Tot       3.9379
    Quadrupole Moments (Debye-Ang)
        XX     -30.2253     XY      -3.2234     YY     -31.8956
        XZ      -2.3962     YZ      -1.5974     ZZ     -25.3675
    Octopole Moments (Debye-Ang^2)
       XXX      51.8190    XXY      14.7783    XYY      19.9583
       YYY      43.6973    XXZ     -12.9299    XYZ      -1.0572
       YYZ     -19.3731    XZZ      18.4486    YZZ       8.3549
       ZZZ     -43.1778
    Hexadecapole Moments (Debye-Ang^3)
      XXXX    -150.1059   XXXY     -42.0342   XXYY     -52.5105
      XYYY     -44.4951   YYYY    -167.8504   XXXZ     -25.7387
      XXYZ       0.1146   XYYZ      -3.3465   YYYZ      11.0764
      XXZZ     -66.7759   XYZZ     -18.2174   YYZZ     -63.9786
      XZZZ     -20.4164   YZZZ      -7.1902   ZZZZ    -218.9262
 -----------------------------------------------------------------
 Calculating analytic gradient of the SCF energy
 Gradient of CDS energy
            1           2           3           4           5           6
    1  -0.0004855  -0.0007778   0.0008221   0.0003232  -0.0000362   0.0001543
    2  -0.0025614   0.0024651   0.0000113  -0.0000227   0.0002794  -0.0001718
    3  -0.0000377  -0.0019576   0.0012822   0.0004782  -0.0000782   0.0003130
 Gradient of SCF Energy
            1           2           3           4           5           6
    1   0.0201618   0.0140473  -0.0385190   0.0042934  -0.0202537   0.0202702
    2   0.0970163  -0.0218040  -0.0486887   0.0259310  -0.0661570   0.0137025
    3  -0.0164145   0.0344239  -0.0430098   0.0151286  -0.0237062   0.0335780
 Max gradient component =       9.702E-02
 RMS gradient           =       3.775E-02
 Computing fast CPCM-SWIG gradient
 Updating gradient with PCM contributions...
 -- total gradient after adding PCM contribution --
---------------------------------------------------
  Atom         X              Y              Z     
---------------------------------------------------
   1       0.019254       0.090728      -0.015726
   2       0.017683      -0.013447       0.038642
   3      -0.036434      -0.046378      -0.040257
   4       0.005862       0.019432       0.018142
   5      -0.022361      -0.065817      -0.026337
   6       0.015996       0.015482       0.025536
---------------------------------------------------
 Number of fixed atoms: 0
 Gradient time:  CPU 36.40 s  wall 2.83 s
 ######################################################
 ######################################################
 # Starting finite difference calculation for IDERIV  #
 Finite diff step size:  1.88973e-03 a.u.
 ----------------------------------------------------------------
             Standard Nuclear Orientation (Angstroms)
    I     Atom           X                Y                Z
 ----------------------------------------------------------------
    1      C      -0.8647511000    -0.5776906000     0.1819016000
    2      O      -0.5286371000    -1.5479089000     0.9987631000
    3      O      -1.5350302000    -0.6883800000    -0.8316552000
    4      O      -0.2602640000     0.6996019000     0.9578884000
    5      O       0.3673186000     0.1469554000     1.9329355000
    6      H       0.0863816000    -0.9634644000     1.8301014000
 ----------------------------------------------------------------
 Nuclear Repulsion Energy =         174.64450956 hartrees
 There are       20 alpha and       19 beta electrons
 Discretize the solute cavity surface with Lebedev spheres
	Using 110 Lebedev grid points for each H atom
	Using 194 Lebedev grid points for other atoms
	Atomic van der Waals radii will be scaled by 1.20
 Remove points where switching function is < 1.0e-08
 Keep 612 surface tesserae and discard 468 interior tesserae
 Molecular Surface Area = 77.091 Angst**2

                       Distance Matrix (Angstroms)
             C (  1)   O (  2)   O (  3)   O (  4)   O (  5)
   O (  2)  1.312082
   O (  3)  1.220174  2.258771
   O (  4)  1.612153  2.263846  2.598844
   O (  5)  2.260360  2.132599  3.458277  1.284521
   H (  6)  1.941658  1.187833  3.128833  1.909636  1.150014
 
 Requested basis set is 6-311++G(2df,2p)
 There are 46 shells and 180 basis functions
 A cutoff of  1.0D-11 yielded   1031 shell pairs
 There are     16065 function pairs (     20871 Cartesian)
 Smallest overlap matrix eigenvalue = 4.69E-04
 Guess MOs from SCF MO coefficient file

 -----------------------------------------------------------------------
  General SCF calculation program by
  Eric Jon Sundstrom, Paul Horn, Yuezhi Mao, Dmitri Zuev, Alec White,
  David Stuck, Shaama M.S., Shane Yost, Joonho Lee, David Small,
  Daniel Levine, Susi Lehtola, Hugh Burton, Evgeny Epifanovsky,
  Bang C. Huynh
 -----------------------------------------------------------------------
 Exchange:     0.1500 Hartree-Fock + 1.0000 wB97M-V + LR-HF
 Correlation:  1.0000 wB97M-V
 Using SG-2 standard quadrature grid
 Nonlocal Correlation:  VV10 with C = 0.0100 and b = 6.00 and scale = 1.00000
 Grid used for NLC:  SG-1 standard quadrature
 
 Citation of the SMD model:
 Marenich, A.V.; Cramer, C.J.; Truhlar, D.G.
 J. Phys. Chem. B 2009, 113, 6378-6396.
 iSolventCode=           1
 Solvent: water                                                           
 
 vradii
            1           2           3           4           5           6
    1   1.8500000   1.5200000   1.5200000   1.5200000   1.5200000   1.2000000
 -------------------------------------------------------
 OpenMP BLAS3 based DFT computing Module                
 Release: version 1.0, May 2013, Q-Chem Inc. Pittsburgh 
 -------------------------------------------------------
 A unrestricted SCF calculation will be
 performed using Roothaan-Hall, DIIS, GDM
 SCF converges when RMS gradient is below 1.0e-06
 ---------------------------------------
  Cycle       Energy         DIIS error
 ---------------------------------------
    1    -339.4568831954      3.63e-04  Roothaan Step
 ---------------------------------------
  Cycle       Energy         DIIS error
 ---------------------------------------
    1    -339.4708200370      5.39e-04  
    2    -339.4718402113      6.72e-04  Done DIIS. Switching to GDM
 ---------------------------------------
  Cycle       Energy        RMS Gradient
 ---------------------------------------
    1    -339.4718402113      2.72e-02   Normal BFGS step
    2    -339.4688401701      4.13e-02  Line search: overstep
    3    -339.4764404067      3.09e-03   Normal BFGS step
    4    -339.4765328662      2.57e-03   Normal BFGS step
    5    -339.4765612997      5.49e-04   Normal BFGS step
    6    -339.4765664644      6.32e-04   Normal BFGS step
    7    -339.4765675147      1.73e-04   Normal BFGS step
    8    -339.4765678634      1.88e-04   Normal BFGS step
    9    -339.4765679714      5.57e-05   Normal BFGS step
   10    -339.4765680104      2.67e-05   Normal BFGS step
   11    -339.4765680166      1.89e-05   Normal BFGS step
   12    -339.4765680176      7.79e-06   Normal BFGS step
   13    -339.4765680178      3.01e-06   Normal BFGS step
   14    -339.4765680179      2.39e-06   Normal BFGS step
   15    -339.4765680179      1.54e-06   Normal BFGS step
   16    -339.4765680179      7.99e-07  Convergence criterion met
 ---------------------------------------
 SCF time:   CPU 255.48s  wall 16.00s 
<S^2> =          0.754361006
(3)  G-ENP(liq) elect-nuc-pol free energy of system     -339.476568018 a.u.
(4)  G-CDS(liq) cavity-dispersion-solvent structure 
     free energy                                                3.5333 kcal/mol
(6)  G-S(liq) free energy of system                     -339.470937309 a.u.
 SCF   energy in the final basis set =     -339.4709373091
 Total energy in the final basis set =     -339.4709373091
 
 --------------------------------------------------------------
 
                    Orbital Energies (a.u.)
 --------------------------------------------------------------
 
 Alpha MOs
 -- Occupied --
-19.5219 -19.4903 -19.3762 -19.3685 -10.5600  -1.4257  -1.2434  -1.1687
 -1.0482  -0.7842  -0.7059  -0.6869  -0.6701  -0.6028  -0.5740  -0.5389
 -0.4902  -0.4619  -0.4393  -0.4178
 -- Virtual --
  0.0351   0.0577   0.0778   0.0822   0.0866   0.1007   0.1395   0.1626
  0.1850   0.2126   0.2153   0.2332   0.2481   0.2622   0.2706   0.2882
  0.3043   0.3142   0.3187   0.3254   0.3478   0.3658   0.3673   0.3830
  0.4182   0.4596   0.5625   0.6098   0.6298   0.6907   0.7281   0.7622
  0.8273   0.8378   0.9170   0.9213   1.0007   1.0494   1.0531   1.0666
  1.0902   1.1097   1.1271   1.1357   1.1393   1.1752   1.1946   1.2046
  1.2261   1.3412   1.3723   1.4418   1.4779   1.5003   1.5301   1.5825
  1.6054   1.6205   1.6967   1.7546   1.8449   1.9273   1.9687   2.0198
  2.0926   2.1204   2.1734   2.2095   2.3125   2.3303   2.3967   2.4832
  2.5416   2.5910   2.6504   2.7999   2.8194   2.8423   3.0098   3.0739
  3.1665   3.1837   3.2733   3.3972   3.4016   3.4385   3.5046   3.5450
  3.6240   3.6930   3.7336   3.8465   3.8935   3.9677   4.1480   4.4733
  4.6551   4.6612   4.7737   4.8866   4.9629   5.0014   5.0602   5.0964
  5.1032   5.1163   5.1410   5.1508   5.1717   5.1787   5.1943   5.1967
  5.2566   5.2982   5.3125   5.3351   5.4074   5.4316   5.5219   5.5391
  5.5761   5.6191   5.6520   5.8070   5.9233   6.0652   6.1170   6.3770
  6.4696   6.5240   6.6143   6.6802   6.7989   6.8713   6.8787   6.9290
  7.0170   7.0235   7.0507   7.0685   7.1735   7.2418   7.2572   7.3014
  7.3426   7.3720   7.4056   7.5018   7.5894   7.6603   7.7267   7.8217
  7.9786   8.0123   8.1254  24.9661  50.4088  50.4303  50.5832  50.6549
 
 Beta MOs
 -- Occupied --
-19.5093 -19.4728 -19.3756 -19.3690 -10.5604  -1.3988  -1.2417  -1.1680
 -1.0096  -0.7729  -0.7025  -0.6521  -0.6216  -0.5999  -0.5486  -0.5284
 -0.4854  -0.4421  -0.4103
 -- Virtual --
 -0.0895   0.0362   0.0594   0.0827   0.0851   0.0877   0.1032   0.1430
  0.1706   0.1874   0.2180   0.2203   0.2348   0.2491   0.2638   0.2750
  0.2901   0.3050   0.3160   0.3203   0.3270   0.3502   0.3666   0.3699
  0.3839   0.4180   0.4595   0.5631   0.6123   0.6306   0.6936   0.7283
  0.7625   0.8306   0.8389   0.9197   0.9274   1.0071   1.0525   1.0662
  1.0850   1.0913   1.1129   1.1395   1.1416   1.1527   1.1760   1.2004
  1.2069   1.2289   1.3666   1.3788   1.4447   1.4938   1.5104   1.5338
  1.5972   1.6152   1.6251   1.7039   1.7584   1.8499   1.9339   1.9834
  2.0233   2.0981   2.1273   2.1847   2.2285   2.3275   2.3419   2.3988
  2.4850   2.5504   2.5931   2.6570   2.8004   2.8215   2.8421   3.0101
  3.0759   3.1664   3.1826   3.2723   3.3970   3.4013   3.4393   3.5050
  3.5454   3.6244   3.6930   3.7337   3.8484   3.8963   3.9684   4.1477
  4.5145   4.6810   4.6827   4.7886   4.8989   5.0209   5.0393   5.1006
  5.1227   5.1270   5.1295   5.1557   5.1682   5.1802   5.1924   5.2094
  5.2208   5.2730   5.3066   5.3204   5.3462   5.4265   5.4369   5.5340
  5.5532   5.5796   5.6412   5.6697   5.8112   5.9331   6.0709   6.1183
  6.3806   6.5183   6.5340   6.6193   6.6920   6.8577   6.8862   6.9228
  6.9358   7.0491   7.0623   7.0774   7.1043   7.1963   7.2587   7.2639
  7.3165   7.3509   7.4057   7.4322   7.5203   7.6036   7.6629   7.7284
  7.8265   7.9900   8.0202   8.1442  24.9658  50.4200  50.4424  50.5830
 50.6553
 --------------------------------------------------------------
 
          Ground-State Mulliken Net Atomic Charges

     Atom                 Charge (a.u.)    Spin (a.u.)
  --------------------------------------------------------
      1 C                     0.441248      -0.014880
      2 O                    -0.455400      -0.012826
      3 O                    -0.384552       0.024021
      4 O                     0.001556       0.404778
      5 O                     0.031999       0.601334
      6 H                     0.365149      -0.002427
  --------------------------------------------------------
  Sum of atomic charges =     0.000000
  Sum of spin   charges =     1.000000

 -----------------------------------------------------------------
                    Cartesian Multipole Moments
 -----------------------------------------------------------------
    Charge (ESU x 10^10)
                 0.0000
    Dipole Moment (Debye)
         X       2.1312      Y       1.4979      Z       2.9649
       Tot       3.9467
    Quadrupole Moments (Debye-Ang)
        XX     -30.2368     XY      -3.2259     YY     -31.8926
        XZ      -2.4000     YZ      -1.6007     ZZ     -25.3652
    Octopole Moments (Debye-Ang^2)
       XXX      51.8304    XXY      14.7841    XYY      19.9562
       YYY      43.6942    XXZ     -12.9216    XYZ      -1.0524
       YYZ     -19.3618    XZZ      18.4481    YZZ       8.3546
       ZZZ     -43.1556
    Hexadecapole Moments (Debye-Ang^3)
      XXXX    -150.1066   XXXY     -42.0371   XXYY     -52.5084
      XYYY     -44.4872   YYYY    -167.8292   XXXZ     -25.7513
      XXYZ       0.1090   XYYZ      -3.3582   YYYZ      11.0613
      XXZZ     -66.7701   XYZZ     -18.2126   YYZZ     -63.9711
      XZZZ     -20.4311   YZZZ      -7.2015   ZZZZ    -218.9088
 -----------------------------------------------------------------
 Calculating analytic gradient of the SCF energy
 Gradient of CDS energy
            1           2           3           4           5           6
    1  -0.0004951  -0.0007739   0.0008280   0.0003231  -0.0000364   0.0001542
    2  -0.0025549   0.0024582   0.0000114  -0.0000227   0.0002795  -0.0001716
    3  -0.0000504  -0.0019526   0.0012897   0.0004784  -0.0000780   0.0003130
 Gradient of SCF Energy
            1           2           3           4           5           6
    1   0.0208960   0.0138442  -0.0389448   0.0042267  -0.0202643   0.0202422
    2   0.0969279  -0.0217835  -0.0487169   0.0260412  -0.0661907   0.0137221
    3  -0.0159343   0.0343697  -0.0433959   0.0151620  -0.0237605   0.0335590
 Max gradient component =       9.693E-02
 RMS gradient           =       3.780E-02
 Computing fast CPCM-SWIG gradient
 Updating gradient with PCM contributions...
 -- total gradient after adding PCM contribution --
---------------------------------------------------
  Atom         X              Y              Z     
---------------------------------------------------
   1       0.019986       0.090647      -0.015235
   2       0.017490      -0.013424       0.038593
   3      -0.036864      -0.046408      -0.040653
   4       0.005801       0.019527       0.018183
   5      -0.022376      -0.065848      -0.026397
   6       0.015964       0.015505       0.025509
---------------------------------------------------
 Number of fixed atoms: 0
 Gradient time:  CPU 35.78 s  wall 2.74 s
 ----------------------------------------------------------------
             Standard Nuclear Orientation (Angstroms)
    I     Atom           X                Y                Z
 ----------------------------------------------------------------
    1      C      -0.8667511000    -0.5776906000     0.1819016000
    2      O      -0.5286371000    -1.5479089000     0.9987631000
    3      O      -1.5350302000    -0.6883800000    -0.8316552000
    4      O      -0.2602640000     0.6996019000     0.9578884000
    5      O       0.3673186000     0.1469554000     1.9329355000
    6      H       0.0863816000    -0.9634644000     1.8301014000
 ----------------------------------------------------------------
 Nuclear Repulsion Energy =         174.64209222 hartrees
 There are       20 alpha and       19 beta electrons
 Discretize the solute cavity surface with Lebedev spheres
	Using 110 Lebedev grid points for each H atom
	Using 194 Lebedev grid points for other atoms
	Atomic van der Waals radii will be scaled by 1.20
 Remove points where switching function is < 1.0e-08
 Keep 612 surface tesserae and discard 468 interior tesserae
 Molecular Surface Area = 77.091 Angst**2

                       Distance Matrix (Angstroms)
             C (  1)   O (  2)   O (  3)   O (  4)   O (  5)
   O (  2)  1.312596
   O (  3)  1.219076  2.258771
   O (  4)  1.612904  2.263846  2.598844
   O (  5)  2.261451  2.132599  3.458277  1.284521
   H (  6)  1.942639  1.187833  3.128833  1.909636  1.150014
 
 Requested basis set is 6-311++G(2df,2p)
 There are 46 shells and 180 basis functions
 A cutoff of  1.0D-11 yielded   1031 shell pairs
 There are     16065 function pairs (     20871 Cartesian)
 Smallest overlap matrix eigenvalue = 4.69E-04
 Guess MOs from SCF MO coefficient file

 -----------------------------------------------------------------------
  General SCF calculation program by
  Eric Jon Sundstrom, Paul Horn, Yuezhi Mao, Dmitri Zuev, Alec White,
  David Stuck, Shaama M.S., Shane Yost, Joonho Lee, David Small,
  Daniel Levine, Susi Lehtola, Hugh Burton, Evgeny Epifanovsky,
  Bang C. Huynh
 -----------------------------------------------------------------------
 Exchange:     0.1500 Hartree-Fock + 1.0000 wB97M-V + LR-HF
 Correlation:  1.0000 wB97M-V
 Using SG-2 standard quadrature grid
 Nonlocal Correlation:  VV10 with C = 0.0100 and b = 6.00 and scale = 1.00000
 Grid used for NLC:  SG-1 standard quadrature
 
 Citation of the SMD model:
 Marenich, A.V.; Cramer, C.J.; Truhlar, D.G.
 J. Phys. Chem. B 2009, 113, 6378-6396.
 iSolventCode=           1
 Solvent: water                                                           
 
 vradii
            1           2           3           4           5           6
    1   1.8500000   1.5200000   1.5200000   1.5200000   1.5200000   1.2000000
 -------------------------------------------------------
 OpenMP BLAS3 based DFT computing Module                
 Release: version 1.0, May 2013, Q-Chem Inc. Pittsburgh 
 -------------------------------------------------------
 A unrestricted SCF calculation will be
 performed using Roothaan-Hall, DIIS, GDM
 SCF converges when RMS gradient is below 1.0e-06
 ---------------------------------------
  Cycle       Energy         DIIS error
 ---------------------------------------
    1    -339.4569645182      3.64e-04  Roothaan Step
 ---------------------------------------
  Cycle       Energy         DIIS error
 ---------------------------------------
    1    -339.4709521055      5.36e-04  
    2    -339.4720014136      6.65e-04  Done DIIS. Switching to GDM
 ---------------------------------------
  Cycle       Energy        RMS Gradient
 ---------------------------------------
    1    -339.4720014136      2.72e-02   Normal BFGS step
    2    -339.4690896010      4.06e-02  Line search: overstep
    3    -339.4765174611      3.02e-03   Normal BFGS step
    4    -339.4766083211      2.51e-03   Normal BFGS step
    5    -339.4766360529      5.55e-04   Normal BFGS step
    6    -339.4766411142      6.18e-04   Normal BFGS step
    7    -339.4766421340      1.71e-04   Normal BFGS step
    8    -339.4766424706      1.82e-04   Normal BFGS step
    9    -339.4766425753      5.54e-05   Normal BFGS step
   10    -339.4766426135      2.47e-05   Normal BFGS step
   11    -339.4766426198      1.86e-05   Normal BFGS step
   12    -339.4766426210      8.38e-06   Normal BFGS step
   13    -339.4766426213      5.99e-06   Normal BFGS step
   14    -339.4766426214      4.05e-06   Normal BFGS step
   15    -339.4766426215      2.17e-06   Normal BFGS step
   16    -339.4766426215      1.45e-06   Normal BFGS step
   17    -339.4766426214      4.74e-07  Convergence criterion met
 ---------------------------------------
 SCF time:   CPU 261.84s  wall 17.00s 
<S^2> =          0.754361311
(3)  G-ENP(liq) elect-nuc-pol free energy of system     -339.476642621 a.u.
(4)  G-CDS(liq) cavity-dispersion-solvent structure 
     free energy                                                3.5345 kcal/mol
(6)  G-S(liq) free energy of system                     -339.471010078 a.u.
 SCF   energy in the final basis set =     -339.4710100775
 Total energy in the final basis set =     -339.4710100775
 
 --------------------------------------------------------------
 
                    Orbital Energies (a.u.)
 --------------------------------------------------------------
 
 Alpha MOs
 -- Occupied --
-19.5217 -19.4901 -19.3764 -19.3683 -10.5599  -1.4254  -1.2437  -1.1688
 -1.0480  -0.7840  -0.7058  -0.6867  -0.6699  -0.6030  -0.5742  -0.5390
 -0.4900  -0.4617  -0.4394  -0.4178
 -- Virtual --
  0.0352   0.0577   0.0781   0.0822   0.0867   0.1005   0.1394   0.1626
  0.1850   0.2126   0.2154   0.2332   0.2481   0.2622   0.2707   0.2882
  0.3043   0.3142   0.3187   0.3253   0.3478   0.3658   0.3673   0.3830
  0.4181   0.4594   0.5632   0.6100   0.6299   0.6909   0.7283   0.7622
  0.8273   0.8378   0.9172   0.9213   1.0008   1.0493   1.0532   1.0665
  1.0903   1.1098   1.1271   1.1356   1.1392   1.1751   1.1946   1.2046
  1.2261   1.3413   1.3726   1.4421   1.4779   1.5005   1.5296   1.5826
  1.6054   1.6207   1.6969   1.7548   1.8448   1.9279   1.9685   2.0199
  2.0929   2.1201   2.1734   2.2095   2.3128   2.3301   2.3965   2.4835
  2.5415   2.5913   2.6505   2.8003   2.8193   2.8426   3.0095   3.0733
  3.1663   3.1833   3.2727   3.3968   3.4013   3.4378   3.5042   3.5461
  3.6243   3.6931   3.7337   3.8465   3.8936   3.9681   4.1496   4.4734
  4.6551   4.6613   4.7738   4.8866   4.9630   5.0014   5.0603   5.0964
  5.1029   5.1162   5.1410   5.1508   5.1717   5.1787   5.1944   5.1966
  5.2566   5.2983   5.3123   5.3352   5.4077   5.4320   5.5223   5.5392
  5.5761   5.6188   5.6519   5.8076   5.9239   6.0649   6.1164   6.3802
  6.4699   6.5243   6.6154   6.6812   6.7989   6.8714   6.8786   6.9291
  7.0171   7.0238   7.0506   7.0685   7.1746   7.2421   7.2573   7.3014
  7.3429   7.3722   7.4058   7.5022   7.5896   7.6599   7.7267   7.8222
  7.9789   8.0128   8.1255  24.9670  50.4090  50.4303  50.5834  50.6561
 
 Beta MOs
 -- Occupied --
-19.5091 -19.4727 -19.3758 -19.3688 -10.5603  -1.3985  -1.2421  -1.1681
 -1.0094  -0.7726  -0.7024  -0.6520  -0.6215  -0.6001  -0.5487  -0.5286
 -0.4852  -0.4422  -0.4103
 -- Virtual --
 -0.0894   0.0363   0.0594   0.0827   0.0853   0.0878   0.1030   0.1429
  0.1706   0.1874   0.2180   0.2204   0.2349   0.2491   0.2637   0.2751
  0.2901   0.3050   0.3161   0.3203   0.3269   0.3503   0.3666   0.3699
  0.3839   0.4179   0.4593   0.5638   0.6125   0.6307   0.6937   0.7284
  0.7625   0.8305   0.8389   0.9198   0.9274   1.0071   1.0524   1.0663
  1.0849   1.0914   1.1130   1.1395   1.1415   1.1527   1.1759   1.2004
  1.2069   1.2289   1.3668   1.3791   1.4449   1.4938   1.5108   1.5331
  1.5974   1.6150   1.6253   1.7042   1.7586   1.8499   1.9344   1.9833
  2.0233   2.0984   2.1270   2.1847   2.2285   2.3278   2.3417   2.3986
  2.4854   2.5503   2.5934   2.6571   2.8007   2.8214   2.8424   3.0098
  3.0752   3.1662   3.1822   3.2718   3.3966   3.4011   3.4386   3.5046
  3.5466   3.6247   3.6931   3.7339   3.8484   3.8965   3.9689   4.1493
  4.5147   4.6811   4.6828   4.7887   4.8989   5.0210   5.0393   5.1004
  5.1225   5.1270   5.1294   5.1557   5.1682   5.1802   5.1925   5.2094
  5.2208   5.2731   5.3066   5.3202   5.3463   5.4270   5.4372   5.5343
  5.5532   5.5795   5.6410   5.6696   5.8117   5.9336   6.0707   6.1177
  6.3838   6.5185   6.5343   6.6204   6.6929   6.8578   6.8860   6.9230
  6.9358   7.0498   7.0623   7.0774   7.1042   7.1974   7.2589   7.2640
  7.3165   7.3511   7.4059   7.4323   7.5207   7.6038   7.6625   7.7284
  7.8270   7.9904   8.0206   8.1443  24.9667  50.4202  50.4424  50.5831
 50.6565
 --------------------------------------------------------------
 
          Ground-State Mulliken Net Atomic Charges

     Atom                 Charge (a.u.)    Spin (a.u.)
  --------------------------------------------------------
      1 C                     0.441313      -0.014843
      2 O                    -0.456189      -0.012821
      3 O                    -0.383150       0.023863
      4 O                     0.001096       0.405157
      5 O                     0.031727       0.601075
      6 H                     0.365203      -0.002431
  --------------------------------------------------------
  Sum of atomic charges =     0.000000
  Sum of spin   charges =     1.000000

 -----------------------------------------------------------------
                    Cartesian Multipole Moments
 -----------------------------------------------------------------
    Charge (ESU x 10^10)
                 0.0000
    Dipole Moment (Debye)
         X       2.1173      Y       1.4969      Z       2.9519
       Tot       3.9290
    Quadrupole Moments (Debye-Ang)
        XX     -30.2138     XY      -3.2209     YY     -31.8986
        XZ      -2.3924     YZ      -1.5940     ZZ     -25.3698
    Octopole Moments (Debye-Ang^2)
       XXX      51.8075    XXY      14.7725    XYY      19.9605
       YYY      43.7003    XXZ     -12.9381    XYZ      -1.0620
       YYZ     -19.3844    XZZ      18.4490    YZZ       8.3551
       ZZZ     -43.2000
    Hexadecapole Moments (Debye-Ang^3)
      XXXX    -150.1052   XXXY     -42.0312   XXYY     -52.5128
      XYYY     -44.5030   YYYY    -167.8716   XXXZ     -25.7261
      XXYZ       0.1203   XYYZ      -3.3348   YYYZ      11.0915
      XXZZ     -66.7817   XYZZ     -18.2221   YYZZ     -63.9862
      XZZZ     -20.4017   YZZZ      -7.1790   ZZZZ    -218.9436
 -----------------------------------------------------------------
 Calculating analytic gradient of the SCF energy
 Gradient of CDS energy
            1           2           3           4           5           6
    1  -0.0004760  -0.0007818   0.0008163   0.0003232  -0.0000360   0.0001543
    2  -0.0025680   0.0024721   0.0000112  -0.0000226   0.0002793  -0.0001720
    3  -0.0000250  -0.0019626   0.0012748   0.0004781  -0.0000785   0.0003131
 Gradient of SCF Energy
            1           2           3           4           5           6
    1   0.0194268   0.0142505  -0.0380924   0.0043600  -0.0202432   0.0202983
    2   0.0971041  -0.0218243  -0.0486602   0.0258206  -0.0661232   0.0136829
    3  -0.0168967   0.0344780  -0.0426215   0.0150953  -0.0236521   0.0335969
 Max gradient component =       9.710E-02
 RMS gradient           =       3.770E-02
 Computing fast CPCM-SWIG gradient
 Updating gradient with PCM contributions...
 -- total gradient after adding PCM contribution --
---------------------------------------------------
  Atom         X              Y              Z     
---------------------------------------------------
   1       0.018521       0.090809      -0.016219
   2       0.017876      -0.013470       0.038691
   3      -0.036002      -0.046348      -0.039859
   4       0.005923       0.019336       0.018102
   5      -0.022346      -0.065786      -0.026277
   6       0.016028       0.015458       0.025562
---------------------------------------------------
 Number of fixed atoms: 0
 Gradient time:  CPU 35.51 s  wall 2.72 s
 ----------------------------------------------------------------
             Standard Nuclear Orientation (Angstroms)
    I     Atom           X                Y                Z
 ----------------------------------------------------------------
    1      C      -0.8657511000    -0.5766906000     0.1819016000
    2      O      -0.5286371000    -1.5479089000     0.9987631000
    3      O      -1.5350302000    -0.6883800000    -0.8316552000
    4      O      -0.2602640000     0.6996019000     0.9578884000
    5      O       0.3673186000     0.1469554000     1.9329355000
    6      H       0.0863816000    -0.9634644000     1.8301014000
 ----------------------------------------------------------------
 Nuclear Repulsion Energy =         174.64001614 hartrees
 There are       20 alpha and       19 beta electrons
 Discretize the solute cavity surface with Lebedev spheres
	Using 110 Lebedev grid points for each H atom
	Using 194 Lebedev grid points for other atoms
	Atomic van der Waals radii will be scaled by 1.20
 Remove points where switching function is < 1.0e-08
 Keep 612 surface tesserae and discard 468 interior tesserae
 Molecular Surface Area = 77.092 Angst**2

                       Distance Matrix (Angstroms)
             C (  1)   O (  2)   O (  3)   O (  4)   O (  5)
   O (  2)  1.313078
   O (  3)  1.219716  2.258771
   O (  4)  1.611736  2.263846  2.598844
   O (  5)  2.260585  2.132599  3.458277  1.284521
   H (  6)  1.942347  1.187833  3.128833  1.909636  1.150014
 
 Requested basis set is 6-311++G(2df,2p)
 There are 46 shells and 180 basis functions
 A cutoff of  1.0D-11 yielded   1031 shell pairs
 There are     16065 function pairs (     20871 Cartesian)
 Smallest overlap matrix eigenvalue = 4.69E-04
 Guess MOs from SCF MO coefficient file

 -----------------------------------------------------------------------
  General SCF calculation program by
  Eric Jon Sundstrom, Paul Horn, Yuezhi Mao, Dmitri Zuev, Alec White,
  David Stuck, Shaama M.S., Shane Yost, Joonho Lee, David Small,
  Daniel Levine, Susi Lehtola, Hugh Burton, Evgeny Epifanovsky,
  Bang C. Huynh
 -----------------------------------------------------------------------
 Exchange:     0.1500 Hartree-Fock + 1.0000 wB97M-V + LR-HF
 Correlation:  1.0000 wB97M-V
 Using SG-2 standard quadrature grid
 Nonlocal Correlation:  VV10 with C = 0.0100 and b = 6.00 and scale = 1.00000
 Grid used for NLC:  SG-1 standard quadrature
 
 Citation of the SMD model:
 Marenich, A.V.; Cramer, C.J.; Truhlar, D.G.
 J. Phys. Chem. B 2009, 113, 6378-6396.
 iSolventCode=           1
 Solvent: water                                                           
 
 vradii
            1           2           3           4           5           6
    1   1.8500000   1.5200000   1.5200000   1.5200000   1.5200000   1.2000000
 -------------------------------------------------------
 OpenMP BLAS3 based DFT computing Module                
 Release: version 1.0, May 2013, Q-Chem Inc. Pittsburgh 
 -------------------------------------------------------
 A unrestricted SCF calculation will be
 performed using Roothaan-Hall, DIIS, GDM
 SCF converges when RMS gradient is below 1.0e-06
 ---------------------------------------
  Cycle       Energy         DIIS error
 ---------------------------------------
    1    -339.4567678509      3.62e-04  Roothaan Step
 ---------------------------------------
  Cycle       Energy         DIIS error
 ---------------------------------------
    1    -339.4706919577      5.39e-04  
    2    -339.4717161454      6.71e-04  Done DIIS. Switching to GDM
 ---------------------------------------
  Cycle       Energy        RMS Gradient
 ---------------------------------------
    1    -339.4717161454      2.74e-02   Normal BFGS step
    2    -339.4687336497      4.11e-02  Line search: overstep
    3    -339.4763016843      3.08e-03   Normal BFGS step
    4    -339.4763939756      2.60e-03   Normal BFGS step
    5    -339.4764224468      5.40e-04   Normal BFGS step
    6    -339.4764276430      6.39e-04   Normal BFGS step
    7    -339.4764287043      1.75e-04   Normal BFGS step
    8    -339.4764290598      1.91e-04   Normal BFGS step
    9    -339.4764291705      5.54e-05   Normal BFGS step
   10    -339.4764292102      2.71e-05   Normal BFGS step
   11    -339.4764292163      1.92e-05   Normal BFGS step
   12    -339.4764292174      7.72e-06   Normal BFGS step
   13    -339.4764292176      3.04e-06   Normal BFGS step
   14    -339.4764292176      2.41e-06   Normal BFGS step
   15    -339.4764292177      1.54e-06   Normal BFGS step
   16    -339.4764292177      8.00e-07  Convergence criterion met
 ---------------------------------------
 SCF time:   CPU 243.90s  wall 15.00s 
<S^2> =          0.754360006
(3)  G-ENP(liq) elect-nuc-pol free energy of system     -339.476429218 a.u.
(4)  G-CDS(liq) cavity-dispersion-solvent structure 
     free energy                                                3.5309 kcal/mol
(6)  G-S(liq) free energy of system                     -339.470802441 a.u.
 SCF   energy in the final basis set =     -339.4708024408
 Total energy in the final basis set =     -339.4708024408
 
 --------------------------------------------------------------
 
                    Orbital Energies (a.u.)
 --------------------------------------------------------------
 
 Alpha MOs
 -- Occupied --
-19.5220 -19.4903 -19.3764 -19.3683 -10.5600  -1.4257  -1.2434  -1.1685
 -1.0483  -0.7842  -0.7058  -0.6869  -0.6701  -0.6028  -0.5740  -0.5390
 -0.4900  -0.4619  -0.4393  -0.4178
 -- Virtual --
  0.0352   0.0577   0.0778   0.0822   0.0866   0.1006   0.1395   0.1626
  0.1850   0.2126   0.2153   0.2332   0.2481   0.2622   0.2707   0.2882
  0.3043   0.3142   0.3187   0.3254   0.3478   0.3657   0.3673   0.3829
  0.4181   0.4592   0.5627   0.6099   0.6299   0.6909   0.7281   0.7622
  0.8271   0.8377   0.9172   0.9213   1.0007   1.0493   1.0531   1.0665
  1.0903   1.1096   1.1271   1.1357   1.1393   1.1752   1.1946   1.2045
  1.2260   1.3411   1.3723   1.4417   1.4778   1.5005   1.5301   1.5824
  1.6054   1.6207   1.6969   1.7547   1.8447   1.9277   1.9687   2.0194
  2.0927   2.1204   2.1734   2.2095   2.3126   2.3302   2.3966   2.4833
  2.5413   2.5909   2.6504   2.8001   2.8194   2.8423   3.0098   3.0739
  3.1662   3.1837   3.2728   3.3971   3.4013   3.4377   3.5045   3.5450
  3.6242   3.6931   3.7337   3.8458   3.8935   3.9677   4.1484   4.4733
  4.6551   4.6611   4.7738   4.8867   4.9629   5.0015   5.0602   5.0964
  5.1030   5.1161   5.1411   5.1507   5.1717   5.1787   5.1942   5.1965
  5.2565   5.2982   5.3124   5.3353   5.4074   5.4318   5.5220   5.5389
  5.5756   5.6193   5.6522   5.8067   5.9239   6.0654   6.1150   6.3775
  6.4696   6.5241   6.6137   6.6797   6.7988   6.8713   6.8787   6.9291
  7.0169   7.0238   7.0509   7.0687   7.1727   7.2418   7.2571   7.3014
  7.3425   7.3719   7.4057   7.5021   7.5898   7.6600   7.7265   7.8218
  7.9787   8.0126   8.1255  24.9651  50.4088  50.4302  50.5828  50.6553
 
 Beta MOs
 -- Occupied --
-19.5094 -19.4729 -19.3757 -19.3688 -10.5604  -1.3988  -1.2418  -1.1677
 -1.0097  -0.7729  -0.7023  -0.6521  -0.6216  -0.5999  -0.5486  -0.5286
 -0.4852  -0.4421  -0.4103
 -- Virtual --
 -0.0896   0.0362   0.0594   0.0827   0.0851   0.0877   0.1031   0.1430
  0.1706   0.1874   0.2180   0.2203   0.2349   0.2491   0.2638   0.2750
  0.2901   0.3050   0.3160   0.3203   0.3270   0.3502   0.3666   0.3699
  0.3839   0.4179   0.4591   0.5633   0.6124   0.6306   0.6938   0.7283
  0.7625   0.8303   0.8388   0.9198   0.9274   1.0071   1.0524   1.0662
  1.0849   1.0914   1.1128   1.1395   1.1416   1.1526   1.1759   1.2004
  1.2069   1.2287   1.3666   1.3788   1.4446   1.4937   1.5107   1.5337
  1.5973   1.6151   1.6251   1.7042   1.7585   1.8498   1.9343   1.9834
  2.0230   2.0982   2.1272   2.1847   2.2284   2.3277   2.3417   2.3986
  2.4851   2.5501   2.5930   2.6570   2.8005   2.8215   2.8421   3.0101
  3.0759   3.1661   3.1826   3.2718   3.3969   3.4011   3.4385   3.5049
  3.5455   3.6246   3.6931   3.7338   3.8477   3.8964   3.9685   4.1481
  4.5145   4.6810   4.6827   4.7887   4.8991   5.0210   5.0392   5.1005
  5.1225   5.1270   5.1294   5.1556   5.1681   5.1803   5.1924   5.2091
  5.2207   5.2729   5.3065   5.3203   5.3465   5.4267   5.4371   5.5340
  5.5529   5.5791   5.6414   5.6699   5.8108   5.9337   6.0711   6.1164
  6.3811   6.5183   6.5341   6.6186   6.6916   6.8578   6.8861   6.9229
  6.9358   7.0497   7.0622   7.0773   7.1044   7.1953   7.2589   7.2638
  7.3165   7.3506   7.4056   7.4322   7.5206   7.6041   7.6626   7.7282
  7.8266   7.9901   8.0205   8.1442  24.9648  50.4200  50.4423  50.5826
 50.6557
 --------------------------------------------------------------
 
          Ground-State Mulliken Net Atomic Charges

     Atom                 Charge (a.u.)    Spin (a.u.)
  --------------------------------------------------------
      1 C                     0.441205      -0.014860
      2 O                    -0.456546      -0.012850
      3 O                    -0.383700       0.024069
      4 O                     0.001623       0.404468
      5 O                     0.032303       0.601594
      6 H                     0.365113      -0.002421
  --------------------------------------------------------
  Sum of atomic charges =     0.000000
  Sum of spin   charges =     1.000000

 -----------------------------------------------------------------
                    Cartesian Multipole Moments
 -----------------------------------------------------------------
    Charge (ESU x 10^10)
                 0.0000
    Dipole Moment (Debye)
         X       2.1257      Y       1.5072      Z       2.9591
       Tot       3.9429
    Quadrupole Moments (Debye-Ang)
        XX     -30.2261     XY      -3.2288     YY     -31.9081
        XZ      -2.3924     YZ      -1.5893     ZZ     -25.3638
    Octopole Moments (Debye-Ang^2)
       XXX      51.8231    XXY      14.7818    XYY      19.9668
       YYY      43.7135    XXZ     -12.9315    XYZ      -1.0629
       YYZ     -19.3822    XZZ      18.4550    YZZ       8.3609
       ZZZ     -43.1670
    Hexadecapole Moments (Debye-Ang^3)
      XXXX    -150.1090   XXXY     -42.0301   XXYY     -52.5173
      XYYY     -44.4996   YYYY    -167.8729   XXXZ     -25.7300
      XXYZ       0.1248   XYYZ      -3.3375   YYYZ      11.0991
      XXZZ     -66.7768   XYZZ     -18.2179   YYZZ     -63.9844
      XZZZ     -20.4030   YZZZ      -7.1688   ZZZZ    -218.8931
 -----------------------------------------------------------------
 Calculating analytic gradient of the SCF energy
 Gradient of CDS energy
            1           2           3           4           5           6
    1  -0.0004790  -0.0007853   0.0008229   0.0003232  -0.0000361   0.0001543
    2  -0.0025806   0.0024863   0.0000105  -0.0000231   0.0002794  -0.0001724
    3  -0.0000224  -0.0019750   0.0012841   0.0004784  -0.0000783   0.0003133
 Gradient of SCF Energy
            1           2           3           4           5           6
    1   0.0200734   0.0140654  -0.0385544   0.0043429  -0.0202773   0.0203501
    2   0.0975363  -0.0221487  -0.0488761   0.0258548  -0.0662438   0.0138775
    3  -0.0165813   0.0344965  -0.0430657   0.0152042  -0.0237089   0.0336552
 Max gradient component =       9.754E-02
 RMS gradient           =       3.787E-02
 Computing fast CPCM-SWIG gradient
 Updating gradient with PCM contributions...
 -- total gradient after adding PCM contribution --
---------------------------------------------------
  Atom         X              Y              Z     
---------------------------------------------------
   1       0.019173       0.091249      -0.015885
   2       0.017709      -0.013781       0.038726
   3      -0.036471      -0.046557      -0.040317
   4       0.005909       0.019344       0.018217
   5      -0.022391      -0.065890      -0.026351
   6       0.016070       0.015635       0.025610
---------------------------------------------------
 Number of fixed atoms: 0
 Gradient time:  CPU 35.45 s  wall 2.69 s
 ----------------------------------------------------------------
             Standard Nuclear Orientation (Angstroms)
    I     Atom           X                Y                Z
 ----------------------------------------------------------------
    1      C      -0.8657511000    -0.5786906000     0.1819016000
    2      O      -0.5286371000    -1.5479089000     0.9987631000
    3      O      -1.5350302000    -0.6883800000    -0.8316552000
    4      O      -0.2602640000     0.6996019000     0.9578884000
    5      O       0.3673186000     0.1469554000     1.9329355000
    6      H       0.0863816000    -0.9634644000     1.8301014000
 ----------------------------------------------------------------
 Nuclear Repulsion Energy =         174.64659684 hartrees
 There are       20 alpha and       19 beta electrons
 Discretize the solute cavity surface with Lebedev spheres
	Using 110 Lebedev grid points for each H atom
	Using 194 Lebedev grid points for other atoms
	Atomic van der Waals radii will be scaled by 1.20
 Remove points where switching function is < 1.0e-08
 Keep 612 surface tesserae and discard 468 interior tesserae
 Molecular Surface Area = 77.090 Angst**2

                       Distance Matrix (Angstroms)
             C (  1)   O (  2)   O (  3)   O (  4)   O (  5)
   O (  2)  1.311599
   O (  3)  1.219534  2.258771
   O (  4)  1.613320  2.263846  2.598844
   O (  5)  2.261226  2.132599  3.458277  1.284521
   H (  6)  1.941950  1.187833  3.128833  1.909636  1.150014
 
 Requested basis set is 6-311++G(2df,2p)
 There are 46 shells and 180 basis functions
 A cutoff of  1.0D-11 yielded   1031 shell pairs
 There are     16065 function pairs (     20871 Cartesian)
 Smallest overlap matrix eigenvalue = 4.69E-04
 Guess MOs from SCF MO coefficient file

 -----------------------------------------------------------------------
  General SCF calculation program by
  Eric Jon Sundstrom, Paul Horn, Yuezhi Mao, Dmitri Zuev, Alec White,
  David Stuck, Shaama M.S., Shane Yost, Joonho Lee, David Small,
  Daniel Levine, Susi Lehtola, Hugh Burton, Evgeny Epifanovsky,
  Bang C. Huynh
 -----------------------------------------------------------------------
 Exchange:     0.1500 Hartree-Fock + 1.0000 wB97M-V + LR-HF
 Correlation:  1.0000 wB97M-V
 Using SG-2 standard quadrature grid
 Nonlocal Correlation:  VV10 with C = 0.0100 and b = 6.00 and scale = 1.00000
 Grid used for NLC:  SG-1 standard quadrature
 
 Citation of the SMD model:
 Marenich, A.V.; Cramer, C.J.; Truhlar, D.G.
 J. Phys. Chem. B 2009, 113, 6378-6396.
 iSolventCode=           1
 Solvent: water                                                           
 
 vradii
            1           2           3           4           5           6
    1   1.8500000   1.5200000   1.5200000   1.5200000   1.5200000   1.2000000
 -------------------------------------------------------
 OpenMP BLAS3 based DFT computing Module                
 Release: version 1.0, May 2013, Q-Chem Inc. Pittsburgh 
 -------------------------------------------------------
 A unrestricted SCF calculation will be
 performed using Roothaan-Hall, DIIS, GDM
 SCF converges when RMS gradient is below 1.0e-06
 ---------------------------------------
  Cycle       Energy         DIIS error
 ---------------------------------------
    1    -339.4571098462      3.64e-04  Roothaan Step
 ---------------------------------------
  Cycle       Energy         DIIS error
 ---------------------------------------
    1    -339.4710698600      5.38e-04  
    2    -339.4721004486      6.68e-04  Done DIIS. Switching to GDM
 ---------------------------------------
  Cycle       Energy        RMS Gradient
 ---------------------------------------
    1    -339.4721004486      2.70e-02   Normal BFGS step
    2    -339.4691426958      4.11e-02  Line search: overstep
    3    -339.4766559508      3.07e-03   Normal BFGS step
    4    -339.4767474118      2.49e-03   Normal BFGS step
    5    -339.4767752725      5.67e-04   Normal BFGS step
    6    -339.4767803200      6.11e-04   Normal BFGS step
    7    -339.4767813295      1.70e-04   Normal BFGS step
    8    -339.4767816573      1.79e-04   Normal BFGS step
    9    -339.4767817573      5.61e-05   Normal BFGS step
   10    -339.4767817939      2.71e-05   Normal BFGS step
   11    -339.4767818000      1.79e-05   Normal BFGS step
   12    -339.4767818010      7.88e-06   Normal BFGS step
   13    -339.4767818011      2.35e-06   Normal BFGS step
   14    -339.4767818013      6.15e-07  Convergence criterion met
 ---------------------------------------
 SCF time:   CPU 230.16s  wall 15.00s 
<S^2> =          0.754362291
(3)  G-ENP(liq) elect-nuc-pol free energy of system     -339.476781801 a.u.
(4)  G-CDS(liq) cavity-dispersion-solvent structure 
     free energy                                                3.5369 kcal/mol
(6)  G-S(liq) free energy of system                     -339.471145343 a.u.
 SCF   energy in the final basis set =     -339.4711453434
 Total energy in the final basis set =     -339.4711453434
 
 --------------------------------------------------------------
 
                    Orbital Energies (a.u.)
 --------------------------------------------------------------
 
 Alpha MOs
 -- Occupied --
-19.5216 -19.4901 -19.3763 -19.3685 -10.5598  -1.4254  -1.2437  -1.1690
 -1.0479  -0.7840  -0.7060  -0.6867  -0.6699  -0.6030  -0.5742  -0.5389
 -0.4902  -0.4618  -0.4394  -0.4178
 -- Virtual --
  0.0352   0.0577   0.0781   0.0822   0.0866   0.1006   0.1394   0.1626
  0.1850   0.2126   0.2154   0.2332   0.2481   0.2622   0.2707   0.2882
  0.3043   0.3142   0.3187   0.3253   0.3478   0.3658   0.3673   0.3830
  0.4182   0.4598   0.5630   0.6099   0.6298   0.6907   0.7283   0.7621
  0.8275   0.8378   0.9170   0.9213   1.0008   1.0494   1.0532   1.0666
  1.0902   1.1098   1.1272   1.1356   1.1392   1.1751   1.1946   1.2046
  1.2263   1.3413   1.3726   1.4422   1.4780   1.5003   1.5296   1.5827
  1.6054   1.6205   1.6967   1.7547   1.8450   1.9275   1.9685   2.0202
  2.0928   2.1202   2.1734   2.2096   2.3127   2.3303   2.3967   2.4835
  2.5418   2.5914   2.6505   2.8001   2.8193   2.8427   3.0095   3.0732
  3.1667   3.1833   3.2732   3.3969   3.4016   3.4386   3.5044   3.5461
  3.6241   3.6931   3.7337   3.8472   3.8936   3.9681   4.1492   4.4734
  4.6551   4.6613   4.7738   4.8864   4.9631   5.0014   5.0604   5.0964
  5.1031   5.1164   5.1410   5.1508   5.1717   5.1787   5.1945   5.1967
  5.2568   5.2984   5.3124   5.3349   5.4076   5.4317   5.5223   5.5394
  5.5765   5.6185   5.6516   5.8079   5.9233   6.0647   6.1184   6.3797
  6.4699   6.5242   6.6159   6.6817   6.7989   6.8714   6.8787   6.9290
  7.0171   7.0235   7.0504   7.0684   7.1754   7.2421   7.2574   7.3014
  7.3431   7.3723   7.4058   7.5019   7.5892   7.6602   7.7270   7.8220
  7.9788   8.0125   8.1255  24.9680  50.4090  50.4304  50.5838  50.6557
 
 Beta MOs
 -- Occupied --
-19.5090 -19.4727 -19.3757 -19.3690 -10.5602  -1.3985  -1.2420  -1.1683
 -1.0093  -0.7726  -0.7025  -0.6519  -0.6215  -0.6001  -0.5487  -0.5285
 -0.4853  -0.4423  -0.4103
 -- Virtual --
 -0.0893   0.0362   0.0594   0.0827   0.0853   0.0878   0.1031   0.1429
  0.1706   0.1874   0.2180   0.2204   0.2348   0.2491   0.2637   0.2750
  0.2901   0.3050   0.3160   0.3203   0.3269   0.3503   0.3667   0.3699
  0.3840   0.4180   0.4597   0.5636   0.6125   0.6306   0.6935   0.7285
  0.7625   0.8307   0.8390   0.9196   0.9274   1.0072   1.0525   1.0663
  1.0850   1.0913   1.1130   1.1394   1.1415   1.1527   1.1759   1.2004
  1.2070   1.2291   1.3668   1.3791   1.4451   1.4939   1.5105   1.5332
  1.5973   1.6150   1.6252   1.7039   1.7585   1.8500   1.9341   1.9833
  2.0237   2.0983   2.1270   2.1847   2.2285   2.3277   2.3419   2.3987
  2.4853   2.5506   2.5935   2.6571   2.8006   2.8214   2.8425   3.0098
  3.0752   3.1665   3.1822   3.2723   3.3968   3.4013   3.4394   3.5048
  3.5465   3.6245   3.6930   3.7338   3.8491   3.8965   3.9688   4.1489
  4.5147   4.6810   4.6828   4.7886   4.8988   5.0209   5.0393   5.1006
  5.1227   5.1270   5.1294   5.1558   5.1683   5.1801   5.1925   5.2097
  5.2209   5.2732   5.3067   5.3203   5.3460   5.4267   5.4371   5.5343
  5.5535   5.5800   5.6407   5.6693   5.8121   5.9330   6.0705   6.1197
  6.3833   6.5185   6.5342   6.6211   6.6933   6.8578   6.8861   6.9229
  6.9358   7.0492   7.0623   7.0775   7.1040   7.1984   7.2587   7.2641
  7.3166   7.3513   7.4060   7.4323   7.5204   7.6034   7.6628   7.7287
  7.8268   7.9903   8.0203   8.1442  24.9677  50.4202  50.4425  50.5836
 50.6561
 --------------------------------------------------------------
 
          Ground-State Mulliken Net Atomic Charges

     Atom                 Charge (a.u.)    Spin (a.u.)
  --------------------------------------------------------
      1 C                     0.441357      -0.014863
      2 O                    -0.455043      -0.012796
      3 O                    -0.384002       0.023814
      4 O                     0.001028       0.405468
      5 O                     0.031423       0.600814
      6 H                     0.365238      -0.002437
  --------------------------------------------------------
  Sum of atomic charges =     0.000000
  Sum of spin   charges =     1.000000

 -----------------------------------------------------------------
                    Cartesian Multipole Moments
 -----------------------------------------------------------------
    Charge (ESU x 10^10)
                 0.0000
    Dipole Moment (Debye)
         X       2.1227      Y       1.4877      Z       2.9577
       Tot       3.9328
    Quadrupole Moments (Debye-Ang)
        XX     -30.2245     XY      -3.2180     YY     -31.8830
        XZ      -2.3999     YZ      -1.6054     ZZ     -25.3712
    Octopole Moments (Debye-Ang^2)
       XXX      51.8148    XXY      14.7747    XYY      19.9499
       YYY      43.6810    XXZ     -12.9283    XYZ      -1.0515
       YYZ     -19.3640    XZZ      18.4421    YZZ       8.3488
       ZZZ     -43.1886
    Hexadecapole Moments (Debye-Ang^3)
      XXXX    -150.1028   XXXY     -42.0383   XXYY     -52.5038
      XYYY     -44.4905   YYYY    -167.8278   XXXZ     -25.7474
      XXYZ       0.1044   XYYZ      -3.3555   YYYZ      11.0537
      XXZZ     -66.7750   XYZZ     -18.2169   YYZZ     -63.9728
      XZZZ     -20.4298   YZZZ      -7.2117   ZZZZ    -218.9593
 -----------------------------------------------------------------
 Calculating analytic gradient of the SCF energy
 Gradient of CDS energy
            1           2           3           4           5           6
    1  -0.0004921  -0.0007704   0.0008213   0.0003231  -0.0000362   0.0001542
    2  -0.0025425   0.0024442   0.0000122  -0.0000222   0.0002795  -0.0001712
    3  -0.0000528  -0.0019403   0.0012804   0.0004781  -0.0000782   0.0003128
 Gradient of SCF Energy
            1           2           3           4           5           6
    1   0.0202512   0.0140286  -0.0384839   0.0042439  -0.0202301   0.0201903
    2   0.0964952  -0.0214576  -0.0485015   0.0260063  -0.0660697   0.0135272
    3  -0.0162454   0.0343497  -0.0429545   0.0150530  -0.0237035   0.0335006
 Max gradient component =       9.650E-02
 RMS gradient           =       3.762E-02
 Computing fast CPCM-SWIG gradient
 Updating gradient with PCM contributions...
 -- total gradient after adding PCM contribution --
---------------------------------------------------
  Atom         X              Y              Z     
---------------------------------------------------
   1       0.019336       0.090206      -0.015565
   2       0.017656      -0.013112       0.038556
   3      -0.036396      -0.046199      -0.040198
   4       0.005814       0.019519       0.018068
   5      -0.022331      -0.065743      -0.026323
   6       0.015922       0.015329       0.025461
---------------------------------------------------
 Number of fixed atoms: 0
 Gradient time:  CPU 36.27 s  wall 2.82 s
 ----------------------------------------------------------------
             Standard Nuclear Orientation (Angstroms)
    I     Atom           X                Y                Z
 ----------------------------------------------------------------
    1      C      -0.8657511000    -0.5776906000     0.1829016000
    2      O      -0.5286371000    -1.5479089000     0.9987631000
    3      O      -1.5350302000    -0.6883800000    -0.8316552000
    4      O      -0.2602640000     0.6996019000     0.9578884000
    5      O       0.3673186000     0.1469554000     1.9329355000
    6      H       0.0863816000    -0.9634644000     1.8301014000
 ----------------------------------------------------------------
 Nuclear Repulsion Energy =         174.64756955 hartrees
 There are       20 alpha and       19 beta electrons
 Discretize the solute cavity surface with Lebedev spheres
	Using 110 Lebedev grid points for each H atom
	Using 194 Lebedev grid points for other atoms
	Atomic van der Waals radii will be scaled by 1.20
 Remove points where switching function is < 1.0e-08
 Keep 612 surface tesserae and discard 468 interior tesserae
 Molecular Surface Area = 77.088 Angst**2

                       Distance Matrix (Angstroms)
             C (  1)   O (  2)   O (  3)   O (  4)   O (  5)
   O (  2)  1.311716
   O (  3)  1.220456  2.258771
   O (  4)  1.612047  2.263846  2.598844
   O (  5)  2.260131  2.132599  3.458277  1.284521
   H (  6)  1.941300  1.187833  3.128833  1.909636  1.150014
 
 Requested basis set is 6-311++G(2df,2p)
 There are 46 shells and 180 basis functions
 A cutoff of  1.0D-11 yielded   1031 shell pairs
 There are     16065 function pairs (     20871 Cartesian)
 Smallest overlap matrix eigenvalue = 4.69E-04
 Guess MOs from SCF MO coefficient file

 -----------------------------------------------------------------------
  General SCF calculation program by
  Eric Jon Sundstrom, Paul Horn, Yuezhi Mao, Dmitri Zuev, Alec White,
  David Stuck, Shaama M.S., Shane Yost, Joonho Lee, David Small,
  Daniel Levine, Susi Lehtola, Hugh Burton, Evgeny Epifanovsky,
  Bang C. Huynh
 -----------------------------------------------------------------------
 Exchange:     0.1500 Hartree-Fock + 1.0000 wB97M-V + LR-HF
 Correlation:  1.0000 wB97M-V
 Using SG-2 standard quadrature grid
 Nonlocal Correlation:  VV10 with C = 0.0100 and b = 6.00 and scale = 1.00000
 Grid used for NLC:  SG-1 standard quadrature
 
 Citation of the SMD model:
 Marenich, A.V.; Cramer, C.J.; Truhlar, D.G.
 J. Phys. Chem. B 2009, 113, 6378-6396.
 iSolventCode=           1
 Solvent: water                                                           
 
 vradii
            1           2           3           4           5           6
    1   1.8500000   1.5200000   1.5200000   1.5200000   1.5200000   1.2000000
 -------------------------------------------------------
 OpenMP BLAS3 based DFT computing Module                
 Release: version 1.0, May 2013, Q-Chem Inc. Pittsburgh 
 -------------------------------------------------------
 A unrestricted SCF calculation will be
 performed using Roothaan-Hall, DIIS, GDM
 SCF converges when RMS gradient is below 1.0e-06
 ---------------------------------------
  Cycle       Energy         DIIS error
 ---------------------------------------
    1    -339.4569577437      3.62e-04  Roothaan Step
 ---------------------------------------
  Cycle       Energy         DIIS error
 ---------------------------------------
    1    -339.4708749723      5.40e-04  
    2    -339.4718894879      6.73e-04  Done DIIS. Switching to GDM
 ---------------------------------------
  Cycle       Energy        RMS Gradient
 ---------------------------------------
    1    -339.4718894879      2.73e-02   Normal BFGS step
    2    -339.4688713224      4.17e-02  Line search: overstep
    3    -339.4765061671      3.11e-03   Normal BFGS step
    4    -339.4765990710      2.60e-03   Normal BFGS step
    5    -339.4766277018      5.42e-04   Normal BFGS step
    6    -339.4766329151      6.41e-04   Normal BFGS step
    7    -339.4766339793      1.76e-04   Normal BFGS step
    8    -339.4766343367      1.90e-04   Normal BFGS step
    9    -339.4766344477      5.54e-05   Normal BFGS step
   10    -339.4766344874      2.68e-05   Normal BFGS step
   11    -339.4766344936      1.90e-05   Normal BFGS step
   12    -339.4766344946      7.65e-06   Normal BFGS step
   13    -339.4766344948      2.17e-06   Normal BFGS step
   14    -339.4766344949      1.61e-06   Normal BFGS step
   15    -339.4766344949      1.06e-06   Normal BFGS step
   16    -339.4766344949      6.36e-07  Convergence criterion met
 ---------------------------------------
 SCF time:   CPU 248.98s  wall 16.00s 
<S^2> =          0.754360928
(3)  G-ENP(liq) elect-nuc-pol free energy of system     -339.476634495 a.u.
(4)  G-CDS(liq) cavity-dispersion-solvent structure 
     free energy                                                3.5338 kcal/mol
(6)  G-S(liq) free energy of system                     -339.471002956 a.u.
 SCF   energy in the final basis set =     -339.4710029563
 Total energy in the final basis set =     -339.4710029563
 
 --------------------------------------------------------------
 
                    Orbital Energies (a.u.)
 --------------------------------------------------------------
 
 Alpha MOs
 -- Occupied --
-19.5219 -19.4903 -19.3761 -19.3685 -10.5600  -1.4257  -1.2433  -1.1688
 -1.0482  -0.7843  -0.7060  -0.6869  -0.6701  -0.6027  -0.5740  -0.5388
 -0.4903  -0.4619  -0.4393  -0.4178
 -- Virtual --
  0.0352   0.0577   0.0779   0.0822   0.0866   0.1006   0.1395   0.1625
  0.1850   0.2126   0.2153   0.2332   0.2481   0.2622   0.2706   0.2882
  0.3043   0.3142   0.3187   0.3254   0.3478   0.3658   0.3673   0.3830
  0.4182   0.4597   0.5624   0.6098   0.6298   0.6908   0.7282   0.7621
  0.8273   0.8378   0.9171   0.9212   1.0007   1.0493   1.0532   1.0666
  1.0902   1.1098   1.1271   1.1356   1.1393   1.1753   1.1946   1.2046
  1.2261   1.3412   1.3723   1.4420   1.4779   1.5004   1.5298   1.5825
  1.6054   1.6205   1.6967   1.7546   1.8447   1.9276   1.9684   2.0200
  2.0927   2.1204   2.1733   2.2095   2.3126   2.3301   2.3968   2.4830
  2.5417   2.5911   2.6504   2.8003   2.8194   2.8423   3.0098   3.0738
  3.1666   3.1837   3.2732   3.3973   3.4018   3.4387   3.5048   3.5447
  3.6239   3.6930   3.7336   3.8468   3.8934   3.9677   4.1478   4.4733
  4.6550   4.6612   4.7738   4.8866   4.9629   5.0014   5.0603   5.0965
  5.1032   5.1164   5.1410   5.1508   5.1717   5.1787   5.1944   5.1966
  5.2567   5.2984   5.3125   5.3350   5.4073   5.4314   5.5222   5.5392
  5.5763   5.6189   5.6520   5.8071   5.9234   6.0657   6.1172   6.3763
  6.4696   6.5239   6.6143   6.6802   6.7988   6.8713   6.8788   6.9290
  7.0169   7.0237   7.0505   7.0686   7.1737   7.2417   7.2572   7.3014
  7.3426   7.3720   7.4057   7.5017   7.5893   7.6606   7.7267   7.8216
  7.9786   8.0124   8.1254  24.9664  50.4088  50.4303  50.5834  50.6546
 
 Beta MOs
 -- Occupied --
-19.5093 -19.4729 -19.3755 -19.3691 -10.5604  -1.3988  -1.2417  -1.1680
 -1.0096  -0.7729  -0.7025  -0.6521  -0.6216  -0.5998  -0.5486  -0.5284
 -0.4854  -0.4421  -0.4103
 -- Virtual --
 -0.0895   0.0363   0.0594   0.0827   0.0852   0.0877   0.1031   0.1430
  0.1706   0.1874   0.2180   0.2203   0.2348   0.2491   0.2638   0.2750
  0.2901   0.3050   0.3160   0.3203   0.3270   0.3502   0.3666   0.3699
  0.3839   0.4180   0.4596   0.5630   0.6123   0.6306   0.6937   0.7284
  0.7624   0.8305   0.8390   0.9197   0.9274   1.0071   1.0525   1.0663
  1.0850   1.0913   1.1130   1.1394   1.1416   1.1527   1.1761   1.2004
  1.2069   1.2289   1.3667   1.3788   1.4449   1.4938   1.5106   1.5334
  1.5973   1.6150   1.6251   1.7039   1.7584   1.8498   1.9341   1.9831
  2.0235   2.0982   2.1273   2.1846   2.2285   2.3276   2.3417   2.3988
  2.4849   2.5505   2.5932   2.6571   2.8006   2.8215   2.8421   3.0102
  3.0758   3.1665   3.1826   3.2723   3.3971   3.4016   3.4395   3.5052
  3.5451   3.6243   3.6930   3.7337   3.8487   3.8963   3.9684   4.1475
  4.5145   4.6809   4.6826   4.7886   4.8990   5.0209   5.0392   5.1007
  5.1227   5.1271   5.1294   5.1557   5.1681   5.1802   5.1924   5.2094
  5.2209   5.2731   5.3066   5.3204   5.3462   5.4265   5.4367   5.5342
  5.5532   5.5798   5.6411   5.6697   5.8113   5.9331   6.0715   6.1185
  6.3798   6.5183   6.5339   6.6193   6.6920   6.8577   6.8861   6.9229
  6.9358   7.0493   7.0622   7.0773   7.1043   7.1966   7.2587   7.2640
  7.3165   7.3508   7.4057   7.4322   7.5203   7.6036   7.6632   7.7284
  7.8265   7.9901   8.0202   8.1441  24.9660  50.4199  50.4424  50.5832
 50.6551
 --------------------------------------------------------------
 
          Ground-State Mulliken Net Atomic Charges

     Atom                 Charge (a.u.)    Spin (a.u.)
  --------------------------------------------------------
      1 C                     0.441318      -0.014895
      2 O                    -0.455073      -0.012833
      3 O                    -0.385012       0.024047
      4 O                     0.001536       0.404755
      5 O                     0.032096       0.601357
      6 H                     0.365134      -0.002431
  --------------------------------------------------------
  Sum of atomic charges =     0.000000
  Sum of spin   charges =     1.000000

 -----------------------------------------------------------------
                    Cartesian Multipole Moments
 -----------------------------------------------------------------
    Charge (ESU x 10^10)
                 0.0000
    Dipole Moment (Debye)
         X       2.1305      Y       1.4967      Z       2.9718
       Tot       3.9511
    Quadrupole Moments (Debye-Ang)
        XX     -30.2369     XY      -3.2260     YY     -31.8883
        XZ      -2.4065     YZ      -1.6048     ZZ     -25.3624
    Octopole Moments (Debye-Ang^2)
       XXX      51.8524    XXY      14.7835    XYY      19.9629
       YYY      43.6847    XXZ     -12.9149    XYZ      -1.0494
       YYZ     -19.3582    XZZ      18.4532    YZZ       8.3540
       ZZZ     -43.1598
    Hexadecapole Moments (Debye-Ang^3)
      XXXX    -150.1885   XXXY     -42.0510   XXYY     -52.5177
      XYYY     -44.4985   YYYY    -167.7992   XXXZ     -25.7586
      XXYZ       0.1038   XYYZ      -3.3571   YYYZ      11.0572
      XXZZ     -66.7817   XYZZ     -18.2167   YYZZ     -63.9684
      XZZZ     -20.4214   YZZZ      -7.1933   ZZZZ    -218.9039
 -----------------------------------------------------------------
 Calculating analytic gradient of the SCF energy
 Gradient of CDS energy
            1           2           3           4           5           6
    1  -0.0004982  -0.0007727   0.0008294   0.0003233  -0.0000360   0.0001542
    2  -0.0025463   0.0024486   0.0000121  -0.0000227   0.0002795  -0.0001713
    3  -0.0000647  -0.0019426   0.0012944   0.0004783  -0.0000782   0.0003128
 Gradient of SCF Energy
            1           2           3           4           5           6
    1   0.0206402   0.0139923  -0.0389011   0.0043312  -0.0202995   0.0202369
    2   0.0968482  -0.0217274  -0.0487316   0.0261012  -0.0661761   0.0136857
    3  -0.0152060   0.0341461  -0.0437671   0.0150748  -0.0237551   0.0335073
 Max gradient component =       9.685E-02
 RMS gradient           =       3.777E-02
 Computing fast CPCM-SWIG gradient
 Updating gradient with PCM contributions...
 -- total gradient after adding PCM contribution --
---------------------------------------------------
  Atom         X              Y              Z     
---------------------------------------------------
   1       0.019744       0.090567      -0.014513
   2       0.017633      -0.013366       0.038377
   3      -0.036828      -0.046426      -0.041029
   4       0.005906       0.019580       0.018104
   5      -0.022413      -0.065832      -0.026392
   6       0.015957       0.015477       0.025453
---------------------------------------------------
[...]
	Atomic van der Waals radii will be scaled by 1.20
 Remove points where switching function is < 1.0e-08
 Keep 615 surface tesserae and discard 465 interior tesserae
 Molecular Surface Area = 77.152 Angst**2
 Applying Cartesian multipole field
    Component          Value
    ---------          -----
     (2,0,0)        1.00000E-11
     (0,2,0)        2.00000E-11
     (0,0,2)       -3.00000E-11
 Nucleus-field energy     =    -0.0000000025 hartrees
 Requested basis set is 6-311++G(2df,2p)
 There are 46 shells and 180 basis functions
 A cutoff of  1.0D-12 yielded   1046 shell pairs
 There are     16296 function pairs (     21185 Cartesian)
 Smallest overlap matrix eigenvalue = 3.96E-04
 Guess MOs from SCF MO coefficient file

 -----------------------------------------------------------------------
  General SCF calculation program by
  Eric Jon Sundstrom, Paul Horn, Yuezhi Mao, Dmitri Zuev, Alec White,
  David Stuck, Shaama M.S., Shane Yost, Joonho Lee, David Small,
  Daniel Levine, Susi Lehtola, Hugh Burton, Evgeny Epifanovsky,
  Bang C. Huynh
 -----------------------------------------------------------------------
 Exchange:     0.1500 Hartree-Fock + 1.0000 wB97M-V + LR-HF
 Correlation:  1.0000 wB97M-V
 Using SG-2 standard quadrature grid
 Nonlocal Correlation:  VV10 with C = 0.0100 and b = 6.00 and scale = 1.00000
 Grid used for NLC:  SG-1 standard quadrature
 
 Citation of the SMD model:
 Marenich, A.V.; Cramer, C.J.; Truhlar, D.G.
 J. Phys. Chem. B 2009, 113, 6378-6396.
 iSolventCode=           1
 Solvent: water                                                           
 
 vradii
            1           2           3           4           5           6
    1   1.8500000   1.5200000   1.5200000   1.5200000   1.5200000   1.2000000
 -------------------------------------------------------
 OpenMP BLAS3 based DFT computing Module                
 Release: version 1.0, May 2013, Q-Chem Inc. Pittsburgh 
 -------------------------------------------------------
 A unrestricted SCF calculation will be
 performed using Roothaan-Hall, DIIS, GDM
 SCF converges when RMS gradient is below 1.0e-07
 ---------------------------------------
  Cycle       Energy         DIIS error
 ---------------------------------------
    1    -339.4941617468      3.21e-04  Roothaan Step
 ---------------------------------------
  Cycle       Energy         DIIS error
 ---------------------------------------
    1    -339.5054704606      4.57e-04  
    2    -339.5066091501      5.30e-04  Done DIIS. Switching to GDM
 ---------------------------------------
  Cycle       Energy        RMS Gradient
 ---------------------------------------
    1    -339.5066091501      2.33e-02   Normal BFGS step
    2    -339.5050692307      3.57e-02  Line search: overstep
    3    -339.5094354922      2.84e-03   Normal BFGS step
    4    -339.5094973344      1.17e-03   Normal BFGS step
    5    -339.5095094265      9.11e-04   Normal BFGS step
    6    -339.5095130394      1.56e-04   Normal BFGS step
    7    -339.5095135543      4.34e-04   Normal BFGS step
    8    -339.5095137529      6.88e-05   Normal BFGS step
    9    -339.5095138443      5.47e-05   Normal BFGS step
   10    -339.5095138585      2.12e-05   Normal BFGS step
   11    -339.5095138611      1.30e-05   Normal BFGS step
   12    -339.5095138615      3.76e-06   Normal BFGS step
   13    -339.5095138616      1.20e-06   Normal BFGS step
   14    -339.5095138616      6.22e-07   Normal BFGS step
   15    -339.5095138616      3.71e-07   Normal BFGS step
   16    -339.5095138616      2.38e-07   Normal BFGS step
   17    -339.5095138616      1.22e-07   Normal BFGS step
   18    -339.5095138616      5.85e-08  Convergence criterion met
 ---------------------------------------
 SCF time:   CPU 288.48s  wall 18.00s 
<S^2> =          0.754347526
(3)  G-ENP(liq) elect-nuc-pol free energy of system     -339.509513862 a.u.
(4)  G-CDS(liq) cavity-dispersion-solvent structure 
     free energy                                                3.8460 kcal/mol
(6)  G-S(liq) free energy of system                     -339.503384910 a.u.
 SCF   energy in the final basis set =     -339.5033849104
 Total energy in the final basis set =     -339.5033849104
 
 --------------------------------------------------------------
 
                    Orbital Energies (a.u.)
 --------------------------------------------------------------
 
 Alpha MOs
 -- Occupied --
-19.4940 -19.4832 -19.3930 -19.3720 -10.5480  -1.4080  -1.2688  -1.2121
 -1.0226  -0.7730  -0.7044  -0.6755  -0.6584  -0.6149  -0.5954  -0.5392
 -0.5033  -0.4641  -0.4386  -0.4273
 -- Virtual --
  0.0381   0.0639   0.0822   0.0851   0.1077   0.1085   0.1650   0.1709
  0.1886   0.2127   0.2221   0.2301   0.2438   0.2543   0.2637   0.2901
  0.2979   0.3116   0.3150   0.3215   0.3334   0.3606   0.3761   0.3911
  0.4299   0.4633   0.5622   0.6283   0.6560   0.6608   0.7320   0.7684
  0.8241   0.8479   0.9129   0.9589   0.9997   1.0567   1.0580   1.0628
  1.0953   1.1083   1.1153   1.1378   1.1555   1.1711   1.1906   1.1917
  1.2593   1.3606   1.3696   1.4469   1.4728   1.4905   1.5291   1.5778
  1.6235   1.6882   1.7399   1.7632   1.8496   1.8895   1.9482   2.0567
  2.0626   2.1058   2.1894   2.2058   2.3139   2.3570   2.4249   2.5366
  2.5895   2.6154   2.7208   2.7896   2.8134   2.9041   2.9644   3.0341
  3.1382   3.1883   3.2999   3.3444   3.3756   3.4688   3.5206   3.6154
  3.6692   3.6875   3.7754   3.8533   3.9570   4.0721   4.3587   4.4880
  4.6534   4.6621   4.7837   4.9079   4.9752   4.9947   5.0744   5.0887
  5.1034   5.1262   5.1263   5.1673   5.1688   5.1756   5.1991   5.2437
  5.2512   5.3074   5.3125   5.3363   5.4054   5.4269   5.4931   5.5245
  5.6105   5.6534   5.7160   5.7705   5.9152   6.2341   6.2736   6.3171
  6.4807   6.6285   6.7638   6.8418   6.8726   6.8841   6.9248   6.9252
  7.0295   7.0373   7.0519   7.0872   7.1975   7.1977   7.2797   7.3169
  7.4285   7.4509   7.4652   7.4854   7.5328   7.6252   7.7568   7.9546
  7.9882   8.1131   8.2064  25.1322  50.4217  50.4440  50.6740  50.8468
 
 Beta MOs
 -- Occupied --
-19.4801 -19.4669 -19.3934 -19.3715 -10.5483  -1.3817  -1.2664  -1.2117
 -0.9832  -0.7630  -0.7026  -0.6419  -0.6272  -0.6110  -0.5514  -0.5298
 -0.4977  -0.4588  -0.4178
 -- Virtual --
 -0.0735   0.0386   0.0647   0.0827   0.0857   0.1094   0.1139   0.1694
  0.1775   0.1914   0.2186   0.2267   0.2323   0.2508   0.2553   0.2652
  0.2926   0.2983   0.3133   0.3165   0.3237   0.3352   0.3637   0.3765
  0.3936   0.4298   0.4634   0.5636   0.6301   0.6567   0.6621   0.7320
  0.7682   0.8240   0.8548   0.9138   0.9621   1.0059   1.0607   1.0630
  1.0879   1.0979   1.1125   1.1201   1.1572   1.1658   1.1734   1.1932
  1.1942   1.2607   1.3750   1.3876   1.4532   1.4862   1.4990   1.5365
  1.5823   1.6495   1.6921   1.7405   1.7665   1.8521   1.9013   1.9605
  2.0592   2.0703   2.1137   2.2042   2.2229   2.3223   2.3710   2.4278
  2.5377   2.5923   2.6250   2.7235   2.7931   2.8129   2.9029   2.9640
  3.0363   3.1371   3.1879   3.2995   3.3432   3.3756   3.4707   3.5218
  3.6164   3.6683   3.6872   3.7741   3.8559   3.9583   4.0704   4.3586
  4.5296   4.6737   4.6885   4.7996   4.9220   5.0162   5.0489   5.1020
  5.1081   5.1336   5.1375   5.1528   5.1722   5.1845   5.1961   5.2251
  5.2592   5.2710   5.3159   5.3363   5.3447   5.4100   5.4357   5.5119
  5.5318   5.6356   5.6569   5.7199   5.7835   5.9257   6.2383   6.2747
  6.3253   6.5299   6.6396   6.8041   6.8561   6.8862   6.9118   6.9290
  6.9553   7.0578   7.0896   7.0997   7.1095   7.2003   7.2064   7.3117
  7.3574   7.4322   7.4635   7.4884   7.4942   7.5412   7.6357   7.7624
  7.9597   8.0006   8.1320   8.2069  25.1320  50.4336  50.4556  50.6740
 50.8470
 --------------------------------------------------------------
 
          Ground-State Mulliken Net Atomic Charges

     Atom                 Charge (a.u.)    Spin (a.u.)
  --------------------------------------------------------
      1 C                     0.480848      -0.014323
      2 O                    -0.384722      -0.008017
      3 O                    -0.389190       0.016870
      4 O                    -0.047954       0.457675
      5 O                    -0.025498       0.554636
      6 H                     0.366516      -0.006841
  --------------------------------------------------------
  Sum of atomic charges =    -0.000000
  Sum of spin   charges =     1.000000

 -----------------------------------------------------------------
                    Cartesian Multipole Moments
 -----------------------------------------------------------------
    Charge (ESU x 10^10)
                 0.0000
    Dipole Moment (Debye)
         X       1.6824      Y       0.0508      Z       2.6439
       Tot       3.1342
    Quadrupole Moments (Debye-Ang)
        XX     -29.4508     XY      -1.7491     YY     -30.4441
        XZ      -2.5146     YZ      -1.6939     ZZ     -25.7712
    Octopole Moments (Debye-Ang^2)
       XXX      49.8015    XXY      12.7980    XYY      18.0208
       YYY      40.8949    XXZ     -13.3548    XYZ      -0.7685
       YYZ     -19.9918    XZZ      17.3434    YZZ       8.0955
       ZZZ     -46.4435
    Hexadecapole Moments (Debye-Ang^3)
      XXXX    -142.5990   XXXY     -37.9522   XXYY     -50.1746
      XYYY     -40.3218   YYYY    -169.4635   XXXZ     -22.8995
      XXYZ       0.8450   XYYZ      -2.8320   YYYZ      14.2837
      XXZZ     -64.0557   XYZZ     -16.7696   YYZZ     -64.6701
      XZZZ     -17.6876   YZZZ      -3.3773   ZZZZ    -218.8165
 -----------------------------------------------------------------
 Calculating analytic gradient of the SCF energy
 Gradient of CDS energy
            1           2           3           4           5           6
    1  -0.0005575  -0.0003209   0.0005561   0.0001801  -0.0000120   0.0001541
    2  -0.0015085   0.0011116   0.0001317   0.0000890   0.0002816  -0.0001055
    3  -0.0005357  -0.0007597   0.0008438   0.0002681  -0.0000861   0.0002697
 Gradient of SCF Energy
            1           2           3           4           5           6
    1   0.0023670  -0.0031718  -0.0028487  -0.0018489   0.0032793   0.0022231
    2   0.0061869  -0.0109187  -0.0002576   0.0029790   0.0052859  -0.0032754
    3   0.0019603  -0.0026196  -0.0040979  -0.0037693   0.0041135   0.0044130
 Max gradient component =       1.092E-02
 RMS gradient           =       4.256E-03
 Computing fast CPCM-SWIG gradient
 Updating gradient with PCM contributions...
 -- total gradient after adding PCM contribution --
---------------------------------------------------
  Atom         X              Y              Z     
---------------------------------------------------
   1      -0.000047      -0.000017       0.000110
   2      -0.000036       0.000023      -0.000023
   3      -0.000142      -0.000051       0.000112
   4       0.000037      -0.000010      -0.000063
   5       0.000103       0.000024      -0.000091
   6       0.000084       0.000031      -0.000046
---------------------------------------------------
 Number of fixed atoms: 0
 Gradient time:  CPU 36.89 s  wall 2.82 s
 Geometry Optimization Parameters
   NAtoms,    NIC,     NZ,  NCons,   NDum,   NFix, NCnnct, MaxDiis
        6      32       0       0       0       0       0       0

 Cartesian Hessian Update
 Hessian updated using Powell/Murtagh-Sargent update
  Mixing factors:     0.890858 Powell                      0.109142 Murtagh-Sargent


** GEOMETRY OPTIMIZATION IN DELOCALIZED INTERNAL COORDINATES **
   Searching for a Transition State

   Optimization Cycle:  13

                       Coordinates (Angstroms)
     ATOM                X               Y               Z
      1  C        -0.8879616665   -0.7378520920    0.2174537040
      2  O        -0.5303919011   -1.6361589609    0.9859185005
      3  O        -1.4876823690   -0.5156365480   -0.7747935549
      4  O        -0.2632173821    0.6311554173    0.8894757567
      5  O         0.3479937295    0.2423807884    1.9518529618
      6  H         0.0852773892   -0.9147752047    1.8000274319
   Point Group: c1    Number of degrees of freedom:    12


   Energy is   -339.503384910

 Hessian updated using Powell/Murtagh-Sargent update
  Mixing factors:     0.933020 Powell                      0.066980 Murtagh-Sargent

 12 Hessian modes will be used to form the next step
  Hessian Eigenvalues:
    -0.027867    0.014903    0.021474    0.038640    0.106623    0.109688
     0.179556    0.307894    0.331586    0.362752    0.499233    0.772726

 Transition state search - taking P-RFO step
 Searching for Lamda that Maximizes Along the Lowest mode
 Value Taken    Lamda =   0.00000000
 Searching for Lamda that Minimizes Along All other modes
 Value Taken    Lamda =  -0.00000003
 Step Taken.  Stepsize is  0.000811

                             Maximum     Tolerance    Cnvgd?
         Gradient           0.000063      0.000300     YES
         Displacement       0.000421      0.001200     YES
         Energy change     -0.000000      0.000001     YES


                       Distance Matrix (Angstroms)
             C (  1)   O (  2)   O (  3)   O (  4)   O (  5)
   O (  2)  1.235050
   O (  3)  1.180508  2.296102
   O (  4)  1.648060  2.285038  2.363099
   O (  5)  2.344479  2.287685  3.373262  1.285834
   H (  6)  1.866289  1.249887  3.043553  1.827691  1.196278
 
 Final energy is   -339.503384910441     


 ******************************
 **  OPTIMIZATION CONVERGED  **
 ******************************

                       Coordinates (Angstroms)
     ATOM                X               Y               Z
      1  C        -0.8879616665   -0.7378520920    0.2174537040
      2  O        -0.5303919011   -1.6361589609    0.9859185005
      3  O        -1.4876823690   -0.5156365480   -0.7747935549
      4  O        -0.2632173821    0.6311554173    0.8894757567
      5  O         0.3479937295    0.2423807884    1.9518529618
      6  H         0.0852773892   -0.9147752047    1.8000274319

Z-matrix Print:
$molecule
0 2
O 
O  1 1.285834
H  2 1.196278 1 94.773358
O  3 1.249887 2 138.514751 1 0.006163 0
C  4 1.235050 3 97.359449 2 -0.189493 0
O  5 1.180508 4 143.801944 3 -179.636175 0
$end

 
 --------------------------------------------------------------
 
                    Orbital Energies (a.u.)
 --------------------------------------------------------------
 
 Alpha MOs
 -- Occupied --
-19.4940 -19.4832 -19.3930 -19.3720 -10.5480  -1.4080  -1.2688  -1.2121
 -1.0226  -0.7730  -0.7044  -0.6755  -0.6584  -0.6149  -0.5954  -0.5392
 -0.5033  -0.4641  -0.4386  -0.4273
 -- Virtual --
  0.0381   0.0639   0.0822   0.0851   0.1077   0.1085   0.1650   0.1709
  0.1886   0.2127   0.2221   0.2301   0.2438   0.2543   0.2637   0.2901
  0.2979   0.3116   0.3150   0.3215   0.3334   0.3606   0.3761   0.3911
  0.4299   0.4633   0.5622   0.6283   0.6560   0.6608   0.7320   0.7684
  0.8241   0.8479   0.9129   0.9589   0.9997   1.0567   1.0580   1.0628
  1.0953   1.1083   1.1153   1.1378   1.1555   1.1711   1.1906   1.1917
  1.2593   1.3606   1.3696   1.4469   1.4728   1.4905   1.5291   1.5778
  1.6235   1.6882   1.7399   1.7632   1.8496   1.8895   1.9482   2.0567
  2.0626   2.1058   2.1894   2.2058   2.3139   2.3570   2.4249   2.5366
  2.5895   2.6154   2.7208   2.7896   2.8134   2.9041   2.9644   3.0341
  3.1382   3.1883   3.2999   3.3444   3.3756   3.4688   3.5206   3.6154
  3.6692   3.6875   3.7754   3.8533   3.9570   4.0721   4.3587   4.4880
  4.6534   4.6621   4.7837   4.9079   4.9752   4.9947   5.0744   5.0887
  5.1034   5.1262   5.1263   5.1673   5.1688   5.1756   5.1991   5.2437
  5.2512   5.3074   5.3125   5.3363   5.4054   5.4269   5.4931   5.5245
  5.6105   5.6534   5.7160   5.7705   5.9152   6.2341   6.2736   6.3171
  6.4807   6.6285   6.7638   6.8418   6.8726   6.8841   6.9248   6.9252
  7.0295   7.0373   7.0519   7.0872   7.1975   7.1977   7.2797   7.3169
  7.4285   7.4509   7.4652   7.4854   7.5328   7.6252   7.7568   7.9546
  7.9882   8.1131   8.2064  25.1322  50.4217  50.4440  50.6740  50.8468
 
 Beta MOs
 -- Occupied --
-19.4801 -19.4669 -19.3934 -19.3715 -10.5483  -1.3817  -1.2664  -1.2117
 -0.9832  -0.7630  -0.7026  -0.6419  -0.6272  -0.6110  -0.5514  -0.5298
 -0.4977  -0.4588  -0.4178
 -- Virtual --
 -0.0735   0.0386   0.0647   0.0827   0.0857   0.1094   0.1139   0.1694
  0.1775   0.1914   0.2186   0.2267   0.2323   0.2508   0.2553   0.2652
  0.2926   0.2983   0.3133   0.3165   0.3237   0.3352   0.3637   0.3765
  0.3936   0.4298   0.4634   0.5636   0.6301   0.6567   0.6621   0.7320
  0.7682   0.8240   0.8548   0.9138   0.9621   1.0059   1.0607   1.0630
  1.0879   1.0979   1.1125   1.1201   1.1572   1.1658   1.1734   1.1932
  1.1942   1.2607   1.3750   1.3876   1.4532   1.4862   1.4990   1.5365
  1.5823   1.6495   1.6921   1.7405   1.7665   1.8521   1.9013   1.9605
  2.0592   2.0703   2.1137   2.2042   2.2229   2.3223   2.3710   2.4278
  2.5377   2.5923   2.6250   2.7235   2.7931   2.8129   2.9029   2.9640
  3.0363   3.1371   3.1879   3.2995   3.3432   3.3756   3.4707   3.5218
  3.6164   3.6683   3.6872   3.7741   3.8559   3.9583   4.0704   4.3586
  4.5296   4.6737   4.6885   4.7996   4.9220   5.0162   5.0489   5.1020
  5.1081   5.1336   5.1375   5.1528   5.1722   5.1845   5.1961   5.2251
  5.2592   5.2710   5.3159   5.3363   5.3447   5.4100   5.4357   5.5119
  5.5318   5.6356   5.6569   5.7199   5.7835   5.9257   6.2383   6.2747
  6.3253   6.5299   6.6396   6.8041   6.8561   6.8862   6.9118   6.9290
  6.9553   7.0578   7.0896   7.0997   7.1095   7.2003   7.2064   7.3117
  7.3574   7.4322   7.4635   7.4884   7.4942   7.5412   7.6357   7.7624
  7.9597   8.0006   8.1320   8.2069  25.1320  50.4336  50.4556  50.6740
 50.8470
 --------------------------------------------------------------
 
          Ground-State Mulliken Net Atomic Charges

     Atom                 Charge (a.u.)    Spin (a.u.)
  --------------------------------------------------------
      1 C                     0.480848      -0.014323
      2 O                    -0.384722      -0.008017
      3 O                    -0.389190       0.016870
      4 O                    -0.047954       0.457675
      5 O                    -0.025498       0.554636
      6 H                     0.366516      -0.006841
  --------------------------------------------------------
  Sum of atomic charges =    -0.000000
  Sum of spin   charges =     1.000000

 -----------------------------------------------------------------
                    Cartesian Multipole Moments
 -----------------------------------------------------------------
    Charge (ESU x 10^10)
                 0.0000
    Dipole Moment (Debye)
         X       1.6824      Y       0.0508      Z       2.6439
       Tot       3.1342
    Quadrupole Moments (Debye-Ang)
        XX     -29.4508     XY      -1.7491     YY     -30.4441
        XZ      -2.5146     YZ      -1.6939     ZZ     -25.7712
    Octopole Moments (Debye-Ang^2)
       XXX      49.8015    XXY      12.7980    XYY      18.0208
       YYY      40.8949    XXZ     -13.3548    XYZ      -0.7685
       YYZ     -19.9918    XZZ      17.3434    YZZ       8.0955
       ZZZ     -46.4435
    Hexadecapole Moments (Debye-Ang^3)
      XXXX    -142.5990   XXXY     -37.9522   XXYY     -50.1746
      XYYY     -40.3218   YYYY    -169.4635   XXXZ     -22.8995
      XXYZ       0.8450   XYYZ      -2.8320   YYYZ      14.2837
      XXZZ     -64.0557   XYZZ     -16.7696   YYZZ     -64.6701
      XZZZ     -17.6876   YZZZ      -3.3773   ZZZZ    -218.8165
 -----------------------------------------------------------------
 Total job time:  289.92s(wall), 4436.43s(cpu) 
 Mon Jul 31 11:52:38 2023

        *************************************************************
        *                                                           *
        *  Thank you very much for using Q-Chem.  Have a nice day.  *
        *                                                           *
        *************************************************************


