
Running Job 1 of 2 Q_in.in
qchem Q_in.in_253394.0 /scratch/ari.fischer/qChem1524672.hpc-mn1/qchem253394/ 0
/usr/local/qchem-5.4.1/exe/qcprog.exe_s Q_in.in_253394.0 /scratch/ari.fischer/qChem1524672.hpc-mn1/qchem253394/
                  Welcome to Q-Chem
     A Quantum Leap Into The Future Of Chemistry


 Q-Chem 5.4, Q-Chem, Inc., Pleasanton, CA (2021)

 License issued to: Nanyang Technological University (site)

 E. Epifanovsky,  A. T. B. Gilbert,  Xintian Feng,  Joonho Lee,  Yuezhi Mao,  
 N. Mardirossian,  P. Pokhilko,  A. White,  M. Wormit,  M. P. Coons,  
 A. L. Dempwolff,  Zhengting Gan,  D. Hait,  P. R. Horn,  L. D. Jacobson,  
 I. Kaliman,  J. Kussmann,  A. W. Lange,  Ka Un Lao,  D. S. Levine,  Jie Liu,  
 S. C. McKenzie,  A. F. Morrison,  K. Nanda,  F. Plasser,  D. R. Rehn,  
 M. L. Vidal,  Zhi-Qiang You,  Ying Zhu,  B. Alam,  B. Albrecht,  
 A. Aldossary,  E. Alguire,  J. H. Andersen,  D. Barton,  K. Begam,  A. Behn,  
 Y. A. Bernard,  E. J. Berquist,  H. Burton,  A. Carreras,  K. Carter-Fenk,  
 R. Chakraborty,  A. D. Chien,  K. D. Closser,  V. Cofer-Shabica,  
 S. Dasgupta,  Jia Deng,  M. de Wergifosse,  M. Diedenhofen,  Hainam Do,  
 S. Ehlert,  Po-Tung Fang,  S. Fatehi,  Qingguo Feng,  T. Friedhoff,  
 J. Gayvert,  Qinghui Ge,  G. Gidofalvi,  M. Goldey,  J. Gomes,  
 C. Gonzalez-Espinoza,  S. Gulania,  A. Gunina,  M. W. D. Hanson-Heine,  
 P. H. P. Harbach,  A. W. Hauser,  M. F. Herbst,  M. Hernandez Vera,  
 M. Hodecker,  Z. C. Holden,  S. Houck,  Xunkun Huang,  Kerwin Hui,  
 B. C. Huynh,  M. Ivanov,  Hyunjun Ji,  Hanjie Jiang,  B. Kaduk,  S. Kaehler,  
 K. Khistyaev,  Jaehoon Kim,  P. Klunzinger,  Z. Koczor-Benda,  
 Joong Hoon Koh,  D. Kosenkov,  L. Koulias,  T. Kowalczyk,  C. M. Krauter,  
 K. Kue,  A. Kunitsa,  T. Kus,  A. Landau,  K. V. Lawler,  D. Lefrancois,  
 S. Lehtola,  Rain Li,  Yi-Pei Li,  Jiashu Liang,  M. Liebenthal,  
 Hung-Hsuan Lin,  You-Sheng Lin,  Fenglai Liu,  Kuan-Yu Liu,  
 M. Loipersberger,  A. Luenser,  A. Manjanath,  P. Manohar,  E. Mansoor,  
 S. F. Manzer,  Shan-Ping Mao,  A. V. Marenich,  T. Markovich,  S. Mason,  
 S. A. Maurer,  P. F. McLaughlin,  M. F. S. J. Menger,  J.-M. Mewes,  
 S. A. Mewes,  P. Morgante,  J. W. Mullinax,  K. J. Oosterbaan,  G. Paran,  
 Alexander C. Paul,  Suranjan K. Paul,  F. Pavosevic,  Zheng Pei,  S. Prager,  
 E. I. Proynov,  E. Ramos,  B. Rana,  A. E. Rask,  A. Rettig,  R. M. Richard,  
 F. Rob,  E. Rossomme,  T. Scheele,  M. Scheurer,  M. Schneider,  
 N. Sergueev,  S. M. Sharada,  W. Skomorowski,  D. W. Small,  C. J. Stein,  
 Yu-Chuan Su,  E. J. Sundstrom,  Zhen Tao,  J. Thirman,  T. Tsuchimochi,  
 N. M. Tubman,  S. P. Veccham,  O. Vydrov,  J. Wenzel,  J. Witte,  A. Yamada,  
 Kun Yao,  S. Yeganeh,  S. R. Yost,  A. Zech,  Igor Ying Zhang,  Xing Zhang,  
 Yu Zhang,  D. Zuev,  A. Aspuru-Guzik,  A. T. Bell,  N. A. Besley,  
 K. B. Bravaya,  B. R. Brooks,  D. Casanova,  Jeng-Da Chai,  S. Coriani,  
 C. J. Cramer,  A. E. DePrince, III,  R. A. DiStasio Jr.,  A. Dreuw,  
 B. D. Dunietz,  T. R. Furlani,  W. A. Goddard III,  S. Grimme,  
 S. Hammes-Schiffer,  T. Head-Gordon,  W. J. Hehre,  Chao-Ping Hsu,  
 T.-C. Jagau,  Yousung Jung,  A. Klamt,  Jing Kong,  D. S. Lambrecht,  
 WanZhen Liang,  N. J. Mayhall,  C. W. McCurdy,  J. B. Neaton,  
 C. Ochsenfeld,  J. A. Parkhill,  R. Peverati,  V. A. Rassolov,  Yihan Shao,  
 L. V. Slipchenko,  T. Stauch,  R. P. Steele,  J. E. Subotnik,  
 A. J. W. Thom,  A. Tkatchenko,  D. G. Truhlar,  T. Van Voorhis,  
 T. A. Wesolowski,  K. B. Whaley,  H. L. Woodcock III,  P. M. Zimmerman,  
 S. Faraji,  P. M. W. Gill,  M. Head-Gordon,  J. M. Herbert,  A. I. Krylov

 Additional authors for Version 5.4.1: 
 S. Kotaru,  Shaozhi Li,  Xiangyuan Li,  F. Matz,  A. Molle,  Haisheng Ren,  
 Yingli Su,  Hung-Yi Tsai,  C. Utku,  Fang Wang

 Contributors to earlier versions of Q-Chem not listed above: 
 R. D. Adamson,  B. Austin,  R. Baer,  J. Baker,  G. J. O. Beran,  
 K. Brandhorst,  S. T. Brown,  E. F. C. Byrd,  A. K. Chakraborty,  
 G. K. L. Chan,  Chun-Min Chang,  Yunqing Chen,  C.-L. Cheng,  
 Siu Hung Chien,  D. M. Chipman,  D. L. Crittenden,  H. Dachsel,  
 R. J. Doerksen,  A. D. Dutoi,  R. G. Edgar,  J. Fosso-Tande,  
 L. Fusti-Molnar,  D. Ghosh,  A. Ghysels,  A. Golubeva-Zadorozhnaya,  
 J. Gonthier,  M. S. Gordon,  S. R. Gwaltney,  G. Hawkins,  J. E. Herr,  
 A. Heyden,  S. Hirata,  E. G. Hohenstein,  G. Kedziora,  F. J. Keil,  
 C. Kelley,  Jihan Kim,  R. A. King,  R. Z. Khaliullin,  P. P. Korambath,  
 W. Kurlancheek,  A. Laurent,  A. M. Lee,  M. S. Lee,  S. V. Levchenko,  
 Ching Yeh Lin,  D. Liotard,  E. Livshits,  R. C. Lochan,  I. Lotan,  
 L. A. Martinez-Martinez,  P. E. Maslen,  N. Nair,  D. P. O'Neill,  
 D. Neuhauser,  E. Neuscamman,  C. M. Oana,  R. Olivares-Amaya,  R. Olson,  
 T. M. Perrine,  B. Peters,  P. A. Pieniazek,  A. Prociuk,  Y. M. Rhee,  
 J. Ritchie,  M. A. Rohrdanz,  E. Rosta,  N. J. Russ,  H. F. Schaefer III,  
 M. W. Schmidt,  N. E. Schultz,  S. Sharma,  N. Shenvi,  C. D. Sherrill,  
 A. C. Simmonett,  A. Sodt,  T. Stein,  D. Stuck,  K. S. Thanthiriwatte,  
 V. Vanovschi,  L. Vogt,  Tao Wang,  A. Warshel,  M. A. Watson,  
 C. F. Williams,  Q. Wu,  X. Xu,  Jun Yang,  W. Zhang,  Yan Zhao

 Please cite Q-Chem as follows:
 Y. Shao et al., Mol. Phys. 113, 184-215 (2015)
 DOI: 10.1080/00268976.2014.952696

 Q-Chem 5.4.1 for Intel X86 EM64T Linux

 Parts of Q-Chem use Armadillo 9.800.1 (Horizon Scraper).
 http://arma.sourceforge.net/

 Q-Chem begins on Fri May  5 07:50:58 2023  

 Host: 
0

     Scratch files written to /scratch/ari.fischer/qChem1524672.hpc-mn1/qchem253394//
 Aug1521 |scratch|qcdevops|jenkins|workspace|build_RNUM 8249   
 Processing $rem in /usr/local/qchem-5.4.1/config/preferences:
 Processing $rem in /home/ari.fischer/.qchemrc:
 Symmetry turned off for PCM/SM12/SMD calculation


!!********************************************.
!!******************Warning*******************.
!!Desired Analytical derivatives not available.
!!Finite difference job might take a long time.
!!********************************************.
!!********************************************.


 2-order derivative to be evaluated numerically with 1-order analytical derivatives

 Checking the input file for inconsistencies... 	...done.

--------------------------------------------------------------
User input:
--------------------------------------------------------------
$molecule
0 2
C    0.5971913    0.1092786    0.1321293
O    1.3747215   -0.7808778   -0.1752965
H   -2.2664866    1.1047335    0.4253625
C   -0.8545716   -0.2046699    0.3882949
O   -1.1141867   -1.5750230    0.2213603
O   -1.6557265    0.5416178   -0.4608741
O    1.0550443    1.3752423    0.2386167
H    0.4713067    2.1083397    0.4789533
O   -1.3163220    0.2172214    1.8951857
O   -2.3501191    1.2188745    1.5961774
H   -2.0827885   -1.7106630    0.3939102
$end

$rem
BASIS = 6-311++G(2df,2p)
GUI = 2
JOB_TYPE = Frequency
METHOD = wB97M-V
SCF_ALGORITHM = DIIS_GDM
MAX_SCF_CYCLES = 400
SCF_CONVERGENCE = 6
THRESH = 11
SYMMETRY_IGNORE = 1
solvent_method = SMD
$end

--------------------------------------------------------------
 ----------------------------------------------------------------
             Standard Nuclear Orientation (Angstroms)
    I     Atom           X                Y                Z
 ----------------------------------------------------------------
    1      C       0.5971913000     0.1092786000     0.1321293000
    2      O       1.3747215000    -0.7808778000    -0.1752965000
    3      H      -2.2664866000     1.1047335000     0.4253625000
    4      C      -0.8545716000    -0.2046699000     0.3882949000
    5      O      -1.1141867000    -1.5750230000     0.2213603000
    6      O      -1.6557265000     0.5416178000    -0.4608741000
    7      O       1.0550443000     1.3752423000     0.2386167000
    8      H       0.4713067000     2.1083397000     0.4789533000
    9      O      -1.3163220000     0.2172214000     1.8951857000
   10      O      -2.3501191000     1.2188745000     1.5961774000
   11      H      -2.0827885000    -1.7106630000     0.3939102000
 ----------------------------------------------------------------
 Nuclear Repulsion Energy =         404.72242156 hartrees
 There are       32 alpha and       31 beta electrons
 Requested basis set is 6-311++G(2df,2p)
 There are 82 shells and 302 basis functions

 Total QAlloc Memory Limit 288000 MB
 Mega-Array Size       188 MB
 MEM_STATIC part       192 MB
 
 Citation of the SMD model:
 Marenich, A.V.; Cramer, C.J.; Truhlar, D.G.
 J. Phys. Chem. B 2009, 113, 6378-6396.
 iSolventCode=           1
 Solvent: water                                                           
 
 vradii
            1           2           3           4           5           6
    1   1.8500000   1.5200000   1.2000000   1.8500000   1.5200000   1.5200000
            7           8           9          10          11
    1   1.5200000   1.2000000   1.5200000   1.5200000   1.2000000
 Changing PCM_VDW_RADII to SMD_RADIUS
 Discretize the solute cavity surface with Lebedev spheres
	Using 110 Lebedev grid points for each H atom
	Using 194 Lebedev grid points for other atoms
	Atomic van der Waals radii will be scaled by 1.20
 Remove points where switching function is < 1.0e-08
 Keep 1013 surface tesserae and discard 869 interior tesserae
 Molecular Surface Area = 119.321 Angst**2

                       Distance Matrix (Angstroms)
             C (  1)   O (  2)   H (  3)   C (  4)   O (  5)   O (  6)
   O (  2)  1.221246
   H (  3)  3.045910  4.144239
   C (  4)  1.507249  2.370527  1.925984
   O (  5)  2.402842  2.642474  2.924125  1.404683
   O (  6)  2.369432  3.318759  1.214719  1.385598  2.288859
   O (  7)  1.350420  2.218642  3.337756  2.482974  3.661957  2.921044
   H (  8)  2.032825  3.097060  2.916438  2.667618  4.018371  2.803955
   O (  9)  2.604141  3.539041  1.962364  1.631541  2.460628  2.402383
   O ( 10)  3.472935  4.583838  1.179335  2.392096  3.350151  2.274273
   H ( 11)  3.250078  3.625310  2.821558  1.943338  0.993157  2.446591
             O (  7)   H (  8)   O (  9)   O ( 10)
   H (  8)  0.967442
   O (  9)  3.115864  2.962711
   O ( 10)  3.669136  3.162243  1.470188
   H ( 11)  4.403740  4.595151  2.560867  3.177908
 
 A cutoff of  1.0D-11 yielded   3081 shell pairs
 There are     42327 function pairs (     54115 Cartesian)
 Smallest overlap matrix eigenvalue = 3.80E-05
 Guess from superposition of atomic densities
 Warning:  Energy on first SCF cycle will be non-variational
 SAD guess density has 63.000000 electrons

 -----------------------------------------------------------------------
  General SCF calculation program by
  Eric Jon Sundstrom, Paul Horn, Yuezhi Mao, Dmitri Zuev, Alec White,
  David Stuck, Shaama M.S., Shane Yost, Joonho Lee, David Small,
  Daniel Levine, Susi Lehtola, Hugh Burton, Evgeny Epifanovsky,
  Bang C. Huynh
 -----------------------------------------------------------------------
 Exchange:     0.1500 Hartree-Fock + 1.0000 wB97M-V + LR-HF
 Correlation:  1.0000 wB97M-V
 Using SG-2 standard quadrature grid
 Nonlocal Correlation:  VV10 with C = 0.0100 and b = 6.00 and scale = 1.00000
 Grid used for NLC:  SG-1 standard quadrature
 using 16 threads for integral computing
 -------------------------------------------------------
 OpenMP Integral computing Module                
 Release: version 1.0, May 2013, Q-Chem Inc. Pittsburgh 
 -------------------------------------------------------
 
 Citation of the SMD model:
 Marenich, A.V.; Cramer, C.J.; Truhlar, D.G.
 J. Phys. Chem. B 2009, 113, 6378-6396.
 iSolventCode=           1
 Solvent: water                                                           
 
 vradii
            1           2           3           4           5           6
    1   1.8500000   1.5200000   1.2000000   1.8500000   1.5200000   1.5200000
            7           8           9          10          11
    1   1.5200000   1.2000000   1.5200000   1.5200000   1.2000000
 -------------------------------------------------------
 OpenMP BLAS3 based DFT computing Module                
 Release: version 1.0, May 2013, Q-Chem Inc. Pittsburgh 
 -------------------------------------------------------
 A unrestricted SCF calculation will be
 performed using DIIS, GDM
 SCF converges when RMS gradient is below 1.0e-06
 ---------------------------------------
  Cycle       Energy         DIIS error
 ---------------------------------------
    1    -530.2285056139      1.36e-02  
    2    -528.9813284802      2.73e-03  Done DIIS. Switching to GDM
 ---------------------------------------
  Cycle       Energy        RMS Gradient
 ---------------------------------------
    1    -528.9813284802      1.32e-01   Descent step
    2    -529.2093923081      3.62e-02   Normal BFGS step
    3    -529.2424108064      5.40e-02   Normal BFGS step
    4    -529.2449631897      4.16e-02   Normal BFGS step
    5    -529.2502254795      1.57e-02   Normal BFGS step
    6    -529.2506493872      7.04e-03   Normal BFGS step
    7    -529.2510395903      5.19e-03   Normal BFGS step
    8    -529.2511654912      2.13e-03   Normal BFGS step
    9    -529.2511969623      1.67e-03   Normal BFGS step
   10    -529.2512102061      1.27e-03   Normal BFGS step
   11    -529.2512152624      6.79e-04   Normal BFGS step
   12    -529.2512175955      4.51e-04   Normal BFGS step
   13    -529.2512185796      2.20e-04   Normal BFGS step
   14    -529.2512187569      7.89e-05   Normal BFGS step
   15    -529.2512188069      5.17e-05   Normal BFGS step
   16    -529.2512188221      3.75e-05   Normal BFGS step
   17    -529.2512188279      2.44e-05   Normal BFGS step
   18    -529.2512188313      1.37e-05   Normal BFGS step
   19    -529.2512188326      9.54e-06   Normal BFGS step
   20    -529.2512188330      4.94e-06   Normal BFGS step
   21    -529.2512188331      2.11e-06   Normal BFGS step
   22    -529.2512188333      1.06e-06   Normal BFGS step
   23    -529.2512188332      4.55e-07  Convergence criterion met
 ---------------------------------------
 SCF time:   CPU 1106.38s  wall 75.00s 
<S^2> =          0.755222727
(3)  G-ENP(liq) elect-nuc-pol free energy of system     -529.251218833 a.u.
(4)  G-CDS(liq) cavity-dispersion-solvent structure 
     free energy                                                3.6271 kcal/mol
(6)  G-S(liq) free energy of system                     -529.245438672 a.u.
 SCF   energy in the final basis set =     -529.2454386720
 Total energy in the final basis set =     -529.2454386720
 
 --------------------------------------------------------------
 
                    Orbital Energies (a.u.)
 --------------------------------------------------------------
 
 Alpha MOs
 -- Occupied --
-19.5088 -19.4993 -19.3981 -19.3816 -19.3556 -19.3391 -10.5502 -10.5230
 -1.3203  -1.2563  -1.2119  -1.1722  -1.1296  -1.0713  -0.8502  -0.7622
 -0.7247  -0.6773  -0.6465  -0.6234  -0.6201  -0.5962  -0.5835  -0.5364
 -0.5336  -0.5024  -0.4871  -0.4700  -0.4510  -0.4500  -0.4261  -0.3999
 -- Virtual --
  0.0086   0.0324   0.0437   0.0475   0.0696   0.0817   0.0875   0.1093
  0.1117   0.1173   0.1358   0.1424   0.1537   0.1701   0.1863   0.1948
  0.2096   0.2373   0.2487   0.2620   0.2661   0.2711   0.2780   0.2883
  0.2917   0.2991   0.3074   0.3124   0.3259   0.3346   0.3369   0.3476
  0.3500   0.3543   0.3722   0.3775   0.3833   0.3947   0.3965   0.3989
  0.4172   0.4399   0.4527   0.4873   0.5117   0.5548   0.5903   0.5991
  0.6163   0.6310   0.6725   0.6808   0.7223   0.7516   0.7672   0.7776
  0.8339   0.8523   0.8570   0.8951   0.8990   0.9412   0.9543   0.9636
  1.0159   1.0424   1.0726   1.0773   1.0911   1.1089   1.1190   1.1294
  1.1350   1.1487   1.1631   1.1830   1.1977   1.2127   1.2221   1.2279
  1.2467   1.2492   1.2751   1.2875   1.3032   1.3434   1.3714   1.3975
  1.4304   1.4441   1.4897   1.5033   1.5160   1.5665   1.5688   1.5784
  1.6308   1.6326   1.6707   1.6990   1.7329   1.7408   1.7892   1.8056
  1.8318   1.8349   1.8784   1.9021   1.9257   1.9861   2.0156   2.0645
  2.0745   2.0943   2.1296   2.1853   2.2023   2.2600   2.3373   2.3424
  2.3858   2.4161   2.4370   2.4885   2.5075   2.5418   2.5665   2.6184
  2.7041   2.7315   2.7884   2.8358   2.8678   2.8972   2.9570   2.9958
  3.1376   3.1541   3.1841   3.2310   3.2832   3.3359   3.3610   3.3712
  3.3875   3.4656   3.4764   3.5253   3.5699   3.5944   3.6461   3.6679
  3.6765   3.7246   3.7713   3.7926   3.8209   3.8267   3.8651   3.8914
  3.9021   3.9554   4.0258   4.0391   4.0967   4.1429   4.2318   4.2731
  4.2961   4.3068   4.4982   4.5280   4.5653   4.7456   4.7991   4.8371
  4.9579   5.0073   5.0359   5.0445   5.0865   5.1146   5.1226   5.1402
  5.1514   5.1675   5.1790   5.1869   5.2182   5.2273   5.2395   5.2662
  5.2789   5.2854   5.2976   5.3172   5.3351   5.3528   5.3732   5.3778
  5.3941   5.4099   5.4219   5.4325   5.4726   5.5149   5.5334   5.5577
  5.5817   5.6247   5.6577   5.7024   5.7451   5.7555   5.8460   5.8687
  5.9126   5.9467   6.0286   6.0496   6.1030   6.1388   6.3668   6.4260
  6.5865   6.6181   6.6584   6.7370   6.7872   6.8235   6.9143   6.9862
  6.9984   7.0070   7.0212   7.0343   7.0842   7.1096   7.1226   7.1598
  7.1672   7.2287   7.2731   7.2815   7.3011   7.3439   7.3693   7.3788
  7.4184   7.4824   7.4921   7.5142   7.5631   7.6152   7.7408   7.7552
  7.7641   7.8336   7.8750   7.9230   7.9925   8.0828  24.6359  25.0520
 50.3727  50.4200  50.5434  50.5763  50.6482  50.7029
 
 Beta MOs
 -- Occupied --
-19.4973 -19.4811 -19.3981 -19.3813 -19.3555 -19.3389 -10.5506 -10.5229
 -1.2960  -1.2544  -1.2081  -1.1718  -1.1279  -1.0334  -0.8473  -0.7618
 -0.7152  -0.6723  -0.6426  -0.6078  -0.5986  -0.5816  -0.5453  -0.5261
 -0.5155  -0.4996  -0.4699  -0.4500  -0.4455  -0.4235  -0.4005
 -- Virtual --
 -0.1130   0.0184   0.0330   0.0448   0.0514   0.0745   0.0847   0.0881
  0.1100   0.1123   0.1191   0.1366   0.1445   0.1550   0.1723   0.1877
  0.1964   0.2106   0.2390   0.2498   0.2640   0.2691   0.2730   0.2788
  0.2888   0.2923   0.2997   0.3092   0.3146   0.3268   0.3360   0.3381
  0.3481   0.3508   0.3553   0.3734   0.3799   0.3847   0.3958   0.3972
  0.4003   0.4181   0.4414   0.4533   0.4880   0.5126   0.5550   0.5913
  0.6011   0.6182   0.6317   0.6729   0.6810   0.7230   0.7527   0.7682
  0.7791   0.8355   0.8545   0.8576   0.8956   0.8996   0.9424   0.9553
  0.9637   1.0214   1.0565   1.0776   1.0806   1.0927   1.1119   1.1215
  1.1314   1.1413   1.1617   1.1688   1.1854   1.2049   1.2178   1.2277
  1.2291   1.2489   1.2513   1.2770   1.2931   1.3069   1.3488   1.3763
  1.4030   1.4345   1.4484   1.4913   1.5051   1.5186   1.5721   1.5803
  1.5829   1.6386   1.6393   1.6803   1.7062   1.7361   1.7468   1.7955
  1.8074   1.8333   1.8418   1.8879   1.9042   1.9303   1.9978   2.0194
  2.0679   2.0897   2.1044   2.1319   2.1888   2.2098   2.2625   2.3398
  2.3429   2.3879   2.4177   2.4377   2.4925   2.5103   2.5444   2.5667
  2.6210   2.7122   2.7352   2.7915   2.8359   2.8692   2.8979   2.9564
  2.9958   3.1375   3.1542   3.1843   3.2311   3.2832   3.3357   3.3612
  3.3712   3.3874   3.4664   3.4763   3.5252   3.5689   3.5962   3.6462
  3.6679   3.6763   3.7254   3.7709   3.7926   3.8203   3.8268   3.8658
  3.8913   3.9027   3.9565   4.0254   4.0392   4.0962   4.1434   4.2321
  4.2732   4.2964   4.3068   4.4993   4.5409   4.5992   4.7591   4.8039
  4.8641   4.9754   5.0531   5.0674   5.0792   5.1148   5.1262   5.1410
  5.1565   5.1672   5.1807   5.1891   5.2024   5.2233   5.2358   5.2443
  5.2744   5.2944   5.2993   5.3170   5.3237   5.3416   5.3670   5.3813
  5.3949   5.3997   5.4154   5.4374   5.4415   5.4803   5.5187   5.5356
  5.5597   5.5861   5.6262   5.6673   5.7057   5.7480   5.7574   5.8635
  5.8912   5.9161   5.9499   6.0317   6.0508   6.1039   6.1413   6.3675
  6.4278   6.6116   6.6262   6.6703   6.7704   6.8230   6.8788   6.9147
  6.9879   7.0017   7.0139   7.0365   7.0450   7.0936   7.1295   7.1393
  7.1661   7.2100   7.2652   7.2781   7.2911   7.3203   7.3495   7.3754
  7.3835   7.4391   7.4918   7.5135   7.5193   7.5687   7.6186   7.7443
  7.7608   7.7746   7.8357   7.8798   7.9237   7.9947   8.0971  24.6356
 25.0521  50.3857  50.4297  50.5435  50.5765  50.6486  50.7031
 --------------------------------------------------------------
 
          Ground-State Mulliken Net Atomic Charges

     Atom                 Charge (a.u.)    Spin (a.u.)
  --------------------------------------------------------
      1 C                     0.323624       0.002175
      2 O                    -0.415756       0.001435
      3 H                     0.375292      -0.007335
      4 C                     0.256166      -0.014244
      5 O                    -0.379280       0.013150
      6 O                    -0.572007       0.007578
      7 O                    -0.337174       0.000105
      8 H                     0.360867      -0.000291
      9 O                    -0.013462       0.365972
     10 O                     0.033921       0.633159
     11 H                     0.367809      -0.001704
  --------------------------------------------------------
  Sum of atomic charges =     0.000000
  Sum of spin   charges =     1.000000

 -----------------------------------------------------------------
                    Cartesian Multipole Moments
 -----------------------------------------------------------------
    Charge (ESU x 10^10)
                 0.0000
    Dipole Moment (Debye)
         X      -5.0062      Y       3.6603      Z       3.4726
       Tot       7.1077
    Quadrupole Moments (Debye-Ang)
        XX     -43.8046     XY       3.8259     YY     -40.4360
        XZ      -3.0652     YZ       1.3320     ZZ     -47.1963
    Octopole Moments (Debye-Ang^2)
       XXX      41.1358    XXY     -12.1728    XYY      12.4151
       YYY       5.4195    XXZ     -11.8095    XYZ       1.0266
       YYZ     -14.2690    XZZ      30.5513    YZZ      -6.4717
       ZZZ     -65.8932
    Hexadecapole Moments (Debye-Ang^3)
      XXXX    -527.5879   XXXY      39.6512   XXYY    -120.0720
      XYYY      36.1225   YYYY    -249.5772   XXXZ      81.0311
      XXYZ     -17.9026   XYYZ      29.0487   YYYZ     -24.6122
      XXZZ    -149.1776   XYZZ      13.3892   YYZZ     -92.0883
      XZZZ     105.9261   YZZZ     -38.5199   ZZZZ    -268.2629
 -----------------------------------------------------------------
 Calculating analytic gradient of the SCF energy
 Gradient of CDS energy
            1           2           3           4           5           6
    1   0.0033374  -0.0009539  -0.0003341  -0.0038279   0.0005460   0.0031740
    2   0.0030094   0.0011030   0.0002242  -0.0000598   0.0030335  -0.0030116
    3  -0.0002245   0.0003788  -0.0001728  -0.0036602   0.0003806   0.0033793
            7           8           9          10          11
    1  -0.0015425   0.0000448  -0.0001811   0.0000745  -0.0003371
    2  -0.0043349   0.0004193   0.0000939  -0.0001024  -0.0003748
    3  -0.0003768   0.0000558  -0.0000187   0.0002551   0.0000033
 Gradient of SCF Energy
            1           2           3           4           5           6
    1  -0.0391954   0.0185757  -0.0182885   0.0580914   0.0224240  -0.0149117
    2   0.0029809  -0.0202572   0.0155449   0.0070027  -0.0273930   0.0009680
    3  -0.0077412  -0.0048832   0.0328399   0.0529004  -0.0358540  -0.0582993
            7           8           9          10          11
    1   0.0157388  -0.0020518   0.0751725  -0.0762401  -0.0393149
    2   0.0011140   0.0289701  -0.0791304   0.0761131  -0.0059132
    3  -0.0035529   0.0076388   0.0576438  -0.0530379   0.0123457
 Max gradient component =       7.913E-02
 RMS gradient           =       3.852E-02
 Computing fast CPCM-SWIG gradient
 Updating gradient with PCM contributions...
 -- total gradient after adding PCM contribution --
---------------------------------------------------
  Atom         X              Y              Z     
---------------------------------------------------
   1      -0.041780       0.003120      -0.011222
   2       0.020393      -0.022772      -0.004363
   3      -0.015407       0.010873       0.030097
   4       0.062122       0.007933       0.050928
   5       0.002414      -0.024197      -0.028095
   6      -0.017269       0.005341      -0.041286
   7      -0.001491       0.019029       0.004826
   8       0.012129       0.009242      -0.000638
   9       0.068052      -0.071786       0.049932
  10      -0.068734       0.067898      -0.056317
  11      -0.020429      -0.004681       0.006137
---------------------------------------------------
 Number of fixed atoms: 0
 Gradient time:  CPU 120.97 s  wall 10.28 s
 ######################################################
 ######################################################
 # Starting finite difference calculation for IDERIV  #
 Finite diff step size:  1.88973e-03 a.u.
 ----------------------------------------------------------------
             Standard Nuclear Orientation (Angstroms)
    I     Atom           X                Y                Z
 ----------------------------------------------------------------
    1      C       0.5981913000     0.1092786000     0.1321293000
    2      O       1.3747215000    -0.7808778000    -0.1752965000
    3      H      -2.2664866000     1.1047335000     0.4253625000
    4      C      -0.8545716000    -0.2046699000     0.3882949000
    5      O      -1.1141867000    -1.5750230000     0.2213603000
    6      O      -1.6557265000     0.5416178000    -0.4608741000
    7      O       1.0550443000     1.3752423000     0.2386167000
    8      H       0.4713067000     2.1083397000     0.4789533000
    9      O      -1.3163220000     0.2172214000     1.8951857000
   10      O      -2.3501191000     1.2188745000     1.5961774000
   11      H      -2.0827885000    -1.7106630000     0.3939102000
 ----------------------------------------------------------------
 Nuclear Repulsion Energy =         404.71732418 hartrees
 There are       32 alpha and       31 beta electrons
 Discretize the solute cavity surface with Lebedev spheres
	Using 110 Lebedev grid points for each H atom
	Using 194 Lebedev grid points for other atoms
	Atomic van der Waals radii will be scaled by 1.20
 Remove points where switching function is < 1.0e-08
 Keep 1013 surface tesserae and discard 869 interior tesserae
 Molecular Surface Area = 119.321 Angst**2

                       Distance Matrix (Angstroms)
             C (  1)   O (  2)   H (  3)   C (  4)   O (  5)   O (  6)
   O (  2)  1.220610
   H (  3)  3.046850  4.144239
   C (  4)  1.508212  2.370527  1.925984
   O (  5)  2.403554  2.642474  2.924125  1.404683
   O (  6)  2.370383  3.318759  1.214719  1.385598  2.288859
   O (  7)  1.350081  2.218642  3.337756  2.482974  3.661957  2.921044
   H (  8)  2.032888  3.097060  2.916438  2.667618  4.018371  2.803955
   O (  9)  2.604876  3.539041  1.962364  1.631541  2.460628  2.402383
   O ( 10)  3.473784  4.583838  1.179335  2.392096  3.350151  2.274273
   H ( 11)  3.250903  3.625310  2.821558  1.943338  0.993157  2.446591
             O (  7)   H (  8)   O (  9)   O ( 10)
   H (  8)  0.967442
   O (  9)  3.115864  2.962711
   O ( 10)  3.669136  3.162243  1.470188
   H ( 11)  4.403740  4.595151  2.560867  3.177908
 
 Requested basis set is 6-311++G(2df,2p)
 There are 82 shells and 302 basis functions
 A cutoff of  1.0D-11 yielded   3081 shell pairs
 There are     42327 function pairs (     54115 Cartesian)
 Smallest overlap matrix eigenvalue = 3.81E-05
 Guess MOs from SCF MO coefficient file

 -----------------------------------------------------------------------
  General SCF calculation program by
  Eric Jon Sundstrom, Paul Horn, Yuezhi Mao, Dmitri Zuev, Alec White,
  David Stuck, Shaama M.S., Shane Yost, Joonho Lee, David Small,
  Daniel Levine, Susi Lehtola, Hugh Burton, Evgeny Epifanovsky,
  Bang C. Huynh
 -----------------------------------------------------------------------
 Exchange:     0.1500 Hartree-Fock + 1.0000 wB97M-V + LR-HF
 Correlation:  1.0000 wB97M-V
 Using SG-2 standard quadrature grid
 Nonlocal Correlation:  VV10 with C = 0.0100 and b = 6.00 and scale = 1.00000
 Grid used for NLC:  SG-1 standard quadrature
 
 Citation of the SMD model:
 Marenich, A.V.; Cramer, C.J.; Truhlar, D.G.
 J. Phys. Chem. B 2009, 113, 6378-6396.
 iSolventCode=           1
 Solvent: water                                                           
 
 vradii
            1           2           3           4           5           6
    1   1.8500000   1.5200000   1.2000000   1.8500000   1.5200000   1.5200000
            7           8           9          10          11
    1   1.5200000   1.2000000   1.5200000   1.5200000   1.2000000
 -------------------------------------------------------
 OpenMP BLAS3 based DFT computing Module                
 Release: version 1.0, May 2013, Q-Chem Inc. Pittsburgh 
 -------------------------------------------------------
 A unrestricted SCF calculation will be
 performed using Roothaan-Hall, DIIS, GDM
 SCF converges when RMS gradient is below 1.0e-06
 ---------------------------------------
  Cycle       Energy         DIIS error
 ---------------------------------------
    1    -529.2024195395      3.74e-04  Roothaan Step
 ---------------------------------------
  Cycle       Energy         DIIS error
 ---------------------------------------
    1    -529.2366920340      4.91e-04  
    2    -529.2428888599      5.30e-04  Done DIIS. Switching to GDM
 ---------------------------------------
  Cycle       Energy        RMS Gradient
 ---------------------------------------
    1    -529.2428888599      1.91e-02   Normal BFGS step
    2    -529.2386026585      3.26e-02  Line search: overstep
    3    -529.2509313154      4.24e-03   Normal BFGS step
    4    -529.2512132031      3.01e-03   Normal BFGS step
    5    -529.2512780399      2.68e-03   Normal BFGS step
    6    -529.2512933779      1.12e-03   Normal BFGS step
    7    -529.2512995238      8.15e-04   Normal BFGS step
    8    -529.2513016636      3.71e-04   Normal BFGS step
    9    -529.2513023154      1.91e-04   Normal BFGS step
   10    -529.2513026531      7.57e-05   Normal BFGS step
   11    -529.2513027579      8.65e-05   Normal BFGS step
   12    -529.2513027862      8.87e-05   Normal BFGS step
   13    -529.2513028034      4.38e-05   Normal BFGS step
   14    -529.2513028106      1.39e-05   Normal BFGS step
   15    -529.2513028126      8.63e-06   Normal BFGS step
   16    -529.2513028131      3.85e-06   Normal BFGS step
   17    -529.2513028131      3.05e-06   Normal BFGS step
   18    -529.2513028131      1.95e-06   Normal BFGS step
   19    -529.2513028131      1.06e-06   Normal BFGS step
   20    -529.2513028130      7.51e-07  Convergence criterion met
 ---------------------------------------
 SCF time:   CPU 1024.07s  wall 69.00s 
<S^2> =          0.755222281
(3)  G-ENP(liq) elect-nuc-pol free energy of system     -529.251302813 a.u.
(4)  G-CDS(liq) cavity-dispersion-solvent structure 
     free energy                                                3.6311 kcal/mol
(6)  G-S(liq) free energy of system                     -529.245516358 a.u.
 SCF   energy in the final basis set =     -529.2455163584
 Total energy in the final basis set =     -529.2455163584
 
 --------------------------------------------------------------
 
                    Orbital Energies (a.u.)
 --------------------------------------------------------------
 
 Alpha MOs
 -- Occupied --
-19.5088 -19.4992 -19.3980 -19.3816 -19.3556 -19.3391 -10.5502 -10.5230
 -1.3203  -1.2564  -1.2119  -1.1724  -1.1296  -1.0712  -0.8499  -0.7623
 -0.7247  -0.6773  -0.6464  -0.6234  -0.6201  -0.5963  -0.5836  -0.5364
 -0.5336  -0.5023  -0.4871  -0.4700  -0.4510  -0.4500  -0.4261  -0.3998
 -- Virtual --
  0.0087   0.0324   0.0438   0.0476   0.0696   0.0817   0.0875   0.1093
  0.1117   0.1173   0.1358   0.1424   0.1537   0.1701   0.1863   0.1948
  0.2096   0.2373   0.2487   0.2620   0.2661   0.2711   0.2781   0.2882
  0.2916   0.2991   0.3074   0.3124   0.3259   0.3346   0.3369   0.3476
  0.3500   0.3543   0.3722   0.3776   0.3833   0.3947   0.3965   0.3989
  0.4172   0.4399   0.4526   0.4872   0.5116   0.5550   0.5904   0.5991
  0.6164   0.6311   0.6725   0.6808   0.7224   0.7516   0.7672   0.7776
  0.8339   0.8522   0.8570   0.8951   0.8991   0.9413   0.9543   0.9637
  1.0159   1.0424   1.0727   1.0773   1.0911   1.1089   1.1190   1.1293
  1.1349   1.1488   1.1631   1.1830   1.1977   1.2126   1.2221   1.2279
  1.2467   1.2492   1.2750   1.2875   1.3031   1.3433   1.3714   1.3976
  1.4303   1.4442   1.4896   1.5033   1.5159   1.5665   1.5689   1.5784
  1.6308   1.6326   1.6708   1.6990   1.7331   1.7408   1.7892   1.8055
  1.8319   1.8350   1.8785   1.9021   1.9257   1.9861   2.0156   2.0646
  2.0746   2.0944   2.1296   2.1854   2.2023   2.2600   2.3373   2.3427
  2.3857   2.4162   2.4368   2.4886   2.5073   2.5418   2.5667   2.6185
  2.7041   2.7315   2.7883   2.8360   2.8678   2.8973   2.9570   2.9956
  3.1374   3.1543   3.1838   3.2309   3.2832   3.3356   3.3611   3.3713
  3.3878   3.4655   3.4768   3.5253   3.5699   3.5944   3.6464   3.6677
  3.6765   3.7245   3.7712   3.7925   3.8209   3.8267   3.8651   3.8913
  3.9019   3.9553   4.0256   4.0395   4.0961   4.1418   4.2316   4.2729
  4.2960   4.3068   4.4981   4.5280   4.5654   4.7455   4.7984   4.8371
  4.9580   5.0074   5.0359   5.0445   5.0865   5.1146   5.1226   5.1403
  5.1514   5.1675   5.1790   5.1869   5.2181   5.2273   5.2396   5.2662
  5.2789   5.2854   5.2976   5.3172   5.3351   5.3528   5.3732   5.3778
  5.3941   5.4100   5.4219   5.4327   5.4727   5.5149   5.5336   5.5578
  5.5820   5.6250   5.6576   5.7026   5.7451   5.7555   5.8460   5.8687
  5.9130   5.9471   6.0290   6.0498   6.1031   6.1389   6.3686   6.4264
  6.5866   6.6184   6.6589   6.7370   6.7872   6.8235   6.9143   6.9862
  6.9985   7.0085   7.0217   7.0346   7.0847   7.1097   7.1227   7.1599
  7.1673   7.2288   7.2732   7.2815   7.3012   7.3441   7.3698   7.3792
  7.4185   7.4823   7.4920   7.5143   7.5630   7.6153   7.7410   7.7555
  7.7640   7.8335   7.8750   7.9231   7.9925   8.0828  24.6354  25.0528
 50.3728  50.4201  50.5435  50.5764  50.6484  50.7035
 
 Beta MOs
 -- Occupied --
-19.4972 -19.4810 -19.3980 -19.3813 -19.3555 -19.3389 -10.5505 -10.5228
 -1.2960  -1.2545  -1.2081  -1.1721  -1.1278  -1.0334  -0.8470  -0.7619
 -0.7151  -0.6723  -0.6426  -0.6078  -0.5987  -0.5817  -0.5453  -0.5261
 -0.5155  -0.4996  -0.4698  -0.4500  -0.4455  -0.4234  -0.4004
 -- Virtual --
 -0.1129   0.0185   0.0330   0.0448   0.0515   0.0746   0.0848   0.0881
  0.1100   0.1123   0.1191   0.1366   0.1445   0.1550   0.1724   0.1877
  0.1964   0.2106   0.2389   0.2498   0.2640   0.2692   0.2730   0.2788
  0.2888   0.2923   0.2997   0.3092   0.3146   0.3268   0.3360   0.3381
  0.3481   0.3508   0.3553   0.3734   0.3799   0.3847   0.3958   0.3972
  0.4003   0.4181   0.4413   0.4532   0.4879   0.5125   0.5553   0.5915
  0.6012   0.6183   0.6317   0.6729   0.6810   0.7230   0.7527   0.7682
  0.7791   0.8355   0.8544   0.8576   0.8956   0.8996   0.9425   0.9552
  0.9638   1.0214   1.0565   1.0778   1.0806   1.0927   1.1120   1.1215
  1.1313   1.1412   1.1617   1.1689   1.1854   1.2049   1.2178   1.2277
  1.2291   1.2489   1.2513   1.2769   1.2931   1.3068   1.3487   1.3763
  1.4031   1.4345   1.4484   1.4913   1.5051   1.5185   1.5722   1.5802
  1.5830   1.6387   1.6393   1.6804   1.7061   1.7363   1.7468   1.7955
  1.8073   1.8334   1.8419   1.8879   1.9043   1.9303   1.9979   2.0195
  2.0680   2.0898   2.1045   2.1319   2.1889   2.2098   2.2625   2.3398
  2.3432   2.3877   2.4177   2.4375   2.4926   2.5101   2.5445   2.5670
  2.6210   2.7122   2.7352   2.7915   2.8361   2.8693   2.8979   2.9565
  2.9957   3.1373   3.1543   3.1840   3.2310   3.2833   3.3354   3.3613
  3.3712   3.3877   3.4663   3.4767   3.5252   3.5688   3.5962   3.6465
  3.6677   3.6763   3.7253   3.7708   3.7925   3.8204   3.8267   3.8659
  3.8912   3.9025   3.9564   4.0252   4.0397   4.0957   4.1422   4.2319
  4.2730   4.2964   4.3068   4.4992   4.5410   4.5992   4.7589   4.8032
  4.8641   4.9754   5.0531   5.0674   5.0792   5.1148   5.1262   5.1410
  5.1566   5.1672   5.1807   5.1891   5.2024   5.2233   5.2359   5.2444
  5.2744   5.2943   5.2993   5.3170   5.3237   5.3416   5.3670   5.3813
  5.3949   5.3998   5.4154   5.4375   5.4416   5.4803   5.5188   5.5357
  5.5598   5.5864   5.6265   5.6673   5.7059   5.7480   5.7575   5.8634
  5.8912   5.9166   5.9503   6.0322   6.0510   6.1041   6.1414   6.3693
  6.4282   6.6117   6.6267   6.6706   6.7705   6.8230   6.8789   6.9146
  6.9879   7.0018   7.0162   7.0365   7.0451   7.0940   7.1296   7.1393
  7.1661   7.2101   7.2653   7.2782   7.2911   7.3204   7.3497   7.3760
  7.3837   7.4391   7.4918   7.5136   7.5193   7.5686   7.6187   7.7447
  7.7609   7.7745   7.8355   7.8799   7.9237   7.9947   8.0971  24.6352
 25.0529  50.3858  50.4298  50.5436  50.5766  50.6488  50.7037
 --------------------------------------------------------------
 
          Ground-State Mulliken Net Atomic Charges

     Atom                 Charge (a.u.)    Spin (a.u.)
  --------------------------------------------------------
      1 C                     0.323757       0.002178
      2 O                    -0.415391       0.001455
      3 H                     0.375276      -0.007335
      4 C                     0.255879      -0.014229
      5 O                    -0.379294       0.013159
      6 O                    -0.572102       0.007583
      7 O                    -0.337131       0.000110
      8 H                     0.360945      -0.000291
      9 O                    -0.013500       0.366053
     10 O                     0.033765       0.633027
     11 H                     0.367796      -0.001707
  --------------------------------------------------------
  Sum of atomic charges =     0.000000
  Sum of spin   charges =     1.000000

 -----------------------------------------------------------------
                    Cartesian Multipole Moments
 -----------------------------------------------------------------
    Charge (ESU x 10^10)
                 0.0000
    Dipole Moment (Debye)
         X      -4.9980      Y       3.6591      Z       3.4710
       Tot       7.1005
    Quadrupole Moments (Debye-Ang)
        XX     -43.8058     XY       3.8266     YY     -40.4356
        XZ      -3.0621     YZ       1.3313     ZZ     -47.1986
    Octopole Moments (Debye-Ang^2)
       XXX      41.1533    XXY     -12.1802    XYY      12.4193
       YYY       5.4186    XXZ     -11.8161    XYZ       1.0297
       YYZ     -14.2715    XZZ      30.5588    YZZ      -6.4751
       ZZZ     -65.9021
    Hexadecapole Moments (Debye-Ang^3)
      XXXX    -527.6617   XXXY      39.6595   XXYY    -120.0931
      XYYY      36.1165   YYYY    -249.5714   XXXZ      81.0496
      XXYZ     -17.9115   XYYZ      29.0543   YYYZ     -24.6128
      XXZZ    -149.1982   XYZZ      13.3949   YYZZ     -92.0921
      XZZZ     105.9394   YZZZ     -38.5247   ZZZZ    -268.2825
 -----------------------------------------------------------------
 Calculating analytic gradient of the SCF energy
 Gradient of CDS energy
            1           2           3           4           5           6
    1   0.0033233  -0.0009469  -0.0003341  -0.0038287   0.0005458   0.0031740
    2   0.0030024   0.0010959   0.0002242  -0.0000598   0.0030336  -0.0030117
    3  -0.0002233   0.0003764  -0.0001728  -0.0036604   0.0003807   0.0033794
            7           8           9          10          11
    1  -0.0015340   0.0000445  -0.0001812   0.0000745  -0.0003371
    2  -0.0043203   0.0004189   0.0000939  -0.0001024  -0.0003748
    3  -0.0003756   0.0000559  -0.0000187   0.0002551   0.0000033
 Gradient of SCF Energy
            1           2           3           4           5           6
    1  -0.0378699   0.0179354  -0.0182885   0.0576874   0.0224071  -0.0149397
    2   0.0027065  -0.0197844   0.0155487   0.0069206  -0.0273958   0.0009832
    3  -0.0079862  -0.0046960   0.0328397   0.0529519  -0.0358460  -0.0583105
            7           8           9          10          11
    1   0.0154579  -0.0020271   0.0751698  -0.0762266  -0.0393057
    2   0.0009350   0.0290205  -0.0791141   0.0760905  -0.0059104
    3  -0.0035344   0.0076359   0.0576439  -0.0530437   0.0123453
 Max gradient component =       7.911E-02
 RMS gradient           =       3.844E-02
 Computing fast CPCM-SWIG gradient
 Updating gradient with PCM contributions...
 -- total gradient after adding PCM contribution --
---------------------------------------------------
  Atom         X              Y              Z     
---------------------------------------------------
   1      -0.040440       0.002854      -0.011462
   2       0.019741      -0.022291      -0.004176
   3      -0.015411       0.010880       0.030097
   4       0.061714       0.007834       0.050975
   5       0.002407      -0.024202      -0.028091
   6      -0.017292       0.005354      -0.041303
   7      -0.001764       0.018858       0.004844
   8       0.012148       0.009285      -0.000641
   9       0.068055      -0.071777       0.049938
  10      -0.068727       0.067886      -0.056321
  11      -0.020431      -0.004679       0.006139
---------------------------------------------------
 Number of fixed atoms: 0
 Gradient time:  CPU 119.31 s  wall 10.19 s
 ----------------------------------------------------------------
             Standard Nuclear Orientation (Angstroms)
    I     Atom           X                Y                Z
 ----------------------------------------------------------------
    1      C       0.5961913000     0.1092786000     0.1321293000
    2      O       1.3747215000    -0.7808778000    -0.1752965000
    3      H      -2.2664866000     1.1047335000     0.4253625000
    4      C      -0.8545716000    -0.2046699000     0.3882949000
    5      O      -1.1141867000    -1.5750230000     0.2213603000
    6      O      -1.6557265000     0.5416178000    -0.4608741000
    7      O       1.0550443000     1.3752423000     0.2386167000
    8      H       0.4713067000     2.1083397000     0.4789533000
    9      O      -1.3163220000     0.2172214000     1.8951857000
   10      O      -2.3501191000     1.2188745000     1.5961774000
   11      H      -2.0827885000    -1.7106630000     0.3939102000
 ----------------------------------------------------------------
 Nuclear Repulsion Energy =         404.72753084 hartrees
 There are       32 alpha and       31 beta electrons
 Discretize the solute cavity surface with Lebedev spheres
	Using 110 Lebedev grid points for each H atom
	Using 194 Lebedev grid points for other atoms
	Atomic van der Waals radii will be scaled by 1.20
 Remove points where switching function is < 1.0e-08
 Keep 1013 surface tesserae and discard 869 interior tesserae
 Molecular Surface Area = 119.320 Angst**2

                       Distance Matrix (Angstroms)
             C (  1)   O (  2)   H (  3)   C (  4)   O (  5)   O (  6)
   O (  2)  1.221883
   H (  3)  3.044970  4.144239
   C (  4)  1.506286  2.370527  1.925984
   O (  5)  2.402130  2.642474  2.924125  1.404683
   O (  6)  2.368481  3.318759  1.214719  1.385598  2.288859
   O (  7)  1.350759  2.218642  3.337756  2.482974  3.661957  2.921044
   H (  8)  2.032764  3.097060  2.916438  2.667618  4.018371  2.803955
   O (  9)  2.603407  3.539041  1.962364  1.631541  2.460628  2.402383
   O ( 10)  3.472087  4.583838  1.179335  2.392096  3.350151  2.274273
   H ( 11)  3.249254  3.625310  2.821558  1.943338  0.993157  2.446591
             O (  7)   H (  8)   O (  9)   O ( 10)
   H (  8)  0.967442
   O (  9)  3.115864  2.962711
   O ( 10)  3.669136  3.162243  1.470188
   H ( 11)  4.403740  4.595151  2.560867  3.177908
 
 Requested basis set is 6-311++G(2df,2p)
 There are 82 shells and 302 basis functions
 A cutoff of  1.0D-11 yielded   3081 shell pairs
 There are     42327 function pairs (     54115 Cartesian)
 Smallest overlap matrix eigenvalue = 3.78E-05
 Guess MOs from SCF MO coefficient file

 -----------------------------------------------------------------------
  General SCF calculation program by
  Eric Jon Sundstrom, Paul Horn, Yuezhi Mao, Dmitri Zuev, Alec White,
  David Stuck, Shaama M.S., Shane Yost, Joonho Lee, David Small,
  Daniel Levine, Susi Lehtola, Hugh Burton, Evgeny Epifanovsky,
  Bang C. Huynh
 -----------------------------------------------------------------------
 Exchange:     0.1500 Hartree-Fock + 1.0000 wB97M-V + LR-HF
 Correlation:  1.0000 wB97M-V
 Using SG-2 standard quadrature grid
 Nonlocal Correlation:  VV10 with C = 0.0100 and b = 6.00 and scale = 1.00000
 Grid used for NLC:  SG-1 standard quadrature
 
 Citation of the SMD model:
 Marenich, A.V.; Cramer, C.J.; Truhlar, D.G.
 J. Phys. Chem. B 2009, 113, 6378-6396.
 iSolventCode=           1
 Solvent: water                                                           
 
 vradii
            1           2           3           4           5           6
    1   1.8500000   1.5200000   1.2000000   1.8500000   1.5200000   1.5200000
            7           8           9          10          11
    1   1.5200000   1.2000000   1.5200000   1.5200000   1.2000000
 -------------------------------------------------------
 OpenMP BLAS3 based DFT computing Module                
 Release: version 1.0, May 2013, Q-Chem Inc. Pittsburgh 
 -------------------------------------------------------
 A unrestricted SCF calculation will be
 performed using Roothaan-Hall, DIIS, GDM
 SCF converges when RMS gradient is below 1.0e-06
 ---------------------------------------
  Cycle       Energy         DIIS error
 ---------------------------------------
    1    -529.2022252964      3.74e-04  Roothaan Step
 ---------------------------------------
  Cycle       Energy         DIIS error
 ---------------------------------------
    1    -529.2364192121      4.93e-04  
    2    -529.2425675518      5.35e-04  Done DIIS. Switching to GDM
 ---------------------------------------
  Cycle       Energy        RMS Gradient
 ---------------------------------------
    1    -529.2425675518      2.01e-02   Normal BFGS step
    2    -529.2381508155      3.38e-02  Line search: overstep
    3    -529.2507579125      4.28e-03   Normal BFGS step
    4    -529.2510420099      3.03e-03   Normal BFGS step
    5    -529.2511078251      2.63e-03   Normal BFGS step
    6    -529.2511228577      1.11e-03   Normal BFGS step
    7    -529.2511289512      8.42e-04   Normal BFGS step
    8    -529.2511311129      3.71e-04   Normal BFGS step
    9    -529.2511317838      1.93e-04   Normal BFGS step
   10    -529.2511321297      7.65e-05   Normal BFGS step
   11    -529.2511322364      8.89e-05   Normal BFGS step
   12    -529.2511322656      9.02e-05   Normal BFGS step
   13    -529.2511322832      4.41e-05   Normal BFGS step
   14    -529.2511322905      1.40e-05   Normal BFGS step
   15    -529.2511322926      8.71e-06   Normal BFGS step
   16    -529.2511322931      3.88e-06   Normal BFGS step
   17    -529.2511322931      3.11e-06   Normal BFGS step
   18    -529.2511322931      1.99e-06   Normal BFGS step
   19    -529.2511322931      1.06e-06   Normal BFGS step
   20    -529.2511322930      7.65e-07  Convergence criterion met
 ---------------------------------------
 SCF time:   CPU 1017.96s  wall 69.00s 
<S^2> =          0.755223214
(3)  G-ENP(liq) elect-nuc-pol free energy of system     -529.251132293 a.u.
(4)  G-CDS(liq) cavity-dispersion-solvent structure 
     free energy                                                3.6231 kcal/mol
(6)  G-S(liq) free energy of system                     -529.245358452 a.u.
 SCF   energy in the final basis set =     -529.2453584519
 Total energy in the final basis set =     -529.2453584519
 
 --------------------------------------------------------------
 
                    Orbital Energies (a.u.)
 --------------------------------------------------------------
 
 Alpha MOs
 -- Occupied --
-19.5089 -19.4993 -19.3981 -19.3817 -19.3556 -19.3392 -10.5503 -10.5231
 -1.3204  -1.2561  -1.2119  -1.1719  -1.1297  -1.0713  -0.8505  -0.7620
 -0.7248  -0.6774  -0.6465  -0.6235  -0.6202  -0.5961  -0.5834  -0.5364
 -0.5336  -0.5024  -0.4872  -0.4701  -0.4509  -0.4499  -0.4262  -0.4000
 -- Virtual --
  0.0085   0.0324   0.0437   0.0474   0.0696   0.0817   0.0875   0.1093
  0.1117   0.1173   0.1358   0.1423   0.1537   0.1700   0.1863   0.1948
  0.2095   0.2374   0.2487   0.2620   0.2661   0.2711   0.2780   0.2883
  0.2917   0.2991   0.3074   0.3124   0.3259   0.3346   0.3369   0.3476
  0.3500   0.3543   0.3722   0.3775   0.3833   0.3947   0.3965   0.3989
  0.4172   0.4400   0.4529   0.4873   0.5117   0.5545   0.5901   0.5990
  0.6162   0.6310   0.6726   0.6808   0.7222   0.7515   0.7671   0.7776
  0.8339   0.8524   0.8571   0.8950   0.8990   0.9411   0.9544   0.9635
  1.0159   1.0424   1.0724   1.0773   1.0911   1.1088   1.1191   1.1296
  1.1351   1.1487   1.1630   1.1831   1.1977   1.2127   1.2221   1.2279
  1.2467   1.2492   1.2751   1.2875   1.3033   1.3435   1.3714   1.3974
  1.4304   1.4441   1.4897   1.5034   1.5160   1.5665   1.5688   1.5783
  1.6308   1.6326   1.6707   1.6990   1.7327   1.7408   1.7892   1.8056
  1.8317   1.8349   1.8783   1.9020   1.9257   1.9860   2.0155   2.0644
  2.0744   2.0943   2.1296   2.1852   2.2023   2.2600   2.3372   2.3421
  2.3860   2.4161   2.4371   2.4884   2.5076   2.5418   2.5662   2.6184
  2.7040   2.7315   2.7884   2.8357   2.8677   2.8972   2.9569   2.9960
  3.1379   3.1540   3.1843   3.2312   3.2831   3.3362   3.3610   3.3712
  3.3872   3.4657   3.4760   3.5253   3.5700   3.5944   3.6459   3.6681
  3.6765   3.7246   3.7713   3.7927   3.8209   3.8267   3.8650   3.8915
  3.9022   3.9556   4.0260   4.0386   4.0973   4.1441   4.2320   4.2732
  4.2961   4.3067   4.4984   4.5280   4.5653   4.7457   4.7998   4.8372
  4.9579   5.0073   5.0359   5.0445   5.0865   5.1146   5.1226   5.1402
  5.1514   5.1674   5.1790   5.1868   5.2182   5.2273   5.2394   5.2662
  5.2790   5.2855   5.2976   5.3172   5.3351   5.3527   5.3732   5.3778
  5.3940   5.4098   5.4218   5.4323   5.4724   5.5149   5.5333   5.5576
  5.5814   5.6243   5.6577   5.7022   5.7450   5.7554   5.8460   5.8688
  5.9122   5.9462   6.0282   6.0494   6.1028   6.1387   6.3651   6.4256
  6.5865   6.6178   6.6580   6.7370   6.7871   6.8234   6.9144   6.9861
  6.9983   7.0054   7.0207   7.0341   7.0837   7.1096   7.1226   7.1598
  7.1671   7.2287   7.2730   7.2815   7.3010   7.3437   7.3688   7.3785
  7.4184   7.4824   7.4921   7.5141   7.5632   7.6150   7.7405   7.7549
  7.7642   7.8338   7.8750   7.9230   7.9925   8.0827  24.6364  25.0513
 50.3727  50.4200  50.5433  50.5762  50.6480  50.7023
 
 Beta MOs
 -- Occupied --
-19.4973 -19.4811 -19.3981 -19.3814 -19.3555 -19.3390 -10.5506 -10.5229
 -1.2961  -1.2542  -1.2082  -1.1716  -1.1279  -1.0335  -0.8476  -0.7617
 -0.7152  -0.6724  -0.6427  -0.6078  -0.5985  -0.5815  -0.5454  -0.5262
 -0.5156  -0.4997  -0.4699  -0.4499  -0.4455  -0.4235  -0.4005
 -- Virtual --
 -0.1130   0.0182   0.0330   0.0448   0.0513   0.0745   0.0847   0.0881
  0.1100   0.1123   0.1191   0.1366   0.1445   0.1550   0.1723   0.1877
  0.1964   0.2105   0.2390   0.2498   0.2639   0.2691   0.2730   0.2788
  0.2888   0.2924   0.2997   0.3092   0.3146   0.3268   0.3360   0.3381
  0.3481   0.3508   0.3553   0.3734   0.3799   0.3847   0.3958   0.3972
  0.4003   0.4181   0.4414   0.4535   0.4880   0.5126   0.5548   0.5912
  0.6011   0.6181   0.6316   0.6729   0.6810   0.7229   0.7526   0.7681
  0.7792   0.8355   0.8546   0.8576   0.8956   0.8996   0.9423   0.9554
  0.9636   1.0214   1.0565   1.0775   1.0806   1.0928   1.1119   1.1216
  1.1315   1.1414   1.1617   1.1688   1.1854   1.2050   1.2179   1.2277
  1.2291   1.2489   1.2513   1.2770   1.2931   1.3070   1.3489   1.3762
  1.4029   1.4346   1.4484   1.4913   1.5052   1.5187   1.5721   1.5804
  1.5828   1.6386   1.6394   1.6803   1.7062   1.7359   1.7468   1.7955
  1.8074   1.8332   1.8417   1.8878   1.9042   1.9303   1.9978   2.0194
  2.0678   2.0897   2.1044   2.1318   2.1887   2.2098   2.2625   2.3397
  2.3426   2.3880   2.4176   2.4378   2.4924   2.5105   2.5444   2.5665
  2.6209   2.7121   2.7352   2.7915   2.8358   2.8692   2.8978   2.9564
  2.9960   3.1377   3.1540   3.1845   3.2313   3.2832   3.3360   3.3612
  3.3712   3.3871   3.4665   3.4759   3.5252   3.5690   3.5962   3.6459
  3.6681   3.6764   3.7255   3.7709   3.7927   3.8203   3.8268   3.8658
  3.8915   3.9028   3.9567   4.0257   4.0387   4.0968   4.1445   4.2323
  4.2734   4.2965   4.3068   4.4994   4.5409   4.5992   4.7593   4.8045
  4.8641   4.9754   5.0530   5.0674   5.0792   5.1148   5.1262   5.1410
  5.1565   5.1671   5.1806   5.1891   5.2023   5.2234   5.2358   5.2443
  5.2745   5.2944   5.2993   5.3171   5.3237   5.3416   5.3670   5.3813
  5.3948   5.3997   5.4153   5.4373   5.4413   5.4802   5.5187   5.5354
  5.5596   5.5859   5.6258   5.6673   5.7056   5.7480   5.7573   5.8635
  5.8912   5.9157   5.9495   6.0313   6.0506   6.1038   6.1412   6.3658
  6.4274   6.6116   6.6258   6.6699   6.7704   6.8230   6.8788   6.9147
  6.9879   7.0016   7.0115   7.0365   7.0450   7.0932   7.1293   7.1392
  7.1661   7.2100   7.2652   7.2779   7.2911   7.3202   7.3492   7.3748
  7.3833   7.4391   7.4919   7.5135   7.5193   7.5687   7.6184   7.7438
  7.7607   7.7746   7.8358   7.8798   7.9237   7.9947   8.0970  24.6361
 25.0514  50.3857  50.4297  50.5434  50.5764  50.6485  50.7025
 --------------------------------------------------------------
 
          Ground-State Mulliken Net Atomic Charges

     Atom                 Charge (a.u.)    Spin (a.u.)
  --------------------------------------------------------
      1 C                     0.323490       0.002174
      2 O                    -0.416119       0.001415
      3 H                     0.375307      -0.007335
      4 C                     0.256453      -0.014259
      5 O                    -0.379266       0.013141
      6 O                    -0.571911       0.007573
      7 O                    -0.337217       0.000101
      8 H                     0.360789      -0.000292
      9 O                    -0.013426       0.365891
     10 O                     0.034079       0.633292
     11 H                     0.367822      -0.001702
  --------------------------------------------------------
  Sum of atomic charges =     0.000000
  Sum of spin   charges =     1.000000

 -----------------------------------------------------------------
                    Cartesian Multipole Moments
 -----------------------------------------------------------------
    Charge (ESU x 10^10)
                 0.0000
    Dipole Moment (Debye)
         X      -5.0144      Y       3.6615      Z       3.4743
       Tot       7.1149
    Quadrupole Moments (Debye-Ang)
        XX     -43.8034     XY       3.8252     YY     -40.4363
        XZ      -3.0684     YZ       1.3326     ZZ     -47.1941
    Octopole Moments (Debye-Ang^2)
       XXX      41.1184    XXY     -12.1655    XYY      12.4110
       YYY       5.4204    XXZ     -11.8029    XYZ       1.0234
       YYZ     -14.2664    XZZ      30.5439    YZZ      -6.4683
       ZZZ     -65.8843
    Hexadecapole Moments (Debye-Ang^3)
      XXXX    -527.5140   XXXY      39.6428   XXYY    -120.0508
      XYYY      36.1284   YYYY    -249.5830   XXXZ      81.0126
      XXYZ     -17.8936   XYYZ      29.0431   YYYZ     -24.6115
      XXZZ    -149.1569   XYZZ      13.3835   YYZZ     -92.0845
      XZZZ     105.9128   YZZZ     -38.5152   ZZZZ    -268.2434
 -----------------------------------------------------------------
 Calculating analytic gradient of the SCF energy
 Gradient of CDS energy
            1           2           3           4           5           6
    1   0.0033515  -0.0009609  -0.0003341  -0.0038271   0.0005462   0.0031739
    2   0.0030163   0.0011101   0.0002242  -0.0000597   0.0030335  -0.0030115
    3  -0.0002257   0.0003812  -0.0001728  -0.0036601   0.0003806   0.0033791
            7           8           9          10          11
    1  -0.0015510   0.0000452  -0.0001810   0.0000745  -0.0003371
    2  -0.0043494   0.0004197   0.0000939  -0.0001024  -0.0003748
    3  -0.0003779   0.0000558  -0.0000187   0.0002551   0.0000033
 Gradient of SCF Energy
            1           2           3           4           5           6
    1  -0.0405221   0.0192144  -0.0182885   0.0584977   0.0224409  -0.0148836
    2   0.0032522  -0.0207272   0.0155411   0.0070857  -0.0273901   0.0009529
    3  -0.0074966  -0.0050695   0.0328397   0.0528484  -0.0358619  -0.0582880
            7           8           9          10          11
    1   0.0160196  -0.0020765   0.0751754  -0.0762533  -0.0393241
    2   0.0012927   0.0289196  -0.0791466   0.0761356  -0.0059159
    3  -0.0035715   0.0076416   0.0576435  -0.0530319   0.0123460
 Max gradient component =       7.915E-02
 RMS gradient           =       3.860E-02
 Computing fast CPCM-SWIG gradient
 Updating gradient with PCM contributions...
 -- total gradient after adding PCM contribution --
---------------------------------------------------
  Atom         X              Y              Z     
---------------------------------------------------
   1      -0.043121       0.003383      -0.010982
   2       0.021044      -0.023250      -0.004550
   3      -0.015403       0.010867       0.030097
   4       0.062532       0.008032       0.050881
   5       0.002421      -0.024191      -0.028098
   6      -0.017246       0.005328      -0.041269
   7      -0.001219       0.019200       0.004809
   8       0.012109       0.009199      -0.000635
   9       0.068049      -0.071795       0.049925
  10      -0.068740       0.067910      -0.056314
  11      -0.020426      -0.004684       0.006135
---------------------------------------------------
 Number of fixed atoms: 0
 Gradient time:  CPU 123.33 s  wall 10.35 s
 ----------------------------------------------------------------
             Standard Nuclear Orientation (Angstroms)
    I     Atom           X                Y                Z
 ----------------------------------------------------------------
    1      C       0.5971913000     0.1102786000     0.1321293000
    2      O       1.3747215000    -0.7808778000    -0.1752965000
    3      H      -2.2664866000     1.1047335000     0.4253625000
    4      C      -0.8545716000    -0.2046699000     0.3882949000
    5      O      -1.1141867000    -1.5750230000     0.2213603000
    6      O      -1.6557265000     0.5416178000    -0.4608741000
    7      O       1.0550443000     1.3752423000     0.2386167000
    8      H       0.4713067000     2.1083397000     0.4789533000
    9      O      -1.3163220000     0.2172214000     1.8951857000
   10      O      -2.3501191000     1.2188745000     1.5961774000
   11      H      -2.0827885000    -1.7106630000     0.3939102000
 ----------------------------------------------------------------
 Nuclear Repulsion Energy =         404.72059676 hartrees
 There are       32 alpha and       31 beta electrons
 Discretize the solute cavity surface with Lebedev spheres
	Using 110 Lebedev grid points for each H atom
	Using 194 Lebedev grid points for other atoms
	Atomic van der Waals radii will be scaled by 1.20
 Remove points where switching function is < 1.0e-08
 Keep 1013 surface tesserae and discard 869 interior tesserae
 Molecular Surface Area = 119.318 Angst**2

                       Distance Matrix (Angstroms)
             C (  1)   O (  2)   H (  3)   C (  4)   O (  5)   O (  6)
   O (  2)  1.221975
   H (  3)  3.045583  4.144239
   C (  4)  1.507458  2.370527  1.925984
   O (  5)  2.403543  2.642474  2.924125  1.404683
   O (  6)  2.369250  3.318759  1.214719  1.385598  2.288859
   O (  7)  1.349482  2.218642  3.337756  2.482974  3.661957  2.921044
   H (  8)  2.031842  3.097060  2.916438  2.667618  4.018371  2.803955
   O (  9)  2.604100  3.539041  1.962364  1.631541  2.460628  2.402383
   O ( 10)  3.472616  4.583838  1.179335  2.392096  3.350151  2.274273
   H ( 11)  3.250638  3.625310  2.821558  1.943338  0.993157  2.446591
             O (  7)   H (  8)   O (  9)   O ( 10)
   H (  8)  0.967442
   O (  9)  3.115864  2.962711
   O ( 10)  3.669136  3.162243  1.470188
   H ( 11)  4.403740  4.595151  2.560867  3.177908
 
 Requested basis set is 6-311++G(2df,2p)
 There are 82 shells and 302 basis functions
 A cutoff of  1.0D-11 yielded   3081 shell pairs
 There are     42327 function pairs (     54115 Cartesian)
 Smallest overlap matrix eigenvalue = 3.80E-05
 Guess MOs from SCF MO coefficient file

 -----------------------------------------------------------------------
  General SCF calculation program by
  Eric Jon Sundstrom, Paul Horn, Yuezhi Mao, Dmitri Zuev, Alec White,
  David Stuck, Shaama M.S., Shane Yost, Joonho Lee, David Small,
  Daniel Levine, Susi Lehtola, Hugh Burton, Evgeny Epifanovsky,
  Bang C. Huynh
 -----------------------------------------------------------------------
 Exchange:     0.1500 Hartree-Fock + 1.0000 wB97M-V + LR-HF
 Correlation:  1.0000 wB97M-V
 Using SG-2 standard quadrature grid
 Nonlocal Correlation:  VV10 with C = 0.0100 and b = 6.00 and scale = 1.00000
 Grid used for NLC:  SG-1 standard quadrature
 
 Citation of the SMD model:
 Marenich, A.V.; Cramer, C.J.; Truhlar, D.G.
 J. Phys. Chem. B 2009, 113, 6378-6396.
 iSolventCode=           1
 Solvent: water                                                           
 
 vradii
            1           2           3           4           5           6
    1   1.8500000   1.5200000   1.2000000   1.8500000   1.5200000   1.5200000
            7           8           9          10          11
    1   1.5200000   1.2000000   1.5200000   1.5200000   1.2000000
 -------------------------------------------------------
 OpenMP BLAS3 based DFT computing Module                
 Release: version 1.0, May 2013, Q-Chem Inc. Pittsburgh 
 -------------------------------------------------------
 A unrestricted SCF calculation will be
 performed using Roothaan-Hall, DIIS, GDM
 SCF converges when RMS gradient is below 1.0e-06
 ---------------------------------------
  Cycle       Energy         DIIS error
 ---------------------------------------
    1    -529.2022674956      3.74e-04  Roothaan Step
 ---------------------------------------
  Cycle       Energy         DIIS error
 ---------------------------------------
    1    -529.2365332152      4.92e-04  
    2    -529.2427123155      5.33e-04  Done DIIS. Switching to GDM
 ---------------------------------------
  Cycle       Energy        RMS Gradient
 ---------------------------------------
    1    -529.2427123155      1.94e-02   Normal BFGS step
    2    -529.2383336127      3.27e-02  Line search: overstep
    3    -529.2508433428      4.28e-03   Normal BFGS step
    4    -529.2511272272      3.01e-03   Normal BFGS step
    5    -529.2511926808      2.67e-03   Normal BFGS step
    6    -529.2512079991      1.13e-03   Normal BFGS step
    7    -529.2512141601      8.21e-04   Normal BFGS step
    8    -529.2512163057      3.69e-04   Normal BFGS step
    9    -529.2512169571      1.91e-04   Normal BFGS step
   10    -529.2512172937      7.55e-05   Normal BFGS step
   11    -529.2512173997      8.60e-05   Normal BFGS step
   12    -529.2512174281      8.88e-05   Normal BFGS step
   13    -529.2512174453      4.41e-05   Normal BFGS step
   14    -529.2512174525      1.38e-05   Normal BFGS step
   15    -529.2512174546      8.61e-06   Normal BFGS step
   16    -529.2512174551      3.82e-06   Normal BFGS step
   17    -529.2512174551      3.06e-06   Normal BFGS step
   18    -529.2512174551      1.96e-06   Normal BFGS step
   19    -529.2512174551      1.06e-06   Normal BFGS step
   20    -529.2512174550      7.52e-07  Convergence criterion met
 ---------------------------------------
 SCF time:   CPU 1016.25s  wall 68.00s 
<S^2> =          0.755222794
(3)  G-ENP(liq) elect-nuc-pol free energy of system     -529.251217455 a.u.
(4)  G-CDS(liq) cavity-dispersion-solvent structure 
     free energy                                                3.6306 kcal/mol
(6)  G-S(liq) free energy of system                     -529.245431653 a.u.
 SCF   energy in the final basis set =     -529.2454316526
 Total energy in the final basis set =     -529.2454316526
 
 --------------------------------------------------------------
 
                    Orbital Energies (a.u.)
 --------------------------------------------------------------
 
 Alpha MOs
 -- Occupied --
-19.5088 -19.4992 -19.3983 -19.3817 -19.3554 -19.3391 -10.5502 -10.5231
 -1.3203  -1.2563  -1.2120  -1.1720  -1.1296  -1.0713  -0.8502  -0.7624
 -0.7247  -0.6774  -0.6465  -0.6234  -0.6201  -0.5961  -0.5835  -0.5365
 -0.5337  -0.5023  -0.4871  -0.4700  -0.4509  -0.4499  -0.4261  -0.3998
 -- Virtual --
  0.0086   0.0324   0.0437   0.0475   0.0696   0.0817   0.0875   0.1093
  0.1117   0.1173   0.1358   0.1424   0.1537   0.1701   0.1863   0.1948
  0.2096   0.2374   0.2487   0.2620   0.2661   0.2711   0.2780   0.2882
  0.2917   0.2991   0.3074   0.3124   0.3259   0.3346   0.3369   0.3476
  0.3500   0.3543   0.3722   0.3775   0.3833   0.3946   0.3965   0.3989
  0.4172   0.4400   0.4527   0.4874   0.5117   0.5546   0.5902   0.5991
  0.6163   0.6310   0.6725   0.6808   0.7222   0.7515   0.7672   0.7776
  0.8338   0.8523   0.8570   0.8951   0.8991   0.9412   0.9541   0.9637
  1.0159   1.0424   1.0726   1.0773   1.0910   1.1088   1.1189   1.1295
  1.1350   1.1487   1.1630   1.1830   1.1977   1.2127   1.2222   1.2279
  1.2467   1.2492   1.2751   1.2875   1.3033   1.3435   1.3714   1.3975
  1.4304   1.4441   1.4897   1.5033   1.5160   1.5665   1.5688   1.5783
  1.6308   1.6325   1.6707   1.6990   1.7330   1.7407   1.7892   1.8055
  1.8317   1.8349   1.8784   1.9021   1.9257   1.9861   2.0155   2.0645
  2.0745   2.0944   2.1296   2.1853   2.2023   2.2602   2.3372   2.3426
  2.3859   2.4160   2.4371   2.4885   2.5075   2.5417   2.5662   2.6184
  2.7040   2.7314   2.7884   2.8358   2.8675   2.8972   2.9570   2.9959
  3.1380   3.1542   3.1842   3.2314   3.2832   3.3357   3.3614   3.3714
  3.3874   3.4656   3.4764   3.5255   3.5698   3.5943   3.6459   3.6677
  3.6761   3.7245   3.7713   3.7926   3.8210   3.8268   3.8655   3.8914
  3.9021   3.9555   4.0256   4.0384   4.0965   4.1427   4.2318   4.2731
  4.2959   4.3067   4.4978   4.5280   4.5654   4.7457   4.7993   4.8372
  4.9580   5.0074   5.0359   5.0445   5.0865   5.1147   5.1226   5.1402
  5.1515   5.1675   5.1790   5.1869   5.2182   5.2272   5.2395   5.2662
  5.2789   5.2854   5.2975   5.3172   5.3351   5.3527   5.3734   5.3778
  5.3940   5.4099   5.4218   5.4325   5.4725   5.5148   5.5332   5.5577
  5.5815   5.6246   5.6576   5.7023   5.7451   5.7555   5.8460   5.8687
  5.9128   5.9471   6.0289   6.0498   6.1030   6.1388   6.3649   6.4257
  6.5865   6.6184   6.6590   6.7370   6.7872   6.8235   6.9143   6.9862
  6.9984   7.0069   7.0212   7.0342   7.0838   7.1096   7.1226   7.1594
  7.1671   7.2287   7.2733   7.2815   7.3012   7.3443   7.3697   7.3789
  7.4184   7.4824   7.4919   7.5142   7.5630   7.6152   7.7406   7.7551
  7.7641   7.8339   7.8750   7.9230   7.9924   8.0828  24.6358  25.0521
 50.3728  50.4200  50.5435  50.5765  50.6481  50.7022
 
 Beta MOs
 -- Occupied --
-19.4973 -19.4810 -19.3983 -19.3813 -19.3554 -19.3389 -10.5506 -10.5229
 -1.2960  -1.2545  -1.2082  -1.1717  -1.1279  -1.0334  -0.8473  -0.7620
 -0.7152  -0.6724  -0.6426  -0.6078  -0.5986  -0.5816  -0.5454  -0.5262
 -0.5155  -0.4996  -0.4699  -0.4499  -0.4454  -0.4234  -0.4004
 -- Virtual --
 -0.1129   0.0184   0.0330   0.0448   0.0514   0.0745   0.0847   0.0881
  0.1100   0.1123   0.1191   0.1366   0.1445   0.1550   0.1723   0.1877
  0.1963   0.2106   0.2390   0.2498   0.2640   0.2691   0.2730   0.2788
  0.2887   0.2924   0.2997   0.3092   0.3146   0.3268   0.3360   0.3381
  0.3481   0.3508   0.3552   0.3734   0.3799   0.3847   0.3957   0.3972
  0.4003   0.4181   0.4414   0.4533   0.4881   0.5126   0.5549   0.5913
  0.6012   0.6181   0.6316   0.6729   0.6810   0.7229   0.7525   0.7682
  0.7791   0.8354   0.8545   0.8576   0.8957   0.8996   0.9424   0.9551
  0.9637   1.0214   1.0565   1.0776   1.0806   1.0927   1.1119   1.1214
  1.1314   1.1414   1.1617   1.1688   1.1854   1.2050   1.2179   1.2278
  1.2291   1.2489   1.2512   1.2770   1.2931   1.3070   1.3488   1.3763
  1.4029   1.4346   1.4484   1.4913   1.5051   1.5186   1.5721   1.5802
  1.5828   1.6386   1.6393   1.6803   1.7061   1.7362   1.7467   1.7955
  1.8073   1.8332   1.8418   1.8879   1.9042   1.9303   1.9979   2.0194
  2.0680   2.0897   2.1045   2.1319   2.1889   2.2098   2.2627   2.3397
  2.3431   2.3879   2.4176   2.4377   2.4924   2.5103   2.5445   2.5664
  2.6209   2.7121   2.7351   2.7916   2.8358   2.8689   2.8979   2.9565
  2.9960   3.1379   3.1543   3.1844   3.2315   3.2833   3.3354   3.3616
  3.3713   3.3873   3.4664   3.4763   3.5254   3.5687   3.5961   3.6460
  3.6677   3.6759   3.7253   3.7709   3.7926   3.8204   3.8269   3.8663
  3.8913   3.9027   3.9566   4.0252   4.0385   4.0960   4.1432   4.2321
  4.2733   4.2963   4.3068   4.4989   4.5409   4.5992   4.7592   4.8041
  4.8641   4.9754   5.0531   5.0674   5.0792   5.1149   5.1262   5.1411
  5.1566   5.1672   5.1807   5.1891   5.2024   5.2233   5.2357   5.2443
  5.2744   5.2943   5.2993   5.3170   5.3238   5.3415   5.3669   5.3816
  5.3949   5.3996   5.4153   5.4374   5.4415   5.4802   5.5187   5.5354
  5.5598   5.5860   5.6261   5.6673   5.7056   5.7481   5.7575   5.8634
  5.8912   5.9164   5.9503   6.0321   6.0509   6.1040   6.1412   6.3657
  6.4275   6.6117   6.6267   6.6707   6.7705   6.8230   6.8788   6.9146
  6.9879   7.0017   7.0138   7.0365   7.0449   7.0930   7.1295   7.1392
  7.1657   7.2099   7.2652   7.2783   7.2911   7.3204   7.3499   7.3757
  7.3835   7.4391   7.4917   7.5135   7.5193   7.5686   7.6185   7.7440
  7.7608   7.7746   7.8359   7.8798   7.9236   7.9947   8.0971  24.6356
 25.0522  50.3858  50.4297  50.5437  50.5766  50.6485  50.7023
 --------------------------------------------------------------
 
          Ground-State Mulliken Net Atomic Charges

     Atom                 Charge (a.u.)    Spin (a.u.)
  --------------------------------------------------------
      1 C                     0.323309       0.002180
      2 O                    -0.416560       0.001443
      3 H                     0.375273      -0.007338
      4 C                     0.256414      -0.014243
      5 O                    -0.379354       0.013151
      6 O                    -0.571989       0.007596
      7 O                    -0.336316       0.000103
      8 H                     0.360997      -0.000291
      9 O                    -0.013446       0.365998
     10 O                     0.033860       0.633106
     11 H                     0.367814      -0.001706
  --------------------------------------------------------
  Sum of atomic charges =     0.000000
  Sum of spin   charges =     1.000000

 -----------------------------------------------------------------
                    Cartesian Multipole Moments
 -----------------------------------------------------------------
    Charge (ESU x 10^10)
                 0.0000
    Dipole Moment (Debye)
         X      -5.0067      Y       3.6731      Z       3.4743
       Tot       7.1154
    Quadrupole Moments (Debye-Ang)
        XX     -43.8110     XY       3.8414     YY     -40.4265
        XZ      -3.0617     YZ       1.3331     ZZ     -47.1981
    Octopole Moments (Debye-Ang^2)
       XXX      41.1297    XXY     -12.1592    XYY      12.4235
       YYY       5.4408    XXZ     -11.8069    XYZ       1.0300
       YYZ     -14.2655    XZZ      30.5529    YZZ      -6.4679
       ZZZ     -65.8910
    Hexadecapole Moments (Debye-Ang^3)
      XXXX    -527.6398   XXXY      39.6924   XXYY    -120.0638
      XYYY      36.1561   YYYY    -249.5319   XXXZ      81.0457
      XXYZ     -17.9033   XYYZ      29.0545   YYYZ     -24.6089
      XXZZ    -149.1872   XYZZ      13.4000   YYZZ     -92.0846
      XZZZ     105.9373   YZZZ     -38.5210   ZZZZ    -268.2716
 -----------------------------------------------------------------
 Calculating analytic gradient of the SCF energy
 Gradient of CDS energy
            1           2           3           4           5           6
    1   0.0033304  -0.0009611  -0.0003341  -0.0038278   0.0005461   0.0031737
    2   0.0029610   0.0011114   0.0002242  -0.0000602   0.0030335  -0.0030116
    3  -0.0002303   0.0003815  -0.0001728  -0.0036601   0.0003806   0.0033793
            7           8           9          10          11
    1  -0.0015272   0.0000439  -0.0001813   0.0000745  -0.0003371
    2  -0.0042933   0.0004183   0.0000938  -0.0001024  -0.0003748
    3  -0.0003738   0.0000559  -0.0000187   0.0002551   0.0000033
 Gradient of SCF Energy
            1           2           3           4           5           6
    1  -0.0394567   0.0189913  -0.0182790   0.0579916   0.0223675  -0.0148754
    2   0.0041518  -0.0208856   0.0155512   0.0068709  -0.0274230   0.0009557
    3  -0.0075728  -0.0050496   0.0328355   0.0529100  -0.0358457  -0.0582875
            7           8           9          10          11
    1   0.0157067  -0.0020842   0.0751891  -0.0762393  -0.0393116
    2   0.0007479   0.0289702  -0.0791300   0.0761119  -0.0059210
    3  -0.0035779   0.0076488   0.0576331  -0.0530346   0.0123407
 Max gradient component =       7.913E-02
 RMS gradient           =       3.854E-02
 Computing fast CPCM-SWIG gradient
 Updating gradient with PCM contributions...
 -- total gradient after adding PCM contribution --
---------------------------------------------------
  Atom         X              Y              Z     
---------------------------------------------------
   1      -0.042043       0.004309      -0.011053
   2       0.020812      -0.023404      -0.004527
   3      -0.015403       0.010873       0.030093
   4       0.062030       0.007797       0.050941
   5       0.002351      -0.024227      -0.028088
   6      -0.017225       0.005342      -0.041271
   7      -0.001541       0.018696       0.004805
   8       0.012110       0.009195      -0.000639
   9       0.068067      -0.071782       0.049921
  10      -0.068731       0.067893      -0.056315
  11      -0.020427      -0.004692       0.006133
---------------------------------------------------
 Number of fixed atoms: 0
 Gradient time:  CPU 123.62 s  wall 10.44 s
 ----------------------------------------------------------------
             Standard Nuclear Orientation (Angstroms)
    I     Atom           X                Y                Z
 ----------------------------------------------------------------
    1      C       0.5971913000     0.1082786000     0.1321293000
    2      O       1.3747215000    -0.7808778000    -0.1752965000
    3      H      -2.2664866000     1.1047335000     0.4253625000
    4      C      -0.8545716000    -0.2046699000     0.3882949000
    5      O      -1.1141867000    -1.5750230000     0.2213603000
    6      O      -1.6557265000     0.5416178000    -0.4608741000
    7      O       1.0550443000     1.3752423000     0.2386167000
    8      H       0.4713067000     2.1083397000     0.4789533000
    9      O      -1.3163220000     0.2172214000     1.8951857000
   10      O      -2.3501191000     1.2188745000     1.5961774000
   11      H      -2.0827885000    -1.7106630000     0.3939102000
 ----------------------------------------------------------------
 Nuclear Repulsion Energy =         404.72426461 hartrees
 There are       32 alpha and       31 beta electrons
 Discretize the solute cavity surface with Lebedev spheres
	Using 110 Lebedev grid points for each H atom
	Using 194 Lebedev grid points for other atoms
	Atomic van der Waals radii will be scaled by 1.20
 Remove points where switching function is < 1.0e-08
 Keep 1013 surface tesserae and discard 869 interior tesserae
 Molecular Surface Area = 119.323 Angst**2

                       Distance Matrix (Angstroms)
             C (  1)   O (  2)   H (  3)   C (  4)   O (  5)   O (  6)
   O (  2)  1.220517
   H (  3)  3.046237  4.144239
   C (  4)  1.507041  2.370527  1.925984
   O (  5)  2.402141  2.642474  2.924125  1.404683
   O (  6)  2.369615  3.318759  1.214719  1.385598  2.288859
   O (  7)  1.351357  2.218642  3.337756  2.482974  3.661957  2.921044
   H (  8)  2.033809  3.097060  2.916438  2.667618  4.018371  2.803955
   O (  9)  2.604183  3.539041  1.962364  1.631541  2.460628  2.402383
   O ( 10)  3.473255  4.583838  1.179335  2.392096  3.350151  2.274273
   H ( 11)  3.249518  3.625310  2.821558  1.943338  0.993157  2.446591
             O (  7)   H (  8)   O (  9)   O ( 10)
   H (  8)  0.967442
   O (  9)  3.115864  2.962711
   O ( 10)  3.669136  3.162243  1.470188
   H ( 11)  4.403740  4.595151  2.560867  3.177908
 
 Requested basis set is 6-311++G(2df,2p)
 There are 82 shells and 302 basis functions
 A cutoff of  1.0D-11 yielded   3081 shell pairs
 There are     42327 function pairs (     54115 Cartesian)
 Smallest overlap matrix eigenvalue = 3.80E-05
 Guess MOs from SCF MO coefficient file

 -----------------------------------------------------------------------
  General SCF calculation program by
  Eric Jon Sundstrom, Paul Horn, Yuezhi Mao, Dmitri Zuev, Alec White,
  David Stuck, Shaama M.S., Shane Yost, Joonho Lee, David Small,
  Daniel Levine, Susi Lehtola, Hugh Burton, Evgeny Epifanovsky,
  Bang C. Huynh
 -----------------------------------------------------------------------
 Exchange:     0.1500 Hartree-Fock + 1.0000 wB97M-V + LR-HF
 Correlation:  1.0000 wB97M-V
 Using SG-2 standard quadrature grid
 Nonlocal Correlation:  VV10 with C = 0.0100 and b = 6.00 and scale = 1.00000
 Grid used for NLC:  SG-1 standard quadrature
 
 Citation of the SMD model:
 Marenich, A.V.; Cramer, C.J.; Truhlar, D.G.
 J. Phys. Chem. B 2009, 113, 6378-6396.
 iSolventCode=           1
 Solvent: water                                                           
 
 vradii
            1           2           3           4           5           6
    1   1.8500000   1.5200000   1.2000000   1.8500000   1.5200000   1.5200000
            7           8           9          10          11
    1   1.5200000   1.2000000   1.5200000   1.5200000   1.2000000
 -------------------------------------------------------
 OpenMP BLAS3 based DFT computing Module                
 Release: version 1.0, May 2013, Q-Chem Inc. Pittsburgh 
 -------------------------------------------------------
 A unrestricted SCF calculation will be
 performed using Roothaan-Hall, DIIS, GDM
 SCF converges when RMS gradient is below 1.0e-06
 ---------------------------------------
  Cycle       Energy         DIIS error
 ---------------------------------------
    1    -529.2022944621      3.75e-04  Roothaan Step
 ---------------------------------------
  Cycle       Energy         DIIS error
 ---------------------------------------
    1    -529.2366202360      4.90e-04  
    2    -529.2428289669      5.29e-04  Done DIIS. Switching to GDM
 ---------------------------------------
  Cycle       Energy        RMS Gradient
 ---------------------------------------
    1    -529.2428289669      1.90e-02   Normal BFGS step
    2    -529.2385716910      3.20e-02  Line search: overstep
    3    -529.2508472202      4.23e-03   Normal BFGS step
    4    -529.2511281910      3.01e-03   Normal BFGS step
    5    -529.2511931224      2.67e-03   Normal BFGS step
    6    -529.2512084139      1.11e-03   Normal BFGS step
    7    -529.2512145587      8.20e-04   Normal BFGS step
    8    -529.2512167084      3.72e-04   Normal BFGS step
    9    -529.2512173703      1.93e-04   Normal BFGS step
   10    -529.2512177135      7.62e-05   Normal BFGS step
   11    -529.2512178181      8.81e-05   Normal BFGS step
   12    -529.2512178468      8.93e-05   Normal BFGS step
   13    -529.2512178642      4.36e-05   Normal BFGS step
   14    -529.2512178714      1.39e-05   Normal BFGS step
[...]
 -0.7271  -0.7019  -0.6660  -0.6064  -0.6027  -0.5855  -0.5616  -0.5475
 -0.5235  -0.5152  -0.4888  -0.4707  -0.4529  -0.4142  -0.3843
 -- Virtual --
 -0.0396   0.0248   0.0330   0.0463   0.0582   0.0768   0.0894   0.1048
  0.1066   0.1205   0.1306   0.1533   0.1542   0.1613   0.1902   0.1920
  0.2172   0.2328   0.2381   0.2555   0.2588   0.2652   0.2874   0.2982
  0.3000   0.3038   0.3110   0.3212   0.3224   0.3272   0.3409   0.3472
  0.3499   0.3523   0.3573   0.3597   0.3801   0.3951   0.4046   0.4073
  0.4147   0.4298   0.4438   0.4877   0.5082   0.5251   0.5828   0.6028
  0.6142   0.6251   0.6491   0.6659   0.7060   0.7322   0.7504   0.7702
  0.7906   0.8275   0.8352   0.8502   0.8830   0.9072   0.9226   0.9475
  0.9783   1.0384   1.0613   1.0697   1.0842   1.0908   1.1026   1.1169
  1.1249   1.1371   1.1639   1.1731   1.1847   1.2043   1.2088   1.2124
  1.2273   1.2470   1.2618   1.2640   1.2730   1.3087   1.3370   1.3863
  1.4362   1.4590   1.4761   1.5087   1.5168   1.5345   1.5678   1.5994
  1.6268   1.6364   1.6635   1.6861   1.7232   1.7386   1.7561   1.7747
  1.8173   1.8584   1.8798   1.9021   1.9605   2.0146   2.0412   2.0746
  2.1247   2.1632   2.1823   2.1988   2.2986   2.3111   2.3400   2.3718
  2.3803   2.4150   2.4410   2.4560   2.5435   2.5817   2.5904   2.6117
  2.6632   2.6720   2.7021   2.8149   2.8467   2.8592   2.8779   2.9356
  3.0172   3.1496   3.1549   3.1865   3.2256   3.2630   3.3382   3.3724
  3.3935   3.4195   3.4445   3.4620   3.4940   3.5578   3.5752   3.6007
  3.6290   3.7011   3.7215   3.7504   3.7860   3.8133   3.8313   3.8599
  3.9118   3.9534   3.9827   4.0258   4.0940   4.1288   4.1689   4.2250
  4.2896   4.2996   4.3321   4.4318   4.5913   4.6991   4.7117   4.7808
  4.7973   4.9051   5.0469   5.1141   5.1208   5.1402   5.1447   5.1633
  5.1661   5.1791   5.1927   5.2043   5.2158   5.2372   5.2477   5.2612
  5.2681   5.2742   5.2908   5.3049   5.3170   5.3267   5.3457   5.3810
  5.3912   5.4308   5.4678   5.4908   5.5497   5.5664   5.5804   5.5949
  5.6455   5.6524   5.6748   5.7027   5.7146   5.7382   5.8286   5.8900
  6.0624   6.0757   6.1306   6.2637   6.4261   6.4935   6.5920   6.6082
  6.6757   6.7099   6.7841   6.8741   6.9227   6.9697   6.9984   7.0083
  7.0290   7.0451   7.0809   7.1343   7.1397   7.1461   7.1792   7.2358
  7.2613   7.2682   7.3092   7.3243   7.3539   7.3730   7.4038   7.4191
  7.4672   7.5079   7.5343   7.5456   7.5576   7.6530   7.6836   7.7461
  7.8087   7.8485   7.8934   7.9028   7.9772   8.0665   8.1665  24.9821
 25.1632  50.4924  50.5127  50.5736  50.6151  50.7137  50.7483
 --------------------------------------------------------------
 
          Ground-State Mulliken Net Atomic Charges

     Atom                 Charge (a.u.)    Spin (a.u.)
  --------------------------------------------------------
      1 C                     0.351218       0.000169
      2 O                    -0.432917       0.001558
      3 H                     0.380283      -0.009106
      4 C                     0.247887      -0.022178
      5 O                    -0.312887      -0.001969
      6 O                    -0.459288      -0.001475
      7 O                    -0.291018      -0.000782
      8 H                     0.341278       0.000121
      9 O                    -0.085961       0.517700
     10 O                    -0.112525       0.515490
     11 H                     0.373930       0.000472
  --------------------------------------------------------
  Sum of atomic charges =     0.000000
  Sum of spin   charges =     1.000000

 -----------------------------------------------------------------
                    Cartesian Multipole Moments
 -----------------------------------------------------------------
    Charge (ESU x 10^10)
                 0.0000
    Dipole Moment (Debye)
         X      -5.2360      Y       1.8023      Z      -2.3993
       Tot       6.0350
    Quadrupole Moments (Debye-Ang)
        XX     -45.0536     XY       5.1697     YY     -41.9506
        XZ      -0.1632     YZ       0.8297     ZZ     -50.7887
    Octopole Moments (Debye-Ang^2)
       XXX      44.1497    XXY     -18.0126    XYY       9.7885
       YYY      -7.6739    XXZ     -31.2621    XYZ       1.0627
       YYZ     -30.4896    XZZ      32.9010    YZZ      -8.8044
       ZZZ     -92.5011
    Hexadecapole Moments (Debye-Ang^3)
      XXXX    -501.5825   XXXY      56.0039   XXYY    -115.7235
      XYYY      32.5634   YYYY    -247.1735   XXXZ      86.3086
      XXYZ      -8.1253   XYYZ      30.6132   YYYZ     -30.5437
      XXZZ    -160.4432   XYZZ      17.9874   YYZZ    -102.7949
      XZZZ     109.2870   YZZZ     -36.9993   ZZZZ    -344.5254
 -----------------------------------------------------------------
 Calculating analytic gradient of the SCF energy
 Gradient of CDS energy
            1           2           3           4           5           6
    1   0.0026969  -0.0008646  -0.0002663  -0.0021673   0.0006137   0.0011625
    2   0.0024449   0.0009149   0.0001892  -0.0017155   0.0029110  -0.0013284
    3  -0.0003282  -0.0002722  -0.0000135  -0.0012796   0.0004135   0.0007208
            7           8           9          10          11
    1  -0.0008177   0.0000132  -0.0001729   0.0001073  -0.0003046
    2  -0.0034208   0.0003205   0.0000774  -0.0001121  -0.0002810
    3   0.0007248  -0.0001169   0.0000119   0.0002174  -0.0000780
 Gradient of SCF Energy
            1           2           3           4           5           6
    1  -0.0000351   0.0002004  -0.0018455   0.0010037   0.0224944  -0.0027906
    2   0.0002288   0.0004275   0.0049704  -0.0007738  -0.0024068  -0.0007914
    3   0.0007348   0.0005028   0.0007915  -0.0007435   0.0054486  -0.0094466
            7           8           9          10          11
    1   0.0182477  -0.0150433   0.0026582  -0.0018122  -0.0230776
    2  -0.0099052   0.0128740  -0.0025094   0.0011483  -0.0032623
    3   0.0045226  -0.0039668   0.0020429   0.0044788  -0.0043651
 Max gradient component =       2.308E-02
 RMS gradient           =       8.043E-03
 Computing fast CPCM-SWIG gradient
 Updating gradient with PCM contributions...
 -- total gradient after adding PCM contribution --
---------------------------------------------------
  Atom         X              Y              Z     
---------------------------------------------------
   1       0.000011      -0.000012      -0.000016
   2      -0.000011      -0.000014       0.000009
   3       0.000001      -0.000018       0.000005
   4      -0.000046       0.000025      -0.000011
   5      -0.000019       0.000016       0.000022
   6       0.000020      -0.000013       0.000047
   7       0.000021      -0.000022      -0.000069
   8      -0.000010       0.000006       0.000013
   9       0.000034       0.000086      -0.000002
  10       0.000019      -0.000063      -0.000011
  11      -0.000019       0.000011       0.000013
---------------------------------------------------
 Number of fixed atoms: 0
 Gradient time:  CPU 161.18 s  wall 13.64 s
 Geometry Optimization Parameters
   NAtoms,    NIC,     NZ,  NCons,   NDum,   NFix, NCnnct, MaxDiis
       11      68       0       0       0       0       0       0

 Cartesian Hessian Update
 Hessian updated using Powell/Murtagh-Sargent update
  Mixing factors:     0.833105 Powell                      0.166895 Murtagh-Sargent


** GEOMETRY OPTIMIZATION IN DELOCALIZED INTERNAL COORDINATES **
   Searching for a Transition State

   Optimization Cycle:  50

                       Coordinates (Angstroms)
     ATOM                X               Y               Z
      1  C         0.6072589961    0.0995536333    0.2712972596
      2  O         1.4192510827   -0.7394525853    0.5581470688
      3  H        -2.1260616732    1.1525978741    0.6669314370
      4  C        -0.8871968854   -0.2005200305    0.1817492238
      5  O        -1.1409735157   -1.4918035736    0.0903525274
      6  O        -1.6789620209    0.6859210684   -0.2986863993
      7  O         0.9279555595    1.3610302873    0.0358978246
      8  H         0.1400538454    1.8737465506   -0.2114863691
      9  O        -1.2145784868    0.1862517434    2.0046042293
     10  O        -2.1040940641    1.1019168681    1.9304935257
     11  H        -2.0845900376   -1.6251677360   -0.0954806277
   Point Group: c1    Number of degrees of freedom:    27


   Energy is   -529.297338464

 Hessian updated using Powell/Murtagh-Sargent update
  Mixing factors:     0.981277 Powell                      0.018723 Murtagh-Sargent

 27 Hessian modes will be used to form the next step
  Hessian Eigenvalues:
    -0.033959    0.002523    0.007072    0.012713    0.016174    0.035373
     0.042614    0.061062    0.085228    0.093046    0.106900    0.132289
     0.148910    0.179179    0.201376    0.209056    0.235922    0.275859
     0.310032    0.319094    0.335667    0.390950    0.427180    0.431470
     0.475921    0.515954    0.778608

 Transition state search - taking P-RFO step
 Searching for Lamda that Maximizes Along the Lowest mode
 Value Taken    Lamda =   0.00000000
 Searching for Lamda that Minimizes Along All other modes
 Value Taken    Lamda =  -0.00000020
 Step Taken.  Stepsize is  0.003566

                             Maximum     Tolerance    Cnvgd?
         Gradient           0.000047      0.000300     YES
         Displacement       0.001702      0.001200      NO
         Energy change     -0.000000      0.000001     YES


                       Distance Matrix (Angstroms)
             C (  1)   O (  2)   H (  3)   C (  4)   O (  5)   O (  6)
   O (  2)  1.202308
   H (  3)  2.955752  4.020066
   C (  4)  1.526912  2.398296  1.897661
   O (  5)  2.370965  2.709172  2.880226  1.319155
   O (  6)  2.428068  3.516359  1.161939  1.281986  2.276679
   O (  7)  1.322718  2.219492  3.125487  2.398852  3.524499  2.713621
   H (  8)  1.897135  3.009567  2.535144  2.347863  3.613733  2.174247
   O (  9)  2.516140  3.144237  1.885204  1.891976  2.546693  2.402180
   O ( 10)  3.333032  4.205703  1.264769  2.497056  3.322816  2.307170
   H ( 11)  3.217956  3.672686  2.880794  1.881549  0.970944  2.355198
             O (  7)   H (  8)   O (  9)   O ( 10)
   H (  8)  0.972042
   O (  9)  3.137891  3.097374
   O ( 10)  3.584684  3.196873  1.278739
   H ( 11)  4.243827  4.147879  2.906633  3.397343
 
 Final energy is   -529.297338463922     


 ******************************
 **  OPTIMIZATION CONVERGED  **
 ******************************

                       Coordinates (Angstroms)
     ATOM                X               Y               Z
      1  C         0.6072589961    0.0995536333    0.2712972596
      2  O         1.4192510827   -0.7394525853    0.5581470688
      3  H        -2.1260616732    1.1525978741    0.6669314370
      4  C        -0.8871968854   -0.2005200305    0.1817492238
      5  O        -1.1409735157   -1.4918035736    0.0903525274
      6  O        -1.6789620209    0.6859210684   -0.2986863993
      7  O         0.9279555595    1.3610302873    0.0358978246
      8  H         0.1400538454    1.8737465506   -0.2114863691
      9  O        -1.2145784868    0.1862517434    2.0046042293
     10  O        -2.1040940641    1.1019168681    1.9304935257
     11  H        -2.0845900376   -1.6251677360   -0.0954806277

Z-matrix Print:
$molecule
0 2
O 
O  1 1.278739
H  2 1.264769 1 95.662978
O  3 1.161939 2 143.849417 1 1.675694 0
C  4 1.281986 3 101.766481 2 0.421012 0
O  5 1.319155 4 122.145477 3 108.878389 0
H  6 0.970944 5 109.552924 4 -18.857200 0
C  5 1.526912 4 119.378098 3 -100.052072 0
O  8 1.202308 5 122.537916 4 -170.805052 0
O  8 1.322718 5 114.474375 4 10.573909 0
H  10 0.972042 8 110.598110 5 -3.524220 0
$end

 
 --------------------------------------------------------------
 
                    Orbital Energies (a.u.)
 --------------------------------------------------------------
 
 Alpha MOs
 -- Occupied --
-19.4564 -19.4509 -19.4003 -19.3999 -19.3688 -19.3514 -10.5371 -10.5112
 -1.3702  -1.2804  -1.2538  -1.1960  -1.1761  -0.9790  -0.8475  -0.7557
 -0.7338  -0.7035  -0.6681  -0.6335  -0.6256  -0.6025  -0.5859  -0.5603
 -0.5335  -0.5165  -0.4946  -0.4725  -0.4532  -0.4222  -0.4057  -0.3956
 -- Virtual --
  0.0206   0.0327   0.0461   0.0579   0.0763   0.0890   0.1045   0.1063
  0.1196   0.1299   0.1516   0.1531   0.1608   0.1869   0.1897   0.2136
  0.2314   0.2355   0.2537   0.2576   0.2635   0.2868   0.2917   0.2994
  0.3034   0.3105   0.3202   0.3213   0.3249   0.3397   0.3446   0.3490
  0.3512   0.3560   0.3571   0.3775   0.3941   0.4027   0.4066   0.4131
  0.4291   0.4438   0.4871   0.5080   0.5246   0.5821   0.6019   0.6136
  0.6245   0.6492   0.6658   0.7058   0.7320   0.7501   0.7693   0.7906
  0.8239   0.8348   0.8495   0.8824   0.9051   0.9215   0.9467   0.9770
  1.0335   1.0571   1.0662   1.0788   1.0893   1.0992   1.1159   1.1227
  1.1324   1.1535   1.1691   1.1768   1.2017   1.2050   1.2084   1.2191
  1.2453   1.2558   1.2598   1.2693   1.3000   1.3338   1.3827   1.4307
  1.4545   1.4735   1.5006   1.5144   1.5302   1.5531   1.5922   1.6244
  1.6309   1.6598   1.6772   1.7173   1.7306   1.7510   1.7708   1.8129
  1.8551   1.8760   1.8996   1.9567   2.0113   2.0289   2.0719   2.1207
  2.1605   2.1725   2.1963   2.2866   2.2961   2.3356   2.3674   2.3780
  2.4141   2.4404   2.4553   2.5402   2.5813   2.5870   2.6110   2.6615
  2.6690   2.6942   2.8151   2.8469   2.8594   2.8772   2.9359   3.0188
  3.1507   3.1551   3.1868   3.2260   3.2638   3.3365   3.3731   3.3939
  3.4199   3.4449   3.4629   3.4944   3.5583   3.5755   3.6012   3.6298
  3.7016   3.7217   3.7511   3.7864   3.8134   3.8319   3.8613   3.9116
  3.9536   3.9830   4.0266   4.0945   4.1292   4.1704   4.2248   4.2891
  4.2996   4.3321   4.4319   4.5523   4.6784   4.6898   4.7753   4.7795
  4.8932   5.0118   5.0545   5.1084   5.1246   5.1284   5.1490   5.1609
  5.1651   5.1842   5.1945   5.2033   5.2115   5.2378   5.2443   5.2477
  5.2585   5.2672   5.2897   5.3119   5.3174   5.3343   5.3750   5.3867
  5.4242   5.4667   5.4881   5.5466   5.5607   5.5761   5.5914   5.6302
  5.6471   5.6669   5.6922   5.7019   5.7353   5.8275   5.8888   6.0622
  6.0756   6.1308   6.2627   6.4256   6.4875   6.5418   6.6074   6.6672
  6.7065   6.7814   6.8248   6.9169   6.9288   6.9894   6.9980   7.0203
  7.0330   7.0449   7.0839   7.1058   7.1266   7.1766   7.2292   7.2457
  7.2661   7.2982   7.3186   7.3450   7.3558   7.3658   7.4129   7.4560
  7.5034   7.5293   7.5370   7.5514   7.6501   7.6825   7.7430   7.8075
  7.8480   7.8931   7.8990   7.9756   8.0535   8.1471  24.9823  25.1632
 50.4808  50.5011  50.5736  50.6147  50.7136  50.7482
 
 Beta MOs
 -- Occupied --
-19.4408 -19.4356 -19.4003 -19.3999 -19.3689 -19.3513 -10.5375 -10.5112
 -1.3432  -1.2788  -1.2535  -1.1958  -1.1760  -0.9406  -0.8440  -0.7556
 -0.7271  -0.7019  -0.6660  -0.6064  -0.6027  -0.5855  -0.5616  -0.5475
 -0.5235  -0.5152  -0.4888  -0.4707  -0.4529  -0.4142  -0.3843
 -- Virtual --
 -0.0396   0.0248   0.0330   0.0463   0.0582   0.0768   0.0894   0.1048
  0.1066   0.1205   0.1306   0.1533   0.1542   0.1613   0.1902   0.1920
  0.2172   0.2328   0.2381   0.2555   0.2588   0.2652   0.2874   0.2982
  0.3000   0.3038   0.3110   0.3212   0.3224   0.3272   0.3409   0.3472
  0.3499   0.3523   0.3573   0.3597   0.3801   0.3951   0.4046   0.4073
  0.4147   0.4298   0.4438   0.4877   0.5082   0.5251   0.5828   0.6028
  0.6142   0.6251   0.6491   0.6659   0.7060   0.7322   0.7504   0.7702
  0.7906   0.8275   0.8352   0.8502   0.8830   0.9072   0.9226   0.9475
  0.9783   1.0384   1.0613   1.0697   1.0842   1.0908   1.1026   1.1169
  1.1249   1.1371   1.1639   1.1731   1.1847   1.2043   1.2088   1.2124
  1.2273   1.2470   1.2618   1.2640   1.2730   1.3087   1.3370   1.3863
  1.4362   1.4590   1.4761   1.5087   1.5168   1.5345   1.5678   1.5994
  1.6268   1.6364   1.6635   1.6861   1.7232   1.7386   1.7561   1.7747
  1.8173   1.8584   1.8798   1.9021   1.9605   2.0146   2.0412   2.0746
  2.1247   2.1632   2.1823   2.1988   2.2986   2.3111   2.3400   2.3718
  2.3803   2.4150   2.4410   2.4560   2.5435   2.5817   2.5904   2.6117
  2.6632   2.6720   2.7021   2.8149   2.8467   2.8592   2.8779   2.9356
  3.0172   3.1496   3.1549   3.1865   3.2256   3.2630   3.3382   3.3724
  3.3935   3.4195   3.4445   3.4620   3.4940   3.5578   3.5752   3.6007
  3.6290   3.7011   3.7215   3.7504   3.7860   3.8133   3.8313   3.8599
  3.9118   3.9534   3.9827   4.0258   4.0940   4.1288   4.1689   4.2250
  4.2896   4.2996   4.3321   4.4318   4.5913   4.6991   4.7117   4.7808
  4.7973   4.9051   5.0469   5.1141   5.1208   5.1402   5.1447   5.1633
  5.1661   5.1791   5.1927   5.2043   5.2158   5.2372   5.2477   5.2612
  5.2681   5.2742   5.2908   5.3049   5.3170   5.3267   5.3457   5.3810
  5.3912   5.4308   5.4678   5.4908   5.5497   5.5664   5.5804   5.5949
  5.6455   5.6524   5.6748   5.7027   5.7146   5.7382   5.8286   5.8900
  6.0624   6.0757   6.1306   6.2637   6.4261   6.4935   6.5920   6.6082
  6.6757   6.7099   6.7841   6.8741   6.9227   6.9697   6.9984   7.0083
  7.0290   7.0451   7.0809   7.1343   7.1397   7.1461   7.1792   7.2358
  7.2613   7.2682   7.3092   7.3243   7.3539   7.3730   7.4038   7.4191
  7.4672   7.5079   7.5343   7.5456   7.5576   7.6530   7.6836   7.7461
  7.8087   7.8485   7.8934   7.9028   7.9772   8.0665   8.1665  24.9821
 25.1632  50.4924  50.5127  50.5736  50.6151  50.7137  50.7483
 --------------------------------------------------------------
 
          Ground-State Mulliken Net Atomic Charges

     Atom                 Charge (a.u.)    Spin (a.u.)
  --------------------------------------------------------
      1 C                     0.351218       0.000169
      2 O                    -0.432917       0.001558
      3 H                     0.380283      -0.009106
      4 C                     0.247887      -0.022178
      5 O                    -0.312887      -0.001969
      6 O                    -0.459288      -0.001475
      7 O                    -0.291018      -0.000782
      8 H                     0.341278       0.000121
      9 O                    -0.085961       0.517700
     10 O                    -0.112525       0.515490
     11 H                     0.373930       0.000472
  --------------------------------------------------------
  Sum of atomic charges =     0.000000
  Sum of spin   charges =     1.000000

 -----------------------------------------------------------------
                    Cartesian Multipole Moments
 -----------------------------------------------------------------
    Charge (ESU x 10^10)
                 0.0000
    Dipole Moment (Debye)
         X      -5.2360      Y       1.8023      Z      -2.3993
       Tot       6.0350
    Quadrupole Moments (Debye-Ang)
        XX     -45.0536     XY       5.1697     YY     -41.9506
        XZ      -0.1632     YZ       0.8297     ZZ     -50.7887
    Octopole Moments (Debye-Ang^2)
       XXX      44.1497    XXY     -18.0126    XYY       9.7885
       YYY      -7.6739    XXZ     -31.2621    XYZ       1.0627
       YYZ     -30.4896    XZZ      32.9010    YZZ      -8.8044
       ZZZ     -92.5011
    Hexadecapole Moments (Debye-Ang^3)
      XXXX    -501.5825   XXXY      56.0039   XXYY    -115.7235
      XYYY      32.5634   YYYY    -247.1735   XXXZ      86.3086
      XXYZ      -8.1253   XYYZ      30.6132   YYYZ     -30.5437
      XXZZ    -160.4432   XYZZ      17.9874   YYZZ    -102.7949
      XZZZ     109.2870   YZZZ     -36.9993   ZZZZ    -344.5254
 -----------------------------------------------------------------
 Total job time:  4615.45s(wall), 66417.26s(cpu) 
 Fri May  5 10:42:04 2023

        *************************************************************
        *                                                           *
        *  Thank you very much for using Q-Chem.  Have a nice day.  *
        *                                                           *
        *************************************************************


