
Running Job 1 of 2 Q_in.in
qchem Q_in.in_216712.0 /scratch/ari.fischer/qChem1630574.hpc-mn1/qchem216712/ 0
/usr/local/qchem-5.4.1/exe/qcprog.exe_s Q_in.in_216712.0 /scratch/ari.fischer/qChem1630574.hpc-mn1/qchem216712/
                  Welcome to Q-Chem
     A Quantum Leap Into The Future Of Chemistry


 Q-Chem 5.4, Q-Chem, Inc., Pleasanton, CA (2021)

 License issued to: Nanyang Technological University (site)

 E. Epifanovsky,  A. T. B. Gilbert,  Xintian Feng,  Joonho Lee,  Yuezhi Mao,  
 N. Mardirossian,  P. Pokhilko,  A. White,  M. Wormit,  M. P. Coons,  
 A. L. Dempwolff,  Zhengting Gan,  D. Hait,  P. R. Horn,  L. D. Jacobson,  
 I. Kaliman,  J. Kussmann,  A. W. Lange,  Ka Un Lao,  D. S. Levine,  Jie Liu,  
 S. C. McKenzie,  A. F. Morrison,  K. Nanda,  F. Plasser,  D. R. Rehn,  
 M. L. Vidal,  Zhi-Qiang You,  Ying Zhu,  B. Alam,  B. Albrecht,  
 A. Aldossary,  E. Alguire,  J. H. Andersen,  D. Barton,  K. Begam,  A. Behn,  
 Y. A. Bernard,  E. J. Berquist,  H. Burton,  A. Carreras,  K. Carter-Fenk,  
 R. Chakraborty,  A. D. Chien,  K. D. Closser,  V. Cofer-Shabica,  
 S. Dasgupta,  Jia Deng,  M. de Wergifosse,  M. Diedenhofen,  Hainam Do,  
 S. Ehlert,  Po-Tung Fang,  S. Fatehi,  Qingguo Feng,  T. Friedhoff,  
 J. Gayvert,  Qinghui Ge,  G. Gidofalvi,  M. Goldey,  J. Gomes,  
 C. Gonzalez-Espinoza,  S. Gulania,  A. Gunina,  M. W. D. Hanson-Heine,  
 P. H. P. Harbach,  A. W. Hauser,  M. F. Herbst,  M. Hernandez Vera,  
 M. Hodecker,  Z. C. Holden,  S. Houck,  Xunkun Huang,  Kerwin Hui,  
 B. C. Huynh,  M. Ivanov,  Hyunjun Ji,  Hanjie Jiang,  B. Kaduk,  S. Kaehler,  
 K. Khistyaev,  Jaehoon Kim,  P. Klunzinger,  Z. Koczor-Benda,  
 Joong Hoon Koh,  D. Kosenkov,  L. Koulias,  T. Kowalczyk,  C. M. Krauter,  
 K. Kue,  A. Kunitsa,  T. Kus,  A. Landau,  K. V. Lawler,  D. Lefrancois,  
 S. Lehtola,  Rain Li,  Yi-Pei Li,  Jiashu Liang,  M. Liebenthal,  
 Hung-Hsuan Lin,  You-Sheng Lin,  Fenglai Liu,  Kuan-Yu Liu,  
 M. Loipersberger,  A. Luenser,  A. Manjanath,  P. Manohar,  E. Mansoor,  
 S. F. Manzer,  Shan-Ping Mao,  A. V. Marenich,  T. Markovich,  S. Mason,  
 S. A. Maurer,  P. F. McLaughlin,  M. F. S. J. Menger,  J.-M. Mewes,  
 S. A. Mewes,  P. Morgante,  J. W. Mullinax,  K. J. Oosterbaan,  G. Paran,  
 Alexander C. Paul,  Suranjan K. Paul,  F. Pavosevic,  Zheng Pei,  S. Prager,  
 E. I. Proynov,  E. Ramos,  B. Rana,  A. E. Rask,  A. Rettig,  R. M. Richard,  
 F. Rob,  E. Rossomme,  T. Scheele,  M. Scheurer,  M. Schneider,  
 N. Sergueev,  S. M. Sharada,  W. Skomorowski,  D. W. Small,  C. J. Stein,  
 Yu-Chuan Su,  E. J. Sundstrom,  Zhen Tao,  J. Thirman,  T. Tsuchimochi,  
 N. M. Tubman,  S. P. Veccham,  O. Vydrov,  J. Wenzel,  J. Witte,  A. Yamada,  
 Kun Yao,  S. Yeganeh,  S. R. Yost,  A. Zech,  Igor Ying Zhang,  Xing Zhang,  
 Yu Zhang,  D. Zuev,  A. Aspuru-Guzik,  A. T. Bell,  N. A. Besley,  
 K. B. Bravaya,  B. R. Brooks,  D. Casanova,  Jeng-Da Chai,  S. Coriani,  
 C. J. Cramer,  A. E. DePrince, III,  R. A. DiStasio Jr.,  A. Dreuw,  
 B. D. Dunietz,  T. R. Furlani,  W. A. Goddard III,  S. Grimme,  
 S. Hammes-Schiffer,  T. Head-Gordon,  W. J. Hehre,  Chao-Ping Hsu,  
 T.-C. Jagau,  Yousung Jung,  A. Klamt,  Jing Kong,  D. S. Lambrecht,  
 WanZhen Liang,  N. J. Mayhall,  C. W. McCurdy,  J. B. Neaton,  
 C. Ochsenfeld,  J. A. Parkhill,  R. Peverati,  V. A. Rassolov,  Yihan Shao,  
 L. V. Slipchenko,  T. Stauch,  R. P. Steele,  J. E. Subotnik,  
 A. J. W. Thom,  A. Tkatchenko,  D. G. Truhlar,  T. Van Voorhis,  
 T. A. Wesolowski,  K. B. Whaley,  H. L. Woodcock III,  P. M. Zimmerman,  
 S. Faraji,  P. M. W. Gill,  M. Head-Gordon,  J. M. Herbert,  A. I. Krylov

 Additional authors for Version 5.4.1: 
 S. Kotaru,  Shaozhi Li,  Xiangyuan Li,  F. Matz,  A. Molle,  Haisheng Ren,  
 Yingli Su,  Hung-Yi Tsai,  C. Utku,  Fang Wang

 Contributors to earlier versions of Q-Chem not listed above: 
 R. D. Adamson,  B. Austin,  R. Baer,  J. Baker,  G. J. O. Beran,  
 K. Brandhorst,  S. T. Brown,  E. F. C. Byrd,  A. K. Chakraborty,  
 G. K. L. Chan,  Chun-Min Chang,  Yunqing Chen,  C.-L. Cheng,  
 Siu Hung Chien,  D. M. Chipman,  D. L. Crittenden,  H. Dachsel,  
 R. J. Doerksen,  A. D. Dutoi,  R. G. Edgar,  J. Fosso-Tande,  
 L. Fusti-Molnar,  D. Ghosh,  A. Ghysels,  A. Golubeva-Zadorozhnaya,  
 J. Gonthier,  M. S. Gordon,  S. R. Gwaltney,  G. Hawkins,  J. E. Herr,  
 A. Heyden,  S. Hirata,  E. G. Hohenstein,  G. Kedziora,  F. J. Keil,  
 C. Kelley,  Jihan Kim,  R. A. King,  R. Z. Khaliullin,  P. P. Korambath,  
 W. Kurlancheek,  A. Laurent,  A. M. Lee,  M. S. Lee,  S. V. Levchenko,  
 Ching Yeh Lin,  D. Liotard,  E. Livshits,  R. C. Lochan,  I. Lotan,  
 L. A. Martinez-Martinez,  P. E. Maslen,  N. Nair,  D. P. O'Neill,  
 D. Neuhauser,  E. Neuscamman,  C. M. Oana,  R. Olivares-Amaya,  R. Olson,  
 T. M. Perrine,  B. Peters,  P. A. Pieniazek,  A. Prociuk,  Y. M. Rhee,  
 J. Ritchie,  M. A. Rohrdanz,  E. Rosta,  N. J. Russ,  H. F. Schaefer III,  
 M. W. Schmidt,  N. E. Schultz,  S. Sharma,  N. Shenvi,  C. D. Sherrill,  
 A. C. Simmonett,  A. Sodt,  T. Stein,  D. Stuck,  K. S. Thanthiriwatte,  
 V. Vanovschi,  L. Vogt,  Tao Wang,  A. Warshel,  M. A. Watson,  
 C. F. Williams,  Q. Wu,  X. Xu,  Jun Yang,  W. Zhang,  Yan Zhao

 Please cite Q-Chem as follows:
 Y. Shao et al., Mol. Phys. 113, 184-215 (2015)
 DOI: 10.1080/00268976.2014.952696

 Q-Chem 5.4.1 for Intel X86 EM64T Linux

 Parts of Q-Chem use Armadillo 9.800.1 (Horizon Scraper).
 http://arma.sourceforge.net/

 Q-Chem begins on Tue Jul 18 17:10:20 2023  

 Host: 
0

     Scratch files written to /scratch/ari.fischer/qChem1630574.hpc-mn1/qchem216712//
 Aug1521 |scratch|qcdevops|jenkins|workspace|build_RNUM 8249   
 Processing $rem in /usr/local/qchem-5.4.1/config/preferences:
 Processing $rem in /home/ari.fischer/.qchemrc:
 Symmetry turned off for PCM/SM12/SMD calculation


!!********************************************.
!!******************Warning*******************.
!!Desired Analytical derivatives not available.
!!Finite difference job might take a long time.
!!********************************************.
!!********************************************.


 2-order derivative to be evaluated numerically with 1-order analytical derivatives

 Checking the input file for inconsistencies... 	...done.

--------------------------------------------------------------
User input:
--------------------------------------------------------------
$molecule
0 2
C         1.4852578028   -0.3677826012   -0.4442991730
O         1.9404829139   -1.2079510295   -1.4843795256
C         0.0690938744    0.1342318223   -0.7265367971
O        -0.8644696628   -0.9077304434   -0.8049627698
O         0.0725886945    0.8382235305   -1.9197368852
O         2.3705587272    0.7060376022   -0.3251156443
H         1.4891703950   -0.8952625560    0.5105522959
H         1.3285012100   -1.9504279673   -1.5658141422
H        -0.2073743679    0.8276091866    0.1389543591
H        -0.9427581896   -1.3259836206    0.0625288767
H        -0.7655400419    1.3080800657   -2.0105723678
H         2.2547608872    1.2786060596   -1.0958986803
O        -0.0594380358    1.9239956717    1.2555433624
H         0.9053177929    1.9879354794    1.1373053912
$end

$rem
BASIS = 6-311++G(2df,2p)
GUI = 2
JOB_TYPE = Frequency
METHOD = wB97M-V
SOLVENT_METHOD = SMD
SCF_ALGORITHM = DIIS_GDM
MAX_SCF_CYCLES = 400
SCF_CONVERGENCE = 7
THRESH = 12
UNRESTRICTED = 1
SYMMETRY_IGNORE = 1
$end

--------------------------------------------------------------
 ----------------------------------------------------------------
             Standard Nuclear Orientation (Angstroms)
    I     Atom           X                Y                Z
 ----------------------------------------------------------------
    1      C       1.4852578028    -0.3677826012    -0.4442991730
    2      O       1.9404829139    -1.2079510295    -1.4843795256
    3      C       0.0690938744     0.1342318223    -0.7265367971
    4      O      -0.8644696628    -0.9077304434    -0.8049627698
    5      O       0.0725886945     0.8382235305    -1.9197368852
    6      O       2.3705587272     0.7060376022    -0.3251156443
    7      H       1.4891703950    -0.8952625560     0.5105522959
    8      H       1.3285012100    -1.9504279673    -1.5658141422
    9      H      -0.2073743679     0.8276091866     0.1389543591
   10      H      -0.9427581896    -1.3259836206     0.0625288767
   11      H      -0.7655400419     1.3080800657    -2.0105723678
   12      H       2.2547608872     1.2786060596    -1.0958986803
   13      O      -0.0594380358     1.9239956717     1.2555433624
   14      H       0.9053177929     1.9879354794     1.1373053912
 ----------------------------------------------------------------
 Nuclear Repulsion Energy =         349.05070217 hartrees
 There are       30 alpha and       29 beta electrons
 Requested basis set is 6-311++G(2df,2p)
 There are 98 shells and 308 basis functions

 Total QAlloc Memory Limit 288000 MB
 Mega-Array Size       188 MB
 MEM_STATIC part       192 MB
 
 Citation of the SMD model:
 Marenich, A.V.; Cramer, C.J.; Truhlar, D.G.
 J. Phys. Chem. B 2009, 113, 6378-6396.
 iSolventCode=           1
 Solvent: water                                                           
 
 vradii
            1           2           3           4           5           6
    1   1.8500000   1.5200000   1.8500000   1.5200000   1.5200000   1.5200000
            7           8           9          10          11          12
    1   1.2000000   1.2000000   1.2000000   1.2000000   1.2000000   1.2000000
           13          14
    1   1.5200000   1.2000000
 Changing PCM_VDW_RADII to SMD_RADIUS
 Discretize the solute cavity surface with Lebedev spheres
	Using 110 Lebedev grid points for each H atom
	Using 194 Lebedev grid points for other atoms
	Atomic van der Waals radii will be scaled by 1.20
 Remove points where switching function is < 1.0e-08
 Keep 1154 surface tesserae and discard 974 interior tesserae
 Molecular Surface Area = 129.442 Angst**2

                       Distance Matrix (Angstroms)
             C (  1)   O (  2)   C (  3)   O (  4)   O (  5)   O (  6)
   O (  2)  1.412402
   C (  3)  1.528789  2.424433
   O (  4)  2.437794  2.901637  1.401206
   O (  5)  2.372130  2.804531  1.385404  2.273578
   O (  6)  1.396801  2.278642  2.405170  3.646904  2.800171
   H (  7)  1.090867  2.069109  2.146361  2.696360  3.304237  2.009813
   H (  8)  1.946056  0.965622  2.576102  2.544648  3.078824  3.111595
   H (  9)  2.152708  3.375205  1.142927  2.081864  2.077667  2.622190
   H ( 10)  2.659001  3.274131  1.943887  0.966233  3.105495  3.906078
   H ( 11)  3.213692  3.732272  1.929580  2.524500  0.965130  3.610863
   H ( 12)  1.930625  2.536268  2.494626  3.820250  2.373715  0.967135
   O ( 13)  3.244657  4.616920  2.673652  3.593388  3.358383  3.144326
   H ( 14)  2.896068  4.261278  2.758513  3.910171  3.370576  2.434927
             H (  7)   H (  8)   H (  9)   H ( 10)   H ( 11)   H ( 12)
   H (  8)  2.334628
   H (  9)  2.446352  3.603143
   H ( 10)  2.510084  2.863573  2.276970
   H ( 11)  4.036646  3.898807  2.272194  3.356702
   H ( 12)  2.809363  3.391967  2.791123  4.283687  3.155902
   O ( 13)  3.301729  4.989749  1.571852  3.572940  3.397859  3.361744
   H ( 14)  3.007746  4.795482  1.892392  3.943677  3.628099  2.703950
             O ( 13)
   H ( 14)  0.974075
 
 A cutoff of  1.0D-12 yielded   4520 shell pairs
 There are     44518 function pairs (     55081 Cartesian)
 Smallest overlap matrix eigenvalue = 5.84E-05
 Guess from superposition of atomic densities
 Warning:  Energy on first SCF cycle will be non-variational
 SAD guess density has 59.000000 electrons

 -----------------------------------------------------------------------
  General SCF calculation program by
  Eric Jon Sundstrom, Paul Horn, Yuezhi Mao, Dmitri Zuev, Alec White,
  David Stuck, Shaama M.S., Shane Yost, Joonho Lee, David Small,
  Daniel Levine, Susi Lehtola, Hugh Burton, Evgeny Epifanovsky,
  Bang C. Huynh
 -----------------------------------------------------------------------
 Exchange:     0.1500 Hartree-Fock + 1.0000 wB97M-V + LR-HF
 Correlation:  1.0000 wB97M-V
 Using SG-2 standard quadrature grid
 Nonlocal Correlation:  VV10 with C = 0.0100 and b = 6.00 and scale = 1.00000
 Grid used for NLC:  SG-1 standard quadrature
 using 8 threads for integral computing
 -------------------------------------------------------
 OpenMP Integral computing Module                
 Release: version 1.0, May 2013, Q-Chem Inc. Pittsburgh 
 -------------------------------------------------------
 
 Citation of the SMD model:
 Marenich, A.V.; Cramer, C.J.; Truhlar, D.G.
 J. Phys. Chem. B 2009, 113, 6378-6396.
 iSolventCode=           1
 Solvent: water                                                           
 
 vradii
            1           2           3           4           5           6
    1   1.8500000   1.5200000   1.8500000   1.5200000   1.5200000   1.5200000
            7           8           9          10          11          12
    1   1.2000000   1.2000000   1.2000000   1.2000000   1.2000000   1.2000000
           13          14
    1   1.5200000   1.2000000
 -------------------------------------------------------
 OpenMP BLAS3 based DFT computing Module                
 Release: version 1.0, May 2013, Q-Chem Inc. Pittsburgh 
 -------------------------------------------------------
 A unrestricted SCF calculation will be
 performed using DIIS, GDM
 SCF converges when RMS gradient is below 1.0e-07
 ---------------------------------------
  Cycle       Energy         DIIS error
 ---------------------------------------
    1    -457.4725211314      1.38e-02  
    2    -456.2479986836      2.45e-03  Done DIIS. Switching to GDM
 ---------------------------------------
  Cycle       Energy        RMS Gradient
 ---------------------------------------
    1    -456.2479986836      3.93e-01   Descent step
    2    -456.4581358953      5.84e-02   Normal BFGS step
    3    -456.4892802963      7.87e-02   Normal BFGS step
    4    -456.5001116513      1.02e-02   Normal BFGS step
    5    -456.5034963181      1.85e-02   Normal BFGS step
    6    -456.5048793399      9.28e-03   Normal BFGS step
    7    -456.5052067304      6.59e-03   Normal BFGS step
    8    -456.5053125413      2.16e-03   Normal BFGS step
    9    -456.5053361422      6.48e-04   Normal BFGS step
   10    -456.5053398087      3.51e-04   Normal BFGS step
   11    -456.5053406525      2.12e-04   Normal BFGS step
   12    -456.5053407884      1.19e-04   Normal BFGS step
   13    -456.5053408371      5.63e-05   Normal BFGS step
   14    -456.5053408462      2.37e-05   Normal BFGS step
   15    -456.5053408478      4.76e-06   Normal BFGS step
   16    -456.5053408479      3.62e-06   Normal BFGS step
   17    -456.5053408480      2.77e-06   Normal BFGS step
   18    -456.5053408480      2.32e-06   Normal BFGS step
   19    -456.5053408480      1.27e-06   Normal BFGS step
   20    -456.5053408480      1.02e-06   Normal BFGS step
   21    -456.5053408480      4.40e-07   Normal BFGS step
   22    -456.5053408480      9.77e-08  Convergence criterion met
 ---------------------------------------
 SCF time:   CPU 997.78s  wall 126.00s 
<S^2> =          0.756423344
(3)  G-ENP(liq) elect-nuc-pol free energy of system     -456.505340848 a.u.
(4)  G-CDS(liq) cavity-dispersion-solvent structure 
     free energy                                                3.3410 kcal/mol
(6)  G-S(liq) free energy of system                     -456.500016604 a.u.
 SCF   energy in the final basis set =     -456.5000166035
 Total energy in the final basis set =     -456.5000166035
 
 --------------------------------------------------------------
 
                    Orbital Energies (a.u.)
 --------------------------------------------------------------
 
 Alpha MOs
 -- Occupied --
-19.3799 -19.3611 -19.3595 -19.3541 -19.3471 -10.4626 -10.4513  -1.2307
 -1.1974  -1.1534  -1.1399  -1.1279  -0.8555  -0.7595  -0.6845  -0.6732
 -0.6429  -0.6339  -0.5784  -0.5715  -0.5345  -0.5197  -0.5025  -0.4835
 -0.4662  -0.4584  -0.4486  -0.4311  -0.4066  -0.3700
 -- Virtual --
  0.0244   0.0412   0.0474   0.0496   0.0692   0.0758   0.0907   0.1044
  0.1175   0.1318   0.1392   0.1429   0.1484   0.1605   0.1755   0.2216
  0.2252   0.2272   0.2325   0.2370   0.2445   0.2520   0.2663   0.2825
  0.2864   0.2945   0.2986   0.3029   0.3101   0.3146   0.3349   0.3404
  0.3457   0.3553   0.3611   0.3673   0.3707   0.3744   0.3875   0.3907
  0.3988   0.4202   0.4281   0.4527   0.4642   0.4781   0.4920   0.5691
  0.5742   0.5972   0.6015   0.6056   0.6214   0.6333   0.6491   0.6704
  0.6885   0.7175   0.7249   0.7346   0.7786   0.8026   0.8184   0.8337
  0.8609   0.8701   0.8959   0.9212   0.9299   0.9711   1.0039   1.0138
  1.0321   1.0564   1.0794   1.0877   1.0922   1.1192   1.1292   1.1320
  1.1508   1.1740   1.1839   1.1987   1.2132   1.2272   1.2300   1.2509
  1.2774   1.2965   1.2975   1.3011   1.3502   1.3576   1.3984   1.4178
  1.4361   1.4393   1.4655   1.4769   1.5155   1.5264   1.5295   1.5554
  1.5940   1.6089   1.6273   1.6481   1.6607   1.7057   1.7221   1.7701
  1.8021   1.8145   1.8696   1.8887   1.9046   1.9087   1.9546   2.0140
  2.0282   2.0587   2.1235   2.1463   2.1782   2.2600   2.3047   2.3171
  2.3454   2.3560   2.3916   2.3974   2.4097   2.4555   2.4665   2.4686
  2.5346   2.5598   2.6555   2.7406   2.7688   2.7970   2.8390   2.8970
  2.9350   2.9802   3.0638   3.1344   3.2158   3.2503   3.2800   3.3332
  3.3659   3.4008   3.4184   3.4713   3.5086   3.5335   3.5765   3.6289
  3.6495   3.6557   3.6636   3.7510   3.7553   3.7571   3.8083   3.8303
  3.8407   3.8508   3.8629   3.8711   3.9236   3.9345   3.9958   4.0045
  4.0546   4.0899   4.1202   4.1940   4.2067   4.2489   4.2598   4.2795
  4.2949   4.3055   4.3527   4.3548   4.3964   4.4139   4.4567   4.5037
  4.6243   4.7186   5.0822   5.0967   5.1248   5.1523   5.1871   5.1902
  5.1945   5.2247   5.2546   5.2603   5.2647   5.2798   5.2848   5.2966
  5.3065   5.3123   5.3399   5.3511   5.3627   5.3812   5.4135   5.4338
  5.4624   5.4868   5.5171   5.5432   5.5888   5.6161   5.6238   5.6288
  5.6511   5.6710   5.6898   5.7148   5.7275   5.8952   5.9321   5.9635
  6.0227   6.0265   6.0898   6.1000   6.1644   6.5101   6.5666   6.7567
  6.7973   6.8833   6.9812   7.0391   7.0469   7.0583   7.1037   7.1249
  7.1502   7.2075   7.2458   7.2587   7.2888   7.3007   7.3151   7.3255
  7.3380   7.3605   7.3890   7.4083   7.4655   7.4710   7.5422   7.6149
  7.6907   7.7220   7.7384   7.8251   7.8507   7.8799   7.9140  24.7280
 24.8530  50.4660  50.5741  50.5859  50.6135  50.6615
 
 Beta MOs
 -- Occupied --
-19.3604 -19.3590 -19.3583 -19.3542 -19.3468 -10.4589 -10.4511  -1.2287
 -1.1963  -1.1513  -1.1389  -1.0737  -0.8513  -0.7568  -0.6761  -0.6710
 -0.6330  -0.6315  -0.5710  -0.5547  -0.5312  -0.5034  -0.4832  -0.4757
 -0.4531  -0.4322  -0.4225  -0.4141  -0.3827
 -- Virtual --
 -0.0749   0.0251   0.0416   0.0478   0.0503   0.0694   0.0768   0.0915
  0.1046   0.1179   0.1321   0.1394   0.1437   0.1491   0.1632   0.1771
  0.2225   0.2264   0.2292   0.2350   0.2392   0.2458   0.2544   0.2666
  0.2837   0.2879   0.2956   0.3005   0.3044   0.3112   0.3171   0.3381
  0.3412   0.3467   0.3559   0.3624   0.3701   0.3717   0.3758   0.3894
  0.3956   0.4014   0.4268   0.4298   0.4584   0.4657   0.4790   0.4947
  0.5711   0.5760   0.5999   0.6031   0.6076   0.6226   0.6361   0.6520
  0.6731   0.6897   0.7202   0.7254   0.7361   0.7802   0.8037   0.8192
  0.8350   0.8615   0.8717   0.8971   0.9224   0.9312   0.9730   1.0048
  1.0200   1.0355   1.0578   1.0826   1.0904   1.0935   1.1215   1.1332
  1.1347   1.1523   1.1754   1.2030   1.2068   1.2241   1.2323   1.2362
  1.2520   1.2786   1.2988   1.3009   1.3030   1.3545   1.3587   1.4007
  1.4192   1.4386   1.4446   1.4698   1.4800   1.5183   1.5280   1.5325
  1.5579   1.6021   1.6176   1.6326   1.6579   1.6767   1.7084   1.7273
  1.7726   1.8084   1.8270   1.8716   1.8989   1.9086   1.9114   1.9580
  2.0239   2.0403   2.0649   2.1245   2.1487   2.1802   2.2652   2.3082
  2.3212   2.3473   2.3598   2.3934   2.3994   2.4213   2.4567   2.4683
  2.4704   2.5370   2.5658   2.6570   2.7430   2.7733   2.8111   2.8411
  2.9000   2.9336   2.9832   3.0657   3.1378   3.2182   3.2504   3.2821
  3.3343   3.3690   3.4029   3.4208   3.4731   3.5118   3.5376   3.5802
  3.6321   3.6551   3.6591   3.6667   3.7557   3.7581   3.7657   3.8094
  3.8325   3.8423   3.8561   3.8646   3.8742   3.9261   3.9376   3.9982
  4.0144   4.0565   4.0926   4.1226   4.1951   4.2107   4.2524   4.2619
  4.2806   4.2952   4.3065   4.3535   4.3553   4.3922   4.4113   4.4549
  4.4999   4.6218   4.7231   5.1312   5.1372   5.1431   5.1910   5.1931
  5.2044   5.2155   5.2426   5.2660   5.2726   5.2817   5.2922   5.2969
  5.3049   5.3132   5.3360   5.3595   5.3739   5.3766   5.3986   5.4169
  5.4357   5.4726   5.4922   5.5200   5.5457   5.5901   5.6208   5.6338
  5.6411   5.6656   5.6895   5.6977   5.7177   5.7320   5.8965   5.9343
  5.9640   6.0240   6.0285   6.0908   6.1014   6.1659   6.5147   6.5674
  6.7603   6.8006   6.9771   7.0118   7.0494   7.0578   7.1043   7.1311
  7.1432   7.1894   7.2125   7.2497   7.2658   7.2952   7.3142   7.3210
  7.3284   7.3590   7.3772   7.3940   7.4137   7.4692   7.4756   7.6102
  7.6163   7.6924   7.7242   7.7406   7.8262   7.8549   7.8817   7.9169
 24.7297  24.8545  50.4806  50.5746  50.5863  50.6140  50.6619
 --------------------------------------------------------------
 
          Ground-State Mulliken Net Atomic Charges

     Atom                 Charge (a.u.)    Spin (a.u.)
  --------------------------------------------------------
      1 C                    -0.004299      -0.001143
      2 O                    -0.452293       0.008267
      3 C                    -0.224276       0.170744
      4 O                    -0.421961       0.039135
      5 O                    -0.396575       0.022513
      6 O                    -0.382121      -0.000232
      7 H                     0.273969      -0.001429
      8 H                     0.328465      -0.000342
      9 H                     0.373490      -0.019548
     10 H                     0.339568      -0.001837
     11 H                     0.362825       0.000340
     12 H                     0.324625      -0.000300
     13 O                    -0.450100       0.794993
     14 H                     0.328683      -0.011160
  --------------------------------------------------------
  Sum of atomic charges =     0.000000
  Sum of spin   charges =     1.000000

 -----------------------------------------------------------------
                    Cartesian Multipole Moments
 -----------------------------------------------------------------
    Charge (ESU x 10^10)
                 0.0000
    Dipole Moment (Debye)
         X      -1.9859      Y      -1.1388      Z       1.0592
       Tot       2.5224
    Quadrupole Moments (Debye-Ang)
        XX     -51.4339     XY       3.1713     YY     -36.8594
        XZ       4.9304     YZ      -6.9107     ZZ     -48.0889
    Octopole Moments (Debye-Ang^2)
       XXX    -122.4259    XXY       4.8076    XYY     -21.4588
       YYY     -34.0780    XXZ      33.4510    XYZ       3.8844
       YYZ      15.0422    XZZ     -36.1882    YZZ      -3.5616
       ZZZ      83.4319
    Hexadecapole Moments (Debye-Ang^3)
      XXXX    -596.2888   XXXY      30.1858   XXYY    -126.0657
      XYYY      22.3656   YYYY    -313.5669   XXXZ      86.9323
      XXYZ     -46.9167   XYYZ      26.6396   YYYZ     -57.3497
      XXZZ    -150.6235   XYZZ       5.5385   YYZZ    -101.6131
      XZZZ      94.4764   YZZZ     -71.5203   ZZZZ    -406.0209
 -----------------------------------------------------------------
 Calculating analytic gradient of the SCF energy
 Gradient of CDS energy
            1           2           3           4           5           6
    1   0.0032789  -0.0004393  -0.0026591   0.0025306   0.0000325  -0.0025913
    2   0.0019215   0.0009839  -0.0002327   0.0027473  -0.0025549  -0.0030637
    3  -0.0002130   0.0007926  -0.0039444   0.0000840   0.0039442  -0.0004047
            7           8           9          10          11          12
    1  -0.0000459   0.0000328   0.0001700  -0.0003310  -0.0002283   0.0003253
    2   0.0000162  -0.0004340   0.0000946  -0.0003347   0.0003203   0.0003148
    3   0.0001046  -0.0002787  -0.0000144   0.0002144  -0.0003009  -0.0002078
           13          14
    1  -0.0003331   0.0002580
    2  -0.0000851   0.0003066
    3  -0.0000223   0.0002465
 Gradient of SCF Energy
            1           2           3           4           5           6
    1   0.0008392   0.0102825   0.0021115  -0.0022192   0.0115464   0.0047508
    2   0.0083897   0.0103032  -0.0050514   0.0092698  -0.0095970  -0.0093123
    3  -0.0099343  -0.0025196  -0.0059016  -0.0201973  -0.0018879   0.0047420
            7           8           9          10          11          12
    1  -0.0031509  -0.0077333  -0.0008018   0.0005634  -0.0119292  -0.0021466
    2  -0.0065259  -0.0098688   0.0044466  -0.0099360   0.0078744   0.0070676
    3   0.0095119   0.0023516   0.0060803   0.0184019  -0.0000173  -0.0031984
           13          14
    1  -0.0111427   0.0090301
    2   0.0023559   0.0005842
    3   0.0039868  -0.0014181
 Max gradient component =       2.020E-02
 RMS gradient           =       7.886E-03
 Computing fast CPCM-SWIG gradient
 Updating gradient with PCM contributions...
 -- total gradient after adding PCM contribution --
---------------------------------------------------
  Atom         X              Y              Z     
---------------------------------------------------
   1      -0.000035      -0.000016       0.000046
   2       0.000036      -0.000093       0.000033
   3       0.000150      -0.000280      -0.000455
   4      -0.000091      -0.000092       0.000015
   5      -0.000030       0.000055       0.000101
   6       0.000016       0.000041      -0.000001
   7       0.000012       0.000050      -0.000016
   8      -0.000039       0.000096      -0.000078
   9      -0.000035       0.000375       0.000489
  10       0.000028       0.000006      -0.000033
  11      -0.000016      -0.000030      -0.000014
  12      -0.000011      -0.000031       0.000009
  13      -0.000067       0.000020      -0.000086
  14       0.000082      -0.000101      -0.000012
---------------------------------------------------
 Number of fixed atoms: 0
 Gradient time:  CPU 113.67 s  wall 17.12 s
 ######################################################
 ######################################################
 # Starting finite difference calculation for IDERIV  #
 Finite diff step size:  1.88973e-03 a.u.
 ----------------------------------------------------------------
             Standard Nuclear Orientation (Angstroms)
    I     Atom           X                Y                Z
 ----------------------------------------------------------------
    1      C       1.4862578028    -0.3677826012    -0.4442991730
    2      O       1.9404829139    -1.2079510295    -1.4843795256
    3      C       0.0690938744     0.1342318223    -0.7265367971
    4      O      -0.8644696628    -0.9077304434    -0.8049627698
    5      O       0.0725886945     0.8382235305    -1.9197368852
    6      O       2.3705587272     0.7060376022    -0.3251156443
    7      H       1.4891703950    -0.8952625560     0.5105522959
    8      H       1.3285012100    -1.9504279673    -1.5658141422
    9      H      -0.2073743679     0.8276091866     0.1389543591
   10      H      -0.9427581896    -1.3259836206     0.0625288767
   11      H      -0.7655400419     1.3080800657    -2.0105723678
   12      H       2.2547608872     1.2786060596    -1.0958986803
   13      O      -0.0594380358     1.9239956717     1.2555433624
   14      H       0.9053177929     1.9879354794     1.1373053912
 ----------------------------------------------------------------
 Nuclear Repulsion Energy =         349.04659430 hartrees
 There are       30 alpha and       29 beta electrons
 Discretize the solute cavity surface with Lebedev spheres
	Using 110 Lebedev grid points for each H atom
	Using 194 Lebedev grid points for other atoms
	Atomic van der Waals radii will be scaled by 1.20
 Remove points where switching function is < 1.0e-08
 Keep 1153 surface tesserae and discard 975 interior tesserae
 Molecular Surface Area = 129.442 Angst**2

                       Distance Matrix (Angstroms)
             C (  1)   O (  2)   C (  3)   O (  4)   O (  5)   O (  6)
   O (  2)  1.412080
   C (  3)  1.529716  2.424433
   O (  4)  2.438758  2.901637  1.401206
   O (  5)  2.372726  2.804531  1.385404  2.273578
   O (  6)  1.396167  2.278642  2.405170  3.646904  2.800171
   H (  7)  1.090864  2.069109  2.146361  2.696360  3.304237  2.009813
   H (  8)  1.946137  0.965622  2.576102  2.544648  3.078824  3.111595
   H (  9)  2.153494  3.375205  1.142927  2.081864  2.077667  2.622190
   H ( 10)  2.659914  3.274131  1.943887  0.966233  3.105495  3.906078
   H ( 11)  3.214393  3.732272  1.929580  2.524500  0.965130  3.610863
   H ( 12)  1.930227  2.536268  2.494626  3.820250  2.373715  0.967135
   O ( 13)  3.245133  4.616920  2.673652  3.593388  3.358383  3.144326
   H ( 14)  2.896269  4.261278  2.758513  3.910171  3.370576  2.434927
             H (  7)   H (  8)   H (  9)   H ( 10)   H ( 11)   H ( 12)
   H (  8)  2.334628
   H (  9)  2.446352  3.603143
   H ( 10)  2.510084  2.863573  2.276970
   H ( 11)  4.036646  3.898807  2.272194  3.356702
   H ( 12)  2.809363  3.391967  2.791123  4.283687  3.155902
   O ( 13)  3.301729  4.989749  1.571852  3.572940  3.397859  3.361744
   H ( 14)  3.007746  4.795482  1.892392  3.943677  3.628099  2.703950
             O ( 13)
   H ( 14)  0.974075
 
 Requested basis set is 6-311++G(2df,2p)
 There are 98 shells and 308 basis functions
 A cutoff of  1.0D-12 yielded   4520 shell pairs
 There are     44518 function pairs (     55081 Cartesian)
 Smallest overlap matrix eigenvalue = 5.86E-05
 Guess MOs from SCF MO coefficient file

 -----------------------------------------------------------------------
  General SCF calculation program by
  Eric Jon Sundstrom, Paul Horn, Yuezhi Mao, Dmitri Zuev, Alec White,
  David Stuck, Shaama M.S., Shane Yost, Joonho Lee, David Small,
  Daniel Levine, Susi Lehtola, Hugh Burton, Evgeny Epifanovsky,
  Bang C. Huynh
 -----------------------------------------------------------------------
 Exchange:     0.1500 Hartree-Fock + 1.0000 wB97M-V + LR-HF
 Correlation:  1.0000 wB97M-V
 Using SG-2 standard quadrature grid
 Nonlocal Correlation:  VV10 with C = 0.0100 and b = 6.00 and scale = 1.00000
 Grid used for NLC:  SG-1 standard quadrature
 
 Citation of the SMD model:
 Marenich, A.V.; Cramer, C.J.; Truhlar, D.G.
 J. Phys. Chem. B 2009, 113, 6378-6396.
 iSolventCode=           1
 Solvent: water                                                           
 
 vradii
            1           2           3           4           5           6
    1   1.8500000   1.5200000   1.8500000   1.5200000   1.5200000   1.5200000
            7           8           9          10          11          12
    1   1.2000000   1.2000000   1.2000000   1.2000000   1.2000000   1.2000000
           13          14
    1   1.5200000   1.2000000
 -------------------------------------------------------
 OpenMP BLAS3 based DFT computing Module                
 Release: version 1.0, May 2013, Q-Chem Inc. Pittsburgh 
 -------------------------------------------------------
 A unrestricted SCF calculation will be
 performed using Roothaan-Hall, DIIS, GDM
 SCF converges when RMS gradient is below 1.0e-07
 ---------------------------------------
  Cycle       Energy         DIIS error
 ---------------------------------------
    1    -456.4580077214      3.09e-04  Roothaan Step
 ---------------------------------------
  Cycle       Energy         DIIS error
 ---------------------------------------
    1    -456.4973421063      3.48e-04  
    2    -456.5029254015      2.70e-04  Done DIIS. Switching to GDM
 ---------------------------------------
  Cycle       Energy        RMS Gradient
 ---------------------------------------
    1    -456.5029254015      7.79e-03   Normal BFGS step
    2    -456.5029768473      1.06e-02   Normal BFGS step
    3    -456.5053239404      8.08e-04   Normal BFGS step
    4    -456.5053413120      6.79e-04   Normal BFGS step
    5    -456.5053448981      3.50e-04   Normal BFGS step
    6    -456.5053456987      2.62e-04   Normal BFGS step
    7    -456.5053460631      1.74e-04   Normal BFGS step
    8    -456.5053462108      3.05e-05   Normal BFGS step
    9    -456.5053462214      7.55e-06   Normal BFGS step
   10    -456.5053462222      3.79e-06   Normal BFGS step
   11    -456.5053462224      2.28e-06   Normal BFGS step
   12    -456.5053462225      2.10e-06   Normal BFGS step
   13    -456.5053462225      1.88e-06   Normal BFGS step
   14    -456.5053462225      1.50e-06   Normal BFGS step
   15    -456.5053462225      1.12e-06   Normal BFGS step
   16    -456.5053462225      1.20e-06   Normal BFGS step
   17    -456.5053462225      7.80e-07   Normal BFGS step
   18    -456.5053462225      2.30e-07   Normal BFGS step
   19    -456.5053462225      9.28e-08  Convergence criterion met
 ---------------------------------------
 SCF time:   CPU 910.79s  wall 115.00s 
<S^2> =          0.756426130
(3)  G-ENP(liq) elect-nuc-pol free energy of system     -456.505346223 a.u.
(4)  G-CDS(liq) cavity-dispersion-solvent structure 
     free energy                                                3.3449 kcal/mol
(6)  G-S(liq) free energy of system                     -456.500015716 a.u.
 SCF   energy in the final basis set =     -456.5000157165
 Total energy in the final basis set =     -456.5000157165
 
 --------------------------------------------------------------
 
                    Orbital Energies (a.u.)
 --------------------------------------------------------------
 
 Alpha MOs
 -- Occupied --
-19.3799 -19.3611 -19.3595 -19.3542 -19.3471 -10.4626 -10.4513  -1.2307
 -1.1975  -1.1534  -1.1400  -1.1279  -0.8553  -0.7595  -0.6845  -0.6732
 -0.6430  -0.6340  -0.5784  -0.5716  -0.5345  -0.5197  -0.5025  -0.4834
 -0.4662  -0.4584  -0.4486  -0.4311  -0.4065  -0.3699
 -- Virtual --
  0.0244   0.0412   0.0474   0.0496   0.0692   0.0758   0.0907   0.1044
  0.1175   0.1318   0.1392   0.1429   0.1484   0.1605   0.1756   0.2217
  0.2252   0.2272   0.2326   0.2370   0.2445   0.2521   0.2663   0.2826
  0.2864   0.2945   0.2986   0.3030   0.3101   0.3146   0.3348   0.3404
  0.3456   0.3553   0.3611   0.3673   0.3707   0.3743   0.3875   0.3907
  0.3988   0.4203   0.4281   0.4528   0.4642   0.4781   0.4919   0.5692
  0.5742   0.5972   0.6015   0.6056   0.6214   0.6334   0.6491   0.6704
  0.6886   0.7175   0.7249   0.7346   0.7786   0.8026   0.8184   0.8337
  0.8609   0.8701   0.8958   0.9213   0.9299   0.9710   1.0039   1.0138
  1.0321   1.0563   1.0794   1.0877   1.0922   1.1192   1.1293   1.1319
  1.1508   1.1739   1.1839   1.1987   1.2132   1.2272   1.2300   1.2509
  1.2774   1.2965   1.2975   1.3011   1.3501   1.3576   1.3983   1.4177
  1.4360   1.4393   1.4656   1.4768   1.5154   1.5264   1.5295   1.5554
  1.5941   1.6088   1.6272   1.6481   1.6606   1.7054   1.7221   1.7701
  1.8021   1.8145   1.8697   1.8887   1.9046   1.9087   1.9546   2.0141
  2.0283   2.0589   2.1234   2.1463   2.1783   2.2600   2.3048   2.3174
  2.3455   2.3561   2.3917   2.3973   2.4096   2.4557   2.4666   2.4686
  2.5346   2.5599   2.6555   2.7404   2.7689   2.7971   2.8389   2.8971
  2.9352   2.9800   3.0637   3.1340   3.2159   3.2505   3.2800   3.3334
  3.3662   3.4007   3.4185   3.4715   3.5085   3.5334   3.5764   3.6289
  3.6495   3.6557   3.6635   3.7510   3.7553   3.7571   3.8085   3.8302
  3.8407   3.8510   3.8628   3.8713   3.9235   3.9346   3.9957   4.0045
  4.0543   4.0898   4.1195   4.1937   4.2066   4.2490   4.2597   4.2790
  4.2948   4.3054   4.3523   4.3546   4.3962   4.4141   4.4566   4.5035
  4.6239   4.7182   5.0822   5.0967   5.1247   5.1523   5.1871   5.1902
  5.1946   5.2247   5.2546   5.2604   5.2646   5.2797   5.2847   5.2965
  5.3065   5.3123   5.3399   5.3511   5.3627   5.3812   5.4135   5.4340
  5.4623   5.4868   5.5168   5.5430   5.5889   5.6161   5.6239   5.6288
  5.6510   5.6711   5.6899   5.7148   5.7275   5.8958   5.9323   5.9639
  6.0235   6.0268   6.0902   6.1006   6.1648   6.5099   6.5672   6.7578
  6.7975   6.8834   6.9812   7.0391   7.0469   7.0583   7.1037   7.1249
  7.1502   7.2076   7.2458   7.2586   7.2888   7.3008   7.3150   7.3256
  7.3381   7.3605   7.3890   7.4084   7.4655   7.4709   7.5423   7.6152
  7.6906   7.7221   7.7383   7.8255   7.8507   7.8800   7.9140  24.7288
 24.8523  50.4661  50.5741  50.5860  50.6135  50.6616
 
 Beta MOs
 -- Occupied --
-19.3604 -19.3589 -19.3582 -19.3542 -19.3468 -10.4589 -10.4511  -1.2287
 -1.1964  -1.1513  -1.1391  -1.0737  -0.8511  -0.7569  -0.6762  -0.6710
 -0.6330  -0.6316  -0.5710  -0.5547  -0.5312  -0.5034  -0.4833  -0.4757
 -0.4531  -0.4323  -0.4225  -0.4141  -0.3826
 -- Virtual --
 -0.0749   0.0251   0.0416   0.0478   0.0503   0.0694   0.0768   0.0915
  0.1046   0.1179   0.1321   0.1394   0.1437   0.1491   0.1632   0.1772
  0.2225   0.2265   0.2292   0.2350   0.2392   0.2458   0.2544   0.2666
  0.2838   0.2879   0.2956   0.3006   0.3045   0.3112   0.3171   0.3381
  0.3412   0.3466   0.3558   0.3623   0.3701   0.3717   0.3758   0.3894
  0.3957   0.4014   0.4268   0.4297   0.4585   0.4657   0.4790   0.4947
  0.5711   0.5759   0.5999   0.6031   0.6076   0.6227   0.6362   0.6520
  0.6730   0.6897   0.7202   0.7254   0.7362   0.7802   0.8037   0.8192
  0.8350   0.8614   0.8717   0.8970   0.9225   0.9312   0.9729   1.0048
  1.0200   1.0355   1.0578   1.0827   1.0904   1.0935   1.1215   1.1332
  1.1347   1.1523   1.1753   1.2030   1.2068   1.2240   1.2323   1.2362
  1.2520   1.2786   1.2988   1.3009   1.3031   1.3545   1.3587   1.4006
  1.4192   1.4385   1.4446   1.4698   1.4800   1.5182   1.5280   1.5325
  1.5579   1.6022   1.6175   1.6326   1.6578   1.6767   1.7082   1.7273
  1.7725   1.8084   1.8270   1.8716   1.8989   1.9086   1.9114   1.9580
  2.0239   2.0404   2.0650   2.1244   2.1488   2.1803   2.2653   2.3082
  2.3216   2.3474   2.3599   2.3935   2.3993   2.4213   2.4569   2.4684
  2.4704   2.5369   2.5658   2.6570   2.7428   2.7734   2.8112   2.8409
  2.9001   2.9338   2.9831   3.0656   3.1374   3.2183   3.2506   3.2821
  3.3345   3.3693   3.4028   3.4208   3.4733   3.5117   3.5375   3.5801
  3.6321   3.6551   3.6591   3.6667   3.7556   3.7581   3.7657   3.8096
  3.8325   3.8424   3.8561   3.8646   3.8744   3.9261   3.9376   3.9981
  4.0143   4.0562   4.0925   4.1220   4.1948   4.2105   4.2527   4.2618
  4.2801   4.2951   4.3064   4.3531   4.3551   4.3919   4.4115   4.4548
  4.4997   4.6214   4.7227   5.1312   5.1372   5.1430   5.1911   5.1931
  5.2044   5.2155   5.2426   5.2659   5.2726   5.2817   5.2921   5.2969
  5.3048   5.3131   5.3361   5.3594   5.3739   5.3766   5.3986   5.4169
  5.4358   5.4725   5.4922   5.5196   5.5456   5.5902   5.6208   5.6337
  5.6412   5.6656   5.6897   5.6977   5.7177   5.7320   5.8970   5.9345
  5.9643   6.0248   6.0289   6.0912   6.1020   6.1663   6.5145   6.5680
  6.7614   6.8007   6.9772   7.0118   7.0494   7.0579   7.1043   7.1311
  7.1432   7.1895   7.2125   7.2497   7.2658   7.2953   7.3142   7.3210
  7.3286   7.3590   7.3773   7.3940   7.4138   7.4692   7.4756   7.6103
  7.6166   7.6923   7.7243   7.7405   7.8266   7.8548   7.8818   7.9169
 24.7306  24.8538  50.4806  50.5747  50.5864  50.6140  50.6620
 --------------------------------------------------------------
 
          Ground-State Mulliken Net Atomic Charges

     Atom                 Charge (a.u.)    Spin (a.u.)
  --------------------------------------------------------
      1 C                    -0.004502      -0.001097
      2 O                    -0.452230       0.008266
      3 C                    -0.224272       0.170804
      4 O                    -0.421981       0.039165
      5 O                    -0.396573       0.022524
      6 O                    -0.381779      -0.000221
      7 H                     0.273917      -0.001430
      8 H                     0.328525      -0.000342
      9 H                     0.373465      -0.019518
     10 H                     0.339554      -0.001838
     11 H                     0.362819       0.000341
     12 H                     0.324661      -0.000300
     13 O                    -0.450286       0.794805
     14 H                     0.328682      -0.011158
  --------------------------------------------------------
  Sum of atomic charges =     0.000000
  Sum of spin   charges =     1.000000

 -----------------------------------------------------------------
                    Cartesian Multipole Moments
 -----------------------------------------------------------------
    Charge (ESU x 10^10)
                 0.0000
    Dipole Moment (Debye)
         X      -1.9811      Y      -1.1400      Z       1.0569
       Tot       2.5182
    Quadrupole Moments (Debye-Ang)
        XX     -51.4219     XY       3.1736     YY     -36.8614
        XZ       4.9267     YZ      -6.9119     ZZ     -48.0906
    Octopole Moments (Debye-Ang^2)
       XXX    -122.4057    XXY       4.8119    XYY     -21.4581
       YYY     -34.0879    XXZ      33.4432    XYZ       3.8849
       YYZ      15.0340    XZZ     -36.1895    YZZ      -3.5672
       ZZZ      83.4270
    Hexadecapole Moments (Debye-Ang^3)
      XXXX    -596.2883   XXXY      30.2037   XXYY    -126.0743
      XYYY      22.3787   YYYY    -313.5837   XXXZ      86.9215
      XXYZ     -46.9194   XYYZ      26.6379   YYYZ     -57.3588
      XXZZ    -150.6355   XYZZ       5.5448   YYZZ    -101.6216
      XZZZ      94.4770   YZZZ     -71.5225   ZZZZ    -406.0324
 -----------------------------------------------------------------
 Calculating analytic gradient of the SCF energy
 Gradient of CDS energy
            1           2           3           4           5           6
    1   0.0033476  -0.0004633  -0.0026596   0.0025306   0.0000325  -0.0026326
    2   0.0019297   0.0010289  -0.0002326   0.0027473  -0.0025548  -0.0031180
    3  -0.0002607   0.0008466  -0.0039442   0.0000840   0.0039442  -0.0004109
            7           8           9          10          11          12
    1  -0.0000475   0.0000327   0.0001700  -0.0003309  -0.0002283   0.0003244
    2   0.0000174  -0.0004340   0.0000946  -0.0003347   0.0003203   0.0003143
    3   0.0001044  -0.0002787  -0.0000145   0.0002144  -0.0003010  -0.0002079
           13          14
    1  -0.0003331   0.0002575
    2  -0.0000851   0.0003067
    3  -0.0000223   0.0002466
 Gradient of SCF Energy
            1           2           3           4           5           6
    1   0.0018704   0.0100548   0.0018054  -0.0022612   0.0115382   0.0044139
    2   0.0084394   0.0104178  -0.0049340   0.0092514  -0.0095895  -0.0095535
    3  -0.0100027  -0.0023315  -0.0059225  -0.0201958  -0.0019004   0.0047446
            7           8           9          10          11          12
    1  -0.0032748  -0.0077199  -0.0008124   0.0005591  -0.0119220  -0.0021443
    2  -0.0065117  -0.0099034   0.0044283  -0.0099358   0.0078703   0.0070726
    3   0.0094914   0.0023110   0.0060478   0.0183976  -0.0000124  -0.0032030
           13          14
    1  -0.0111458   0.0090385
    2   0.0023634   0.0005848
    3   0.0039966  -0.0014207
 Max gradient component =       2.020E-02
 RMS gradient           =       7.887E-03
 Computing fast CPCM-SWIG gradient
 Updating gradient with PCM contributions...
 -- total gradient after adding PCM contribution --
---------------------------------------------------
  Atom         X              Y              Z     
---------------------------------------------------
   1       0.000973       0.000029      -0.000019
   2      -0.000188       0.000018       0.000216
   3      -0.000158      -0.000172      -0.000489
   4      -0.000131      -0.000109       0.000013
   5      -0.000030       0.000061       0.000088
   6      -0.000308      -0.000187      -0.000010
   7      -0.000098       0.000062      -0.000032
   8      -0.000026       0.000066      -0.000116
   9      -0.000048       0.000363       0.000465
  10       0.000024       0.000005      -0.000032
  11      -0.000015      -0.000031      -0.000009
  12      -0.000013      -0.000033       0.000013
  13      -0.000070       0.000028      -0.000076
  14       0.000088      -0.000100      -0.000012
---------------------------------------------------
 Number of fixed atoms: 0
 Gradient time:  CPU 115.24 s  wall 17.11 s
 ----------------------------------------------------------------
             Standard Nuclear Orientation (Angstroms)
    I     Atom           X                Y                Z
 ----------------------------------------------------------------
    1      C       1.4842578028    -0.3677826012    -0.4442991730
    2      O       1.9404829139    -1.2079510295    -1.4843795256
    3      C       0.0690938744     0.1342318223    -0.7265367971
    4      O      -0.8644696628    -0.9077304434    -0.8049627698
    5      O       0.0725886945     0.8382235305    -1.9197368852
    6      O       2.3705587272     0.7060376022    -0.3251156443
    7      H       1.4891703950    -0.8952625560     0.5105522959
    8      H       1.3285012100    -1.9504279673    -1.5658141422
    9      H      -0.2073743679     0.8276091866     0.1389543591
   10      H      -0.9427581896    -1.3259836206     0.0625288767
   11      H      -0.7655400419     1.3080800657    -2.0105723678
   12      H       2.2547608872     1.2786060596    -1.0958986803
   13      O      -0.0594380358     1.9239956717     1.2555433624
   14      H       0.9053177929     1.9879354794     1.1373053912
 ----------------------------------------------------------------
 Nuclear Repulsion Energy =         349.05481451 hartrees
 There are       30 alpha and       29 beta electrons
 Discretize the solute cavity surface with Lebedev spheres
	Using 110 Lebedev grid points for each H atom
	Using 194 Lebedev grid points for other atoms
	Atomic van der Waals radii will be scaled by 1.20
 Remove points where switching function is < 1.0e-08
 Keep 1154 surface tesserae and discard 974 interior tesserae
 Molecular Surface Area = 129.443 Angst**2

                       Distance Matrix (Angstroms)
             C (  1)   O (  2)   C (  3)   O (  4)   O (  5)   O (  6)
   O (  2)  1.412725
   C (  3)  1.527863  2.424433
   O (  4)  2.436830  2.901637  1.401206
   O (  5)  2.371535  2.804531  1.385404  2.273578
   O (  6)  1.397435  2.278642  2.405170  3.646904  2.800171
   H (  7)  1.090871  2.069109  2.146361  2.696360  3.304237  2.009813
   H (  8)  1.945976  0.965622  2.576102  2.544648  3.078824  3.111595
   H (  9)  2.151921  3.375205  1.142927  2.081864  2.077667  2.622190
   H ( 10)  2.658088  3.274131  1.943887  0.966233  3.105495  3.906078
   H ( 11)  3.212992  3.732272  1.929580  2.524500  0.965130  3.610863
   H ( 12)  1.931024  2.536268  2.494626  3.820250  2.373715  0.967135
   O ( 13)  3.244181  4.616920  2.673652  3.593388  3.358383  3.144326
   H ( 14)  2.895868  4.261278  2.758513  3.910171  3.370576  2.434927
             H (  7)   H (  8)   H (  9)   H ( 10)   H ( 11)   H ( 12)
   H (  8)  2.334628
   H (  9)  2.446352  3.603143
   H ( 10)  2.510084  2.863573  2.276970
   H ( 11)  4.036646  3.898807  2.272194  3.356702
   H ( 12)  2.809363  3.391967  2.791123  4.283687  3.155902
   O ( 13)  3.301729  4.989749  1.571852  3.572940  3.397859  3.361744
   H ( 14)  3.007746  4.795482  1.892392  3.943677  3.628099  2.703950
             O ( 13)
   H ( 14)  0.974075
 
 Requested basis set is 6-311++G(2df,2p)
 There are 98 shells and 308 basis functions
 A cutoff of  1.0D-12 yielded   4520 shell pairs
 There are     44518 function pairs (     55081 Cartesian)
 Smallest overlap matrix eigenvalue = 5.83E-05
 Guess MOs from SCF MO coefficient file

 -----------------------------------------------------------------------
  General SCF calculation program by
  Eric Jon Sundstrom, Paul Horn, Yuezhi Mao, Dmitri Zuev, Alec White,
  David Stuck, Shaama M.S., Shane Yost, Joonho Lee, David Small,
  Daniel Levine, Susi Lehtola, Hugh Burton, Evgeny Epifanovsky,
  Bang C. Huynh
 -----------------------------------------------------------------------
 Exchange:     0.1500 Hartree-Fock + 1.0000 wB97M-V + LR-HF
 Correlation:  1.0000 wB97M-V
 Using SG-2 standard quadrature grid
 Nonlocal Correlation:  VV10 with C = 0.0100 and b = 6.00 and scale = 1.00000
 Grid used for NLC:  SG-1 standard quadrature
 
 Citation of the SMD model:
 Marenich, A.V.; Cramer, C.J.; Truhlar, D.G.
 J. Phys. Chem. B 2009, 113, 6378-6396.
 iSolventCode=           1
 Solvent: water                                                           
 
 vradii
            1           2           3           4           5           6
    1   1.8500000   1.5200000   1.8500000   1.5200000   1.5200000   1.5200000
            7           8           9          10          11          12
    1   1.2000000   1.2000000   1.2000000   1.2000000   1.2000000   1.2000000
           13          14
    1   1.5200000   1.2000000
 -------------------------------------------------------
 OpenMP BLAS3 based DFT computing Module                
 Release: version 1.0, May 2013, Q-Chem Inc. Pittsburgh 
 -------------------------------------------------------
 A unrestricted SCF calculation will be
 performed using Roothaan-Hall, DIIS, GDM
 SCF converges when RMS gradient is below 1.0e-07
 ---------------------------------------
  Cycle       Energy         DIIS error
 ---------------------------------------
    1    -456.4579754507      3.09e-04  Roothaan Step
 ---------------------------------------
  Cycle       Energy         DIIS error
 ---------------------------------------
    1    -456.4973028482      3.49e-04  
    2    -456.5028837242      2.72e-04  Done DIIS. Switching to GDM
 ---------------------------------------
  Cycle       Energy        RMS Gradient
 ---------------------------------------
    1    -456.5028837242      7.86e-03   Normal BFGS step
    2    -456.5029287575      1.07e-02   Normal BFGS step
    3    -456.5053116763      7.94e-04   Normal BFGS step
    4    -456.5053289433      6.40e-04   Normal BFGS step
    5    -456.5053324372      3.33e-04   Normal BFGS step
    6    -456.5053332026      2.52e-04   Normal BFGS step
    7    -456.5053335397      1.72e-04   Normal BFGS step
    8    -456.5053336833      3.43e-05   Normal BFGS step
    9    -456.5053336941      7.44e-06   Normal BFGS step
   10    -456.5053336949      4.06e-06   Normal BFGS step
   11    -456.5053336951      2.72e-06   Normal BFGS step
   12    -456.5053336952      2.51e-06   Normal BFGS step
   13    -456.5053336952      2.21e-06   Normal BFGS step
   14    -456.5053336953      1.73e-06   Normal BFGS step
   15    -456.5053336953      1.28e-06   Normal BFGS step
   16    -456.5053336953      1.37e-06   Normal BFGS step
   17    -456.5053336953      8.13e-07   Normal BFGS step
   18    -456.5053336953      2.26e-07   Normal BFGS step
   19    -456.5053336953      9.63e-08  Convergence criterion met
 ---------------------------------------
 SCF time:   CPU 909.16s  wall 114.00s 
<S^2> =          0.756420572
(3)  G-ENP(liq) elect-nuc-pol free energy of system     -456.505333695 a.u.
(4)  G-CDS(liq) cavity-dispersion-solvent structure 
     free energy                                                3.3372 kcal/mol
(6)  G-S(liq) free energy of system                     -456.500015580 a.u.
 SCF   energy in the final basis set =     -456.5000155804
 Total energy in the final basis set =     -456.5000155804
 
 --------------------------------------------------------------
 
                    Orbital Energies (a.u.)
 --------------------------------------------------------------
 
 Alpha MOs
 -- Occupied --
-19.3800 -19.3611 -19.3595 -19.3541 -19.3471 -10.4626 -10.4513  -1.2307
 -1.1972  -1.1534  -1.1397  -1.1279  -0.8557  -0.7594  -0.6845  -0.6732
 -0.6429  -0.6338  -0.5784  -0.5714  -0.5345  -0.5197  -0.5025  -0.4835
 -0.4662  -0.4584  -0.4486  -0.4310  -0.4066  -0.3702
 -- Virtual --
  0.0244   0.0412   0.0474   0.0496   0.0692   0.0758   0.0907   0.1044
  0.1175   0.1318   0.1392   0.1429   0.1484   0.1605   0.1755   0.2216
  0.2251   0.2271   0.2325   0.2370   0.2445   0.2520   0.2662   0.2825
  0.2863   0.2946   0.2985   0.3028   0.3101   0.3146   0.3349   0.3404
  0.3458   0.3554   0.3611   0.3673   0.3708   0.3744   0.3875   0.3907
  0.3988   0.4202   0.4281   0.4527   0.4641   0.4781   0.4920   0.5691
  0.5743   0.5972   0.6014   0.6056   0.6214   0.6333   0.6491   0.6704
  0.6885   0.7175   0.7249   0.7345   0.7786   0.8026   0.8185   0.8337
  0.8610   0.8701   0.8960   0.9212   0.9299   0.9711   1.0040   1.0138
  1.0321   1.0564   1.0794   1.0877   1.0921   1.1192   1.1291   1.1320
  1.1507   1.1741   1.1839   1.1988   1.2133   1.2272   1.2301   1.2509
  1.2775   1.2965   1.2975   1.3011   1.3502   1.3576   1.3986   1.4179
  1.4361   1.4394   1.4655   1.4770   1.5155   1.5264   1.5295   1.5554
  1.5939   1.6090   1.6273   1.6482   1.6608   1.7059   1.7220   1.7702
  1.8021   1.8145   1.8696   1.8887   1.9047   1.9087   1.9546   2.0140
  2.0281   2.0586   2.1237   2.1462   2.1781   2.2600   2.3047   2.3169
  2.3454   2.3559   2.3916   2.3975   2.4097   2.4553   2.4664   2.4686
  2.5347   2.5598   2.6555   2.7408   2.7688   2.7970   2.8392   2.8969
  2.9349   2.9803   3.0639   3.1348   3.2157   3.2500   3.2800   3.3330
  3.3656   3.4009   3.4183   3.4711   3.5087   3.5336   3.5766   3.6289
  3.6494   3.6557   3.6637   3.7511   3.7552   3.7571   3.8082   3.8303
  3.8406   3.8507   3.8630   3.8709   3.9236   3.9345   3.9959   4.0045
  4.0550   4.0900   4.1209   4.1943   4.2068   4.2488   4.2598   4.2801
  4.2951   4.3056   4.3531   4.3550   4.3966   4.4138   4.4568   4.5039
  4.6247   4.7190   5.0821   5.0967   5.1248   5.1522   5.1870   5.1902
  5.1945   5.2247   5.2546   5.2603   5.2647   5.2799   5.2849   5.2966
  5.3066   5.3123   5.3399   5.3511   5.3627   5.3812   5.4135   5.4337
  5.4625   5.4868   5.5175   5.5433   5.5887   5.6161   5.6238   5.6289
  5.6512   5.6710   5.6897   5.7149   5.7275   5.8947   5.9319   5.9632
  6.0219   6.0261   6.0894   6.0994   6.1640   6.5102   6.5661   6.7556
  6.7971   6.8833   6.9811   7.0390   7.0469   7.0582   7.1036   7.1249
  7.1501   7.2075   7.2458   7.2587   7.2887   7.3006   7.3151   7.3254
  7.3380   7.3605   7.3890   7.4083   7.4655   7.4710   7.5422   7.6145
  7.6909   7.7219   7.7384   7.8246   7.8507   7.8798   7.9141  24.7272
 24.8536  50.4660  50.5740  50.5858  50.6134  50.6614
 
 Beta MOs
 -- Occupied --
-19.3604 -19.3590 -19.3583 -19.3541 -19.3468 -10.4590 -10.4511  -1.2287
 -1.1962  -1.1513  -1.1388  -1.0738  -0.8515  -0.7568  -0.6761  -0.6710
 -0.6330  -0.6315  -0.5709  -0.5547  -0.5312  -0.5034  -0.4832  -0.4757
 -0.4531  -0.4322  -0.4225  -0.4141  -0.3829
 -- Virtual --
 -0.0749   0.0251   0.0416   0.0478   0.0503   0.0694   0.0768   0.0915
  0.1046   0.1179   0.1321   0.1394   0.1437   0.1491   0.1632   0.1771
  0.2225   0.2263   0.2291   0.2350   0.2392   0.2458   0.2544   0.2666
  0.2836   0.2879   0.2957   0.3005   0.3043   0.3112   0.3171   0.3381
  0.3412   0.3468   0.3559   0.3624   0.3701   0.3717   0.3759   0.3895
  0.3956   0.4015   0.4268   0.4298   0.4584   0.4657   0.4790   0.4947
  0.5710   0.5761   0.6000   0.6031   0.6077   0.6226   0.6361   0.6520
  0.6731   0.6896   0.7202   0.7253   0.7360   0.7802   0.8037   0.8192
  0.8350   0.8615   0.8717   0.8971   0.9224   0.9313   0.9730   1.0048
  1.0200   1.0355   1.0578   1.0826   1.0904   1.0934   1.1215   1.1332
  1.1347   1.1522   1.1755   1.2030   1.2068   1.2241   1.2324   1.2363
  1.2520   1.2786   1.2988   1.3010   1.3030   1.3546   1.3587   1.4009
  1.4193   1.4387   1.4447   1.4698   1.4801   1.5183   1.5281   1.5325
  1.5579   1.6020   1.6177   1.6326   1.6580   1.6767   1.7087   1.7273
  1.7726   1.8084   1.8270   1.8715   1.8989   1.9086   1.9114   1.9580
  2.0238   2.0402   2.0647   2.1246   2.1487   2.1801   2.2652   2.3082
  2.3209   2.3473   2.3597   2.3934   2.3995   2.4214   2.4565   2.4682
  2.4704   2.5370   2.5658   2.6570   2.7431   2.7732   2.8110   2.8413
  2.8999   2.9335   2.9833   3.0657   3.1382   3.2181   3.2501   3.2821
  3.3341   3.3687   3.4030   3.4208   3.4729   3.5119   3.5376   3.5803
  3.6321   3.6550   3.6591   3.6668   3.7557   3.7580   3.7657   3.8093
  3.8326   3.8423   3.8560   3.8647   3.8740   3.9261   3.9375   3.9983
  4.0144   4.0568   4.0927   4.1233   4.1953   4.2108   4.2522   4.2621
  4.2811   4.2953   4.3067   4.3538   4.3556   4.3925   4.4111   4.4550
  4.5001   4.6222   4.7235   5.1312   5.1372   5.1432   5.1909   5.1931
  5.2043   5.2155   5.2426   5.2660   5.2727   5.2818   5.2922   5.2970
  5.3050   5.3132   5.3360   5.3595   5.3739   5.3765   5.3986   5.4169
  5.4356   5.4727   5.4923   5.5203   5.5459   5.5900   5.6209   5.6339
  5.6411   5.6655   5.6894   5.6977   5.7177   5.7320   5.8959   5.9340
  5.9637   6.0231   6.0281   6.0904   6.1008   6.1655   6.5148   6.5669
  6.7591   6.8004   6.9771   7.0117   7.0494   7.0578   7.1042   7.1311
  7.1431   7.1893   7.2125   7.2498   7.2658   7.2952   7.3141   7.3211
  7.3282   7.3590   7.3772   7.3940   7.4137   7.4691   7.4757   7.6101
  7.6160   7.6926   7.7241   7.7406   7.8258   7.8549   7.8817   7.9170
 24.7289  24.8551  50.4806  50.5746  50.5863  50.6139  50.6617
 --------------------------------------------------------------
 
          Ground-State Mulliken Net Atomic Charges

     Atom                 Charge (a.u.)    Spin (a.u.)
  --------------------------------------------------------
      1 C                    -0.004094      -0.001188
      2 O                    -0.452357       0.008267
      3 C                    -0.224280       0.170684
      4 O                    -0.421940       0.039105
      5 O                    -0.396577       0.022501
      6 O                    -0.382463      -0.000243
      7 H                     0.274020      -0.001428
      8 H                     0.328405      -0.000342
      9 H                     0.373515      -0.019579
     10 H                     0.339581      -0.001835
     11 H                     0.362830       0.000339
     12 H                     0.324590      -0.000299
     13 O                    -0.449914       0.795181
     14 H                     0.328684      -0.011163
  --------------------------------------------------------
  Sum of atomic charges =     0.000000
  Sum of spin   charges =     1.000000

 -----------------------------------------------------------------
                    Cartesian Multipole Moments
 -----------------------------------------------------------------
    Charge (ESU x 10^10)
                 0.0000
    Dipole Moment (Debye)
         X      -1.9907      Y      -1.1377      Z       1.0614
       Tot       2.5266
    Quadrupole Moments (Debye-Ang)
        XX     -51.4460     XY       3.1690     YY     -36.8573
        XZ       4.9341     YZ      -6.9096     ZZ     -48.0872
    Octopole Moments (Debye-Ang^2)
       XXX    -122.4460    XXY       4.8033    XYY     -21.4594
       YYY     -34.0681    XXZ      33.4588    XYZ       3.8840
       YYZ      15.0503    XZZ     -36.1868    YZZ      -3.5560
       ZZZ      83.4368
    Hexadecapole Moments (Debye-Ang^3)
      XXXX    -596.2891   XXXY      30.1680   XXYY    -126.0571
      XYYY      22.3526   YYYY    -313.5503   XXXZ      86.9431
      XXYZ     -46.9139   XYYZ      26.6414   YYYZ     -57.3406
      XXZZ    -150.6114   XYZZ       5.5321   YYZZ    -101.6046
      XZZZ      94.4759   YZZZ     -71.5180   ZZZZ    -406.0095
 -----------------------------------------------------------------
 Calculating analytic gradient of the SCF energy
 Gradient of CDS energy
            1           2           3           4           5           6
    1   0.0032079  -0.0004157  -0.0026587   0.0025306   0.0000326  -0.0025473
    2   0.0019093   0.0009396  -0.0002329   0.0027473  -0.0025549  -0.0030063
    3  -0.0001667   0.0007397  -0.0039446   0.0000840   0.0039442  -0.0003981
            7           8           9          10          11          12
    1  -0.0000444   0.0000329   0.0001700  -0.0003311  -0.0002283   0.0003262
    2   0.0000150  -0.0004341   0.0000945  -0.0003346   0.0003203   0.0003153
    3   0.0001047  -0.0002788  -0.0000143   0.0002144  -0.0003009  -0.0002077
           13          14
    1  -0.0003330   0.0002585
    2  -0.0000851   0.0003066
    3  -0.0000223   0.0002464
 Gradient of SCF Energy
            1           2           3           4           5           6
    1  -0.0001958   0.0105099   0.0024195  -0.0021770   0.0115546   0.0050897
    2   0.0083380   0.0101894  -0.0051694   0.0092882  -0.0096046  -0.0090689
    3  -0.0098682  -0.0027066  -0.0058801  -0.0201987  -0.0018754   0.0047398
            7           8           9          10          11          12
    1  -0.0030271  -0.0077467  -0.0007913   0.0005676  -0.0119364  -0.0021490
    2  -0.0065403  -0.0098342   0.0044647  -0.0099363   0.0078786   0.0070626
    3   0.0095328   0.0023922   0.0061126   0.0184062  -0.0000222  -0.0031939
           13          14
    1  -0.0111397   0.0090216
    2   0.0023485   0.0005837
    3   0.0039771  -0.0014155
 Max gradient component =       2.020E-02
 RMS gradient           =       7.889E-03
 Computing fast CPCM-SWIG gradient
 Updating gradient with PCM contributions...
 -- total gradient after adding PCM contribution --
---------------------------------------------------
  Atom         X              Y              Z     
---------------------------------------------------
   1      -0.001048      -0.000062       0.000109
   2       0.000259      -0.000202      -0.000148
   3       0.000460      -0.000389      -0.000421
   4      -0.000050      -0.000076       0.000017
   5      -0.000030       0.000048       0.000114
   6       0.000342       0.000271       0.000008
   7       0.000123       0.000039       0.000000
   8      -0.000051       0.000125      -0.000040
   9      -0.000022       0.000386       0.000514
  10       0.000033       0.000007      -0.000033
  11      -0.000018      -0.000029      -0.000019
  12      -0.000009      -0.000028       0.000006
  13      -0.000064       0.000012      -0.000096
  14       0.000076      -0.000103      -0.000011
---------------------------------------------------
 Number of fixed atoms: 0
 Gradient time:  CPU 112.73 s  wall 16.88 s
 ----------------------------------------------------------------
             Standard Nuclear Orientation (Angstroms)
    I     Atom           X                Y                Z
 ----------------------------------------------------------------
    1      C       1.4852578028    -0.3667826012    -0.4442991730
    2      O       1.9404829139    -1.2079510295    -1.4843795256
    3      C       0.0690938744     0.1342318223    -0.7265367971
    4      O      -0.8644696628    -0.9077304434    -0.8049627698
    5      O       0.0725886945     0.8382235305    -1.9197368852
    6      O       2.3705587272     0.7060376022    -0.3251156443
    7      H       1.4891703950    -0.8952625560     0.5105522959
    8      H       1.3285012100    -1.9504279673    -1.5658141422
    9      H      -0.2073743679     0.8276091866     0.1389543591
   10      H      -0.9427581896    -1.3259836206     0.0625288767
   11      H      -0.7655400419     1.3080800657    -2.0105723678
   12      H       2.2547608872     1.2786060596    -1.0958986803
   13      O      -0.0594380358     1.9239956717     1.2555433624
   14      H       0.9053177929     1.9879354794     1.1373053912
 ----------------------------------------------------------------
 Nuclear Repulsion Energy =         349.05830829 hartrees
 There are       30 alpha and       29 beta electrons
 Discretize the solute cavity surface with Lebedev spheres
	Using 110 Lebedev grid points for each H atom
	Using 194 Lebedev grid points for other atoms
	Atomic van der Waals radii will be scaled by 1.20
 Remove points where switching function is < 1.0e-08
 Keep 1154 surface tesserae and discard 974 interior tesserae
 Molecular Surface Area = 129.440 Angst**2

                       Distance Matrix (Angstroms)
             C (  1)   O (  2)   C (  3)   O (  4)   O (  5)   O (  6)
   O (  2)  1.412997
   C (  3)  1.528461  2.424433
   O (  4)  2.438016  2.901637  1.401206
   O (  5)  2.371622  2.804531  1.385404  2.273578
   O (  6)  1.396032  2.278642  2.405170  3.646904  2.800171
   H (  7)  1.091351  2.069109  2.146361  2.696360  3.304237  2.009813
   H (  8)  1.946870  0.965622  2.576102  2.544648  3.078824  3.111595
   H (  9)  2.152152  3.375205  1.142927  2.081864  2.077667  2.622190
   H ( 10)  2.659361  3.274131  1.943887  0.966233  3.105495  3.906078
   H ( 11)  3.213171  3.732272  1.929580  2.524500  0.965130  3.610863
   H ( 12)  1.929772  2.536268  2.494626  3.820250  2.373715  0.967135
   O ( 13)  3.243951  4.616920  2.673652  3.593388  3.358383  3.144326
   H ( 14)  2.895255  4.261278  2.758513  3.910171  3.370576  2.434927
             H (  7)   H (  8)   H (  9)   H ( 10)   H ( 11)   H ( 12)
   H (  8)  2.334628
   H (  9)  2.446352  3.603143
   H ( 10)  2.510084  2.863573  2.276970
   H ( 11)  4.036646  3.898807  2.272194  3.356702
   H ( 12)  2.809363  3.391967  2.791123  4.283687  3.155902
   O ( 13)  3.301729  4.989749  1.571852  3.572940  3.397859  3.361744
   H ( 14)  3.007746  4.795482  1.892392  3.943677  3.628099  2.703950
             O ( 13)
   H ( 14)  0.974075
 
 Requested basis set is 6-311++G(2df,2p)
 There are 98 shells and 308 basis functions
 A cutoff of  1.0D-12 yielded   4520 shell pairs
 There are     44518 function pairs (     55081 Cartesian)
 Smallest overlap matrix eigenvalue = 5.84E-05
 Guess MOs from SCF MO coefficient file

 -----------------------------------------------------------------------
  General SCF calculation program by
  Eric Jon Sundstrom, Paul Horn, Yuezhi Mao, Dmitri Zuev, Alec White,
  David Stuck, Shaama M.S., Shane Yost, Joonho Lee, David Small,
  Daniel Levine, Susi Lehtola, Hugh Burton, Evgeny Epifanovsky,
  Bang C. Huynh
 -----------------------------------------------------------------------
 Exchange:     0.1500 Hartree-Fock + 1.0000 wB97M-V + LR-HF
 Correlation:  1.0000 wB97M-V
 Using SG-2 standard quadrature grid
 Nonlocal Correlation:  VV10 with C = 0.0100 and b = 6.00 and scale = 1.00000
 Grid used for NLC:  SG-1 standard quadrature
 
 Citation of the SMD model:
 Marenich, A.V.; Cramer, C.J.; Truhlar, D.G.
 J. Phys. Chem. B 2009, 113, 6378-6396.
 iSolventCode=           1
 Solvent: water                                                           
 
 vradii
            1           2           3           4           5           6
    1   1.8500000   1.5200000   1.8500000   1.5200000   1.5200000   1.5200000
            7           8           9          10          11          12
    1   1.2000000   1.2000000   1.2000000   1.2000000   1.2000000   1.2000000
           13          14
    1   1.5200000   1.2000000
 -------------------------------------------------------
 OpenMP BLAS3 based DFT computing Module                
 Release: version 1.0, May 2013, Q-Chem Inc. Pittsburgh 
 -------------------------------------------------------
 A unrestricted SCF calculation will be
 performed using Roothaan-Hall, DIIS, GDM
 SCF converges when RMS gradient is below 1.0e-07
 ---------------------------------------
  Cycle       Energy         DIIS error
 ---------------------------------------
    1    -456.4579910340      3.09e-04  Roothaan Step
 ---------------------------------------
  Cycle       Energy         DIIS error
 ---------------------------------------
    1    -456.4973325505      3.48e-04  
    2    -456.5029172365      2.70e-04  Done DIIS. Switching to GDM
 ---------------------------------------
  Cycle       Energy        RMS Gradient
 ---------------------------------------
    1    -456.5029172365      7.84e-03   Normal BFGS step
    2    -456.5029667823      1.06e-02   Normal BFGS step
    3    -456.5053212688      8.09e-04   Normal BFGS step
    4    -456.5053386579      6.75e-04   Normal BFGS step
    5    -456.5053422533      3.52e-04   Normal BFGS step
    6    -456.5053430568      2.61e-04   Normal BFGS step
    7    -456.5053434202      1.74e-04   Normal BFGS step
    8    -456.5053435683      3.07e-05   Normal BFGS step
    9    -456.5053435789      7.56e-06   Normal BFGS step
   10    -456.5053435797      3.77e-06   Normal BFGS step
   11    -456.5053435799      2.08e-06   Normal BFGS step
   12    -456.5053435800      1.60e-06   Normal BFGS step
   13    -456.5053435800      1.45e-06   Normal BFGS step
   14    -456.5053435800      1.21e-06   Normal BFGS step
   15    -456.5053435800      9.68e-07   Normal BFGS step
   16    -456.5053435800      9.17e-07   Normal BFGS step
   17    -456.5053435800      6.76e-07   Normal BFGS step
   18    -456.5053435800      2.34e-07   Normal BFGS step
   19    -456.5053435800      9.37e-08  Convergence criterion met
 ---------------------------------------
 SCF time:   CPU 905.31s  wall 114.00s 
<S^2> =          0.756424126
(3)  G-ENP(liq) elect-nuc-pol free energy of system     -456.505343580 a.u.
(4)  G-CDS(liq) cavity-dispersion-solvent structure 
     free energy                                                3.3434 kcal/mol
(6)  G-S(liq) free energy of system                     -456.500015559 a.u.
 SCF   energy in the final basis set =     -456.5000155590
 Total energy in the final basis set =     -456.5000155590
 
 --------------------------------------------------------------
 
                    Orbital Energies (a.u.)
 --------------------------------------------------------------
 
 Alpha MOs
 -- Occupied --
-19.3799 -19.3611 -19.3596 -19.3542 -19.3470 -10.4626 -10.4513  -1.2307
 -1.1974  -1.1534  -1.1398  -1.1279  -0.8555  -0.7595  -0.6845  -0.6733
 -0.6429  -0.6340  -0.5784  -0.5715  -0.5345  -0.5197  -0.5024  -0.4835
 -0.4662  -0.4584  -0.4486  -0.4311  -0.4065  -0.3701
 -- Virtual --
  0.0244   0.0412   0.0474   0.0496   0.0692   0.0758   0.0907   0.1044
  0.1175   0.1318   0.1392   0.1429   0.1484   0.1605   0.1755   0.2216
  0.2252   0.2272   0.2325   0.2370   0.2445   0.2520   0.2663   0.2826
  0.2864   0.2945   0.2985   0.3030   0.3101   0.3146   0.3349   0.3404
  0.3457   0.3553   0.3612   0.3673   0.3708   0.3744   0.3875   0.3907
  0.3988   0.4201   0.4281   0.4528   0.4642   0.4781   0.4919   0.5691
  0.5743   0.5972   0.6015   0.6055   0.6214   0.6334   0.6491   0.6704
  0.6885   0.7175   0.7249   0.7346   0.7787   0.8026   0.8184   0.8337
  0.8609   0.8701   0.8959   0.9212   0.9299   0.9711   1.0040   1.0138
  1.0321   1.0564   1.0794   1.0877   1.0922   1.1192   1.1292   1.1320
  1.1507   1.1740   1.1839   1.1987   1.2132   1.2271   1.2301   1.2510
  1.2775   1.2965   1.2975   1.3011   1.3502   1.3576   1.3985   1.4180
  1.4360   1.4393   1.4656   1.4770   1.5155   1.5264   1.5295   1.5553
  1.5942   1.6088   1.6273   1.6482   1.6606   1.7056   1.7221   1.7700
  1.8021   1.8145   1.8697   1.8887   1.9046   1.9087   1.9546   2.0141
  2.0282   2.0587   2.1237   2.1463   2.1782   2.2601   2.3048   2.3173
  2.3453   2.3561   2.3916   2.3973   2.4098   2.4556   2.4666   2.4689
  2.5345   2.5599   2.6558   2.7406   2.7689   2.7971   2.8390   2.8970
  2.9351   2.9803   3.0641   3.1344   3.2157   3.2501   3.2801   3.3332
  3.3658   3.4007   3.4186   3.4714   3.5088   3.5338   3.5767   3.6289
  3.6494   3.6557   3.6636   3.7509   3.7553   3.7571   3.8085   3.8299
  3.8406   3.8508   3.8629   3.8710   3.9234   3.9347   3.9957   4.0046
  4.0549   4.0901   4.1203   4.1942   4.2066   4.2490   4.2599   4.2796
  4.2951   4.3054   4.3526   4.3549   4.3964   4.4136   4.4563   4.5036
  4.6244   4.7186   5.0822   5.0967   5.1248   5.1523   5.1871   5.1902
  5.1945   5.2246   5.2546   5.2604   5.2646   5.2797   5.2848   5.2965
  5.3065   5.3122   5.3399   5.3511   5.3629   5.3812   5.4135   5.4339
  5.4623   5.4867   5.5169   5.5431   5.5886   5.6161   5.6238   5.6287
  5.6510   5.6713   5.6899   5.7150   5.7275   5.8946   5.9320   5.9639
  6.0229   6.0270   6.0902   6.1003   6.1645   6.5101   6.5662   6.7571
  6.7976   6.8833   6.9812   7.0391   7.0469   7.0583   7.1037   7.1249
  7.1502   7.2075   7.2457   7.2586   7.2887   7.3008   7.3150   7.3257
  7.3380   7.3604   7.3891   7.4083   7.4657   7.4709   7.5422   7.6150
  7.6907   7.7220   7.7384   7.8251   7.8507   7.8799   7.9141  24.7279
 24.8533  50.4660  50.5741  50.5859  50.6135  50.6615
 
 Beta MOs
 -- Occupied --
-19.3604 -19.3590 -19.3583 -19.3543 -19.3467 -10.4589 -10.4511  -1.2287
 -1.1964  -1.1513  -1.1389  -1.0737  -0.8513  -0.7568  -0.6761  -0.6710
 -0.6331  -0.6315  -0.5710  -0.5547  -0.5312  -0.5033  -0.4833  -0.4756
 -0.4531  -0.4323  -0.4225  -0.4141  -0.3828
 -- Virtual --
 -0.0749   0.0251   0.0416   0.0478   0.0503   0.0694   0.0768   0.0915
  0.1046   0.1179   0.1321   0.1394   0.1437   0.1491   0.1632   0.1772
  0.2225   0.2264   0.2292   0.2350   0.2392   0.2458   0.2544   0.2666
  0.2837   0.2879   0.2956   0.3005   0.3044   0.3112   0.3171   0.3381
  0.3412   0.3468   0.3559   0.3624   0.3701   0.3717   0.3758   0.3895
  0.3956   0.4014   0.4267   0.4298   0.4585   0.4657   0.4790   0.4947
  0.5710   0.5761   0.5999   0.6032   0.6076   0.6226   0.6361   0.6520
  0.6731   0.6897   0.7202   0.7254   0.7361   0.7803   0.8037   0.8192
  0.8350   0.8615   0.8717   0.8971   0.9224   0.9313   0.9730   1.0048
  1.0200   1.0355   1.0579   1.0827   1.0905   1.0935   1.1215   1.1332
  1.1347   1.1522   1.1754   1.2030   1.2068   1.2240   1.2323   1.2362
  1.2521   1.2787   1.2988   1.3010   1.3030   1.3545   1.3587   1.4008
  1.4194   1.4386   1.4446   1.4699   1.4801   1.5183   1.5280   1.5325
  1.5579   1.6023   1.6175   1.6327   1.6579   1.6767   1.7084   1.7273
  1.7725   1.8083   1.8270   1.8716   1.8989   1.9087   1.9114   1.9580
  2.0239   2.0403   2.0648   2.1246   2.1487   2.1802   2.2653   2.3082
  2.3214   2.3472   2.3599   2.3934   2.3994   2.4214   2.4568   2.4685
  2.4706   2.5368   2.5659   2.6572   2.7430   2.7734   2.8111   2.8411
  2.9000   2.9337   2.9833   3.0660   3.1378   3.2181   3.2502   3.2822
  3.3343   3.3689   3.4028   3.4210   3.4732   3.5120   3.5379   3.5804
  3.6321   3.6550   3.6591   3.6667   3.7556   3.7580   3.7657   3.8096
  3.8321   3.8423   3.8561   3.8646   3.8741   3.9260   3.9377   3.9981
  4.0144   4.0567   4.0928   4.1228   4.1952   4.2106   4.2525   4.2620
  4.2806   4.2954   4.3064   4.3534   4.3554   4.3922   4.4110   4.4545
  4.4999   4.6218   4.7231   5.1312   5.1372   5.1431   5.1910   5.1931
  5.2044   5.2156   5.2426   5.2660   5.2726   5.2817   5.2922   5.2968
  5.3049   5.3131   5.3360   5.3596   5.3739   5.3765   5.3986   5.4169
  5.4358   5.4725   5.4922   5.5199   5.5456   5.5899   5.6209   5.6337
  5.6411   5.6657   5.6895   5.6979   5.7177   5.7320   5.8958   5.9342
  5.9644   6.0242   6.0290   6.0912   6.1017   6.1659   6.5147   6.5670
  6.7606   6.8008   6.9771   7.0117   7.0494   7.0578   7.1043   7.1311
  7.1432   7.1894   7.2125   7.2497   7.2658   7.2952   7.3142   7.3210
  7.3285   7.3590   7.3772   7.3939   7.4138   7.4693   7.4756   7.6102
  7.6164   7.6924   7.7242   7.7406   7.8263   7.8549   7.8817   7.9170
 24.7296  24.8548  50.4806  50.5746  50.5864  50.6140  50.6618
 --------------------------------------------------------------
 
          Ground-State Mulliken Net Atomic Charges

     Atom                 Charge (a.u.)    Spin (a.u.)
  --------------------------------------------------------
      1 C                    -0.004308      -0.001159
      2 O                    -0.452761       0.008284
      3 C                    -0.224158       0.170772
      4 O                    -0.421892       0.039136
      5 O                    -0.396562       0.022510
      6 O                    -0.381565      -0.000230
      7 H                     0.273790      -0.001429
      8 H                     0.328429      -0.000342
      9 H                     0.373420      -0.019553
     10 H                     0.339558      -0.001837
     11 H                     0.362828       0.000342
     12 H                     0.324647      -0.000300
     13 O                    -0.450092       0.794964
     14 H                     0.328665      -0.011160
  --------------------------------------------------------
  Sum of atomic charges =     0.000000
  Sum of spin   charges =     1.000000

 -----------------------------------------------------------------
                    Cartesian Multipole Moments
 -----------------------------------------------------------------
    Charge (ESU x 10^10)
                 0.0000
    Dipole Moment (Debye)
         X      -1.9852      Y      -1.1323      Z       1.0612
       Tot       2.5198
    Quadrupole Moments (Debye-Ang)
        XX     -51.4273     XY       3.1861     YY     -36.8632
        XZ       4.9350     YZ      -6.9161     ZZ     -48.0949
    Octopole Moments (Debye-Ang^2)
       XXX    -122.4040    XXY       4.8346    XYY     -21.4650
       YYY     -34.0770    XXZ      33.4596    XYZ       3.8724
       YYZ      15.0488    XZZ     -36.1994    YZZ      -3.5549
       ZZZ      83.4463
    Hexadecapole Moments (Debye-Ang^3)
      XXXX    -596.1942   XXXY      30.2517   XXYY    -126.0694
      XYYY      22.3782   YYYY    -313.5630   XXXZ      86.9549
      XXYZ     -46.9398   XYYZ      26.6528   YYYZ     -57.3584
      XXZZ    -150.6443   XYZZ       5.5565   YYZZ    -101.6234
      XZZZ      94.5059   YZZZ     -71.5352   ZZZZ    -406.0636
 -----------------------------------------------------------------
 Calculating analytic gradient of the SCF energy
 Gradient of CDS energy
            1           2           3           4           5           6
    1   0.0032883  -0.0003962  -0.0026589   0.0025305   0.0000326  -0.0026443
    2   0.0020739   0.0009021  -0.0002329   0.0027474  -0.0025549  -0.0031278
    3  -0.0001089   0.0006968  -0.0039445   0.0000840   0.0039442  -0.0004118
            7           8           9          10          11          12
    1  -0.0000443   0.0000329   0.0001700  -0.0003308  -0.0002283   0.0003242
    2   0.0000106  -0.0004343   0.0000945  -0.0003348   0.0003203   0.0003141
    3   0.0001034  -0.0002786  -0.0000144   0.0002144  -0.0003009  -0.0002080
           13          14
    1  -0.0003330   0.0002574
    2  -0.0000851   0.0003068
    3  -0.0000223   0.0002465
 Gradient of SCF Energy
            1           2           3           4           5           6
    1   0.0008810   0.0103261   0.0021993  -0.0022898   0.0115825   0.0045710
    2   0.0095498   0.0100079  -0.0052112   0.0092545  -0.0096308  -0.0096844
    3  -0.0100213  -0.0026882  -0.0058591  -0.0202119  -0.0018712   0.0047992
            7           8           9          10          11          12
    1  -0.0031257  -0.0077045  -0.0007703   0.0005592  -0.0119308  -0.0021869
    2  -0.0067405  -0.0098932   0.0044358  -0.0099306   0.0078764   0.0070275
    3   0.0097163   0.0023092   0.0060784   0.0183982  -0.0000094  -0.0032081
           13          14
    1  -0.0111579   0.0090466
    2   0.0023585   0.0005802
    3   0.0039938  -0.0014260
 Max gradient component =       2.021E-02
 RMS gradient           =       7.937E-03
 Computing fast CPCM-SWIG gradient
 Updating gradient with PCM contributions...
 -- total gradient after adding PCM contribution --
---------------------------------------------------
  Atom         X              Y              Z     
---------------------------------------------------
   1       0.000010       0.001120      -0.000052
   2       0.000086      -0.000364      -0.000128
   3       0.000234      -0.000429      -0.000414
[...]
 ----------------------------------------------------------------
    1      C       1.4823147023    -0.4181167230    -0.4964434252
    2      O       2.0323261127    -1.2854287774    -1.4850019788
    3      C       0.0970885054     0.0288048399    -0.8800399894
    4      O      -0.9060594744    -0.9057626827    -0.8561393224
    5      O       0.0692492058     0.8176643939    -1.9864512040
    6      O       2.3506183235     0.6672977187    -0.3558296855
    7      H       1.4452202437    -0.9267055112     0.4677351877
    8      H       1.4176166365    -2.0188090218    -1.6137556046
    9      H      -0.2473911263     1.2554116733     0.6105964828
   10      H      -0.9091815564    -1.3432295683     0.0064784057
   11      H      -0.7997566658     1.2335024291    -2.0670821242
   12      H       2.2372276572     1.2527884106    -1.1163277028
   13      O      -0.0729816218     1.9341679357     1.2900039820
   14      H       0.8798620422     2.0580036271     1.2098296841
 ----------------------------------------------------------------
 Nuclear Repulsion Energy =         345.23621861 hartrees
 There are       30 alpha and       29 beta electrons
 Discretize the solute cavity surface with Lebedev spheres
	Using 110 Lebedev grid points for each H atom
	Using 194 Lebedev grid points for other atoms
	Atomic van der Waals radii will be scaled by 1.20
 Remove points where switching function is < 1.0e-08
 Keep 1178 surface tesserae and discard 950 interior tesserae
 Molecular Surface Area = 132.316 Angst**2

                       Distance Matrix (Angstroms)
             C (  1)   O (  2)   C (  3)   O (  4)   O (  5)   O (  6)
   O (  2)  1.425479
   C (  3)  1.505236  2.416264
   O (  4)  2.464044  3.028816  1.371238
   O (  5)  2.396671  2.920295  1.359125  2.280139
   O (  6)  1.397086  2.278043  2.400180  3.651134  2.808235
   H (  7)  1.090724  2.070400  2.132360  2.698444  3.310461  2.009689
   H (  8)  1.953148  0.965553  2.544574  2.685577  3.162685  3.109347
   H (  9)  2.649173  4.005560  1.960925  2.693665  2.652648  2.833639
   H ( 10)  2.613048  3.298533  1.918586  0.967211  3.098154  3.847049
   H ( 11)  3.225306  3.834648  1.914340  2.460516  0.966744  3.629578
   H ( 12)  1.935478  2.573024  2.476724  3.821949  2.376253  0.966444
   O ( 13)  3.338201  4.743288  2.892823  3.655839  3.464386  3.191797
   H ( 14)  3.066837  4.446215  3.016279  4.030094  3.523031  2.558999
             H (  7)   H (  8)   H (  9)   H ( 10)   H ( 11)   H ( 12)
   H (  8)  2.350756
   H (  9)  2.765317  4.294242
   H ( 10)  2.435048  2.914714  2.748793
   H ( 11)  4.016431  3.962295  2.734145  3.309256
   H ( 12)  2.808331  3.409186  3.025823  4.230827  3.182386
   O ( 13)  3.341506  5.126376  0.976075  3.617734  3.505590  3.404670
   H ( 14)  3.127111  4.988208  1.507957  4.027048  3.773470  2.811018
             O ( 13)
   H ( 14)  0.964196
 
 Applying Cartesian multipole field
    Component          Value
    ---------          -----
     (2,0,0)        1.00000E-11
     (0,2,0)        2.00000E-11
     (0,0,2)       -3.00000E-11
 Requested basis set is 6-311++G(2df,2p)
 There are 98 shells and 308 basis functions
 A cutoff of  1.0D-12 yielded   4504 shell pairs
 There are     44268 function pairs (     54723 Cartesian)
 Smallest overlap matrix eigenvalue = 5.66E-05
 Guess MOs from SCF MO coefficient file

 -----------------------------------------------------------------------
  General SCF calculation program by
  Eric Jon Sundstrom, Paul Horn, Yuezhi Mao, Dmitri Zuev, Alec White,
  David Stuck, Shaama M.S., Shane Yost, Joonho Lee, David Small,
  Daniel Levine, Susi Lehtola, Hugh Burton, Evgeny Epifanovsky,
  Bang C. Huynh
 -----------------------------------------------------------------------
 Exchange:     0.1500 Hartree-Fock + 1.0000 wB97M-V + LR-HF
 Correlation:  1.0000 wB97M-V
 Using SG-2 standard quadrature grid
 Nonlocal Correlation:  VV10 with C = 0.0100 and b = 6.00 and scale = 1.00000
 Grid used for NLC:  SG-1 standard quadrature
 
 Citation of the SMD model:
 Marenich, A.V.; Cramer, C.J.; Truhlar, D.G.
 J. Phys. Chem. B 2009, 113, 6378-6396.
 iSolventCode=           1
 Solvent: water                                                           
 
 vradii
            1           2           3           4           5           6
    1   1.8500000   1.5200000   1.8500000   1.5200000   1.5200000   1.5200000
            7           8           9          10          11          12
    1   1.2000000   1.2000000   1.2000000   1.2000000   1.2000000   1.2000000
           13          14
    1   1.5200000   1.2000000
 -------------------------------------------------------
 OpenMP BLAS3 based DFT computing Module                
 Release: version 1.0, May 2013, Q-Chem Inc. Pittsburgh 
 -------------------------------------------------------
 A unrestricted SCF calculation will be
 performed using Roothaan-Hall, DIIS, GDM
 SCF converges when RMS gradient is below 1.0e-07
 ---------------------------------------
  Cycle       Energy         DIIS error
 ---------------------------------------
    1    -456.4923112103      3.28e-04  Roothaan Step
 ---------------------------------------
  Cycle       Energy         DIIS error
 ---------------------------------------
    1    -456.5367139067      3.72e-04  
    2    -456.5429384310      3.00e-04  Done DIIS. Switching to GDM
 ---------------------------------------
  Cycle       Energy        RMS Gradient
 ---------------------------------------
    1    -456.5429384310      9.61e-03   Normal BFGS step
    2    -456.5428705005      9.25e-03  Line search: overstep
    3    -456.5456827608      1.60e-03   Normal BFGS step
    4    -456.5458471057      6.16e-04   Normal BFGS step
    5    -456.5458662568      2.13e-04   Normal BFGS step
    6    -456.5458674831      1.29e-04   Normal BFGS step
    7    -456.5458679268      4.68e-05   Normal BFGS step
    8    -456.5458679573      2.21e-05   Normal BFGS step
    9    -456.5458679702      1.13e-05   Normal BFGS step
   10    -456.5458679713      3.00e-06   Normal BFGS step
   11    -456.5458679714      1.11e-06   Normal BFGS step
   12    -456.5458679715      5.31e-07   Normal BFGS step
   13    -456.5458679715      1.97e-07   Normal BFGS step
   14    -456.5458679715      7.43e-08  Convergence criterion met
 ---------------------------------------
 SCF time:   CPU 692.93s  wall 87.00s 
<S^2> =          0.752346679
(3)  G-ENP(liq) elect-nuc-pol free energy of system     -456.545867971 a.u.
(4)  G-CDS(liq) cavity-dispersion-solvent structure 
     free energy                                                3.8740 kcal/mol
(6)  G-S(liq) free energy of system                     -456.539694289 a.u.
 SCF   energy in the final basis set =     -456.5396942895
 Total energy in the final basis set =     -456.5396942895
 
 --------------------------------------------------------------
 
                    Orbital Energies (a.u.)
 --------------------------------------------------------------
 
 Alpha MOs
 -- Occupied --
-19.3755 -19.3740 -19.3528 -19.3459 -19.3272 -10.4554 -10.4517  -1.2402
 -1.2005  -1.1691  -1.1390  -1.1333  -0.8524  -0.7603  -0.6907  -0.6680
 -0.6414  -0.6328  -0.5876  -0.5743  -0.5429  -0.5164  -0.5071  -0.4884
 -0.4743  -0.4674  -0.4293  -0.4268  -0.4032  -0.2796
 -- Virtual --
  0.0236   0.0416   0.0477   0.0498   0.0695   0.0751   0.0894   0.1040
  0.1178   0.1326   0.1365   0.1424   0.1476   0.1614   0.1741   0.2176
  0.2268   0.2296   0.2367   0.2388   0.2491   0.2533   0.2635   0.2777
  0.2870   0.2902   0.2989   0.3040   0.3102   0.3198   0.3271   0.3422
  0.3458   0.3527   0.3582   0.3642   0.3660   0.3735   0.3831   0.3901
  0.4063   0.4200   0.4280   0.4467   0.4589   0.4804   0.4868   0.5717
  0.5838   0.5985   0.6063   0.6091   0.6250   0.6368   0.6491   0.6764
  0.7013   0.7233   0.7316   0.7351   0.7842   0.7866   0.8122   0.8324
  0.8473   0.8722   0.8887   0.9047   0.9170   0.9558   1.0029   1.0178
  1.0260   1.0358   1.0480   1.0576   1.0720   1.0958   1.1151   1.1195
  1.1400   1.1503   1.1650   1.1787   1.1992   1.2101   1.2257   1.2381
  1.2621   1.2822   1.2888   1.2938   1.3133   1.3547   1.3702   1.3915
  1.4211   1.4357   1.4439   1.4573   1.5100   1.5194   1.5334   1.5428
  1.5736   1.5964   1.6105   1.6631   1.6958   1.7188   1.7489   1.7996
  1.8110   1.8824   1.8847   1.8956   1.9346   1.9664   2.0045   2.0370
  2.0478   2.1148   2.1235   2.1803   2.2076   2.2422   2.2745   2.3010
  2.3364   2.3453   2.3764   2.3942   2.4149   2.4447   2.4652   2.4672
  2.5223   2.5496   2.6272   2.6938   2.7546   2.7842   2.8433   2.8968
  2.9343   3.0078   3.0524   3.1017   3.1443   3.2095   3.2418   3.2771
  3.3104   3.3468   3.3994   3.4044   3.4495   3.5229   3.5255   3.5551
  3.6100   3.6304   3.6645   3.6971   3.7230   3.7391   3.7681   3.8055
  3.8190   3.8254   3.8368   3.8657   3.8715   3.9242   3.9476   3.9719
  3.9925   4.0399   4.0844   4.1095   4.1254   4.1865   4.2375   4.2494
  4.2759   4.2844   4.2976   4.3108   4.3456   4.3826   4.3988   4.4774
  4.5532   4.5983   4.7718   5.1122   5.1634   5.1912   5.1940   5.2137
  5.2442   5.2492   5.2595   5.2747   5.2764   5.2845   5.2968   5.2997
  5.3314   5.3349   5.3844   5.3896   5.4219   5.4519   5.4658   5.4767
  5.5351   5.5654   5.5742   5.5886   5.6128   5.6263   5.6512   5.6778
  5.6904   5.7226   5.7237   5.8229   5.8689   5.9176   5.9583   6.0091
  6.0185   6.0827   6.1175   6.3465   6.4673   6.5591   6.7459   6.8699
  7.0149   7.0345   7.0546   7.0662   7.0873   7.1179   7.1595   7.2015
  7.2420   7.2548   7.2627   7.2916   7.3060   7.3203   7.3265   7.3305
  7.3759   7.3908   7.4182   7.4319   7.4590   7.5048   7.6149   7.6619
  7.6946   7.7172   7.7338   7.7930   7.8425   7.8700   7.8937  24.7201
 24.9044  50.5167  50.5741  50.5859  50.6056  50.6391
 
 Beta MOs
 -- Occupied --
-19.3717 -19.3712 -19.3528 -19.3446 -19.3256 -10.4551 -10.4395  -1.2316
 -1.1979  -1.1612  -1.1369  -1.1298  -0.8406  -0.7538  -0.6845  -0.6611
 -0.6361  -0.6250  -0.5747  -0.5595  -0.5354  -0.5105  -0.5014  -0.4784
 -0.4669  -0.4509  -0.4276  -0.4246  -0.3968
 -- Virtual --
  0.0160   0.0310   0.0419   0.0480   0.0508   0.0698   0.0753   0.0892
  0.1040   0.1177   0.1329   0.1372   0.1429   0.1478   0.1624   0.1756
  0.2176   0.2289   0.2297   0.2391   0.2398   0.2501   0.2553   0.2658
  0.2814   0.2892   0.2907   0.3005   0.3049   0.3151   0.3244   0.3289
  0.3450   0.3472   0.3534   0.3615   0.3652   0.3712   0.3759   0.3876
  0.3913   0.4115   0.4319   0.4320   0.4473   0.4642   0.4837   0.4914
  0.5759   0.5870   0.6027   0.6071   0.6117   0.6266   0.6404   0.6560
  0.6797   0.7044   0.7271   0.7370   0.7381   0.7858   0.7917   0.8136
  0.8358   0.8493   0.8755   0.8931   0.9076   0.9218   0.9579   1.0057
  1.0203   1.0308   1.0495   1.0504   1.0628   1.0757   1.0985   1.1177
  1.1236   1.1438   1.1553   1.1679   1.1815   1.2043   1.2125   1.2288
  1.2422   1.2651   1.2874   1.2929   1.2961   1.3181   1.3594   1.3755
  1.3967   1.4266   1.4403   1.4472   1.4600   1.5134   1.5215   1.5394
  1.5475   1.5757   1.5994   1.6144   1.6663   1.7000   1.7234   1.7534
  1.8015   1.8156   1.8845   1.8897   1.8978   1.9389   1.9705   2.0104
  2.0438   2.0539   2.1183   2.1324   2.1866   2.2188   2.2459   2.2767
  2.3051   2.3438   2.3503   2.3812   2.3977   2.4227   2.4499   2.4686
  2.4730   2.5267   2.5585   2.6321   2.6986   2.7686   2.7955   2.8538
  2.9010   2.9524   3.0248   3.0665   3.1200   3.1724   3.2411   3.2580
  3.2915   3.3385   3.3637   3.4160   3.4214   3.4658   3.5352   3.5603
  3.5862   3.6228   3.6556   3.6743   3.7218   3.7400   3.7477   3.7834
  3.8103   3.8224   3.8307   3.8450   3.8781   3.8799   3.9310   3.9558
  3.9807   4.0102   4.0497   4.0941   4.1177   4.1296   4.1900   4.2442
  4.2588   4.2810   4.2883   4.3063   4.3190   4.3548   4.3883   4.4075
  4.4806   4.5609   4.6079   4.7975   5.1148   5.1655   5.1930   5.2047
  5.2229   5.2507   5.2542   5.2662   5.2782   5.2831   5.2871   5.3029
  5.3051   5.3364   5.3394   5.3875   5.3948   5.4252   5.4546   5.4706
  5.4810   5.5414   5.5693   5.5763   5.5934   5.6177   5.6290   5.6562
  5.6808   5.6929   5.7249   5.7309   5.8275   5.8737   5.9258   5.9606
  6.0156   6.0270   6.0910   6.1244   6.3552   6.4763   6.5659   6.7487
  6.8800   7.0176   7.0469   7.0566   7.0771   7.0946   7.1215   7.1655
  7.2069   7.2486   7.2617   7.2684   7.3002   7.3105   7.3233   7.3357
  7.3372   7.3827   7.3996   7.4234   7.4375   7.4629   7.5105   7.6166
  7.6679   7.7005   7.7223   7.7390   7.7957   7.8494   7.8733   7.8998
 24.7239  24.9120  50.5180  50.5760  50.5877  50.6071  50.6406
 --------------------------------------------------------------
 
          Ground-State Mulliken Net Atomic Charges

     Atom                 Charge (a.u.)    Spin (a.u.)
  --------------------------------------------------------
      1 C                     0.012499      -0.017521
      2 O                    -0.450786       0.035500
      3 C                    -0.192142       0.773550
      4 O                    -0.357162       0.097304
      5 O                    -0.354036       0.073393
      6 O                    -0.375674      -0.000653
      7 H                     0.278027       0.002722
      8 H                     0.325132      -0.000583
      9 H                     0.411065       0.007246
     10 H                     0.357208      -0.007417
     11 H                     0.372769      -0.001266
     12 H                     0.325478       0.000153
     13 O                    -0.672643       0.037678
     14 H                     0.320266      -0.000105
  --------------------------------------------------------
  Sum of atomic charges =     0.000000
  Sum of spin   charges =     1.000000

 -----------------------------------------------------------------
                    Cartesian Multipole Moments
 -----------------------------------------------------------------
    Charge (ESU x 10^10)
                 0.0000
    Dipole Moment (Debye)
         X      -2.4412      Y      -2.4530      Z      -0.6142
       Tot       3.5148
    Quadrupole Moments (Debye-Ang)
        XX     -52.1252     XY       3.7352     YY     -39.2834
        XZ       5.5153     YZ      -8.7732     ZZ     -48.4488
    Octopole Moments (Debye-Ang^2)
       XXX    -126.2488    XXY       7.8190    XYY     -21.0761
       YYY     -39.6220    XXZ      35.3998    XYZ       4.5572
       YYZ      10.1764    XZZ     -36.4872    YZZ      -7.1961
       ZZZ      80.1962
    Hexadecapole Moments (Debye-Ang^3)
      XXXX    -616.7480   XXXY      44.8270   XXYY    -132.2434
      XYYY      34.6704   YYYY    -343.2358   XXXZ      97.6954
      XXYZ     -51.3427   XYYZ      30.4738   YYYZ     -77.3746
      XXZZ    -157.8613   XYZZ       9.5940   YYZZ    -118.1613
      XZZZ     102.7024   YZZZ     -88.8713   ZZZZ    -437.3192
 -----------------------------------------------------------------
 Calculating analytic gradient of the SCF energy
 Gradient of CDS energy
            1           2           3           4           5           6
    1   0.0028252  -0.0000539  -0.0040321   0.0038510   0.0001406  -0.0024519
    2   0.0026402   0.0003013  -0.0010501   0.0035889  -0.0026266  -0.0031397
    3   0.0006345   0.0000117  -0.0034584  -0.0001907   0.0034531  -0.0004712
            7           8           9          10          11          12
    1  -0.0000607   0.0000858  -0.0001991  -0.0002826  -0.0002447   0.0002849
    2   0.0000057  -0.0004460   0.0000399  -0.0003303   0.0002738   0.0003611
    3   0.0001043  -0.0002633   0.0000776   0.0002112  -0.0002983  -0.0001448
           13          14
    1  -0.0001351   0.0002725
    2   0.0000748   0.0003070
    3   0.0001391   0.0001951
 Gradient of SCF Energy
            1           2           3           4           5           6
    1   0.0014324   0.0132573   0.0029661  -0.0038182   0.0142794   0.0045268
    2   0.0105530   0.0121687   0.0003204   0.0104458  -0.0083746  -0.0087679
    3  -0.0098192  -0.0001079  -0.0021392  -0.0198121   0.0001681   0.0064061
            7           8           9          10          11          12
    1  -0.0040155  -0.0114845   0.0002178   0.0015694  -0.0145358  -0.0024149
    2  -0.0068520  -0.0110960  -0.0087643  -0.0113768   0.0086911   0.0072210
    3   0.0105654   0.0009835  -0.0081639   0.0207499   0.0002131  -0.0043631
           13          14
    1  -0.0078657   0.0058853
    2   0.0075431  -0.0017115
    3   0.0091865  -0.0038671
 Max gradient component =       2.075E-02
 RMS gradient           =       8.772E-03
 Computing fast CPCM-SWIG gradient
 Updating gradient with PCM contributions...
 -- total gradient after adding PCM contribution --
---------------------------------------------------
  Atom         X              Y              Z     
---------------------------------------------------
   1       0.000203       0.000156       0.000210
   2      -0.000073       0.000011       0.000314
   3       0.000031       0.000214       0.000237
   4       0.000070       0.000176       0.000509
   5      -0.000065       0.000324       0.000312
   6       0.000214       0.000203       0.000104
   7       0.000178       0.000397       0.000411
   8      -0.000629       0.000521       0.000074
   9       0.000440      -0.001514      -0.001705
  10       0.000016       0.000545       0.000716
  11       0.000123       0.000809       0.000978
  12       0.000125       0.000304       0.000187
  13      -0.000327      -0.001247      -0.001346
  14      -0.000305      -0.000897      -0.001001
---------------------------------------------------
 Number of fixed atoms: 0
 Gradient time:  CPU 109.38 s  wall 16.51 s
rPathMan2.  file_steps = 952
 IRC --- Status = 4.  Checking bisector search.
 IRC --- Bisector search finished successfully.
 ------------------------------------------------------------------------
 Reaction path following.  The coordinates are cartesian              
 Step  18 E=    -456.539694 |G|=  0.003911 S_lin= 1.3655 S_tot= 1.8400
 ------------------------------------------------------------------------
  IRC -- convergence criterion reached.
 ----------------------------------------------------------------
             Standard Nuclear Orientation (Angstroms)
    I     Atom           X                Y                Z
 ----------------------------------------------------------------
    1      C       1.4852578028    -0.3677826012    -0.4442991730
    2      O       1.9404829139    -1.2079510295    -1.4843795256
    3      C       0.0690938744     0.1342318223    -0.7265367971
    4      O      -0.8644696628    -0.9077304434    -0.8049627698
    5      O       0.0725886945     0.8382235305    -1.9197368852
    6      O       2.3705587272     0.7060376022    -0.3251156443
    7      H       1.4891703950    -0.8952625560     0.5105522959
    8      H       1.3285012100    -1.9504279673    -1.5658141422
    9      H      -0.2073743679     0.8276091866     0.1389543591
   10      H      -0.9427581896    -1.3259836206     0.0625288767
   11      H      -0.7655400419     1.3080800657    -2.0105723678
   12      H       2.2547608872     1.2786060596    -1.0958986803
   13      O      -0.0594380358     1.9239956717     1.2555433624
   14      H       0.9053177929     1.9879354794     1.1373053912
 ----------------------------------------------------------------
 Nuclear Repulsion Energy =         349.05070217 hartrees
 There are       30 alpha and       29 beta electrons
 Here is where we should summarize the reaction path
 Total job time:  7566.33s(wall), 58455.60s(cpu) 
 Tue Jul 18 22:15:43 2023

        *************************************************************
        *                                                           *
        *  Thank you very much for using Q-Chem.  Have a nice day.  *
        *                                                           *
        *************************************************************


