
Running Job 1 of 1 Q_in.in
qchem Q_in.in_257945.0 /scratch/ari.fischer/qChem1854167.hpc-mn1/qchem257945/ 0
/usr/local/qchem-5.4.1/exe/qcprog.exe_s Q_in.in_257945.0 /scratch/ari.fischer/qChem1854167.hpc-mn1/qchem257945/
                  Welcome to Q-Chem
     A Quantum Leap Into The Future Of Chemistry


 Q-Chem 5.4, Q-Chem, Inc., Pleasanton, CA (2021)

 License issued to: Nanyang Technological University (site)

 E. Epifanovsky,  A. T. B. Gilbert,  Xintian Feng,  Joonho Lee,  Yuezhi Mao,  
 N. Mardirossian,  P. Pokhilko,  A. White,  M. Wormit,  M. P. Coons,  
 A. L. Dempwolff,  Zhengting Gan,  D. Hait,  P. R. Horn,  L. D. Jacobson,  
 I. Kaliman,  J. Kussmann,  A. W. Lange,  Ka Un Lao,  D. S. Levine,  Jie Liu,  
 S. C. McKenzie,  A. F. Morrison,  K. Nanda,  F. Plasser,  D. R. Rehn,  
 M. L. Vidal,  Zhi-Qiang You,  Ying Zhu,  B. Alam,  B. Albrecht,  
 A. Aldossary,  E. Alguire,  J. H. Andersen,  D. Barton,  K. Begam,  A. Behn,  
 Y. A. Bernard,  E. J. Berquist,  H. Burton,  A. Carreras,  K. Carter-Fenk,  
 R. Chakraborty,  A. D. Chien,  K. D. Closser,  V. Cofer-Shabica,  
 S. Dasgupta,  Jia Deng,  M. de Wergifosse,  M. Diedenhofen,  Hainam Do,  
 S. Ehlert,  Po-Tung Fang,  S. Fatehi,  Qingguo Feng,  T. Friedhoff,  
 J. Gayvert,  Qinghui Ge,  G. Gidofalvi,  M. Goldey,  J. Gomes,  
 C. Gonzalez-Espinoza,  S. Gulania,  A. Gunina,  M. W. D. Hanson-Heine,  
 P. H. P. Harbach,  A. W. Hauser,  M. F. Herbst,  M. Hernandez Vera,  
 M. Hodecker,  Z. C. Holden,  S. Houck,  Xunkun Huang,  Kerwin Hui,  
 B. C. Huynh,  M. Ivanov,  Hyunjun Ji,  Hanjie Jiang,  B. Kaduk,  S. Kaehler,  
 K. Khistyaev,  Jaehoon Kim,  P. Klunzinger,  Z. Koczor-Benda,  
 Joong Hoon Koh,  D. Kosenkov,  L. Koulias,  T. Kowalczyk,  C. M. Krauter,  
 K. Kue,  A. Kunitsa,  T. Kus,  A. Landau,  K. V. Lawler,  D. Lefrancois,  
 S. Lehtola,  Rain Li,  Yi-Pei Li,  Jiashu Liang,  M. Liebenthal,  
 Hung-Hsuan Lin,  You-Sheng Lin,  Fenglai Liu,  Kuan-Yu Liu,  
 M. Loipersberger,  A. Luenser,  A. Manjanath,  P. Manohar,  E. Mansoor,  
 S. F. Manzer,  Shan-Ping Mao,  A. V. Marenich,  T. Markovich,  S. Mason,  
 S. A. Maurer,  P. F. McLaughlin,  M. F. S. J. Menger,  J.-M. Mewes,  
 S. A. Mewes,  P. Morgante,  J. W. Mullinax,  K. J. Oosterbaan,  G. Paran,  
 Alexander C. Paul,  Suranjan K. Paul,  F. Pavosevic,  Zheng Pei,  S. Prager,  
 E. I. Proynov,  E. Ramos,  B. Rana,  A. E. Rask,  A. Rettig,  R. M. Richard,  
 F. Rob,  E. Rossomme,  T. Scheele,  M. Scheurer,  M. Schneider,  
 N. Sergueev,  S. M. Sharada,  W. Skomorowski,  D. W. Small,  C. J. Stein,  
 Yu-Chuan Su,  E. J. Sundstrom,  Zhen Tao,  J. Thirman,  T. Tsuchimochi,  
 N. M. Tubman,  S. P. Veccham,  O. Vydrov,  J. Wenzel,  J. Witte,  A. Yamada,  
 Kun Yao,  S. Yeganeh,  S. R. Yost,  A. Zech,  Igor Ying Zhang,  Xing Zhang,  
 Yu Zhang,  D. Zuev,  A. Aspuru-Guzik,  A. T. Bell,  N. A. Besley,  
 K. B. Bravaya,  B. R. Brooks,  D. Casanova,  Jeng-Da Chai,  S. Coriani,  
 C. J. Cramer,  A. E. DePrince, III,  R. A. DiStasio Jr.,  A. Dreuw,  
 B. D. Dunietz,  T. R. Furlani,  W. A. Goddard III,  S. Grimme,  
 S. Hammes-Schiffer,  T. Head-Gordon,  W. J. Hehre,  Chao-Ping Hsu,  
 T.-C. Jagau,  Yousung Jung,  A. Klamt,  Jing Kong,  D. S. Lambrecht,  
 WanZhen Liang,  N. J. Mayhall,  C. W. McCurdy,  J. B. Neaton,  
 C. Ochsenfeld,  J. A. Parkhill,  R. Peverati,  V. A. Rassolov,  Yihan Shao,  
 L. V. Slipchenko,  T. Stauch,  R. P. Steele,  J. E. Subotnik,  
 A. J. W. Thom,  A. Tkatchenko,  D. G. Truhlar,  T. Van Voorhis,  
 T. A. Wesolowski,  K. B. Whaley,  H. L. Woodcock III,  P. M. Zimmerman,  
 S. Faraji,  P. M. W. Gill,  M. Head-Gordon,  J. M. Herbert,  A. I. Krylov

 Additional authors for Version 5.4.1: 
 S. Kotaru,  Shaozhi Li,  Xiangyuan Li,  F. Matz,  A. Molle,  Haisheng Ren,  
 Yingli Su,  Hung-Yi Tsai,  C. Utku,  Fang Wang

 Contributors to earlier versions of Q-Chem not listed above: 
 R. D. Adamson,  B. Austin,  R. Baer,  J. Baker,  G. J. O. Beran,  
 K. Brandhorst,  S. T. Brown,  E. F. C. Byrd,  A. K. Chakraborty,  
 G. K. L. Chan,  Chun-Min Chang,  Yunqing Chen,  C.-L. Cheng,  
 Siu Hung Chien,  D. M. Chipman,  D. L. Crittenden,  H. Dachsel,  
 R. J. Doerksen,  A. D. Dutoi,  R. G. Edgar,  J. Fosso-Tande,  
 L. Fusti-Molnar,  D. Ghosh,  A. Ghysels,  A. Golubeva-Zadorozhnaya,  
 J. Gonthier,  M. S. Gordon,  S. R. Gwaltney,  G. Hawkins,  J. E. Herr,  
 A. Heyden,  S. Hirata,  E. G. Hohenstein,  G. Kedziora,  F. J. Keil,  
 C. Kelley,  Jihan Kim,  R. A. King,  R. Z. Khaliullin,  P. P. Korambath,  
 W. Kurlancheek,  A. Laurent,  A. M. Lee,  M. S. Lee,  S. V. Levchenko,  
 Ching Yeh Lin,  D. Liotard,  E. Livshits,  R. C. Lochan,  I. Lotan,  
 L. A. Martinez-Martinez,  P. E. Maslen,  N. Nair,  D. P. O'Neill,  
 D. Neuhauser,  E. Neuscamman,  C. M. Oana,  R. Olivares-Amaya,  R. Olson,  
 T. M. Perrine,  B. Peters,  P. A. Pieniazek,  A. Prociuk,  Y. M. Rhee,  
 J. Ritchie,  M. A. Rohrdanz,  E. Rosta,  N. J. Russ,  H. F. Schaefer III,  
 M. W. Schmidt,  N. E. Schultz,  S. Sharma,  N. Shenvi,  C. D. Sherrill,  
 A. C. Simmonett,  A. Sodt,  T. Stein,  D. Stuck,  K. S. Thanthiriwatte,  
 V. Vanovschi,  L. Vogt,  Tao Wang,  A. Warshel,  M. A. Watson,  
 C. F. Williams,  Q. Wu,  X. Xu,  Jun Yang,  W. Zhang,  Yan Zhao

 Please cite Q-Chem as follows:
 Y. Shao et al., Mol. Phys. 113, 184-215 (2015)
 DOI: 10.1080/00268976.2014.952696

 Q-Chem 5.4.1 for Intel X86 EM64T Linux

 Parts of Q-Chem use Armadillo 9.800.1 (Horizon Scraper).
 http://arma.sourceforge.net/

 Q-Chem begins on Thu Dec  7 15:54:51 2023  

 Host: 
0

     Scratch files written to /scratch/ari.fischer/qChem1854167.hpc-mn1/qchem257945//
 Aug1521 |scratch|qcdevops|jenkins|workspace|build_RNUM 8249   
 Processing $rem in /usr/local/qchem-5.4.1/config/preferences:
 Processing $rem in /home/ari.fischer/.qchemrc:
 Symmetry turned off for PCM/SM12/SMD calculation

 Checking the input file for inconsistencies... 	...done.

--------------------------------------------------------------
User input:
--------------------------------------------------------------
$molecule
0 2
O         0.7139837603   -0.0221978848    0.0000000000
O        -0.5886126674    0.1177581209    0.0000000000
H        -0.9637405214   -0.7836068958    0.0000000000
$end

$rem
BASIS = def2-TZVPPD
JOB_TYPE = SP
METHOD = wB97M-V
SCF_ALGORITHM = DIIS_GDM
MAX_SCF_CYCLES = 400
SCF_CONVERGENCE = 7
THRESH = 12
Solvent_method = SMD
$end
--------------------------------------------------------------
 ----------------------------------------------------------------
             Standard Nuclear Orientation (Angstroms)
    I     Atom           X                Y                Z
 ----------------------------------------------------------------
    1      O       0.7139837603    -0.0221978848     0.0000000000
    2      O      -0.5886126674     0.1177581209     0.0000000000
    3      H      -0.9637405214    -0.7836068958     0.0000000000
 ----------------------------------------------------------------
 Nuclear Repulsion Energy =          32.48498172 hartrees
 There are        9 alpha and        8 beta electrons
 Requested basis set is def2-TZVPPD
 There are 35 shells and 97 basis functions

 Total QAlloc Memory Limit 288000 MB
 Mega-Array Size       188 MB
 MEM_STATIC part       192 MB
 
 Citation of the SMD model:
 Marenich, A.V.; Cramer, C.J.; Truhlar, D.G.
 J. Phys. Chem. B 2009, 113, 6378-6396.
 iSolventCode=           1
 Solvent: water                                                           
 
 vradii
            1           2           3
    1   1.5200000   1.5200000   1.2000000
 Changing PCM_VDW_RADII to SMD_RADIUS
 Discretize the solute cavity surface with Lebedev spheres
	Using 110 Lebedev grid points for each H atom
	Using 194 Lebedev grid points for other atoms
	Atomic van der Waals radii will be scaled by 1.20
 Remove points where switching function is < 1.0e-08
 Keep 354 surface tesserae and discard 144 interior tesserae
 Molecular Surface Area = 45.022 Angst**2

                       Distance Matrix (Angstroms)
             O (  1)   O (  2)
   O (  2)  1.310094
   H (  3)  1.842418  0.976309
 
 A cutoff of  1.0D-12 yielded    629 shell pairs
 There are      4897 function pairs (      6332 Cartesian)
 Smallest overlap matrix eigenvalue = 2.89E-04

 Scale SEOQF with 1.000000e-01/1.000000e-01/1.000000e-01

 Standard Electronic Orientation quadrupole field applied
 Nucleus-field energy     =     0.0000000003 hartrees
 Guess from superposition of atomic densities
 Warning:  Energy on first SCF cycle will be non-variational
 SAD guess density has 17.000000 electrons

 -----------------------------------------------------------------------
  General SCF calculation program by
  Eric Jon Sundstrom, Paul Horn, Yuezhi Mao, Dmitri Zuev, Alec White,
  David Stuck, Shaama M.S., Shane Yost, Joonho Lee, David Small,
  Daniel Levine, Susi Lehtola, Hugh Burton, Evgeny Epifanovsky,
  Bang C. Huynh
 -----------------------------------------------------------------------
 Exchange:     0.1500 Hartree-Fock + 1.0000 wB97M-V + LR-HF
 Correlation:  1.0000 wB97M-V
 Using SG-2 standard quadrature grid
 Nonlocal Correlation:  VV10 with C = 0.0100 and b = 6.00 and scale = 1.00000
 Grid used for NLC:  SG-1 standard quadrature
 
 Citation of the SMD model:
 Marenich, A.V.; Cramer, C.J.; Truhlar, D.G.
 J. Phys. Chem. B 2009, 113, 6378-6396.
 iSolventCode=           1
 Solvent: water                                                           
 
 vradii
            1           2           3
    1   1.5200000   1.5200000   1.2000000
 using 4 threads for integral computing
 -------------------------------------------------------
 OpenMP Integral computing Module                
 Release: version 1.0, May 2013, Q-Chem Inc. Pittsburgh 
 -------------------------------------------------------
 -------------------------------------------------------
 OpenMP BLAS3 based DFT computing Module                
 Release: version 1.0, May 2013, Q-Chem Inc. Pittsburgh 
 -------------------------------------------------------
 A unrestricted SCF calculation will be
 performed using DIIS, GDM
 SCF converges when RMS gradient is below 1.0e-07
 ---------------------------------------
  Cycle       Energy         DIIS error
 ---------------------------------------
    1    -150.9316656864      1.88e-02  
    2    -150.9139486987      2.64e-03  Done DIIS. Switching to GDM
 ---------------------------------------
  Cycle       Energy        RMS Gradient
 ---------------------------------------
    1    -150.9139486987      1.08e-01   Normal BFGS step
    2    -150.9247370073      9.41e-02   Normal BFGS step
    3    -150.9404322344      2.69e-02   Normal BFGS step
    4    -150.9416767977      9.73e-03   Normal BFGS step
    5    -150.9419009067      5.53e-03   Normal BFGS step
    6    -150.9419672906      2.39e-03   Normal BFGS step
    7    -150.9419841946      3.54e-04   Normal BFGS step
    8    -150.9419854294      1.55e-04   Normal BFGS step
    9    -150.9419856091      5.08e-05   Normal BFGS step
   10    -150.9419856303      1.05e-05   Normal BFGS step
   11    -150.9419856321      3.43e-06   Normal BFGS step
   12    -150.9419856323      1.46e-06   Normal BFGS step
   13    -150.9419856323      4.28e-07   Normal BFGS step
   14    -150.9419856323      1.47e-07   Normal BFGS step
   15    -150.9419856323      5.58e-08  Convergence criterion met
 ---------------------------------------
 SCF time:   CPU 46.39s  wall 12.00s 
<S^2> =          0.753722260
(3)  G-ENP(liq) elect-nuc-pol free energy of system     -150.941985632 a.u.
(4)  G-CDS(liq) cavity-dispersion-solvent structure 
     free energy                                                0.6953 kcal/mol
(6)  G-S(liq) free energy of system                     -150.940877571 a.u.
 SCF   energy in the final basis set =     -150.9408775706
 Total energy in the final basis set =     -150.9408775706
 
 --------------------------------------------------------------
 
                    Orbital Energies (a.u.)
 --------------------------------------------------------------
 
 Alpha MOs
 -- Occupied --
-19.4541 -19.4194  -1.3359  -0.9946  -0.6781  -0.6113  -0.5991  -0.4130
 -0.4062
 -- Virtual --
  0.0611   0.0699   0.0961   0.1026   0.1395   0.1430   0.1462   0.2069
  0.2373   0.2562   0.3058   0.3231   0.3260   0.4404   0.4604   0.4656
  0.4993   0.5284   0.5310   0.5348   0.5357   0.5684   0.6134   0.6743
  0.7423   0.7629   0.8509   0.9271   0.9393   0.9508   0.9837   1.0874
  1.1952   1.2646   1.3911   1.5462   1.6967   1.7195   1.7686   1.9598
  1.9978   2.1354   2.1824   2.3428   2.4636   2.6685   2.7016   2.8419
  3.0461   3.0463   3.1397   3.2737   3.3543   3.4026   3.4442   3.8365
  3.9304   4.0526   4.1214   4.2809   4.4530   4.7965   4.9040   4.9616
  5.0339   5.1292   5.1895   5.2438   5.3785   5.7228   6.1263   6.2372
  6.3851   6.4106   6.4826   6.5288   6.5364   6.6087   6.6816   6.7625
  6.9712   7.1470   7.1966   7.5270   7.6087   8.6136  43.9106  44.5782
 
 Beta MOs
 -- Occupied --
-19.4445 -19.3998  -1.3089  -0.9538  -0.6610  -0.5802  -0.5277  -0.3908
 -- Virtual --
 -0.0274   0.0623   0.0712   0.0973   0.1056   0.1406   0.1444   0.1503
  0.2194   0.2419   0.2576   0.3075   0.3278   0.3321   0.4431   0.4638
  0.4682   0.5023   0.5316   0.5325   0.5381   0.5407   0.5762   0.6151
  0.6923   0.7470   0.7658   0.8571   0.9300   0.9515   0.9518   0.9860
  1.0902   1.1956   1.2701   1.3951   1.5740   1.7023   1.7451   1.8064
  1.9819   2.0113   2.1477   2.2159   2.3505   2.4751   2.7081   2.7367
  2.8612   3.0625   3.1053   3.1684   3.2958   3.3615   3.4075   3.4531
  3.8476   3.9379   4.0574   4.1243   4.2887   4.4699   4.8327   4.9250
  4.9912   5.0629   5.1481   5.2503   5.2947   5.4065   5.7523   6.1449
  6.2913   6.4494   6.4998   6.5324   6.5525   6.5943   6.6372   6.7188
  6.7843   6.9916   7.1900   7.2212   7.5454   7.6257   8.6314  43.9246
 44.5899
 --------------------------------------------------------------
 
          Ground-State Mulliken Net Atomic Charges

     Atom                 Charge (a.u.)    Spin (a.u.)
  --------------------------------------------------------
      1 O                    -0.244096       0.710512
      2 O                    -0.044734       0.297745
      3 H                     0.288830      -0.008257
  --------------------------------------------------------
  Sum of atomic charges =     0.000000
  Sum of spin   charges =     1.000000

 -----------------------------------------------------------------
                    Cartesian Multipole Moments
 -----------------------------------------------------------------
    Charge (ESU x 10^10)
                 0.0000
    Dipole Moment (Debye)
         X      -2.2443      Y      -1.9256      Z       0.0000
       Tot       2.9572
    Quadrupole Moments (Debye-Ang)
        XX     -10.6743     XY       2.0262     YY     -10.4283
        XZ      -0.0000     YZ       0.0000     ZZ     -11.2119
    Octopole Moments (Debye-Ang^2)
       XXX      -3.7347    XXY      -2.3415    XYY      -2.3777
       YYY      -2.0243    XXZ       0.0000    XYZ       0.0000
       YYZ       0.0000    XZZ      -0.2645    YZZ      -0.2952
       ZZZ       0.0000
    Hexadecapole Moments (Debye-Ang^3)
      XXXX     -36.6610   XXXY       2.4352   XXYY      -7.9794
      XYYY       2.1729   YYYY     -10.6524   XXXZ      -0.0000
      XXYZ       0.0000   XYYZ      -0.0000   YYYZ       0.0000
      XXZZ      -8.2667   XYZZ       0.2966   YYZZ      -3.4965
      XZZZ      -0.0000   YZZZ       0.0000   ZZZZ      -9.1440
 -----------------------------------------------------------------
 Total job time:  14.05s(wall), 48.02s(cpu) 
 Thu Dec  7 15:55:05 2023

        *************************************************************
        *                                                           *
        *  Thank you very much for using Q-Chem.  Have a nice day.  *
        *                                                           *
        *************************************************************


