
Running Job 1 of 1 Q_in.in
qchem Q_in.in_9953.0 /scratch/ari.fischer/qChem1912872.hpc-mn1/qchem9953/ 0
/usr/local/qchem-5.4.1/exe/qcprog.exe_s Q_in.in_9953.0 /scratch/ari.fischer/qChem1912872.hpc-mn1/qchem9953/
                  Welcome to Q-Chem
     A Quantum Leap Into The Future Of Chemistry


 Q-Chem 5.4, Q-Chem, Inc., Pleasanton, CA (2021)

 License issued to: Nanyang Technological University (site)

 E. Epifanovsky,  A. T. B. Gilbert,  Xintian Feng,  Joonho Lee,  Yuezhi Mao,  
 N. Mardirossian,  P. Pokhilko,  A. White,  M. Wormit,  M. P. Coons,  
 A. L. Dempwolff,  Zhengting Gan,  D. Hait,  P. R. Horn,  L. D. Jacobson,  
 I. Kaliman,  J. Kussmann,  A. W. Lange,  Ka Un Lao,  D. S. Levine,  Jie Liu,  
 S. C. McKenzie,  A. F. Morrison,  K. Nanda,  F. Plasser,  D. R. Rehn,  
 M. L. Vidal,  Zhi-Qiang You,  Ying Zhu,  B. Alam,  B. Albrecht,  
 A. Aldossary,  E. Alguire,  J. H. Andersen,  D. Barton,  K. Begam,  A. Behn,  
 Y. A. Bernard,  E. J. Berquist,  H. Burton,  A. Carreras,  K. Carter-Fenk,  
 R. Chakraborty,  A. D. Chien,  K. D. Closser,  V. Cofer-Shabica,  
 S. Dasgupta,  Jia Deng,  M. de Wergifosse,  M. Diedenhofen,  Hainam Do,  
 S. Ehlert,  Po-Tung Fang,  S. Fatehi,  Qingguo Feng,  T. Friedhoff,  
 J. Gayvert,  Qinghui Ge,  G. Gidofalvi,  M. Goldey,  J. Gomes,  
 C. Gonzalez-Espinoza,  S. Gulania,  A. Gunina,  M. W. D. Hanson-Heine,  
 P. H. P. Harbach,  A. W. Hauser,  M. F. Herbst,  M. Hernandez Vera,  
 M. Hodecker,  Z. C. Holden,  S. Houck,  Xunkun Huang,  Kerwin Hui,  
 B. C. Huynh,  M. Ivanov,  Hyunjun Ji,  Hanjie Jiang,  B. Kaduk,  S. Kaehler,  
 K. Khistyaev,  Jaehoon Kim,  P. Klunzinger,  Z. Koczor-Benda,  
 Joong Hoon Koh,  D. Kosenkov,  L. Koulias,  T. Kowalczyk,  C. M. Krauter,  
 K. Kue,  A. Kunitsa,  T. Kus,  A. Landau,  K. V. Lawler,  D. Lefrancois,  
 S. Lehtola,  Rain Li,  Yi-Pei Li,  Jiashu Liang,  M. Liebenthal,  
 Hung-Hsuan Lin,  You-Sheng Lin,  Fenglai Liu,  Kuan-Yu Liu,  
 M. Loipersberger,  A. Luenser,  A. Manjanath,  P. Manohar,  E. Mansoor,  
 S. F. Manzer,  Shan-Ping Mao,  A. V. Marenich,  T. Markovich,  S. Mason,  
 S. A. Maurer,  P. F. McLaughlin,  M. F. S. J. Menger,  J.-M. Mewes,  
 S. A. Mewes,  P. Morgante,  J. W. Mullinax,  K. J. Oosterbaan,  G. Paran,  
 Alexander C. Paul,  Suranjan K. Paul,  F. Pavosevic,  Zheng Pei,  S. Prager,  
 E. I. Proynov,  E. Ramos,  B. Rana,  A. E. Rask,  A. Rettig,  R. M. Richard,  
 F. Rob,  E. Rossomme,  T. Scheele,  M. Scheurer,  M. Schneider,  
 N. Sergueev,  S. M. Sharada,  W. Skomorowski,  D. W. Small,  C. J. Stein,  
 Yu-Chuan Su,  E. J. Sundstrom,  Zhen Tao,  J. Thirman,  T. Tsuchimochi,  
 N. M. Tubman,  S. P. Veccham,  O. Vydrov,  J. Wenzel,  J. Witte,  A. Yamada,  
 Kun Yao,  S. Yeganeh,  S. R. Yost,  A. Zech,  Igor Ying Zhang,  Xing Zhang,  
 Yu Zhang,  D. Zuev,  A. Aspuru-Guzik,  A. T. Bell,  N. A. Besley,  
 K. B. Bravaya,  B. R. Brooks,  D. Casanova,  Jeng-Da Chai,  S. Coriani,  
 C. J. Cramer,  A. E. DePrince, III,  R. A. DiStasio Jr.,  A. Dreuw,  
 B. D. Dunietz,  T. R. Furlani,  W. A. Goddard III,  S. Grimme,  
 S. Hammes-Schiffer,  T. Head-Gordon,  W. J. Hehre,  Chao-Ping Hsu,  
 T.-C. Jagau,  Yousung Jung,  A. Klamt,  Jing Kong,  D. S. Lambrecht,  
 WanZhen Liang,  N. J. Mayhall,  C. W. McCurdy,  J. B. Neaton,  
 C. Ochsenfeld,  J. A. Parkhill,  R. Peverati,  V. A. Rassolov,  Yihan Shao,  
 L. V. Slipchenko,  T. Stauch,  R. P. Steele,  J. E. Subotnik,  
 A. J. W. Thom,  A. Tkatchenko,  D. G. Truhlar,  T. Van Voorhis,  
 T. A. Wesolowski,  K. B. Whaley,  H. L. Woodcock III,  P. M. Zimmerman,  
 S. Faraji,  P. M. W. Gill,  M. Head-Gordon,  J. M. Herbert,  A. I. Krylov

 Additional authors for Version 5.4.1: 
 S. Kotaru,  Shaozhi Li,  Xiangyuan Li,  F. Matz,  A. Molle,  Haisheng Ren,  
 Yingli Su,  Hung-Yi Tsai,  C. Utku,  Fang Wang

 Contributors to earlier versions of Q-Chem not listed above: 
 R. D. Adamson,  B. Austin,  R. Baer,  J. Baker,  G. J. O. Beran,  
 K. Brandhorst,  S. T. Brown,  E. F. C. Byrd,  A. K. Chakraborty,  
 G. K. L. Chan,  Chun-Min Chang,  Yunqing Chen,  C.-L. Cheng,  
 Siu Hung Chien,  D. M. Chipman,  D. L. Crittenden,  H. Dachsel,  
 R. J. Doerksen,  A. D. Dutoi,  R. G. Edgar,  J. Fosso-Tande,  
 L. Fusti-Molnar,  D. Ghosh,  A. Ghysels,  A. Golubeva-Zadorozhnaya,  
 J. Gonthier,  M. S. Gordon,  S. R. Gwaltney,  G. Hawkins,  J. E. Herr,  
 A. Heyden,  S. Hirata,  E. G. Hohenstein,  G. Kedziora,  F. J. Keil,  
 C. Kelley,  Jihan Kim,  R. A. King,  R. Z. Khaliullin,  P. P. Korambath,  
 W. Kurlancheek,  A. Laurent,  A. M. Lee,  M. S. Lee,  S. V. Levchenko,  
 Ching Yeh Lin,  D. Liotard,  E. Livshits,  R. C. Lochan,  I. Lotan,  
 L. A. Martinez-Martinez,  P. E. Maslen,  N. Nair,  D. P. O'Neill,  
 D. Neuhauser,  E. Neuscamman,  C. M. Oana,  R. Olivares-Amaya,  R. Olson,  
 T. M. Perrine,  B. Peters,  P. A. Pieniazek,  A. Prociuk,  Y. M. Rhee,  
 J. Ritchie,  M. A. Rohrdanz,  E. Rosta,  N. J. Russ,  H. F. Schaefer III,  
 M. W. Schmidt,  N. E. Schultz,  S. Sharma,  N. Shenvi,  C. D. Sherrill,  
 A. C. Simmonett,  A. Sodt,  T. Stein,  D. Stuck,  K. S. Thanthiriwatte,  
 V. Vanovschi,  L. Vogt,  Tao Wang,  A. Warshel,  M. A. Watson,  
 C. F. Williams,  Q. Wu,  X. Xu,  Jun Yang,  W. Zhang,  Yan Zhao

 Please cite Q-Chem as follows:
 Y. Shao et al., Mol. Phys. 113, 184-215 (2015)
 DOI: 10.1080/00268976.2014.952696

 Q-Chem 5.4.1 for Intel X86 EM64T Linux

 Parts of Q-Chem use Armadillo 9.800.1 (Horizon Scraper).
 http://arma.sourceforge.net/

 Q-Chem begins on Mon Feb  5 12:38:30 2024  

 Host: 
0

     Scratch files written to /scratch/ari.fischer/qChem1912872.hpc-mn1/qchem9953//
 Aug1521 |scratch|qcdevops|jenkins|workspace|build_RNUM 8249   
 Processing $rem in /usr/local/qchem-5.4.1/config/preferences:
 Processing $rem in /home/ari.fischer/.qchemrc:
 Symmetry turned off for PCM/SM12/SMD calculation

 Checking the input file for inconsistencies... 	...done.

--------------------------------------------------------------
User input:
--------------------------------------------------------------
$molecule
0 2
O        -0.7265937369    0.9841477964    0.4577690803
C        -0.2402478792   -0.2480819922    0.2787714565
O        -1.0332743381   -1.2873550349    0.0253175921
C         1.1606206866   -0.4586142849    0.3412688524
O         1.9284314593    0.6167230263    0.6653942023
O         1.7012960441   -1.5446342061    0.1197841305
H        -1.6551020347    0.9778739983    0.7336224659
H        -1.9370777822   -1.0038659970   -0.1746886398
H         1.3743443810    1.3906540943    0.8401361600
$end

$rem
BASIS = def2-TZVPPD
JOB_TYPE = SP
METHOD = wB97M-V
SCF_ALGORITHM = DIIS_GDM
MAX_SCF_CYCLES = 400
SCF_CONVERGENCE = 7
THRESH = 12
Solvent_method = SMD
$end
--------------------------------------------------------------
 ----------------------------------------------------------------
             Standard Nuclear Orientation (Angstroms)
    I     Atom           X                Y                Z
 ----------------------------------------------------------------
    1      O      -0.7265937369     0.9841477964     0.4577690803
    2      C      -0.2402478792    -0.2480819922     0.2787714565
    3      O      -1.0332743381    -1.2873550349     0.0253175921
    4      C       1.1606206866    -0.4586142849     0.3412688524
    5      O       1.9284314593     0.6167230263     0.6653942023
    6      O       1.7012960441    -1.5446342061     0.1197841305
    7      H      -1.6551020347     0.9778739983     0.7336224659
    8      H      -1.9370777822    -1.0038659970    -0.1746886398
    9      H       1.3743443810     1.3906540943     0.8401361600
 ----------------------------------------------------------------
 Nuclear Repulsion Energy =         241.63915279 hartrees
 There are       24 alpha and       23 beta electrons
 Requested basis set is def2-TZVPPD
 There are 103 shells and 285 basis functions

 Total QAlloc Memory Limit 288000 MB
 Mega-Array Size       188 MB
 MEM_STATIC part       192 MB
 
 Citation of the SMD model:
 Marenich, A.V.; Cramer, C.J.; Truhlar, D.G.
 J. Phys. Chem. B 2009, 113, 6378-6396.
 iSolventCode=           1
 Solvent: water                                                           
 
 vradii
            1           2           3           4           5           6
    1   1.5200000   1.8500000   1.5200000   1.8500000   1.5200000   1.5200000
            7           8           9
    1   1.2000000   1.2000000   1.2000000
 Changing PCM_VDW_RADII to SMD_RADIUS
 Discretize the solute cavity surface with Lebedev spheres
	Using 110 Lebedev grid points for each H atom
	Using 194 Lebedev grid points for other atoms
	Atomic van der Waals radii will be scaled by 1.20
 Remove points where switching function is < 1.0e-08
 Keep 817 surface tesserae and discard 677 interior tesserae
 Molecular Surface Area = 98.014 Angst**2

                       Distance Matrix (Angstroms)
             O (  1)   C (  2)   O (  3)   C (  4)   O (  5)   O (  6)
   C (  2)  1.336773
   O (  3)  2.332551  1.331622
   C (  4)  2.378385  1.417978  2.366392
   O (  5)  2.688358  2.366545  3.578675  1.360493
   O (  6)  3.521877  2.340068  2.748271  1.233217  2.240702
   H (  7)  0.968639  1.926569  2.453493  3.185237  3.602332  4.243260
   H (  8)  2.411944  1.912085  0.968106  3.187357  4.274834  3.690110
   H (  9)  2.173797  2.368015  3.692193  1.927262  0.967738  3.040020
             H (  7)   H (  8)
   H (  8)  2.198143
   H (  9)  3.059294  4.210595
 
 A cutoff of  1.0D-12 yielded   5103 shell pairs
 There are     39437 function pairs (     50939 Cartesian)
 Smallest overlap matrix eigenvalue = 3.35E-06

 Scale SEOQF with 1.000000e-01/1.000000e-01/1.000000e-01

 Standard Electronic Orientation quadrupole field applied
 Nucleus-field energy     =     0.0000000056 hartrees
 Guess from superposition of atomic densities
 Warning:  Energy on first SCF cycle will be non-variational
 SAD guess density has 47.000000 electrons

 -----------------------------------------------------------------------
  General SCF calculation program by
  Eric Jon Sundstrom, Paul Horn, Yuezhi Mao, Dmitri Zuev, Alec White,
  David Stuck, Shaama M.S., Shane Yost, Joonho Lee, David Small,
  Daniel Levine, Susi Lehtola, Hugh Burton, Evgeny Epifanovsky,
  Bang C. Huynh
 -----------------------------------------------------------------------
 Exchange:     0.1500 Hartree-Fock + 1.0000 wB97M-V + LR-HF
 Correlation:  1.0000 wB97M-V
 Using SG-2 standard quadrature grid
 Nonlocal Correlation:  VV10 with C = 0.0100 and b = 6.00 and scale = 1.00000
 Grid used for NLC:  SG-1 standard quadrature
 
 Citation of the SMD model:
 Marenich, A.V.; Cramer, C.J.; Truhlar, D.G.
 J. Phys. Chem. B 2009, 113, 6378-6396.
 iSolventCode=           1
 Solvent: water                                                           
 
 vradii
            1           2           3           4           5           6
    1   1.5200000   1.8500000   1.5200000   1.8500000   1.5200000   1.5200000
            7           8           9
    1   1.2000000   1.2000000   1.2000000
 using 4 threads for integral computing
 -------------------------------------------------------
 OpenMP Integral computing Module                
 Release: version 1.0, May 2013, Q-Chem Inc. Pittsburgh 
 -------------------------------------------------------
 -------------------------------------------------------
 OpenMP BLAS3 based DFT computing Module                
 Release: version 1.0, May 2013, Q-Chem Inc. Pittsburgh 
 -------------------------------------------------------
 A unrestricted SCF calculation will be
 performed using DIIS, GDM
 SCF converges when RMS gradient is below 1.0e-07
 ---------------------------------------
  Cycle       Energy         DIIS error
 ---------------------------------------
    1    -380.1912647416      1.44e-02  
    2    -378.7981670626      2.32e-03  Done DIIS. Switching to GDM
 ---------------------------------------
  Cycle       Energy        RMS Gradient
 ---------------------------------------
    1    -378.7981670626      1.35e-01   Descent step
    2    -378.9526336710      2.68e-02   Normal BFGS step
    3    -378.9667402992      1.50e-02   Normal BFGS step
    4    -378.9677399009      1.32e-02   Normal BFGS step
    5    -378.9684870062      3.74e-03   Normal BFGS step
    6    -378.9685401393      2.19e-03   Normal BFGS step
    7    -378.9685595880      6.91e-04   Normal BFGS step
    8    -378.9685618150      2.29e-04   Normal BFGS step
    9    -378.9685624493      9.12e-05   Normal BFGS step
   10    -378.9685624898      5.81e-05   Normal BFGS step
   11    -378.9685625017      2.28e-05   Normal BFGS step
   12    -378.9685625032      1.12e-05   Normal BFGS step
   13    -378.9685625037      4.47e-06   Normal BFGS step
   14    -378.9685625038      1.05e-06   Normal BFGS step
   15    -378.9685625038      7.03e-07   Normal BFGS step
   16    -378.9685625038      1.56e-07   Normal BFGS step
   17    -378.9685625038      6.97e-08  Convergence criterion met
 ---------------------------------------
 SCF time:   CPU 743.45s  wall 189.00s 
<S^2> =          0.753937999
(3)  G-ENP(liq) elect-nuc-pol free energy of system     -378.968562504 a.u.
(4)  G-CDS(liq) cavity-dispersion-solvent structure 
     free energy                                                5.2038 kcal/mol
(6)  G-S(liq) free energy of system                     -378.960269791 a.u.
 SCF   energy in the final basis set =     -378.9602697910
 Total energy in the final basis set =     -378.9602697910
 
 --------------------------------------------------------------
 
                    Orbital Energies (a.u.)
 --------------------------------------------------------------
 
 Alpha MOs
 -- Occupied --
-19.3958 -19.3946 -19.3734 -19.3193 -10.4850 -10.4770  -1.2681  -1.2227
 -1.1938  -1.1433  -0.8749  -0.7328  -0.7226  -0.6823  -0.6128  -0.5903
 -0.5675  -0.5414  -0.5194  -0.4945  -0.4862  -0.4404  -0.4059  -0.2769
 -- Virtual --
  0.0306   0.0537   0.0615   0.0781   0.0869   0.0999   0.1055   0.1083
  0.1147   0.1367   0.1410   0.1468   0.1547   0.1596   0.1728   0.1860
  0.1985   0.2145   0.2317   0.2467   0.2597   0.2736   0.2786   0.2940
  0.3098   0.3149   0.3218   0.3279   0.3327   0.3413   0.3465   0.3552
  0.3660   0.3740   0.3790   0.3895   0.3906   0.4152   0.4218   0.4287
  0.4379   0.4399   0.4489   0.4743   0.4794   0.4889   0.5100   0.5240
  0.5361   0.5423   0.5540   0.5576   0.5876   0.5926   0.6003   0.6074
  0.6287   0.6302   0.6407   0.6479   0.6558   0.6627   0.6763   0.6895
  0.6977   0.7101   0.7180   0.7329   0.7508   0.7695   0.7917   0.8031
  0.8213   0.8340   0.8491   0.8802   0.8869   0.9091   0.9163   0.9373
  0.9635   0.9683   0.9861   1.0021   1.0260   1.0410   1.0497   1.0807
  1.0986   1.1154   1.1377   1.1804   1.2086   1.2254   1.2435   1.2556
  1.2609   1.2789   1.2904   1.2959   1.3175   1.3531   1.3864   1.3915
  1.4150   1.4830   1.5035   1.5449   1.5536   1.6041   1.6679   1.6780
  1.7639   1.7789   1.8296   1.8549   1.8894   1.9145   1.9425   2.0108
  2.0441   2.0714   2.1040   2.1214   2.1776   2.1906   2.2254   2.2625
  2.2975   2.3199   2.3467   2.3631   2.3819   2.4245   2.4288   2.4858
  2.6061   2.6373   2.6730   2.7296   2.7527   2.8287   2.8526   2.8819
  2.9285   2.9530   2.9647   3.0477   3.0897   3.0982   3.1187   3.1590
  3.2152   3.2335   3.2698   3.2838   3.2936   3.3035   3.3254   3.3465
  3.3841   3.3966   3.4169   3.4376   3.4546   3.4775   3.5050   3.5311
  3.5477   3.5752   3.5975   3.6270   3.6428   3.6758   3.7119   3.7379
  3.7568   3.7833   3.7943   3.8183   3.9740   4.0043   4.0271   4.0638
  4.0911   4.1102   4.1696   4.2023   4.2180   4.2229   4.3278   4.4035
  4.4297   4.4672   4.5046   4.5288   4.6083   4.6806   4.7030   4.8278
  4.8788   4.9813   5.0703   5.0912   5.1530   5.1718   5.2141   5.2829
  5.3435   5.4148   5.5324   5.5823   5.6359   5.7053   5.7095   5.7526
  5.8605   5.9479   5.9834   6.0367   6.1692   6.2121   6.2719   6.2977
  6.4615   6.5288   6.5773   6.5953   6.6502   6.6663   6.6831   6.7309
  6.7362   6.7510   6.7889   6.8192   6.8582   6.8670   6.9226   6.9541
  7.0069   7.0240   7.0607   7.1038   7.2095   7.2616   7.2855   7.3245
  7.3869   7.5354   7.5691   7.6905   7.7231   7.7411   7.8758  23.4392
 23.8080  44.5735  44.6829  44.7160  44.9354
 
 Beta MOs
 -- Occupied --
-19.3928 -19.3913 -19.3723 -19.3142 -10.4767 -10.4757  -1.2600  -1.2184
 -1.1866  -1.1361  -0.8565  -0.7283  -0.7165  -0.6760  -0.5886  -0.5825
 -0.5607  -0.5247  -0.5139  -0.4893  -0.4611  -0.4169  -0.3989
 -- Virtual --
 -0.0002   0.0304   0.0536   0.0615   0.0782   0.0867   0.0999   0.1051
  0.1096   0.1148   0.1366   0.1410   0.1532   0.1596   0.1735   0.1869
  0.1923   0.1990   0.2153   0.2326   0.2498   0.2614   0.2744   0.2827
  0.2945   0.3095   0.3160   0.3243   0.3305   0.3341   0.3428   0.3500
  0.3559   0.3681   0.3764   0.3800   0.3905   0.3964   0.4174   0.4211
  0.4290   0.4398   0.4452   0.4509   0.4774   0.4807   0.4901   0.5125
  0.5249   0.5368   0.5435   0.5543   0.5589   0.5875   0.5932   0.6018
  0.6075   0.6296   0.6316   0.6424   0.6504   0.6571   0.6664   0.6790
  0.6932   0.7019   0.7123   0.7197   0.7336   0.7517   0.7718   0.7929
  0.8046   0.8241   0.8368   0.8499   0.8826   0.8884   0.9154   0.9183
  0.9423   0.9651   0.9708   0.9880   1.0046   1.0313   1.0499   1.0517
  1.0815   1.1054   1.1174   1.1394   1.1822   1.2101   1.2287   1.2445
  1.2576   1.2629   1.2838   1.2921   1.3011   1.3217   1.3546   1.3889
  1.3953   1.4175   1.4855   1.5070   1.5516   1.5586   1.6096   1.6878
  1.6929   1.7674   1.7973   1.8413   1.8646   1.8961   1.9241   1.9524
  2.0193   2.0579   2.0819   2.1091   2.1292   2.1837   2.1992   2.2341
  2.2682   2.3045   2.3274   2.3507   2.3710   2.3870   2.4287   2.4344
  2.4916   2.6153   2.6467   2.7053   2.7394   2.7634   2.8413   2.8632
  2.9019   2.9386   2.9666   2.9736   3.0585   3.1070   3.1172   3.1351
  3.1777   3.2248   3.2444   3.2780   3.2974   3.3054   3.3163   3.3397
  3.3584   3.3959   3.4120   3.4355   3.4478   3.4688   3.4852   3.5132
  3.5367   3.5556   3.5820   3.6045   3.6358   3.6520   3.6848   3.7224
  3.7461   3.7651   3.7914   3.8041   3.8266   3.9812   4.0090   4.0346
  4.0718   4.0960   4.1212   4.1759   4.2167   4.2242   4.2405   4.3349
  4.4086   4.4343   4.4714   4.5082   4.5367   4.6150   4.6876   4.7102
  4.8369   4.9226   4.9907   5.0762   5.0961   5.1565   5.1768   5.2187
  5.2975   5.3571   5.4207   5.5384   5.5906   5.6451   5.7136   5.7184
  5.7583   5.8686   5.9588   5.9928   6.0455   6.1793   6.2228   6.2855
  6.3056   6.4701   6.5397   6.5888   6.6057   6.6660   6.6774   6.6917
  6.7382   6.7447   6.7640   6.7993   6.8242   6.8676   6.8777   6.9312
  6.9603   7.0189   7.0327   7.0696   7.1108   7.2152   7.2674   7.2900
  7.3298   7.3939   7.5391   7.5724   7.6956   7.7295   7.7458   7.8805
 23.4454  23.8124  44.5760  44.6859  44.7190  44.9380
 --------------------------------------------------------------
 
          Ground-State Mulliken Net Atomic Charges

     Atom                 Charge (a.u.)    Spin (a.u.)
  --------------------------------------------------------
      1 O                    -0.367539       0.080699
      2 C                     0.577717       0.466137
      3 O                    -0.338034       0.092031
      4 C                     0.570282       0.148959
      5 O                    -0.429024       0.033206
      6 O                    -0.760098       0.181486
      7 H                     0.241854       0.001202
      8 H                     0.243284      -0.002161
      9 H                     0.261558      -0.001558
  --------------------------------------------------------
  Sum of atomic charges =    -0.000000
  Sum of spin   charges =     1.000000

 -----------------------------------------------------------------
                    Cartesian Multipole Moments
 -----------------------------------------------------------------
    Charge (ESU x 10^10)
                -0.0000
    Dipole Moment (Debye)
         X      -9.2188      Y       5.3342      Z       0.9665
       Tot      10.6945
    Quadrupole Moments (Debye-Ang)
        XX     -34.8098     XY       6.8488     YY     -40.8544
        XZ      -2.0648     YZ       2.3931     ZZ     -33.1647
    Octopole Moments (Debye-Ang^2)
       XXX    -100.0806    XXY      22.0061    XYY     -26.0169
       YYY      53.5102    XXZ     -11.9918    XYZ      -1.2728
       YYZ      -8.3314    XZZ     -17.6329    YZZ      12.5377
       ZZZ     -31.9263
    Hexadecapole Moments (Debye-Ang^3)
      XXXX    -396.0544   XXXY      43.9284   XXYY    -112.2134
      XYYY      46.1705   YYYY    -260.2439   XXXZ     -40.4723
      XXYZ       4.9587   XYYZ      -6.7073   YYYZ      -2.1125
      XXZZ     -73.6222   XYZZ       6.7872   YYZZ     -48.3950
      XZZZ     -27.2924   YZZZ      -8.8881   ZZZZ     -63.1487
 -----------------------------------------------------------------
 Total job time:  189.11s(wall), 745.56s(cpu) 
 Mon Feb  5 12:41:39 2024

        *************************************************************
        *                                                           *
        *  Thank you very much for using Q-Chem.  Have a nice day.  *
        *                                                           *
        *************************************************************


