
Running Job 1 of 2 Q_in.in
qchem Q_in.in_51577.0 /scratch/ari.fischer/qChem1813353.hpc-mn1/qchem51577/ 0
/usr/local/qchem-5.4.1/exe/qcprog.exe_s Q_in.in_51577.0 /scratch/ari.fischer/qChem1813353.hpc-mn1/qchem51577/
                  Welcome to Q-Chem
     A Quantum Leap Into The Future Of Chemistry


 Q-Chem 5.4, Q-Chem, Inc., Pleasanton, CA (2021)

 License issued to: Nanyang Technological University (site)

 E. Epifanovsky,  A. T. B. Gilbert,  Xintian Feng,  Joonho Lee,  Yuezhi Mao,  
 N. Mardirossian,  P. Pokhilko,  A. White,  M. Wormit,  M. P. Coons,  
 A. L. Dempwolff,  Zhengting Gan,  D. Hait,  P. R. Horn,  L. D. Jacobson,  
 I. Kaliman,  J. Kussmann,  A. W. Lange,  Ka Un Lao,  D. S. Levine,  Jie Liu,  
 S. C. McKenzie,  A. F. Morrison,  K. Nanda,  F. Plasser,  D. R. Rehn,  
 M. L. Vidal,  Zhi-Qiang You,  Ying Zhu,  B. Alam,  B. Albrecht,  
 A. Aldossary,  E. Alguire,  J. H. Andersen,  D. Barton,  K. Begam,  A. Behn,  
 Y. A. Bernard,  E. J. Berquist,  H. Burton,  A. Carreras,  K. Carter-Fenk,  
 R. Chakraborty,  A. D. Chien,  K. D. Closser,  V. Cofer-Shabica,  
 S. Dasgupta,  Jia Deng,  M. de Wergifosse,  M. Diedenhofen,  Hainam Do,  
 S. Ehlert,  Po-Tung Fang,  S. Fatehi,  Qingguo Feng,  T. Friedhoff,  
 J. Gayvert,  Qinghui Ge,  G. Gidofalvi,  M. Goldey,  J. Gomes,  
 C. Gonzalez-Espinoza,  S. Gulania,  A. Gunina,  M. W. D. Hanson-Heine,  
 P. H. P. Harbach,  A. W. Hauser,  M. F. Herbst,  M. Hernandez Vera,  
 M. Hodecker,  Z. C. Holden,  S. Houck,  Xunkun Huang,  Kerwin Hui,  
 B. C. Huynh,  M. Ivanov,  Hyunjun Ji,  Hanjie Jiang,  B. Kaduk,  S. Kaehler,  
 K. Khistyaev,  Jaehoon Kim,  P. Klunzinger,  Z. Koczor-Benda,  
 Joong Hoon Koh,  D. Kosenkov,  L. Koulias,  T. Kowalczyk,  C. M. Krauter,  
 K. Kue,  A. Kunitsa,  T. Kus,  A. Landau,  K. V. Lawler,  D. Lefrancois,  
 S. Lehtola,  Rain Li,  Yi-Pei Li,  Jiashu Liang,  M. Liebenthal,  
 Hung-Hsuan Lin,  You-Sheng Lin,  Fenglai Liu,  Kuan-Yu Liu,  
 M. Loipersberger,  A. Luenser,  A. Manjanath,  P. Manohar,  E. Mansoor,  
 S. F. Manzer,  Shan-Ping Mao,  A. V. Marenich,  T. Markovich,  S. Mason,  
 S. A. Maurer,  P. F. McLaughlin,  M. F. S. J. Menger,  J.-M. Mewes,  
 S. A. Mewes,  P. Morgante,  J. W. Mullinax,  K. J. Oosterbaan,  G. Paran,  
 Alexander C. Paul,  Suranjan K. Paul,  F. Pavosevic,  Zheng Pei,  S. Prager,  
 E. I. Proynov,  E. Ramos,  B. Rana,  A. E. Rask,  A. Rettig,  R. M. Richard,  
 F. Rob,  E. Rossomme,  T. Scheele,  M. Scheurer,  M. Schneider,  
 N. Sergueev,  S. M. Sharada,  W. Skomorowski,  D. W. Small,  C. J. Stein,  
 Yu-Chuan Su,  E. J. Sundstrom,  Zhen Tao,  J. Thirman,  T. Tsuchimochi,  
 N. M. Tubman,  S. P. Veccham,  O. Vydrov,  J. Wenzel,  J. Witte,  A. Yamada,  
 Kun Yao,  S. Yeganeh,  S. R. Yost,  A. Zech,  Igor Ying Zhang,  Xing Zhang,  
 Yu Zhang,  D. Zuev,  A. Aspuru-Guzik,  A. T. Bell,  N. A. Besley,  
 K. B. Bravaya,  B. R. Brooks,  D. Casanova,  Jeng-Da Chai,  S. Coriani,  
 C. J. Cramer,  A. E. DePrince, III,  R. A. DiStasio Jr.,  A. Dreuw,  
 B. D. Dunietz,  T. R. Furlani,  W. A. Goddard III,  S. Grimme,  
 S. Hammes-Schiffer,  T. Head-Gordon,  W. J. Hehre,  Chao-Ping Hsu,  
 T.-C. Jagau,  Yousung Jung,  A. Klamt,  Jing Kong,  D. S. Lambrecht,  
 WanZhen Liang,  N. J. Mayhall,  C. W. McCurdy,  J. B. Neaton,  
 C. Ochsenfeld,  J. A. Parkhill,  R. Peverati,  V. A. Rassolov,  Yihan Shao,  
 L. V. Slipchenko,  T. Stauch,  R. P. Steele,  J. E. Subotnik,  
 A. J. W. Thom,  A. Tkatchenko,  D. G. Truhlar,  T. Van Voorhis,  
 T. A. Wesolowski,  K. B. Whaley,  H. L. Woodcock III,  P. M. Zimmerman,  
 S. Faraji,  P. M. W. Gill,  M. Head-Gordon,  J. M. Herbert,  A. I. Krylov

 Additional authors for Version 5.4.1: 
 S. Kotaru,  Shaozhi Li,  Xiangyuan Li,  F. Matz,  A. Molle,  Haisheng Ren,  
 Yingli Su,  Hung-Yi Tsai,  C. Utku,  Fang Wang

 Contributors to earlier versions of Q-Chem not listed above: 
 R. D. Adamson,  B. Austin,  R. Baer,  J. Baker,  G. J. O. Beran,  
 K. Brandhorst,  S. T. Brown,  E. F. C. Byrd,  A. K. Chakraborty,  
 G. K. L. Chan,  Chun-Min Chang,  Yunqing Chen,  C.-L. Cheng,  
 Siu Hung Chien,  D. M. Chipman,  D. L. Crittenden,  H. Dachsel,  
 R. J. Doerksen,  A. D. Dutoi,  R. G. Edgar,  J. Fosso-Tande,  
 L. Fusti-Molnar,  D. Ghosh,  A. Ghysels,  A. Golubeva-Zadorozhnaya,  
 J. Gonthier,  M. S. Gordon,  S. R. Gwaltney,  G. Hawkins,  J. E. Herr,  
 A. Heyden,  S. Hirata,  E. G. Hohenstein,  G. Kedziora,  F. J. Keil,  
 C. Kelley,  Jihan Kim,  R. A. King,  R. Z. Khaliullin,  P. P. Korambath,  
 W. Kurlancheek,  A. Laurent,  A. M. Lee,  M. S. Lee,  S. V. Levchenko,  
 Ching Yeh Lin,  D. Liotard,  E. Livshits,  R. C. Lochan,  I. Lotan,  
 L. A. Martinez-Martinez,  P. E. Maslen,  N. Nair,  D. P. O'Neill,  
 D. Neuhauser,  E. Neuscamman,  C. M. Oana,  R. Olivares-Amaya,  R. Olson,  
 T. M. Perrine,  B. Peters,  P. A. Pieniazek,  A. Prociuk,  Y. M. Rhee,  
 J. Ritchie,  M. A. Rohrdanz,  E. Rosta,  N. J. Russ,  H. F. Schaefer III,  
 M. W. Schmidt,  N. E. Schultz,  S. Sharma,  N. Shenvi,  C. D. Sherrill,  
 A. C. Simmonett,  A. Sodt,  T. Stein,  D. Stuck,  K. S. Thanthiriwatte,  
 V. Vanovschi,  L. Vogt,  Tao Wang,  A. Warshel,  M. A. Watson,  
 C. F. Williams,  Q. Wu,  X. Xu,  Jun Yang,  W. Zhang,  Yan Zhao

 Please cite Q-Chem as follows:
 Y. Shao et al., Mol. Phys. 113, 184-215 (2015)
 DOI: 10.1080/00268976.2014.952696

 Q-Chem 5.4.1 for Intel X86 EM64T Linux

 Parts of Q-Chem use Armadillo 9.800.1 (Horizon Scraper).
 http://arma.sourceforge.net/

 Q-Chem begins on Tue Oct 17 08:25:15 2023  

 Host: 
0

     Scratch files written to /scratch/ari.fischer/qChem1813353.hpc-mn1/qchem51577//
 Aug1521 |scratch|qcdevops|jenkins|workspace|build_RNUM 8249   
 Processing $rem in /usr/local/qchem-5.4.1/config/preferences:
 Processing $rem in /home/ari.fischer/.qchemrc:
 Symmetry turned off for PCM/SM12/SMD calculation


!!********************************************.
!!******************Warning*******************.
!!Desired Analytical derivatives not available.
!!Finite difference job might take a long time.
!!********************************************.
!!********************************************.


 2-order derivative to be evaluated numerically with 1-order analytical derivatives

 Checking the input file for inconsistencies... 	...done.

--------------------------------------------------------------
User input:
--------------------------------------------------------------
$molecule
-1 2
C        -0.9167548059    1.7245666103   -0.1592717289
O        -0.7805538881    1.5610874849    1.0663494505
O        -0.9731624422    3.0236536776   -0.6539293518
H        -0.6915768965    3.7702593696    0.1119089561
O        -1.0175845438    0.8828030396   -1.0710642309
O        -0.8075355966    4.3196603114    1.2066211273
H        -0.8066619269    3.4997036066    1.7391682774
$end

$rem
BASIS = 6-311++G(2df,2p)
GUI = 2
JOB_TYPE = Frequency
METHOD = wB97M-V
SOLVENT_METHOD = SMD
SCF_ALGORITHM = DIIS_GDM
MAX_SCF_CYCLES = 400
SCF_CONVERGENCE = 7
THRESH = 12
$end

--------------------------------------------------------------
 ----------------------------------------------------------------
             Standard Nuclear Orientation (Angstroms)
    I     Atom           X                Y                Z
 ----------------------------------------------------------------
    1      C      -0.9167548059     1.7245666103    -0.1592717289
    2      O      -0.7805538881     1.5610874849     1.0663494505
    3      O      -0.9731624422     3.0236536776    -0.6539293518
    4      H      -0.6915768965     3.7702593696     0.1119089561
    5      O      -1.0175845438     0.8828030396    -1.0710642309
    6      O      -0.8075355966     4.3196603114     1.2066211273
    7      H      -0.8066619269     3.4997036066     1.7391682774
 ----------------------------------------------------------------
 Nuclear Repulsion Energy =         171.25331282 hartrees
 There are       21 alpha and       20 beta electrons
 Requested basis set is 6-311++G(2df,2p)
 There are 52 shells and 190 basis functions

 Total QAlloc Memory Limit 288000 MB
 Mega-Array Size       188 MB
 MEM_STATIC part       192 MB
 
 Citation of the SMD model:
 Marenich, A.V.; Cramer, C.J.; Truhlar, D.G.
 J. Phys. Chem. B 2009, 113, 6378-6396.
 iSolventCode=           1
 Solvent: water                                                           
 
 vradii
            1           2           3           4           5           6
    1   1.8500000   1.5200000   1.5200000   1.2000000   1.5200000   1.5200000
            7
    1   1.2000000
 Changing PCM_VDW_RADII to SMD_RADIUS
 Discretize the solute cavity surface with Lebedev spheres
	Using 110 Lebedev grid points for each H atom
	Using 194 Lebedev grid points for other atoms
	Atomic van der Waals radii will be scaled by 1.20
 Remove points where switching function is < 1.0e-08
 Keep 700 surface tesserae and discard 490 interior tesserae
 Molecular Surface Area = 85.583 Angst**2

                       Distance Matrix (Angstroms)
             C (  1)   O (  2)   O (  3)   H (  4)   O (  5)   O (  6)
   O (  2)  1.243955
   O (  3)  1.391221  2.266177
   H (  4)  2.075838  2.408176  1.105992
   O (  5)  1.245029  2.254948  2.181563  3.137373
   O (  6)  2.934639  2.762269  2.273480  1.230318  4.128433
   H (  7)  2.601405  2.052218  2.445662  1.653608  3.845785  0.977720

 
 A cutoff of  1.0D-12 yielded   1310 shell pairs
 There are     17695 function pairs (     22682 Cartesian)
 Smallest overlap matrix eigenvalue = 7.01E-04
 Guess from superposition of atomic densities
 Warning:  Energy on first SCF cycle will be non-variational
 SAD guess density has 40.000000 electrons

 -----------------------------------------------------------------------
  General SCF calculation program by
  Eric Jon Sundstrom, Paul Horn, Yuezhi Mao, Dmitri Zuev, Alec White,
  David Stuck, Shaama M.S., Shane Yost, Joonho Lee, David Small,
  Daniel Levine, Susi Lehtola, Hugh Burton, Evgeny Epifanovsky,
  Bang C. Huynh
 -----------------------------------------------------------------------
 Exchange:     0.1500 Hartree-Fock + 1.0000 wB97M-V + LR-HF
 Correlation:  1.0000 wB97M-V
 Using SG-2 standard quadrature grid
 Nonlocal Correlation:  VV10 with C = 0.0100 and b = 6.00 and scale = 1.00000
 Grid used for NLC:  SG-1 standard quadrature
 using 8 threads for integral computing
 -------------------------------------------------------
 OpenMP Integral computing Module                
 Release: version 1.0, May 2013, Q-Chem Inc. Pittsburgh 
 -------------------------------------------------------
 
 Citation of the SMD model:
 Marenich, A.V.; Cramer, C.J.; Truhlar, D.G.
 J. Phys. Chem. B 2009, 113, 6378-6396.
 iSolventCode=           1
 Solvent: water                                                           
 
 vradii
            1           2           3           4           5           6
    1   1.8500000   1.5200000   1.5200000   1.2000000   1.5200000   1.5200000
            7
    1   1.2000000
 -------------------------------------------------------
 OpenMP BLAS3 based DFT computing Module                
 Release: version 1.0, May 2013, Q-Chem Inc. Pittsburgh 
 -------------------------------------------------------
 A unrestricted SCF calculation will be
 performed using DIIS, GDM
 SCF converges when RMS gradient is below 1.0e-07
 ---------------------------------------
  Cycle       Energy         DIIS error
 ---------------------------------------
    1    -340.6135650430      1.72e-02  
    2    -340.1643771601      3.46e-03  Done DIIS. Switching to GDM
 ---------------------------------------
  Cycle       Energy        RMS Gradient
 ---------------------------------------
    1    -340.1643771601      1.52e-01   Descent step
    2    -340.3199951260      3.11e-02   Normal BFGS step
    3    -340.3311637956      1.86e-02   Normal BFGS step
    4    -340.3329506746      2.13e-02   Normal BFGS step
    5    -340.3343537778      1.98e-02   Normal BFGS step
    6    -340.3352046481      1.79e-02   Normal BFGS step
    7    -340.3366753064      1.51e-02   Normal BFGS step
    8    -340.3372055445      6.30e-03   Normal BFGS step
    9    -340.3375404071      4.75e-03   Normal BFGS step
   10    -340.3376739510      3.56e-03   Normal BFGS step
   11    -340.3377260305      2.50e-03   Normal BFGS step
   12    -340.3377616040      1.62e-03   Normal BFGS step
   13    -340.3377725960      1.00e-03   Normal BFGS step
   14    -340.3377800772      1.01e-03   Normal BFGS step
   15    -340.3377854523      9.31e-04   Normal BFGS step
   16    -340.3377884720      7.50e-04   Normal BFGS step
   17    -340.3377906984      5.19e-04   Normal BFGS step
   18    -340.3377921349      2.79e-04   Normal BFGS step
   19    -340.3377927130      1.04e-04   Normal BFGS step
   20    -340.3377928307      6.33e-05   Normal BFGS step
   21    -340.3377928536      4.78e-05   Normal BFGS step
   22    -340.3377928585      2.58e-05   Normal BFGS step
   23    -340.3377928603      9.00e-06   Normal BFGS step
   24    -340.3377928608      5.86e-06   Normal BFGS step
   25    -340.3377928610      1.42e-06   Normal BFGS step
   26    -340.3377928610      6.84e-07   Normal BFGS step
   27    -340.3377928610      4.13e-07   Normal BFGS step
   28    -340.3377928610      1.57e-07   Normal BFGS step
   29    -340.3377928610      1.07e-07   Normal BFGS step
   30    -340.3377928610      5.01e-08  Convergence criterion met
 ---------------------------------------
 SCF time:   CPU 364.66s  wall 46.00s 
<S^2> =          0.758839419
(3)  G-ENP(liq) elect-nuc-pol free energy of system     -340.337792861 a.u.
(4)  G-CDS(liq) cavity-dispersion-solvent structure 
     free energy                                                3.9193 kcal/mol
(6)  G-S(liq) free energy of system                     -340.331546984 a.u.
 SCF   energy in the final basis set =     -340.3315469843
 Total energy in the final basis set =     -340.3315469843
 
 --------------------------------------------------------------
 
                    Orbital Energies (a.u.)
 --------------------------------------------------------------
 
 Alpha MOs
 -- Occupied --
-19.3789 -19.3752 -19.3018 -19.2985 -10.4930  -1.2365  -1.1528  -1.1136
 -1.1032  -0.7164  -0.6219  -0.5898  -0.5727  -0.5668  -0.5451  -0.4633
 -0.4537  -0.4311  -0.4084  -0.3882  -0.3710
 -- Virtual --
  0.0395   0.0678   0.0770   0.0880   0.1060   0.1200   0.1554   0.2097
  0.2114   0.2302   0.2414   0.2446   0.2557   0.2710   0.2841   0.2915
  0.3123   0.3188   0.3231   0.3307   0.3472   0.3644   0.3745   0.4015
  0.4113   0.4377   0.5347   0.5796   0.6176   0.6364   0.6690   0.7423
  0.7618   0.7683   0.8219   0.8503   0.8540   0.8745   0.9766   1.0034
  1.0496   1.0741   1.0861   1.1026   1.1221   1.1377   1.1538   1.1692
  1.1978   1.2288   1.2386   1.2526   1.3174   1.3809   1.4563   1.5192
  1.5505   1.5754   1.6000   1.6230   1.6256   1.6550   1.7470   1.7829
  1.8433   1.8886   1.9361   1.9872   1.9969   2.0702   2.1920   2.2022
  2.3092   2.3420   2.3871   2.4523   2.5135   2.5262   2.5859   2.7389
  2.7918   2.8455   2.8675   2.9369   3.0707   3.1579   3.2277   3.2545
  3.3804   3.4639   3.4953   3.5470   3.6078   3.6217   3.7097   3.7274
  3.7442   3.8137   3.8891   3.9934   4.1023   4.1231   4.1772   4.2587
  5.0249   5.0695   5.0912   5.1052   5.1110   5.1282   5.1417   5.1616
  5.1736   5.1919   5.2028   5.2078   5.2260   5.2473   5.2555   5.3088
  5.3207   5.3296   5.3563   5.4231   5.4420   5.4639   5.5119   5.5537
  5.6027   5.6314   5.6470   5.6710   5.7815   5.9009   6.0040   6.1586
  6.3253   6.4909   6.5098   6.8738   6.8983   6.9175   6.9446   6.9590
  6.9818   7.0007   7.0685   7.1033   7.1176   7.1870   7.2187   7.2677
  7.3211   7.3271   7.4039   7.4491   7.5065   7.6671   7.7256   7.7573
  7.8016   7.8437   7.8447   8.0040  25.2680  50.4349  50.5245  50.6861
 50.7103
 
 Beta MOs
 -- Occupied --
-19.3676 -19.3587 -19.2996 -19.2986 -10.4934  -1.2258  -1.1270  -1.1063
 -1.0771  -0.6912  -0.6094  -0.5715  -0.5651  -0.5519  -0.5068  -0.4353
 -0.4179  -0.4025  -0.3865  -0.3622
 -- Virtual --
 -0.1088   0.0407   0.0696   0.0781   0.0887   0.1066   0.1212   0.1565
  0.2111   0.2153   0.2338   0.2427   0.2458   0.2582   0.2753   0.2858
  0.2922   0.3140   0.3210   0.3252   0.3334   0.3489   0.3665   0.3778
  0.4071   0.4190   0.4484   0.5363   0.5832   0.6222   0.6518   0.6710
  0.7454   0.7629   0.7690   0.8251   0.8529   0.8566   0.8756   0.9788
  1.0078   1.0561   1.0886   1.0910   1.1054   1.1348   1.1403   1.1609
  1.1774   1.2015   1.2317   1.2437   1.2584   1.3203   1.3878   1.4649
  1.5361   1.5616   1.5873   1.6085   1.6264   1.6292   1.6612   1.7497
  1.7880   1.8612   1.8991   1.9418   1.9924   2.0098   2.0850   2.1952
  2.2147   2.3155   2.3497   2.3970   2.4661   2.5194   2.5289   2.5924
  2.7486   2.7943   2.8506   2.8727   2.9316   3.0692   3.1574   3.2268
  3.2543   3.3809   3.4644   3.4964   3.5476   3.6082   3.6215   3.7112
  3.7328   3.7478   3.8156   3.8898   3.9979   4.0941   4.1268   4.1837
  4.2642   5.0775   5.1047   5.1127   5.1235   5.1412   5.1546   5.1652
  5.1699   5.1795   5.1976   5.2123   5.2167   5.2430   5.2587   5.2632
  5.3228   5.3405   5.3568   5.3706   5.4423   5.4665   5.4716   5.5303
  5.5628   5.6244   5.6372   5.6671   5.6831   5.8257   5.9079   6.0184
  6.1706   6.3277   6.4991   6.5117   6.9073   6.9171   6.9514   6.9616
  6.9853   7.0041   7.0244   7.0849   7.1426   7.1643   7.2050   7.2494
  7.2870   7.3240   7.3557   7.4219   7.4721   7.5357   7.6749   7.7544
  7.7683   7.8200   7.8468   7.8899   8.0447  25.2678  50.4461  50.5323
 50.6877  50.7110
 --------------------------------------------------------------
 
          Ground-State Mulliken Net Atomic Charges

     Atom                 Charge (a.u.)    Spin (a.u.)
  --------------------------------------------------------
      1 C                     0.523559      -0.023644
      2 O                    -0.658765       0.001926
      3 O                    -0.412956       0.383386
      4 H                     0.372320      -0.042974
      5 O                    -0.650465       0.074874
      6 O                    -0.504974       0.617076
      7 H                     0.331281      -0.010644
  --------------------------------------------------------
  Sum of atomic charges =    -1.000000
  Sum of spin   charges =     1.000000

 -----------------------------------------------------------------
                    Cartesian Multipole Moments
 -----------------------------------------------------------------
    Charge (ESU x 10^10)
                -4.8032
    Dipole Moment (Debye)
         X       4.8114      Y      -7.9314      Z       1.2885
       Tot       9.3657
    Quadrupole Moments (Debye-Ang)
        XX     -35.7028     XY       8.6982     YY     -56.2330
        XZ      -2.0665     YZ      -0.2208     ZZ     -37.6498
    Octopole Moments (Debye-Ang^2)
       XXX      87.6096    XXY     -82.8834    XYY      56.3241
       YYY    -326.4991    XXZ      -1.3867    XYZ      -0.7555
       YYZ     -13.8122    XZZ      34.4525    YZZ     -79.8771
       ZZZ      -1.5037
    Hexadecapole Moments (Debye-Ang^3)
      XXXX    -183.8203   XXXY     202.3822   XXYY    -292.0960
      XYYY     310.1757   YYYY   -1841.5859   XXXZ      -0.7359
      XXYZ     -27.3177   XYYZ       9.2864   YYYZ    -159.4500
      XXZZ     -70.9125   XYZZ      72.3130   YYZZ    -271.2818
      XZZZ      -6.4557   YZZZ     -54.4592   ZZZZ    -189.8000
 -----------------------------------------------------------------
 Calculating analytic gradient of the SCF energy
 Gradient of CDS energy
            1           2           3           4           5           6
    1  -0.0002085  -0.0001620   0.0001224   0.0002128   0.0001344  -0.0000965
    2   0.0024791   0.0003138  -0.0049275   0.0003078   0.0016042   0.0001467
    3  -0.0016643  -0.0015857   0.0019286  -0.0002098   0.0012196  -0.0000910
            7
    1  -0.0000026
    2   0.0000759
    3   0.0004027
 Gradient of SCF Energy
            1           2           3           4           5           6
    1   0.0034054  -0.0032656  -0.0025569   0.0002530   0.0028460  -0.0021240
    2  -0.0250430   0.0010887   0.0037802  -0.0117268   0.0306553  -0.0219096
    3   0.0112460  -0.0376635   0.0137333  -0.0027883   0.0261127   0.0006922
            7
    1   0.0014421
    2   0.0231552
    3  -0.0113324
 Max gradient component =       3.766E-02
 RMS gradient           =       1.593E-02
 Computing fast CPCM-SWIG gradient
 Updating gradient with PCM contributions...
 -- total gradient after adding PCM contribution --
---------------------------------------------------
  Atom         X              Y              Z     
---------------------------------------------------
   1      -0.000004      -0.000027       0.000014
   2       0.000016      -0.000009      -0.000029
   3       0.000009       0.000080       0.000014
   4       0.000007      -0.000044       0.000072
   5      -0.000002       0.000028      -0.000028
   6      -0.000078       0.000020      -0.000042
   7       0.000053      -0.000047      -0.000001
---------------------------------------------------
 Number of fixed atoms: 0
 Gradient time:  CPU 32.09 s  wall 5.31 s
 ######################################################
 ######################################################
 # Starting finite difference calculation for IDERIV  #
 Finite diff step size:  1.88973e-03 a.u.
 ----------------------------------------------------------------
             Standard Nuclear Orientation (Angstroms)
    I     Atom           X                Y                Z
 ----------------------------------------------------------------
    1      C      -0.9157548059     1.7245666103    -0.1592717289
    2      O      -0.7805538881     1.5610874849     1.0663494505
    3      O      -0.9731624422     3.0236536776    -0.6539293518
    4      H      -0.6915768965     3.7702593696     0.1119089561
    5      O      -1.0175845438     0.8828030396    -1.0710642309
    6      O      -0.8075355966     4.3196603114     1.2066211273
    7      H      -0.8066619269     3.4997036066     1.7391682774
 ----------------------------------------------------------------
 Nuclear Repulsion Energy =         171.25344219 hartrees
 There are       21 alpha and       20 beta electrons
 Discretize the solute cavity surface with Lebedev spheres
	Using 110 Lebedev grid points for each H atom
	Using 194 Lebedev grid points for other atoms
	Atomic van der Waals radii will be scaled by 1.20
 Remove points where switching function is < 1.0e-08
 Keep 700 surface tesserae and discard 490 interior tesserae
 Molecular Surface Area = 85.581 Angst**2

                       Distance Matrix (Angstroms)
             C (  1)   O (  2)   O (  3)   H (  4)   O (  5)   O (  6)
   O (  2)  1.243846
   O (  3)  1.391262  2.266177
   H (  4)  2.075730  2.408176  1.105992
   O (  5)  1.245111  2.254948  2.181563  3.137373
   O (  6)  2.934602  2.762269  2.273480  1.230318  4.128433
   H (  7)  2.601363  2.052218  2.445662  1.653608  3.845785  0.977720

 
 Requested basis set is 6-311++G(2df,2p)
 There are 52 shells and 190 basis functions
 A cutoff of  1.0D-12 yielded   1310 shell pairs
 There are     17695 function pairs (     22682 Cartesian)
 Smallest overlap matrix eigenvalue = 7.01E-04
 Guess MOs from SCF MO coefficient file

 -----------------------------------------------------------------------
  General SCF calculation program by
  Eric Jon Sundstrom, Paul Horn, Yuezhi Mao, Dmitri Zuev, Alec White,
  David Stuck, Shaama M.S., Shane Yost, Joonho Lee, David Small,
  Daniel Levine, Susi Lehtola, Hugh Burton, Evgeny Epifanovsky,
  Bang C. Huynh
 -----------------------------------------------------------------------
 Exchange:     0.1500 Hartree-Fock + 1.0000 wB97M-V + LR-HF
 Correlation:  1.0000 wB97M-V
 Using SG-2 standard quadrature grid
 Nonlocal Correlation:  VV10 with C = 0.0100 and b = 6.00 and scale = 1.00000
 Grid used for NLC:  SG-1 standard quadrature
 
 Citation of the SMD model:
 Marenich, A.V.; Cramer, C.J.; Truhlar, D.G.
 J. Phys. Chem. B 2009, 113, 6378-6396.
 iSolventCode=           1
 Solvent: water                                                           
 
 vradii
            1           2           3           4           5           6
    1   1.8500000   1.5200000   1.5200000   1.2000000   1.5200000   1.5200000
            7
    1   1.2000000
 -------------------------------------------------------
 OpenMP BLAS3 based DFT computing Module                
 Release: version 1.0, May 2013, Q-Chem Inc. Pittsburgh 
 -------------------------------------------------------
 A unrestricted SCF calculation will be
 performed using Roothaan-Hall, DIIS, GDM
 SCF converges when RMS gradient is below 1.0e-07
 ---------------------------------------
  Cycle       Energy         DIIS error
 ---------------------------------------
    1    -340.2293168044      3.16e-04  Roothaan Step
 ---------------------------------------
  Cycle       Energy         DIIS error
 ---------------------------------------
    1    -340.3326888626      4.52e-04  
    2    -340.3340249357      5.61e-04  Done DIIS. Switching to GDM
 ---------------------------------------
  Cycle       Energy        RMS Gradient
 ---------------------------------------
    1    -340.3340249357      2.76e-02   Normal BFGS step
    2    -340.3317727688      4.79e-02  Line search: overstep
    3    -340.3375787256      4.51e-03   Normal BFGS step
    4    -340.3376899967      4.03e-03   Normal BFGS step
    5    -340.3377379518      2.46e-03   Normal BFGS step
    6    -340.3377596217      1.92e-03   Normal BFGS step
    7    -340.3377781198      1.15e-03   Normal BFGS step
    8    -340.3377860858      7.42e-04   Normal BFGS step
    9    -340.3377887099      7.03e-04   Normal BFGS step
   10    -340.3377903485      3.01e-04   Normal BFGS step
   11    -340.3377910852      3.00e-04   Normal BFGS step
   12    -340.3377914084      1.90e-04   Normal BFGS step
   13    -340.3377915903      1.74e-04   Normal BFGS step
   14    -340.3377917544      1.46e-04   Normal BFGS step
   15    -340.3377919153      9.18e-05   Normal BFGS step
   16    -340.3377919862      7.21e-05   Normal BFGS step
   17    -340.3377920151      4.76e-05   Normal BFGS step
   18    -340.3377920233      1.93e-05   Normal BFGS step
   19    -340.3377920257      5.91e-06   Normal BFGS step
   20    -340.3377920261      3.87e-06   Normal BFGS step
   21    -340.3377920262      2.44e-06   Normal BFGS step
   22    -340.3377920263      1.12e-06   Normal BFGS step
   23    -340.3377920263      5.00e-07   Normal BFGS step
   24    -340.3377920263      3.29e-07   Normal BFGS step
   25    -340.3377920263      2.02e-07   Normal BFGS step
   26    -340.3377920263      2.67e-08  Convergence criterion met
 ---------------------------------------
 SCF time:   CPU 328.79s  wall 42.00s 
<S^2> =          0.758839770
(3)  G-ENP(liq) elect-nuc-pol free energy of system     -340.337792026 a.u.
(4)  G-CDS(liq) cavity-dispersion-solvent structure 
     free energy                                                3.9191 kcal/mol
(6)  G-S(liq) free energy of system                     -340.331546549 a.u.
 SCF   energy in the final basis set =     -340.3315465490
 Total energy in the final basis set =     -340.3315465490
 
 --------------------------------------------------------------
 
                    Orbital Energies (a.u.)
 --------------------------------------------------------------
 
 Alpha MOs
 -- Occupied --
-19.3789 -19.3752 -19.3018 -19.2985 -10.4930  -1.2365  -1.1528  -1.1136
 -1.1032  -0.7163  -0.6219  -0.5898  -0.5727  -0.5668  -0.5451  -0.4633
 -0.4537  -0.4311  -0.4084  -0.3882  -0.3710
 -- Virtual --
  0.0395   0.0678   0.0770   0.0880   0.1060   0.1201   0.1554   0.2097
  0.2114   0.2302   0.2414   0.2446   0.2557   0.2710   0.2840   0.2915
  0.3123   0.3188   0.3231   0.3307   0.3472   0.3645   0.3745   0.4015
  0.4113   0.4377   0.5347   0.5796   0.6175   0.6364   0.6690   0.7423
  0.7616   0.7685   0.8221   0.8502   0.8541   0.8745   0.9765   1.0034
  1.0496   1.0741   1.0862   1.1026   1.1220   1.1377   1.1539   1.1692
  1.1977   1.2289   1.2385   1.2526   1.3174   1.3809   1.4563   1.5191
  1.5504   1.5754   1.6001   1.6229   1.6256   1.6551   1.7471   1.7829
  1.8433   1.8886   1.9364   1.9867   1.9972   2.0702   2.1920   2.2022
  2.3091   2.3420   2.3872   2.4522   2.5135   2.5262   2.5858   2.7388
  2.7917   2.8454   2.8676   2.9368   3.0707   3.1580   3.2277   3.2546
  3.3803   3.4639   3.4952   3.5471   3.6078   3.6217   3.7096   3.7274
  3.7442   3.8138   3.8892   3.9934   4.1023   4.1232   4.1771   4.2587
  5.0249   5.0696   5.0912   5.1052   5.1109   5.1282   5.1417   5.1616
  5.1736   5.1920   5.2028   5.2078   5.2261   5.2472   5.2555   5.3088
  5.3207   5.3296   5.3563   5.4233   5.4420   5.4638   5.5117   5.5537
  5.6027   5.6313   5.6472   5.6710   5.7815   5.9009   6.0039   6.1586
  6.3254   6.4909   6.5097   6.8738   6.8983   6.9175   6.9447   6.9590
  6.9818   7.0007   7.0685   7.1034   7.1177   7.1869   7.2187   7.2677
  7.3211   7.3272   7.4039   7.4491   7.5065   7.6671   7.7256   7.7572
  7.8016   7.8437   7.8447   8.0038  25.2680  50.4349  50.5245  50.6860
 50.7103
 
 Beta MOs
 -- Occupied --
-19.3676 -19.3587 -19.2995 -19.2986 -10.4934  -1.2258  -1.1270  -1.1063
 -1.0770  -0.6912  -0.6094  -0.5715  -0.5651  -0.5519  -0.5068  -0.4353
 -0.4179  -0.4025  -0.3865  -0.3622
 -- Virtual --
 -0.1088   0.0407   0.0696   0.0781   0.0887   0.1066   0.1212   0.1565
  0.2111   0.2153   0.2338   0.2427   0.2458   0.2582   0.2753   0.2857
  0.2923   0.3140   0.3210   0.3252   0.3334   0.3489   0.3666   0.3778
  0.4071   0.4190   0.4484   0.5363   0.5832   0.6221   0.6518   0.6710
  0.7455   0.7627   0.7693   0.8253   0.8529   0.8566   0.8756   0.9786
  1.0078   1.0561   1.0886   1.0910   1.1054   1.1347   1.1403   1.1610
  1.1774   1.2015   1.2317   1.2436   1.2584   1.3202   1.3878   1.4649
  1.5360   1.5615   1.5874   1.6086   1.6263   1.6292   1.6613   1.7498
  1.7880   1.8612   1.8991   1.9421   1.9919   2.0101   2.0850   2.1952
  2.2148   2.3154   2.3497   2.3970   2.4660   2.5194   2.5290   2.5924
  2.7485   2.7943   2.8506   2.8728   2.9315   3.0692   3.1575   3.2268
  3.2544   3.3809   3.4645   3.4963   3.5476   3.6082   3.6215   3.7111
  3.7328   3.7477   3.8156   3.8898   3.9979   4.0941   4.1269   4.1837
  4.2643   5.0775   5.1047   5.1127   5.1235   5.1412   5.1546   5.1653
  5.1698   5.1795   5.1976   5.2123   5.2166   5.2430   5.2587   5.2631
  5.3229   5.3405   5.3568   5.3706   5.4425   5.4663   5.4717   5.5301
  5.5628   5.6245   5.6371   5.6673   5.6831   5.8258   5.9078   6.0184
  6.1706   6.3278   6.4992   6.5116   6.9073   6.9172   6.9513   6.9617
  6.9854   7.0040   7.0243   7.0849   7.1427   7.1643   7.2050   7.2493
  7.2870   7.3240   7.3557   7.4219   7.4721   7.5357   7.6749   7.7544
  7.7683   7.8200   7.8468   7.8899   8.0445  25.2678  50.4461  50.5323
 50.6877  50.7110
 --------------------------------------------------------------
 
          Ground-State Mulliken Net Atomic Charges

     Atom                 Charge (a.u.)    Spin (a.u.)
  --------------------------------------------------------
      1 C                     0.523530      -0.023643
      2 O                    -0.658560       0.001926
      3 O                    -0.412936       0.383405
      4 H                     0.372266      -0.042978
      5 O                    -0.650583       0.074902
      6 O                    -0.504994       0.617031
      7 H                     0.331277      -0.010643
  --------------------------------------------------------
  Sum of atomic charges =    -1.000000
  Sum of spin   charges =     1.000000

 -----------------------------------------------------------------
                    Cartesian Multipole Moments
 -----------------------------------------------------------------
    Charge (ESU x 10^10)
                -4.8032
    Dipole Moment (Debye)
         X       4.8139      Y      -7.9318      Z       1.2896
       Tot       9.3674
    Quadrupole Moments (Debye-Ang)
        XX     -35.7074     XY       8.7026     YY     -56.2360
        XZ      -2.0680     YZ      -0.2203     ZZ     -37.6496
    Octopole Moments (Debye-Ang^2)
       XXX      87.6017    XXY     -82.8918    XYY      56.3251
       YYY    -326.5142    XXZ      -1.3844    XYZ      -0.7577
       YYZ     -13.8137    XZZ      34.4434    YZZ     -79.8771
       ZZZ      -1.4992
    Hexadecapole Moments (Debye-Ang^3)
      XXXX    -183.7759   XXXY     202.3698   XXYY    -292.0984
      XYYY     310.1515   YYYY   -1841.6574   XXXZ      -0.7372
      XXYZ     -27.3145   XYYZ       9.2853   YYYZ    -159.4630
      XXZZ     -70.8962   XYZZ      72.2977   YYZZ    -271.2851
      XZZZ      -6.4584   YZZZ     -54.4553   ZZZZ    -189.7990
 -----------------------------------------------------------------
 Calculating analytic gradient of the SCF energy
 Gradient of CDS energy
            1           2           3           4           5           6
    1  -0.0002142  -0.0001606   0.0001257   0.0002126   0.0001358  -0.0000966
    2   0.0024752   0.0003134  -0.0049246   0.0003079   0.0016054   0.0001467
    3  -0.0016661  -0.0015839   0.0019275  -0.0002099   0.0012208  -0.0000910
            7
    1  -0.0000027
    2   0.0000759
    3   0.0004026
 Gradient of SCF Energy
            1           2           3           4           5           6
    1   0.0036815  -0.0033683  -0.0026479   0.0002605   0.0027560  -0.0021257
    2  -0.0250116   0.0011020   0.0038005  -0.0117428   0.0306048  -0.0219013
    3   0.0113871  -0.0377478   0.0137203  -0.0027796   0.0260610   0.0006907
            7
    1   0.0014438
    2   0.0231484
    3  -0.0113318
 Max gradient component =       3.775E-02
 RMS gradient           =       1.594E-02
 Computing fast CPCM-SWIG gradient
 Updating gradient with PCM contributions...
 -- total gradient after adding PCM contribution --
---------------------------------------------------
  Atom         X              Y              Z     
---------------------------------------------------
   1       0.000465       0.000003       0.000140
   2      -0.000158       0.000001      -0.000103
   3      -0.000113       0.000098      -0.000002
   4       0.000005      -0.000060       0.000080
   5      -0.000171      -0.000014      -0.000069
   6      -0.000082       0.000025      -0.000044
   7       0.000054      -0.000052      -0.000002
---------------------------------------------------
 Number of fixed atoms: 0
 Gradient time:  CPU 30.74 s  wall 4.54 s
 ----------------------------------------------------------------
             Standard Nuclear Orientation (Angstroms)
    I     Atom           X                Y                Z
 ----------------------------------------------------------------
    1      C      -0.9177548059     1.7245666103    -0.1592717289
    2      O      -0.7805538881     1.5610874849     1.0663494505
    3      O      -0.9731624422     3.0236536776    -0.6539293518
    4      H      -0.6915768965     3.7702593696     0.1119089561
    5      O      -1.0175845438     0.8828030396    -1.0710642309
    6      O      -0.8075355966     4.3196603114     1.2066211273
    7      H      -0.8066619269     3.4997036066     1.7391682774
 ----------------------------------------------------------------
 Nuclear Repulsion Energy =         171.25314692 hartrees
 There are       21 alpha and       20 beta electrons
 Discretize the solute cavity surface with Lebedev spheres
	Using 110 Lebedev grid points for each H atom
	Using 194 Lebedev grid points for other atoms
	Atomic van der Waals radii will be scaled by 1.20
 Remove points where switching function is < 1.0e-08
 Keep 700 surface tesserae and discard 490 interior tesserae
 Molecular Surface Area = 85.585 Angst**2

                       Distance Matrix (Angstroms)
             C (  1)   O (  2)   O (  3)   H (  4)   O (  5)   O (  6)
   O (  2)  1.244065
   O (  3)  1.391181  2.266177
   H (  4)  2.075947  2.408176  1.105992
   O (  5)  1.244949  2.254948  2.181563  3.137373
   O (  6)  2.934676  2.762269  2.273480  1.230318  4.128433
   H (  7)  2.601447  2.052218  2.445662  1.653608  3.845785  0.977720

 
 Requested basis set is 6-311++G(2df,2p)
 There are 52 shells and 190 basis functions
 A cutoff of  1.0D-12 yielded   1310 shell pairs
 There are     17695 function pairs (     22682 Cartesian)
 Smallest overlap matrix eigenvalue = 7.01E-04
 Guess MOs from SCF MO coefficient file

 -----------------------------------------------------------------------
  General SCF calculation program by
  Eric Jon Sundstrom, Paul Horn, Yuezhi Mao, Dmitri Zuev, Alec White,
  David Stuck, Shaama M.S., Shane Yost, Joonho Lee, David Small,
  Daniel Levine, Susi Lehtola, Hugh Burton, Evgeny Epifanovsky,
  Bang C. Huynh
 -----------------------------------------------------------------------
 Exchange:     0.1500 Hartree-Fock + 1.0000 wB97M-V + LR-HF
 Correlation:  1.0000 wB97M-V
 Using SG-2 standard quadrature grid
 Nonlocal Correlation:  VV10 with C = 0.0100 and b = 6.00 and scale = 1.00000
 Grid used for NLC:  SG-1 standard quadrature
 
 Citation of the SMD model:
 Marenich, A.V.; Cramer, C.J.; Truhlar, D.G.
 J. Phys. Chem. B 2009, 113, 6378-6396.
 iSolventCode=           1
 Solvent: water                                                           
 
 vradii
            1           2           3           4           5           6
    1   1.8500000   1.5200000   1.5200000   1.2000000   1.5200000   1.5200000
            7
    1   1.2000000
 -------------------------------------------------------
 OpenMP BLAS3 based DFT computing Module                
 Release: version 1.0, May 2013, Q-Chem Inc. Pittsburgh 
 -------------------------------------------------------
 A unrestricted SCF calculation will be
 performed using Roothaan-Hall, DIIS, GDM
 SCF converges when RMS gradient is below 1.0e-07
 ---------------------------------------
  Cycle       Energy         DIIS error
 ---------------------------------------
    1    -340.2293202985      3.16e-04  Roothaan Step
 ---------------------------------------
  Cycle       Energy         DIIS error
 ---------------------------------------
    1    -340.3326972936      4.51e-04  
    2    -340.3340390075      5.60e-04  Done DIIS. Switching to GDM
 ---------------------------------------
  Cycle       Energy        RMS Gradient
 ---------------------------------------
    1    -340.3340390075      2.75e-02   Normal BFGS step
    2    -340.3318020356      4.78e-02  Line search: overstep
    3    -340.3375793823      4.51e-03   Normal BFGS step
    4    -340.3376906186      4.03e-03   Normal BFGS step
    5    -340.3377385879      2.46e-03   Normal BFGS step
    6    -340.3377602682      1.92e-03   Normal BFGS step
    7    -340.3377787638      1.15e-03   Normal BFGS step
    8    -340.3377867498      7.41e-04   Normal BFGS step
    9    -340.3377894012      7.13e-04   Normal BFGS step
   10    -340.3377910691      3.07e-04   Normal BFGS step
   11    -340.3377918228      3.04e-04   Normal BFGS step
   12    -340.3377921564      1.95e-04   Normal BFGS step
   13    -340.3377923462      1.78e-04   Normal BFGS step
   14    -340.3377925184      1.49e-04   Normal BFGS step
   15    -340.3377926850      9.29e-05   Normal BFGS step
   16    -340.3377927574      7.27e-05   Normal BFGS step
   17    -340.3377927865      4.75e-05   Normal BFGS step
   18    -340.3377927948      1.91e-05   Normal BFGS step
   19    -340.3377927971      5.97e-06   Normal BFGS step
   20    -340.3377927976      3.90e-06   Normal BFGS step
   21    -340.3377927977      2.44e-06   Normal BFGS step
   22    -340.3377927977      1.11e-06   Normal BFGS step
   23    -340.3377927977      5.00e-07   Normal BFGS step
   24    -340.3377927977      3.25e-07   Normal BFGS step
   25    -340.3377927977      2.00e-07   Normal BFGS step
   26    -340.3377927977      2.64e-08  Convergence criterion met
 ---------------------------------------
 SCF time:   CPU 325.30s  wall 41.00s 
<S^2> =          0.758839079
(3)  G-ENP(liq) elect-nuc-pol free energy of system     -340.337792798 a.u.
(4)  G-CDS(liq) cavity-dispersion-solvent structure 
     free energy                                                3.9196 kcal/mol
(6)  G-S(liq) free energy of system                     -340.331546532 a.u.
 SCF   energy in the final basis set =     -340.3315465324
 Total energy in the final basis set =     -340.3315465324
 
 --------------------------------------------------------------
 
                    Orbital Energies (a.u.)
 --------------------------------------------------------------
 
 Alpha MOs
 -- Occupied --
-19.3789 -19.3752 -19.3018 -19.2985 -10.4930  -1.2365  -1.1528  -1.1135
 -1.1032  -0.7164  -0.6218  -0.5898  -0.5727  -0.5668  -0.5451  -0.4633
 -0.4537  -0.4311  -0.4083  -0.3882  -0.3710
 -- Virtual --
  0.0395   0.0678   0.0770   0.0880   0.1060   0.1200   0.1554   0.2097
  0.2114   0.2302   0.2414   0.2446   0.2557   0.2710   0.2841   0.2915
  0.3123   0.3188   0.3231   0.3306   0.3472   0.3644   0.3745   0.4015
  0.4113   0.4377   0.5347   0.5797   0.6176   0.6364   0.6690   0.7422
  0.7619   0.7680   0.8218   0.8504   0.8540   0.8745   0.9768   1.0034
  1.0496   1.0741   1.0861   1.1026   1.1222   1.1377   1.1537   1.1692
  1.1978   1.2288   1.2387   1.2525   1.3175   1.3809   1.4563   1.5193
  1.5505   1.5753   1.6000   1.6230   1.6256   1.6549   1.7470   1.7829
  1.8433   1.8886   1.9358   1.9877   1.9965   2.0703   2.1919   2.2022
  2.3092   2.3420   2.3871   2.4525   2.5135   2.5261   2.5860   2.7389
  2.7919   2.8455   2.8674   2.9369   3.0707   3.1578   3.2277   3.2545
  3.3804   3.4638   3.4953   3.5470   3.6077   3.6216   3.7098   3.7275
  3.7443   3.8137   3.8891   3.9934   4.1023   4.1230   4.1772   4.2586
  5.0249   5.0695   5.0912   5.1052   5.1110   5.1282   5.1417   5.1616
  5.1736   5.1919   5.2028   5.2079   5.2259   5.2473   5.2555   5.3087
  5.3207   5.3296   5.3563   5.4229   5.4421   5.4639   5.5120   5.5538
  5.6026   5.6314   5.6469   5.6711   5.7814   5.9010   6.0040   6.1585
  6.3252   6.4907   6.5099   6.8737   6.8983   6.9174   6.9446   6.9591
  6.9818   7.0008   7.0685   7.1032   7.1176   7.1870   7.2187   7.2676
  7.3212   7.3270   7.4039   7.4490   7.5065   7.6670   7.7256   7.7573
  7.8016   7.8438   7.8447   8.0041  25.2680  50.4349  50.5245  50.6861
 50.7102
 
 Beta MOs
 -- Occupied --
-19.3676 -19.3587 -19.2996 -19.2985 -10.4934  -1.2258  -1.1270  -1.1063
 -1.0771  -0.6912  -0.6094  -0.5715  -0.5651  -0.5519  -0.5068  -0.4353
 -0.4179  -0.4025  -0.3865  -0.3622
 -- Virtual --
 -0.1088   0.0407   0.0696   0.0781   0.0887   0.1066   0.1212   0.1565
  0.2111   0.2153   0.2338   0.2426   0.2458   0.2582   0.2753   0.2858
  0.2922   0.3140   0.3210   0.3252   0.3334   0.3490   0.3665   0.3778
  0.4071   0.4190   0.4485   0.5363   0.5833   0.6222   0.6518   0.6710
  0.7454   0.7631   0.7688   0.8249   0.8530   0.8566   0.8756   0.9789
  1.0078   1.0561   1.0886   1.0910   1.1054   1.1349   1.1403   1.1609
  1.1774   1.2015   1.2317   1.2437   1.2584   1.3203   1.3877   1.4648
  1.5363   1.5617   1.5872   1.6085   1.6264   1.6292   1.6611   1.7497
  1.7880   1.8612   1.8991   1.9415   1.9929   2.0094   2.0850   2.1951
  2.2147   2.3155   2.3497   2.3970   2.4663   2.5194   2.5289   2.5925
  2.7486   2.7944   2.8506   2.8726   2.9317   3.0692   3.1573   3.2268
  3.2543   3.3810   3.4643   3.4964   3.5476   3.6081   3.6214   3.7113
  3.7329   3.7478   3.8155   3.8898   3.9979   4.0941   4.1267   4.1838
  4.2642   5.0775   5.1047   5.1127   5.1235   5.1412   5.1546   5.1652
  5.1699   5.1796   5.1976   5.2123   5.2167   5.2430   5.2587   5.2632
  5.3228   5.3405   5.3569   5.3706   5.4421   5.4667   5.4715   5.5304
  5.5629   5.6244   5.6372   5.6669   5.6831   5.8257   5.9080   6.0185
  6.1705   6.3276   6.4989   6.5118   6.9073   6.9171   6.9514   6.9615
  6.9853   7.0042   7.0244   7.0849   7.1425   7.1643   7.2051   7.2494
  7.2869   7.3240   7.3556   7.4219   7.4721   7.5357   7.6748   7.7545
  7.7683   7.8199   7.8468   7.8900   8.0448  25.2678  50.4461  50.5324
 50.6878  50.7109
 --------------------------------------------------------------
 
          Ground-State Mulliken Net Atomic Charges

     Atom                 Charge (a.u.)    Spin (a.u.)
  --------------------------------------------------------
      1 C                     0.523587      -0.023646
      2 O                    -0.658970       0.001925
      3 O                    -0.412977       0.383368
      4 H                     0.372375      -0.042970
      5 O                    -0.650347       0.074847
      6 O                    -0.504954       0.617120
      7 H                     0.331285      -0.010644
  --------------------------------------------------------
  Sum of atomic charges =    -1.000000
  Sum of spin   charges =     1.000000

 -----------------------------------------------------------------
                    Cartesian Multipole Moments
 -----------------------------------------------------------------
    Charge (ESU x 10^10)
                -4.8032
    Dipole Moment (Debye)
         X       4.8090      Y      -7.9310      Z       1.2874
       Tot       9.3640
    Quadrupole Moments (Debye-Ang)
        XX     -35.6982     XY       8.6938     YY     -56.2300
        XZ      -2.0649     YZ      -0.2214     ZZ     -37.6501
    Octopole Moments (Debye-Ang^2)
       XXX      87.6175    XXY     -82.8751    XYY      56.3231
       YYY    -326.4842    XXZ      -1.3889    XYZ      -0.7533
       YYZ     -13.8107    XZZ      34.4616    YZZ     -79.8771
       ZZZ      -1.5081
    Hexadecapole Moments (Debye-Ang^3)
      XXXX    -183.8647   XXXY     202.3946   XXYY    -292.0935
      XYYY     310.2000   YYYY   -1841.5153   XXXZ      -0.7347
      XXYZ     -27.3209   XYYZ       9.2875   YYYZ    -159.4372
      XXZZ     -70.9287   XYZZ      72.3283   YYZZ    -271.2786
      XZZZ      -6.4531   YZZZ     -54.4631   ZZZZ    -189.8011
 -----------------------------------------------------------------
 Calculating analytic gradient of the SCF energy
 Gradient of CDS energy
            1           2           3           4           5           6
    1  -0.0002028  -0.0001634   0.0001190   0.0002130   0.0001331  -0.0000964
    2   0.0024829   0.0003142  -0.0049304   0.0003076   0.0016030   0.0001468
    3  -0.0016625  -0.0015874   0.0019295  -0.0002097   0.0012184  -0.0000910
            7
    1  -0.0000025
    2   0.0000759
    3   0.0004027
 Gradient of SCF Energy
            1           2           3           4           5           6
    1   0.0031292  -0.0031627  -0.0024660   0.0002456   0.0029358  -0.0021223
    2  -0.0250741   0.0010754   0.0037600  -0.0117107   0.0307053  -0.0219179
    3   0.0111049  -0.0375786   0.0137464  -0.0027971   0.0261639   0.0006937
            7
    1   0.0014404
    2   0.0231620
    3  -0.0113330
 Max gradient component =       3.758E-02
 RMS gradient           =       1.593E-02
 Computing fast CPCM-SWIG gradient
 Updating gradient with PCM contributions...
 -- total gradient after adding PCM contribution --
---------------------------------------------------
  Atom         X              Y              Z     
---------------------------------------------------
   1      -0.000474      -0.000058      -0.000112
   2       0.000191      -0.000019       0.000045
   3       0.000131       0.000063       0.000030
   4       0.000009      -0.000028       0.000065
   5       0.000166       0.000069       0.000013
   6      -0.000075       0.000015      -0.000041
   7       0.000052      -0.000042      -0.000000
---------------------------------------------------
 Number of fixed atoms: 0
 Gradient time:  CPU 31.64 s  wall 4.64 s
 ----------------------------------------------------------------
             Standard Nuclear Orientation (Angstroms)
    I     Atom           X                Y                Z
 ----------------------------------------------------------------
    1      C      -0.9167548059     1.7255666103    -0.1592717289
    2      O      -0.7805538881     1.5610874849     1.0663494505
    3      O      -0.9731624422     3.0236536776    -0.6539293518
    4      H      -0.6915768965     3.7702593696     0.1119089561
    5      O      -1.0175845438     0.8828030396    -1.0710642309
    6      O      -0.8075355966     4.3196603114     1.2066211273
    7      H      -0.8066619269     3.4997036066     1.7391682774
 ----------------------------------------------------------------
 Nuclear Repulsion Energy =         171.25599050 hartrees
 There are       21 alpha and       20 beta electrons
 Discretize the solute cavity surface with Lebedev spheres
	Using 110 Lebedev grid points for each H atom
	Using 194 Lebedev grid points for other atoms
	Atomic van der Waals radii will be scaled by 1.20
 Remove points where switching function is < 1.0e-08
 Keep 700 surface tesserae and discard 490 interior tesserae
 Molecular Surface Area = 85.580 Angst**2

                       Distance Matrix (Angstroms)
             C (  1)   O (  2)   O (  3)   H (  4)   O (  5)   O (  6)
   O (  2)  1.244087
   O (  3)  1.390287  2.266177
   H (  4)  2.074852  2.408176  1.105992
   O (  5)  1.245706  2.254948  2.181563  3.137373
   O (  6)  2.933754  2.762269  2.273480  1.230318  4.128433
   H (  7)  2.600722  2.052218  2.445662  1.653608  3.845785  0.977720

 
 Requested basis set is 6-311++G(2df,2p)
 There are 52 shells and 190 basis functions
 A cutoff of  1.0D-12 yielded   1310 shell pairs
 There are     17695 function pairs (     22682 Cartesian)
 Smallest overlap matrix eigenvalue = 7.01E-04
 Guess MOs from SCF MO coefficient file

 -----------------------------------------------------------------------
  General SCF calculation program by
  Eric Jon Sundstrom, Paul Horn, Yuezhi Mao, Dmitri Zuev, Alec White,
  David Stuck, Shaama M.S., Shane Yost, Joonho Lee, David Small,
  Daniel Levine, Susi Lehtola, Hugh Burton, Evgeny Epifanovsky,
  Bang C. Huynh
 -----------------------------------------------------------------------
 Exchange:     0.1500 Hartree-Fock + 1.0000 wB97M-V + LR-HF
 Correlation:  1.0000 wB97M-V
 Using SG-2 standard quadrature grid
 Nonlocal Correlation:  VV10 with C = 0.0100 and b = 6.00 and scale = 1.00000
 Grid used for NLC:  SG-1 standard quadrature
 
 Citation of the SMD model:
 Marenich, A.V.; Cramer, C.J.; Truhlar, D.G.
 J. Phys. Chem. B 2009, 113, 6378-6396.
 iSolventCode=           1
 Solvent: water                                                           
 
 vradii
            1           2           3           4           5           6
    1   1.8500000   1.5200000   1.5200000   1.2000000   1.5200000   1.5200000
            7
    1   1.2000000
 -------------------------------------------------------
 OpenMP BLAS3 based DFT computing Module                
 Release: version 1.0, May 2013, Q-Chem Inc. Pittsburgh 
 -------------------------------------------------------
 A unrestricted SCF calculation will be
 performed using Roothaan-Hall, DIIS, GDM
 SCF converges when RMS gradient is below 1.0e-07
 ---------------------------------------
  Cycle       Energy         DIIS error
 ---------------------------------------
    1    -340.2292930971      3.16e-04  Roothaan Step
 ---------------------------------------
  Cycle       Energy         DIIS error
 ---------------------------------------
    1    -340.3326585024      4.54e-04  
    2    -340.3339865641      5.64e-04  Done DIIS. Switching to GDM
 ---------------------------------------
  Cycle       Energy        RMS Gradient
 ---------------------------------------
    1    -340.3339865641      2.79e-02   Normal BFGS step
    2    -340.3316972212      4.83e-02  Line search: overstep
    3    -340.3375816553      4.49e-03   Normal BFGS step
    4    -340.3376935047      4.04e-03   Normal BFGS step
    5    -340.3377417263      2.47e-03   Normal BFGS step
    6    -340.3377635917      1.94e-03   Normal BFGS step
    7    -340.3377824567      1.16e-03   Normal BFGS step
    8    -340.3377906482      7.52e-04   Normal BFGS step
    9    -340.3377933436      7.04e-04   Normal BFGS step
   10    -340.3377950092      3.00e-04   Normal BFGS step
   11    -340.3377957602      3.07e-04   Normal BFGS step
   12    -340.3377960965      1.98e-04   Normal BFGS step
   13    -340.3377962904      1.80e-04   Normal BFGS step
   14    -340.3377964651      1.50e-04   Normal BFGS step
   15    -340.3377966385      9.20e-05   Normal BFGS step
   16    -340.3377967119      7.16e-05   Normal BFGS step
   17    -340.3377967412      4.71e-05   Normal BFGS step
   18    -340.3377967494      1.92e-05   Normal BFGS step
   19    -340.3377967517      5.78e-06   Normal BFGS step
   20    -340.3377967522      3.81e-06   Normal BFGS step
   21    -340.3377967522      2.40e-06   Normal BFGS step
   22    -340.3377967523      1.12e-06   Normal BFGS step
   23    -340.3377967523      5.00e-07   Normal BFGS step
   24    -340.3377967523      3.30e-07   Normal BFGS step
   25    -340.3377967523      2.02e-07   Normal BFGS step
   26    -340.3377967523      2.68e-08  Convergence criterion met
 ---------------------------------------
 SCF time:   CPU 324.74s  wall 41.00s 
<S^2> =          0.758835076
(3)  G-ENP(liq) elect-nuc-pol free energy of system     -340.337796752 a.u.
(4)  G-CDS(liq) cavity-dispersion-solvent structure 
     free energy                                                3.9223 kcal/mol
(6)  G-S(liq) free energy of system                     -340.331546142 a.u.
 SCF   energy in the final basis set =     -340.3315461417
 Total energy in the final basis set =     -340.3315461417
 
 --------------------------------------------------------------
 
                    Orbital Energies (a.u.)
 --------------------------------------------------------------
 
 Alpha MOs
 -- Occupied --
-19.3790 -19.3753 -19.3017 -19.2985 -10.4930  -1.2366  -1.1528  -1.1137
 -1.1030  -0.7165  -0.6219  -0.5899  -0.5728  -0.5668  -0.5450  -0.4634
 -0.4537  -0.4311  -0.4084  -0.3881  -0.3709
 -- Virtual --
  0.0395   0.0678   0.0770   0.0880   0.1060   0.1201   0.1553   0.2097
  0.2114   0.2302   0.2414   0.2446   0.2557   0.2710   0.2840   0.2915
  0.3124   0.3188   0.3231   0.3307   0.3472   0.3644   0.3745   0.4016
  0.4113   0.4380   0.5347   0.5795   0.6173   0.6362   0.6690   0.7419
  0.7618   0.7683   0.8219   0.8503   0.8541   0.8746   0.9766   1.0034
  1.0495   1.0741   1.0862   1.1026   1.1222   1.1377   1.1538   1.1692
  1.1978   1.2289   1.2387   1.2525   1.3173   1.3808   1.4562   1.5191
  1.5505   1.5752   1.5999   1.6230   1.6257   1.6549   1.7467   1.7834
  1.8432   1.8886   1.9360   1.9872   1.9967   2.0701   2.1922   2.2022
  2.3089   2.3425   2.3871   2.4522   2.5131   2.5264   2.5859   2.7389
  2.7918   2.8455   2.8676   2.9369   3.0710   3.1578   3.2281   3.2548
  3.3808   3.4639   3.4956   3.5475   3.6073   3.6208   3.7101   3.7275
  3.7451   3.8137   3.8889   3.9933   4.1024   4.1227   4.1762   4.2586
  5.0248   5.0694   5.0912   5.1052   5.1110   5.1282   5.1417   5.1617
  5.1737   5.1919   5.2029   5.2079   5.2261   5.2473   5.2555   5.3086
  5.3205   5.3295   5.3560   5.4229   5.4418   5.4640   5.5117   5.5540
  5.6026   5.6315   5.6469   5.6706   5.7814   5.9028   6.0042   6.1577
  6.3247   6.4908   6.5071   6.8736   6.8983   6.9175   6.9446   6.9591
  6.9820   7.0007   7.0685   7.1034   7.1176   7.1874   7.2186   7.2678
  7.3213   7.3272   7.4036   7.4489   7.5063   7.6674   7.7256   7.7579
  7.8003   7.8434   7.8443   8.0040  25.2679  50.4349  50.5248  50.6851
 50.7101
 
 Beta MOs
 -- Occupied --
-19.3677 -19.3588 -19.2994 -19.2985 -10.4934  -1.2259  -1.1270  -1.1061
 -1.0772  -0.6914  -0.6094  -0.5715  -0.5651  -0.5520  -0.5067  -0.4353
 -0.4180  -0.4026  -0.3864  -0.3620
 -- Virtual --
 -0.1089   0.0407   0.0696   0.0781   0.0887   0.1066   0.1212   0.1564
  0.2111   0.2153   0.2337   0.2426   0.2458   0.2583   0.2753   0.2858
  0.2922   0.3141   0.3211   0.3253   0.3334   0.3490   0.3665   0.3778
  0.4071   0.4191   0.4486   0.5363   0.5831   0.6219   0.6516   0.6710
  0.7451   0.7629   0.7691   0.8251   0.8529   0.8567   0.8758   0.9787
  1.0078   1.0561   1.0886   1.0910   1.1055   1.1349   1.1403   1.1610
  1.1774   1.2016   1.2317   1.2438   1.2584   1.3202   1.3877   1.4648
  1.5361   1.5616   1.5871   1.6084   1.6264   1.6292   1.6611   1.7494
  1.7885   1.8611   1.8991   1.9417   1.9924   2.0096   2.0849   2.1954
  2.2147   2.3152   2.3501   2.3969   2.4660   2.5191   2.5291   2.5925
  2.7486   2.7944   2.8506   2.8728   2.9316   3.0696   3.1573   3.2272
  3.2546   3.3813   3.4645   3.4967   3.5481   3.6077   3.6206   3.7116
  3.7328   3.7486   3.8156   3.8895   3.9978   4.0943   4.1262   4.1829
  4.2642   5.0774   5.1047   5.1126   5.1235   5.1413   5.1546   5.1653
  5.1698   5.1796   5.1975   5.2123   5.2169   5.2430   5.2587   5.2631
  5.3227   5.3404   5.3566   5.3704   5.4422   5.4663   5.4717   5.5302
  5.5630   5.6244   5.6373   5.6667   5.6830   5.8257   5.9098   6.0186
  6.1698   6.3271   6.4990   6.5090   6.9073   6.9170   6.9515   6.9616
  6.9855   7.0041   7.0243   7.0849   7.1428   7.1643   7.2053   7.2493
  7.2871   7.3243   7.3556   7.4216   7.4720   7.5355   7.6753   7.7546
  7.7685   7.8187   7.8464   7.8897   8.0447  25.2677  50.4460  50.5326
 50.6867  50.7109
 --------------------------------------------------------------
 
          Ground-State Mulliken Net Atomic Charges

     Atom                 Charge (a.u.)    Spin (a.u.)
  --------------------------------------------------------
      1 C                     0.523460      -0.023656
      2 O                    -0.658900       0.001910
      3 O                    -0.412325       0.382716
      4 H                     0.372313      -0.042937
      5 O                    -0.651324       0.075093
      6 O                    -0.504486       0.617523
      7 H                     0.331262      -0.010648
  --------------------------------------------------------
  Sum of atomic charges =    -1.000000
  Sum of spin   charges =     1.000000

 -----------------------------------------------------------------
                    Cartesian Multipole Moments
 -----------------------------------------------------------------
    Charge (ESU x 10^10)
                -4.8032
    Dipole Moment (Debye)
         X       4.8120      Y      -7.9153      Z       1.2934
       Tot       9.3531
    Quadrupole Moments (Debye-Ang)
        XX     -35.7040     XY       8.6852     YY     -56.1594
        XZ      -2.0705     YZ      -0.2118     ZZ     -37.6525
    Octopole Moments (Debye-Ang^2)
       XXX      87.6128    XXY     -82.8661    XYY      56.2655
       YYY    -326.2003    XXZ      -1.3795    XYZ      -0.7598
       YYZ     -13.7743    XZZ      34.4573    YZZ     -79.8641
       ZZZ      -1.4834
    Hexadecapole Moments (Debye-Ang^3)
      XXXX    -183.8286   XXXY     202.3573   XXYY    -292.0122
      XYYY     309.9494   YYYY   -1840.3300   XXXZ      -0.7494
      XXYZ     -27.3112   XYYZ       9.2731   YYYZ    -159.2594
      XXZZ     -70.9215   XYZZ      72.3098   YYZZ    -271.1902
      XZZZ      -6.4723   YZZZ     -54.4197   ZZZZ    -189.8214
 -----------------------------------------------------------------
 Calculating analytic gradient of the SCF energy
 Gradient of CDS energy
            1           2           3           4           5           6
    1  -0.0002122  -0.0001623   0.0001255   0.0002119   0.0001356  -0.0000960
    2   0.0025296   0.0003155  -0.0049896   0.0003071   0.0016145   0.0001469
    3  -0.0016978  -0.0015879   0.0019522  -0.0002088   0.0012302  -0.0000907
            7
    1  -0.0000025
    2   0.0000759
    3   0.0004027
 Gradient of SCF Energy
            1           2           3           4           5           6
    1   0.0034377  -0.0032535  -0.0025679   0.0002551   0.0028028  -0.0021157
    2  -0.0240948   0.0009590   0.0034368  -0.0117178   0.0301762  -0.0219175
    3   0.0114908  -0.0375560   0.0137750  -0.0027359   0.0256973   0.0006725
            7
    1   0.0014415
    2   0.0231581
    3  -0.0113437
 Max gradient component =       3.756E-02
 RMS gradient           =       1.578E-02
 Computing fast CPCM-SWIG gradient
 Updating gradient with PCM contributions...
 -- total gradient after adding PCM contribution --
---------------------------------------------------
  Atom         X              Y              Z     
---------------------------------------------------
   1       0.000026       0.000918       0.000218
   2       0.000025      -0.000188       0.000071
   3       0.000000      -0.000205       0.000052
   4       0.000012      -0.000038       0.000124
   5      -0.000041      -0.000446      -0.000381
   6      -0.000073      -0.000010      -0.000064
   7       0.000050      -0.000031      -0.000019
---------------------------------------------------
 Number of fixed atoms: 0
 Gradient time:  CPU 31.56 s  wall 4.63 s
 ----------------------------------------------------------------
             Standard Nuclear Orientation (Angstroms)
    I     Atom           X                Y                Z
 ----------------------------------------------------------------
    1      C      -0.9167548059     1.7235666103    -0.1592717289
    2      O      -0.7805538881     1.5610874849     1.0663494505
    3      O      -0.9731624422     3.0236536776    -0.6539293518
    4      H      -0.6915768965     3.7702593696     0.1119089561
    5      O      -1.0175845438     0.8828030396    -1.0710642309
    6      O      -0.8075355966     4.3196603114     1.2066211273
    7      H      -0.8066619269     3.4997036066     1.7391682774
 ----------------------------------------------------------------
 Nuclear Repulsion Energy =         171.25064486 hartrees
 There are       21 alpha and       20 beta electrons
 Discretize the solute cavity surface with Lebedev spheres
	Using 110 Lebedev grid points for each H atom
	Using 194 Lebedev grid points for other atoms
	Atomic van der Waals radii will be scaled by 1.20
 Remove points where switching function is < 1.0e-08
 Keep 700 surface tesserae and discard 490 interior tesserae
 Molecular Surface Area = 85.585 Angst**2

                       Distance Matrix (Angstroms)
             C (  1)   O (  2)   O (  3)   H (  4)   O (  5)   O (  6)
   O (  2)  1.243824
   O (  3)  1.392155  2.266177
   H (  4)  2.076823  2.408176  1.105992
   O (  5)  1.244353  2.254948  2.181563  3.137373
   O (  6)  2.935523  2.762269  2.273480  1.230318  4.128433
   H (  7)  2.602087  2.052218  2.445662  1.653608  3.845785  0.977720

 
 Requested basis set is 6-311++G(2df,2p)
 There are 52 shells and 190 basis functions
 A cutoff of  1.0D-12 yielded   1310 shell pairs
 There are     17695 function pairs (     22682 Cartesian)
 Smallest overlap matrix eigenvalue = 7.01E-04
 Guess MOs from SCF MO coefficient file

 -----------------------------------------------------------------------
  General SCF calculation program by
  Eric Jon Sundstrom, Paul Horn, Yuezhi Mao, Dmitri Zuev, Alec White,
  David Stuck, Shaama M.S., Shane Yost, Joonho Lee, David Small,
  Daniel Levine, Susi Lehtola, Hugh Burton, Evgeny Epifanovsky,
  Bang C. Huynh
 -----------------------------------------------------------------------
 Exchange:     0.1500 Hartree-Fock + 1.0000 wB97M-V + LR-HF
 Correlation:  1.0000 wB97M-V
 Using SG-2 standard quadrature grid
 Nonlocal Correlation:  VV10 with C = 0.0100 and b = 6.00 and scale = 1.00000
 Grid used for NLC:  SG-1 standard quadrature
 
 Citation of the SMD model:
 Marenich, A.V.; Cramer, C.J.; Truhlar, D.G.
 J. Phys. Chem. B 2009, 113, 6378-6396.
 iSolventCode=           1
 Solvent: water                                                           
 
 vradii
            1           2           3           4           5           6
    1   1.8500000   1.5200000   1.5200000   1.2000000   1.5200000   1.5200000
            7
    1   1.2000000
 -------------------------------------------------------
 OpenMP BLAS3 based DFT computing Module                
 Release: version 1.0, May 2013, Q-Chem Inc. Pittsburgh 
 -------------------------------------------------------
 A unrestricted SCF calculation will be
 performed using Roothaan-Hall, DIIS, GDM
 SCF converges when RMS gradient is below 1.0e-07
 ---------------------------------------
  Cycle       Energy         DIIS error
 ---------------------------------------
    1    -340.2292926697      3.18e-04  Roothaan Step
 ---------------------------------------
  Cycle       Energy         DIIS error
 ---------------------------------------
    1    -340.3327196612      4.50e-04  
    2    -340.3340697885      5.57e-04  Done DIIS. Switching to GDM
 ---------------------------------------
  Cycle       Energy        RMS Gradient
 ---------------------------------------
    1    -340.3340697885      2.73e-02   Normal BFGS step
    2    -340.3318622592      4.76e-02  Line search: overstep
    3    -340.3375757611      4.53e-03   Normal BFGS step
    4    -340.3376866237      4.03e-03   Normal BFGS step
    5    -340.3377344406      2.44e-03   Normal BFGS step
    6    -340.3377559157      1.89e-03   Normal BFGS step
    7    -340.3377738830      1.13e-03   Normal BFGS step
    8    -340.3377815238      7.29e-04   Normal BFGS step
    9    -340.3377840612      7.06e-04   Normal BFGS step
   10    -340.3377856793      3.05e-04   Normal BFGS step
   11    -340.3377864033      2.92e-04   Normal BFGS step
   12    -340.3377867102      1.80e-04   Normal BFGS step
   13    -340.3377868769      1.66e-04   Normal BFGS step
   14    -340.3377870270      1.41e-04   Normal BFGS step
   15    -340.3377871730      9.20e-05   Normal BFGS step
   16    -340.3377872407      7.35e-05   Normal BFGS step
   17    -340.3377872692      4.87e-05   Normal BFGS step
   18    -340.3377872776      1.94e-05   Normal BFGS step
   19    -340.3377872800      6.14e-06   Normal BFGS step
   20    -340.3377872804      3.99e-06   Normal BFGS step
   21    -340.3377872805      2.49e-06   Normal BFGS step
   22    -340.3377872806      1.13e-06   Normal BFGS step
   23    -340.3377872806      5.00e-07   Normal BFGS step
   24    -340.3377872806      3.26e-07   Normal BFGS step
   25    -340.3377872806      2.01e-07   Normal BFGS step
   26    -340.3377872806      2.65e-08  Convergence criterion met
 ---------------------------------------
 SCF time:   CPU 322.87s  wall 41.00s 
<S^2> =          0.758843761
(3)  G-ENP(liq) elect-nuc-pol free energy of system     -340.337787281 a.u.
(4)  G-CDS(liq) cavity-dispersion-solvent structure 
     free energy                                                3.9164 kcal/mol
(6)  G-S(liq) free energy of system                     -340.331546034 a.u.
 SCF   energy in the final basis set =     -340.3315460344
 Total energy in the final basis set =     -340.3315460344
 
 --------------------------------------------------------------
 
                    Orbital Energies (a.u.)
 --------------------------------------------------------------
 
 Alpha MOs
 -- Occupied --
-19.3788 -19.3751 -19.3019 -19.2985 -10.4930  -1.2365  -1.1528  -1.1135
 -1.1034  -0.7162  -0.6218  -0.5897  -0.5727  -0.5668  -0.5452  -0.4633
 -0.4536  -0.4310  -0.4083  -0.3883  -0.3711
 -- Virtual --
  0.0395   0.0678   0.0769   0.0880   0.1060   0.1200   0.1554   0.2097
  0.2114   0.2302   0.2414   0.2446   0.2557   0.2709   0.2841   0.2915
  0.3123   0.3188   0.3231   0.3307   0.3472   0.3645   0.3745   0.4015
  0.4113   0.4375   0.5346   0.5798   0.6178   0.6366   0.6690   0.7426
  0.7618   0.7682   0.8219   0.8503   0.8539   0.8743   0.9767   1.0034
  1.0496   1.0741   1.0861   1.1026   1.1220   1.1377   1.1538   1.1692
  1.1977   1.2288   1.2385   1.2526   1.3175   1.3810   1.4564   1.5192
  1.5505   1.5756   1.6002   1.6229   1.6256   1.6551   1.7473   1.7824
  1.8434   1.8887   1.9362   1.9872   1.9970   2.0704   2.1917   2.2022
  2.3095   2.3415   2.3872   2.4525   2.5139   2.5259   2.5859   2.7389
  2.7918   2.8454   2.8674   2.9368   3.0703   3.1580   3.2273   3.2543
  3.3800   3.4638   3.4950   3.5465   3.6082   3.6225   3.7093   3.7274
  3.7434   3.8138   3.8894   3.9935   4.1021   4.1236   4.1782   4.2587
  5.0250   5.0696   5.0913   5.1052   5.1109   5.1282   5.1417   5.1615
  5.1735   5.1920   5.2027   5.2077   5.2259   5.2473   5.2555   5.3089
  5.3208   5.3297   5.3565   5.4234   5.4422   5.4637   5.5121   5.5535
  5.6027   5.6313   5.6472   5.6715   5.7815   5.8991   6.0038   6.1594
  6.3260   6.4909   6.5125   6.8739   6.8983   6.9174   6.9447   6.9590
  6.9816   7.0008   7.0685   7.1032   7.1176   7.1865   7.2188   7.2675
  7.3209   7.3271   7.4042   7.4492   7.5067   7.6667   7.7256   7.7566
  7.8029   7.8441   7.8451   8.0039  25.2681  50.4350  50.5243  50.6871
 50.7104
 
 Beta MOs
 -- Occupied --
-19.3674 -19.3586 -19.2997 -19.2986 -10.4933  -1.2258  -1.1270  -1.1065
 -1.0770  -0.6910  -0.6095  -0.5715  -0.5651  -0.5519  -0.5069  -0.4353
 -0.4178  -0.4025  -0.3867  -0.3623
 -- Virtual --
 -0.1087   0.0407   0.0696   0.0781   0.0887   0.1066   0.1212   0.1566
  0.2112   0.2153   0.2338   0.2427   0.2458   0.2582   0.2752   0.2858
  0.2922   0.3140   0.3210   0.3252   0.3334   0.3489   0.3666   0.3778
  0.4071   0.4189   0.4483   0.5362   0.5834   0.6224   0.6520   0.6711
  0.7458   0.7629   0.7690   0.8251   0.8530   0.8565   0.8755   0.9788
  1.0078   1.0562   1.0885   1.0910   1.1054   1.1347   1.1403   1.1609
  1.1774   1.2015   1.2316   1.2436   1.2584   1.3204   1.3879   1.4649
  1.5362   1.5616   1.5875   1.6086   1.6264   1.6292   1.6613   1.7500
  1.7875   1.8614   1.8992   1.9419   1.9924   2.0099   2.0852   2.1949
  2.2148   2.3157   2.3492   2.3970   2.4663   2.5197   2.5288   2.5924
  2.7486   2.7943   2.8506   2.8726   2.9315   3.0689   3.1575   3.2265
  3.2541   3.3805   3.4644   3.4961   3.5471   3.6086   3.6223   3.7108
  3.7328   3.7469   3.8156   3.8900   3.9980   4.0939   4.1274   4.1846
  4.2643   5.0776   5.1048   5.1127   5.1235   5.1411   5.1546   5.1651
  5.1699   5.1795   5.1976   5.2123   5.2165   5.2430   5.2587   5.2632
  5.3230   5.3406   5.3570   5.3708   5.4425   5.4667   5.4715   5.5304
  5.5626   5.6245   5.6371   5.6675   5.6832   5.8258   5.9061   6.0183
  6.1714   6.3283   6.4992   6.5144   6.9074   6.9172   6.9512   6.9616
  6.9851   7.0041   7.0244   7.0849   7.1425   7.1643   7.2047   7.2494
  7.2869   7.3237   7.3557   7.4222   7.4722   7.5359   7.6744   7.7543
  7.7682   7.8213   7.8471   7.8901   8.0446  25.2679  50.4461  50.5321
 50.6887  50.7111
 --------------------------------------------------------------
 
          Ground-State Mulliken Net Atomic Charges

     Atom                 Charge (a.u.)    Spin (a.u.)
  --------------------------------------------------------
      1 C                     0.523657      -0.023633
      2 O                    -0.658630       0.001941
      3 O                    -0.413587       0.384057
      4 H                     0.372327      -0.043011
      5 O                    -0.649605       0.074657
      6 O                    -0.505462       0.616628
      7 H                     0.331300      -0.010639
  --------------------------------------------------------
  Sum of atomic charges =    -1.000000
  Sum of spin   charges =     1.000000

 -----------------------------------------------------------------
                    Cartesian Multipole Moments
 -----------------------------------------------------------------
    Charge (ESU x 10^10)
                -4.8032
    Dipole Moment (Debye)
         X       4.8109      Y      -7.9474      Z       1.2835
       Tot       9.3783
    Quadrupole Moments (Debye-Ang)
        XX     -35.7016     XY       8.7112     YY     -56.3066
        XZ      -2.0624     YZ      -0.2300     ZZ     -37.6472
    Octopole Moments (Debye-Ang^2)
       XXX      87.6064    XXY     -82.9008    XYY      56.3827
       YYY    -326.7985    XXZ      -1.3939    XYZ      -0.7512
       YYZ     -13.8502    XZZ      34.4478    YZZ     -79.8901
       ZZZ      -1.5239
    Hexadecapole Moments (Debye-Ang^3)
      XXXX    -183.8119   XXXY     202.4072   XXYY    -292.1799
      XYYY     310.4025   YYYY   -1842.8444   XXXZ      -0.7225
      XXYZ     -27.3242   XYYZ       9.2998   YYYZ    -159.6414
      XXZZ     -70.9034   XYZZ      72.3163   YYZZ    -271.3738
      XZZZ      -6.4391   YZZZ     -54.4989   ZZZZ    -189.7788
 -----------------------------------------------------------------
 Calculating analytic gradient of the SCF energy
 Gradient of CDS energy
            1           2           3           4           5           6
    1  -0.0002045  -0.0001616   0.0001189   0.0002137   0.0001332  -0.0000970
    2   0.0024202   0.0003120  -0.0048572   0.0003084   0.0015940   0.0001466
    3  -0.0016278  -0.0015834   0.0019018  -0.0002109   0.0012090  -0.0000913
            7
    1  -0.0000027
    2   0.0000759
    3   0.0004026
 Gradient of SCF Energy
            1           2           3           4           5           6
    1   0.0033730  -0.0032776  -0.0025461   0.0002508   0.0028894  -0.0021323
    2  -0.0259974   0.0012180   0.0041293  -0.0117360   0.0311356  -0.0219017
    3   0.0110003  -0.0377701   0.0136895  -0.0028410   0.0265304   0.0007120
            7
    1   0.0014427
    2   0.0231522
    3  -0.0113211
 Max gradient component =       3.777E-02
 RMS gradient           =       1.609E-02
 Computing fast CPCM-SWIG gradient
 Updating gradient with PCM contributions...
 -- total gradient after adding PCM contribution --
---------------------------------------------------
  Atom         X              Y              Z     
---------------------------------------------------
   1      -0.000035      -0.000979      -0.000191
   2       0.000007       0.000169      -0.000128
   3       0.000018       0.000370      -0.000027
   4       0.000002      -0.000050       0.000021
   5       0.000037       0.000503       0.000329
   6      -0.000084       0.000049      -0.000021
   7       0.000055      -0.000063       0.000017
---------------------------------------------------
 Number of fixed atoms: 0
 Gradient time:  CPU 31.08 s  wall 4.47 s
 ----------------------------------------------------------------
             Standard Nuclear Orientation (Angstroms)
    I     Atom           X                Y                Z
 ----------------------------------------------------------------
    1      C      -0.9167548059     1.7245666103    -0.1582717289
    2      O      -0.7805538881     1.5610874849     1.0663494505
    3      O      -0.9731624422     3.0236536776    -0.6539293518
    4      H      -0.6915768965     3.7702593696     0.1119089561
    5      O      -1.0175845438     0.8828030396    -1.0710642309
    6      O      -0.8075355966     4.3196603114     1.2066211273
    7      H      -0.8066619269     3.4997036066     1.7391682774
 ----------------------------------------------------------------
 Nuclear Repulsion Energy =         171.25464378 hartrees
 There are       21 alpha and       20 beta electrons
 Discretize the solute cavity surface with Lebedev spheres
	Using 110 Lebedev grid points for each H atom
	Using 194 Lebedev grid points for other atoms
	Atomic van der Waals radii will be scaled by 1.20
 Remove points where switching function is < 1.0e-08
 Keep 700 surface tesserae and discard 490 interior tesserae
 Molecular Surface Area = 85.583 Angst**2

                       Distance Matrix (Angstroms)
             C (  1)   O (  2)   O (  3)   H (  4)   O (  5)   O (  6)
   O (  2)  1.242969
   O (  3)  1.391577  2.266177
   H (  4)  2.075707  2.408176  1.105992
   O (  5)  1.245762  2.254948  2.181563  3.137373
   O (  6)  2.934173  2.762269  2.273480  1.230318  4.128433
   H (  7)  2.600675  2.052218  2.445662  1.653608  3.845785  0.977720

 
 Requested basis set is 6-311++G(2df,2p)
 There are 52 shells and 190 basis functions
 A cutoff of  1.0D-12 yielded   1310 shell pairs
 There are     17695 function pairs (     22682 Cartesian)
 Smallest overlap matrix eigenvalue = 7.00E-04
 Guess MOs from SCF MO coefficient file

 -----------------------------------------------------------------------
  General SCF calculation program by
  Eric Jon Sundstrom, Paul Horn, Yuezhi Mao, Dmitri Zuev, Alec White,
  David Stuck, Shaama M.S., Shane Yost, Joonho Lee, David Small,
  Daniel Levine, Susi Lehtola, Hugh Burton, Evgeny Epifanovsky,
  Bang C. Huynh
 -----------------------------------------------------------------------
 Exchange:     0.1500 Hartree-Fock + 1.0000 wB97M-V + LR-HF
 Correlation:  1.0000 wB97M-V
 Using SG-2 standard quadrature grid
 Nonlocal Correlation:  VV10 with C = 0.0100 and b = 6.00 and scale = 1.00000
 Grid used for NLC:  SG-1 standard quadrature
 
 Citation of the SMD model:
 Marenich, A.V.; Cramer, C.J.; Truhlar, D.G.
 J. Phys. Chem. B 2009, 113, 6378-6396.
 iSolventCode=           1
 Solvent: water                                                           
 
 vradii
            1           2           3           4           5           6
    1   1.8500000   1.5200000   1.5200000   1.2000000   1.5200000   1.5200000
            7
    1   1.2000000
 -------------------------------------------------------
 OpenMP BLAS3 based DFT computing Module                
 Release: version 1.0, May 2013, Q-Chem Inc. Pittsburgh 
 -------------------------------------------------------
 A unrestricted SCF calculation will be
 performed using Roothaan-Hall, DIIS, GDM
 SCF converges when RMS gradient is below 1.0e-07
 ---------------------------------------
  Cycle       Energy         DIIS error
 ---------------------------------------
    1    -340.2293468431      3.15e-04  Roothaan Step
 ---------------------------------------
  Cycle       Energy         DIIS error
 ---------------------------------------
    1    -340.3326670405      4.53e-04  
    2    -340.3339807115      5.64e-04  Done DIIS. Switching to GDM
 ---------------------------------------
  Cycle       Energy        RMS Gradient
 ---------------------------------------
    1    -340.3339807115      2.79e-02   Normal BFGS step
    2    -340.3316782922      4.83e-02  Line search: overstep
    3    -340.3375764401      4.47e-03   Normal BFGS step
    4    -340.3376873113      4.02e-03   Normal BFGS step
    5    -340.3377346330      2.44e-03   Normal BFGS step
    6    -340.3377559553      1.92e-03   Normal BFGS step
    7    -340.3377743593      1.15e-03   Normal BFGS step
    8    -340.3377823991      7.27e-04   Normal BFGS step
    9    -340.3377849914      7.00e-04   Normal BFGS step
   10    -340.3377865858      3.02e-04   Normal BFGS step
   11    -340.3377873052      3.01e-04   Normal BFGS step
   12    -340.3377876273      1.89e-04   Normal BFGS step
   13    -340.3377878090      1.73e-04   Normal BFGS step
   14    -340.3377879714      1.46e-04   Normal BFGS step
   15    -340.3377881296      9.22e-05   Normal BFGS step
   16    -340.3377881993      7.02e-05   Normal BFGS step
   17    -340.3377882275      4.70e-05   Normal BFGS step
   18    -340.3377882356      1.93e-05   Normal BFGS step
   19    -340.3377882380      5.90e-06   Normal BFGS step
   20    -340.3377882384      3.82e-06   Normal BFGS step
   21    -340.3377882385      2.40e-06   Normal BFGS step
   22    -340.3377882386      1.11e-06   Normal BFGS step
   23    -340.3377882386      5.07e-07   Normal BFGS step
   24    -340.3377882386      3.30e-07   Normal BFGS step
   25    -340.3377882386      2.00e-07   Normal BFGS step
   26    -340.3377882386      2.61e-08  Convergence criterion met
 ---------------------------------------
 SCF time:   CPU 325.43s  wall 41.00s 
<S^2> =          0.758846685
(3)  G-ENP(liq) elect-nuc-pol free energy of system     -340.337788239 a.u.
(4)  G-CDS(liq) cavity-dispersion-solvent structure 
[...]
  2.6921   2.8499   2.8646   2.8971   2.9469   3.1007   3.1643   3.2265
  3.2469   3.3951   3.4552   3.5044   3.5715   3.6110   3.6388   3.7184
  3.7336   3.7647   3.8090   3.9431   4.0095   4.1350   4.1884   4.3292
  4.3929   5.1098   5.1244   5.1249   5.1411   5.1437   5.1675   5.1695
  5.1790   5.1883   5.1983   5.2069   5.2136   5.2407   5.2494   5.2517
  5.2882   5.3239   5.3453   5.3753   5.4472   5.4592   5.4839   5.4970
  5.5892   5.5993   5.6154   5.6410   5.6693   5.7099   5.9351   5.9904
  6.1888   6.3112   6.4666   6.4942   6.8554   6.9155   6.9273   6.9593
  6.9651   7.0163   7.0311   7.0804   7.1005   7.1088   7.1771   7.2260
  7.2740   7.3303   7.3340   7.3878   7.4220   7.4807   7.5743   7.6979
  7.7768   7.8033   7.8126   7.8564   7.9180  25.2654  50.3804  50.5610
 50.6926  50.7128
 --------------------------------------------------------------
 
          Ground-State Mulliken Net Atomic Charges

     Atom                 Charge (a.u.)    Spin (a.u.)
  --------------------------------------------------------
      1 C                     0.550601      -0.000622
      2 O                    -0.689822      -0.000017
      3 O                    -0.476051       0.000654
      4 H                     0.320337      -0.003818
      5 O                    -0.692003       0.001085
      6 O                    -0.349697       1.016366
      7 H                     0.336635      -0.013649
  --------------------------------------------------------
  Sum of atomic charges =    -1.000000
  Sum of spin   charges =     1.000000

 -----------------------------------------------------------------
                    Cartesian Multipole Moments
 -----------------------------------------------------------------
    Charge (ESU x 10^10)
                -4.8032
    Dipole Moment (Debye)
         X       4.6536      Y      -6.9306      Z       1.1614
       Tot       8.4285
    Quadrupole Moments (Debye-Ang)
        XX     -34.3469     XY       6.5410     YY     -51.6111
        XZ      -1.9355     YZ      -2.4935     ZZ     -41.6572
    Octopole Moments (Debye-Ang^2)
       XXX      83.5491    XXY     -75.1646    XYY      46.7703
       YYY    -308.8161    XXZ      -1.0336    XYZ       1.1648
       YYZ     -27.9371    XZZ      37.3489    YZZ     -99.0649
       ZZZ     -15.1042
    Hexadecapole Moments (Debye-Ang^3)
      XXXX    -173.4950   XXXY     181.8975   XXYY    -259.7757
      XYYY     269.5118   YYYY   -1799.5211   XXXZ      -0.8453
      XXYZ     -30.7865   XYYZ      20.3150   YYYZ    -258.0586
      XXZZ     -78.5237   XYZZ      85.8040   YYZZ    -367.6708
      XZZZ       5.6482   YZZZ    -128.8015   ZZZZ    -268.9277
 -----------------------------------------------------------------
 Calculating analytic gradient of the SCF energy
 Gradient of CDS energy
            1           2           3           4           5           6
    1   0.0000471  -0.0001536  -0.0001435   0.0000282   0.0002162  -0.0000044
    2   0.0029850   0.0000574  -0.0053681   0.0003645   0.0017156   0.0002922
    3  -0.0019915  -0.0018227   0.0026208  -0.0001220   0.0009922   0.0000095
            7
    1   0.0000100
    2  -0.0000466
    3   0.0003138
 Gradient of SCF Energy
            1           2           3           4           5           6
    1  -0.0019366  -0.0012197   0.0005325  -0.0006635   0.0038800  -0.0004233
    2  -0.0228473  -0.0043266   0.0070113  -0.0169309   0.0319338  -0.0173116
    3   0.0091449  -0.0309823   0.0149146  -0.0142495   0.0205959  -0.0037427
            7
    1  -0.0001695
    2   0.0224712
    3   0.0043191
 Max gradient component =       3.193E-02
 RMS gradient           =       1.488E-02
 Computing fast CPCM-SWIG gradient
 Updating gradient with PCM contributions...
 -- total gradient after adding PCM contribution --
---------------------------------------------------
  Atom         X              Y              Z     
---------------------------------------------------
   1      -0.000101      -0.000324      -0.000794
   2       0.000464      -0.001692       0.000336
   3      -0.000219       0.000126       0.000763
   4       0.000399      -0.000411       0.001751
   5      -0.000278       0.000158      -0.001300
   6      -0.000307       0.003618      -0.002354
   7       0.000041      -0.001476       0.001599
---------------------------------------------------
 Number of fixed atoms: 0
 Gradient time:  CPU 29.42 s  wall 4.31 s
rPathMan2.  file_steps = 952
 IRC --- Status = 3.  Assess initial corrector step
 IRC --- bisector search: b =  0.000000 E =     -340.352062 G.B =  -0.004084
 IRC --- bisector search: b =  0.010395 E =     -340.352061 G.B =   0.004284
 IRC --- performed gradient/energy interpolation
 IRC --- bisector search:  estimate b(min) =   5.026872909629628E-003
 ----------------------------------------------------------------
             Standard Nuclear Orientation (Angstroms)
    I     Atom           X                Y                Z
 ----------------------------------------------------------------
    1      C      -0.9049798952     1.7479780221    -0.2139413108
    2      O      -0.7882507386     1.7420318209     1.0403230343
    3      O      -0.8746572011     2.9816532075    -0.8397321790
    4      H      -0.7709355299     3.6619832233    -0.1556859665
    5      O      -1.0462089785     0.7763680698    -0.9767350545
    6      O      -0.8112687758     4.4319584764     1.6670152518
    7      H      -0.7975289743     3.4397623346     1.7185392659
 ----------------------------------------------------------------
 Nuclear Repulsion Energy =         165.76998661 hartrees
 There are       21 alpha and       20 beta electrons
 Discretize the solute cavity surface with Lebedev spheres
	Using 110 Lebedev grid points for each H atom
	Using 194 Lebedev grid points for other atoms
	Atomic van der Waals radii will be scaled by 1.20
 Remove points where switching function is < 1.0e-08
 Keep 721 surface tesserae and discard 469 interior tesserae
 Molecular Surface Area = 88.869 Angst**2

                       Distance Matrix (Angstroms)
             C (  1)   O (  2)   O (  3)   H (  4)   O (  5)   O (  6)
   O (  2)  1.259698
   O (  3)  1.383650  2.253605
   H (  4)  1.919577  2.262068  0.970323
   O (  5)  1.243312  2.251127  2.216186  3.012752
   O (  6)  3.278800  2.762061  2.896754  1.979073  4.517516
   H (  7)  2.570634  1.828210  2.600109  1.887541  3.797369  0.993628

 
 Applying Cartesian multipole field
    Component          Value
    ---------          -----
     (2,0,0)        1.00000E-11
     (0,2,0)        2.00000E-11
     (0,0,2)       -3.00000E-11
 Nucleus-field energy     =     0.0000000175 hartrees
 Requested basis set is 6-311++G(2df,2p)
 There are 52 shells and 190 basis functions
 A cutoff of  1.0D-12 yielded   1295 shell pairs
 There are     17420 function pairs (     22308 Cartesian)
 Smallest overlap matrix eigenvalue = 6.24E-04
 Guess MOs from SCF MO coefficient file

 -----------------------------------------------------------------------
  General SCF calculation program by
  Eric Jon Sundstrom, Paul Horn, Yuezhi Mao, Dmitri Zuev, Alec White,
  David Stuck, Shaama M.S., Shane Yost, Joonho Lee, David Small,
  Daniel Levine, Susi Lehtola, Hugh Burton, Evgeny Epifanovsky,
  Bang C. Huynh
 -----------------------------------------------------------------------
 Exchange:     0.1500 Hartree-Fock + 1.0000 wB97M-V + LR-HF
 Correlation:  1.0000 wB97M-V
 Using SG-2 standard quadrature grid
 Nonlocal Correlation:  VV10 with C = 0.0100 and b = 6.00 and scale = 1.00000
 Grid used for NLC:  SG-1 standard quadrature
 
 Citation of the SMD model:
 Marenich, A.V.; Cramer, C.J.; Truhlar, D.G.
 J. Phys. Chem. B 2009, 113, 6378-6396.
 iSolventCode=           1
 Solvent: water                                                           
 
 vradii
            1           2           3           4           5           6
    1   1.8500000   1.5200000   1.5200000   1.2000000   1.5200000   1.5200000
            7
    1   1.2000000
 -------------------------------------------------------
 OpenMP BLAS3 based DFT computing Module                
 Release: version 1.0, May 2013, Q-Chem Inc. Pittsburgh 
 -------------------------------------------------------
 A unrestricted SCF calculation will be
 performed using Roothaan-Hall, DIIS, GDM
 SCF converges when RMS gradient is below 1.0e-07
 ---------------------------------------
  Cycle       Energy         DIIS error
 ---------------------------------------
    1    -340.2446196183      3.85e-04  Roothaan Step
 ---------------------------------------
  Cycle       Energy         DIIS error
 ---------------------------------------
    1    -340.3524564579      4.61e-04  
    2    -340.3559760218      4.36e-04  Done DIIS. Switching to GDM
 ---------------------------------------
  Cycle       Energy        RMS Gradient
 ---------------------------------------
    1    -340.3559760218      1.51e-02   Normal BFGS step
    2    -340.3553873940      2.57e-02  Line search: overstep
    3    -340.3581024140      3.79e-03   Normal BFGS step
    4    -340.3582153662      1.53e-03   Normal BFGS step
    5    -340.3582360173      7.80e-04   Normal BFGS step
    6    -340.3582401007      2.85e-04   Normal BFGS step
    7    -340.3582406872      1.14e-04   Normal BFGS step
    8    -340.3582407797      4.94e-05   Normal BFGS step
    9    -340.3582407935      2.14e-05   Normal BFGS step
   10    -340.3582407974      8.21e-06   Normal BFGS step
   11    -340.3582407977      3.43e-06   Normal BFGS step
   12    -340.3582407977      2.94e-06   Normal BFGS step
   13    -340.3582407978      2.68e-06   Normal BFGS step
   14    -340.3582407978      2.51e-06   Normal BFGS step
   15    -340.3582407979      2.41e-06   Normal BFGS step
   16    -340.3582407979      2.53e-06   Normal BFGS step
   17    -340.3582407980      3.88e-06   Normal BFGS step
   18    -340.3582407981      4.12e-06   Normal BFGS step
   19    -340.3582407982      2.96e-06   Normal BFGS step
   20    -340.3582407983      1.27e-06   Normal BFGS step
   21    -340.3582407983      8.45e-07   Normal BFGS step
   22    -340.3582407983      3.67e-07   Normal BFGS step
   23    -340.3582407983      1.04e-07   Normal BFGS step
   24    -340.3582407983      5.01e-08  Convergence criterion met
 ---------------------------------------
 SCF time:   CPU 290.45s  wall 37.00s 
<S^2> =          0.752879800
(3)  G-ENP(liq) elect-nuc-pol free energy of system     -340.358240798 a.u.
(4)  G-CDS(liq) cavity-dispersion-solvent structure 
     free energy                                                3.8709 kcal/mol
(6)  G-S(liq) free energy of system                     -340.352072121 a.u.
 SCF   energy in the final basis set =     -340.3520721212
 Total energy in the final basis set =     -340.3520721212
 
 --------------------------------------------------------------
 
                    Orbital Energies (a.u.)
 --------------------------------------------------------------
 
 Alpha MOs
 -- Occupied --
-19.3949 -19.3472 -19.2941 -19.2889 -10.4880  -1.2245  -1.1351  -1.1196
 -1.0946  -0.7007  -0.6107  -0.5843  -0.5627  -0.5612  -0.5150  -0.5060
 -0.4559  -0.4201  -0.4021  -0.3823  -0.3648
 -- Virtual --
  0.0394   0.0692   0.0776   0.0878   0.1078   0.1217   0.1585   0.2008
  0.2052   0.2291   0.2366   0.2439   0.2512   0.2713   0.2801   0.3017
  0.3043   0.3178   0.3261   0.3286   0.3353   0.3692   0.3833   0.3953
  0.3986   0.4535   0.5423   0.5976   0.6233   0.6402   0.6709   0.7459
  0.7641   0.7805   0.7969   0.8555   0.8699   0.8940   0.9919   0.9970
  1.0219   1.0818   1.0888   1.1005   1.1267   1.1438   1.1566   1.1731
  1.2098   1.2247   1.2354   1.2393   1.2888   1.3306   1.3920   1.5105
  1.5402   1.5717   1.5953   1.6048   1.6306   1.6316   1.6751   1.7513
  1.8212   1.8702   1.8972   1.9159   1.9690   2.0078   2.1016   2.2117
  2.2894   2.3312   2.3523   2.3701   2.4127   2.5122   2.5560   2.6913
  2.8493   2.8631   2.8864   2.9457   3.1008   3.1639   3.2263   3.2467
  3.3948   3.4557   3.5044   3.5712   3.6112   3.6386   3.7135   3.7211
  3.7642   3.8068   3.9339   4.0084   4.1348   4.1872   4.3252   4.3900
  4.9957   5.0663   5.0718   5.0828   5.1102   5.1320   5.1436   5.1700
  5.1849   5.1874   5.1971   5.2070   5.2136   5.2487   5.2506   5.2763
  5.3178   5.3402   5.3565   5.4397   5.4565   5.4838   5.4958   5.5284
  5.5956   5.6103   5.6416   5.6687   5.7091   5.9350   5.9916   6.1897
  6.3127   6.4682   6.4949   6.7436   6.8411   6.8705   6.9469   6.9508
  6.9948   7.0143   7.0393   7.0762   7.0948   7.1708   7.2225   7.2739
  7.3230   7.3338   7.3825   7.4221   7.4727   7.5209   7.6981   7.7773
  7.8015   7.8099   7.8563   7.9180  25.2669  50.3652  50.5613  50.6934
 50.7133
 
 Beta MOs
 -- Occupied --
-19.3705 -19.3472 -19.2942 -19.2889 -10.4880  -1.2244  -1.1204  -1.0967
 -1.0615  -0.7005  -0.6053  -0.5740  -0.5619  -0.5510  -0.5009  -0.4277
 -0.4199  -0.4007  -0.3823  -0.3641
 -- Virtual --
 -0.0682   0.0398   0.0700   0.0780   0.0893   0.1082   0.1219   0.1589
  0.2050   0.2170   0.2297   0.2392   0.2440   0.2521   0.2766   0.2823
  0.3024   0.3044   0.3182   0.3270   0.3296   0.3357   0.3694   0.3817
  0.3939   0.4004   0.4552   0.5424   0.5986   0.6238   0.6415   0.6710
  0.7512   0.7643   0.7818   0.7984   0.8560   0.8706   0.8996   0.9975
  1.0033   1.0225   1.0827   1.1019   1.1276   1.1368   1.1479   1.1584
  1.1808   1.2111   1.2260   1.2371   1.2425   1.2925   1.3419   1.3968
  1.5552   1.5721   1.5872   1.6005   1.6148   1.6310   1.6370   1.6788
  1.7520   1.8324   1.8785   1.9035   1.9423   1.9744   2.0126   2.1161
  2.2125   2.2903   2.3374   2.3544   2.3762   2.4243   2.5123   2.5578
  2.6927   2.8502   2.8648   2.8993   2.9474   3.1009   3.1643   3.2264
  3.2467   3.3951   3.4557   3.5044   3.5717   3.6116   3.6390   3.7187
  3.7335   3.7646   3.8091   3.9423   4.0106   4.1357   4.1895   4.3351
  4.3940   5.1098   5.1240   5.1249   5.1410   5.1434   5.1675   5.1695
  5.1789   5.1884   5.1984   5.2071   5.2137   5.2408   5.2496   5.2519
  5.2882   5.3244   5.3454   5.3773   5.4486   5.4605   5.4845   5.4978
  5.5970   5.6018   5.6198   5.6417   5.6707   5.7112   5.9350   5.9916
  6.1898   6.3128   6.4683   6.4951   6.8553   6.9156   6.9278   6.9599
  6.9652   7.0170   7.0319   7.0814   7.1040   7.1182   7.1818   7.2272
  7.2741   7.3316   7.3343   7.3910   7.4223   7.4808   7.5737   7.6990
  7.7773   7.8039   7.8126   7.8566   7.9183  25.2669  50.3821  50.5613
 50.6934  50.7133
 --------------------------------------------------------------
 
          Ground-State Mulliken Net Atomic Charges

     Atom                 Charge (a.u.)    Spin (a.u.)
  --------------------------------------------------------
      1 C                     0.550714      -0.000618
      2 O                    -0.689684       0.000015
      3 O                    -0.476440       0.000653
      4 H                     0.320202      -0.003806
      5 O                    -0.692526       0.001096
      6 O                    -0.348327       1.016079
      7 H                     0.336063      -0.013419
  --------------------------------------------------------
  Sum of atomic charges =    -1.000000
  Sum of spin   charges =     1.000000

 -----------------------------------------------------------------
                    Cartesian Multipole Moments
 -----------------------------------------------------------------
    Charge (ESU x 10^10)
                -4.8032
    Dipole Moment (Debye)
         X       4.6544      Y      -6.9184      Z       1.1729
       Tot       8.4205
    Quadrupole Moments (Debye-Ang)
        XX     -34.3435     XY       6.5316     YY     -51.5248
        XZ      -1.9455     YZ      -2.4519     ZZ     -41.6469
    Octopole Moments (Debye-Ang^2)
       XXX      83.5403    XXY     -75.1302    XYY      46.6993
       YYY    -308.2725    XXZ      -1.0120    XYZ       1.1296
       YYZ     -27.7371    XZZ      37.3405    YZZ     -98.9910
       ZZZ     -15.0551
    Hexadecapole Moments (Debye-Ang^3)
      XXXX    -173.4753   XXXY     181.8252   XXYY    -259.5580
      XYYY     269.0587   YYYY   -1796.0789   XXXZ      -0.8827
      XXYZ     -30.7020   XYYZ      20.1476   YYYZ    -256.9856
      XXZZ     -78.4954   XYZZ      85.7423   YYZZ    -367.2086
      XZZZ       5.6092   YZZZ    -128.5442   ZZZZ    -268.7915
 -----------------------------------------------------------------
 Calculating analytic gradient of the SCF energy
 Gradient of CDS energy
            1           2           3           4           5           6
    1   0.0000453  -0.0001519  -0.0001433   0.0000282   0.0002161  -0.0000044
    2   0.0029803   0.0000579  -0.0053652   0.0003650   0.0017161   0.0002934
    3  -0.0020054  -0.0018065   0.0026203  -0.0001221   0.0009908   0.0000090
            7
    1   0.0000100
    2  -0.0000476
    3   0.0003139
 Gradient of SCF Energy
            1           2           3           4           5           6
    1  -0.0018751  -0.0012920   0.0005501  -0.0006851   0.0038922  -0.0003804
    2  -0.0229299  -0.0042278   0.0071262  -0.0170510   0.0320404  -0.0202980
    3   0.0098149  -0.0316959   0.0150615  -0.0143491   0.0206753  -0.0036426
            7
    1  -0.0002097
    2   0.0253402
    3   0.0041359
 Max gradient component =       3.204E-02
 RMS gradient           =       1.540E-02
 Computing fast CPCM-SWIG gradient
 Updating gradient with PCM contributions...
 -- total gradient after adding PCM contribution --
---------------------------------------------------
  Atom         X              Y              Z     
---------------------------------------------------
   1      -0.000036      -0.000429      -0.000203
   2       0.000385      -0.001546      -0.000365
   3      -0.000203       0.000200       0.000952
   4       0.000376      -0.000529       0.001640
   5      -0.000259       0.000325      -0.001156
   6      -0.000263       0.000603      -0.002218
   7      -0.000000       0.001375       0.001350
---------------------------------------------------
 Number of fixed atoms: 0
 Gradient time:  CPU 29.61 s  wall 4.38 s
rPathMan2.  file_steps = 952
 IRC --- Status = 4.  Checking bisector search.
 IRC --- Bisector search finished successfully.
 ------------------------------------------------------------------------
 Reaction path following.  The coordinates are cartesian              
 Step  14 E=    -340.352072 |G|=  0.004191 S_lin= 1.2283 S_tot= 1.3675
 ------------------------------------------------------------------------
  IRC -- convergence criterion reached.
 ----------------------------------------------------------------
             Standard Nuclear Orientation (Angstroms)
    I     Atom           X                Y                Z
 ----------------------------------------------------------------
    1      C      -0.9167548059     1.7245666103    -0.1592717289
    2      O      -0.7805538881     1.5610874849     1.0663494505
    3      O      -0.9731624422     3.0236536776    -0.6539293518
    4      H      -0.6915768965     3.7702593696     0.1119089561
    5      O      -1.0175845438     0.8828030396    -1.0710642309
    6      O      -0.8075355966     4.3196603114     1.2066211273
    7      H      -0.8066619269     3.4997036066     1.7391682774
 ----------------------------------------------------------------
 Nuclear Repulsion Energy =         171.25331282 hartrees
 There are       21 alpha and       20 beta electrons
 Here is where we should summarize the reaction path
 Total job time:  3464.96s(wall), 26946.84s(cpu) 
 Tue Oct 17 10:02:51 2023

        *************************************************************
        *                                                           *
        *  Thank you very much for using Q-Chem.  Have a nice day.  *
        *                                                           *
        *************************************************************


