
Running Job 1 of 2 Q_in.in
qchem Q_in.in_157665.0 /scratch/ari.fischer/qChem1788867.hpc-mn1/qchem157665/ 0
/usr/local/qchem-5.4.1/exe/qcprog.exe_s Q_in.in_157665.0 /scratch/ari.fischer/qChem1788867.hpc-mn1/qchem157665/
                  Welcome to Q-Chem
     A Quantum Leap Into The Future Of Chemistry


 Q-Chem 5.4, Q-Chem, Inc., Pleasanton, CA (2021)

 License issued to: Nanyang Technological University (site)

 E. Epifanovsky,  A. T. B. Gilbert,  Xintian Feng,  Joonho Lee,  Yuezhi Mao,  
 N. Mardirossian,  P. Pokhilko,  A. White,  M. Wormit,  M. P. Coons,  
 A. L. Dempwolff,  Zhengting Gan,  D. Hait,  P. R. Horn,  L. D. Jacobson,  
 I. Kaliman,  J. Kussmann,  A. W. Lange,  Ka Un Lao,  D. S. Levine,  Jie Liu,  
 S. C. McKenzie,  A. F. Morrison,  K. Nanda,  F. Plasser,  D. R. Rehn,  
 M. L. Vidal,  Zhi-Qiang You,  Ying Zhu,  B. Alam,  B. Albrecht,  
 A. Aldossary,  E. Alguire,  J. H. Andersen,  D. Barton,  K. Begam,  A. Behn,  
 Y. A. Bernard,  E. J. Berquist,  H. Burton,  A. Carreras,  K. Carter-Fenk,  
 R. Chakraborty,  A. D. Chien,  K. D. Closser,  V. Cofer-Shabica,  
 S. Dasgupta,  Jia Deng,  M. de Wergifosse,  M. Diedenhofen,  Hainam Do,  
 S. Ehlert,  Po-Tung Fang,  S. Fatehi,  Qingguo Feng,  T. Friedhoff,  
 J. Gayvert,  Qinghui Ge,  G. Gidofalvi,  M. Goldey,  J. Gomes,  
 C. Gonzalez-Espinoza,  S. Gulania,  A. Gunina,  M. W. D. Hanson-Heine,  
 P. H. P. Harbach,  A. W. Hauser,  M. F. Herbst,  M. Hernandez Vera,  
 M. Hodecker,  Z. C. Holden,  S. Houck,  Xunkun Huang,  Kerwin Hui,  
 B. C. Huynh,  M. Ivanov,  Hyunjun Ji,  Hanjie Jiang,  B. Kaduk,  S. Kaehler,  
 K. Khistyaev,  Jaehoon Kim,  P. Klunzinger,  Z. Koczor-Benda,  
 Joong Hoon Koh,  D. Kosenkov,  L. Koulias,  T. Kowalczyk,  C. M. Krauter,  
 K. Kue,  A. Kunitsa,  T. Kus,  A. Landau,  K. V. Lawler,  D. Lefrancois,  
 S. Lehtola,  Rain Li,  Yi-Pei Li,  Jiashu Liang,  M. Liebenthal,  
 Hung-Hsuan Lin,  You-Sheng Lin,  Fenglai Liu,  Kuan-Yu Liu,  
 M. Loipersberger,  A. Luenser,  A. Manjanath,  P. Manohar,  E. Mansoor,  
 S. F. Manzer,  Shan-Ping Mao,  A. V. Marenich,  T. Markovich,  S. Mason,  
 S. A. Maurer,  P. F. McLaughlin,  M. F. S. J. Menger,  J.-M. Mewes,  
 S. A. Mewes,  P. Morgante,  J. W. Mullinax,  K. J. Oosterbaan,  G. Paran,  
 Alexander C. Paul,  Suranjan K. Paul,  F. Pavosevic,  Zheng Pei,  S. Prager,  
 E. I. Proynov,  E. Ramos,  B. Rana,  A. E. Rask,  A. Rettig,  R. M. Richard,  
 F. Rob,  E. Rossomme,  T. Scheele,  M. Scheurer,  M. Schneider,  
 N. Sergueev,  S. M. Sharada,  W. Skomorowski,  D. W. Small,  C. J. Stein,  
 Yu-Chuan Su,  E. J. Sundstrom,  Zhen Tao,  J. Thirman,  T. Tsuchimochi,  
 N. M. Tubman,  S. P. Veccham,  O. Vydrov,  J. Wenzel,  J. Witte,  A. Yamada,  
 Kun Yao,  S. Yeganeh,  S. R. Yost,  A. Zech,  Igor Ying Zhang,  Xing Zhang,  
 Yu Zhang,  D. Zuev,  A. Aspuru-Guzik,  A. T. Bell,  N. A. Besley,  
 K. B. Bravaya,  B. R. Brooks,  D. Casanova,  Jeng-Da Chai,  S. Coriani,  
 C. J. Cramer,  A. E. DePrince, III,  R. A. DiStasio Jr.,  A. Dreuw,  
 B. D. Dunietz,  T. R. Furlani,  W. A. Goddard III,  S. Grimme,  
 S. Hammes-Schiffer,  T. Head-Gordon,  W. J. Hehre,  Chao-Ping Hsu,  
 T.-C. Jagau,  Yousung Jung,  A. Klamt,  Jing Kong,  D. S. Lambrecht,  
 WanZhen Liang,  N. J. Mayhall,  C. W. McCurdy,  J. B. Neaton,  
 C. Ochsenfeld,  J. A. Parkhill,  R. Peverati,  V. A. Rassolov,  Yihan Shao,  
 L. V. Slipchenko,  T. Stauch,  R. P. Steele,  J. E. Subotnik,  
 A. J. W. Thom,  A. Tkatchenko,  D. G. Truhlar,  T. Van Voorhis,  
 T. A. Wesolowski,  K. B. Whaley,  H. L. Woodcock III,  P. M. Zimmerman,  
 S. Faraji,  P. M. W. Gill,  M. Head-Gordon,  J. M. Herbert,  A. I. Krylov

 Additional authors for Version 5.4.1: 
 S. Kotaru,  Shaozhi Li,  Xiangyuan Li,  F. Matz,  A. Molle,  Haisheng Ren,  
 Yingli Su,  Hung-Yi Tsai,  C. Utku,  Fang Wang

 Contributors to earlier versions of Q-Chem not listed above: 
 R. D. Adamson,  B. Austin,  R. Baer,  J. Baker,  G. J. O. Beran,  
 K. Brandhorst,  S. T. Brown,  E. F. C. Byrd,  A. K. Chakraborty,  
 G. K. L. Chan,  Chun-Min Chang,  Yunqing Chen,  C.-L. Cheng,  
 Siu Hung Chien,  D. M. Chipman,  D. L. Crittenden,  H. Dachsel,  
 R. J. Doerksen,  A. D. Dutoi,  R. G. Edgar,  J. Fosso-Tande,  
 L. Fusti-Molnar,  D. Ghosh,  A. Ghysels,  A. Golubeva-Zadorozhnaya,  
 J. Gonthier,  M. S. Gordon,  S. R. Gwaltney,  G. Hawkins,  J. E. Herr,  
 A. Heyden,  S. Hirata,  E. G. Hohenstein,  G. Kedziora,  F. J. Keil,  
 C. Kelley,  Jihan Kim,  R. A. King,  R. Z. Khaliullin,  P. P. Korambath,  
 W. Kurlancheek,  A. Laurent,  A. M. Lee,  M. S. Lee,  S. V. Levchenko,  
 Ching Yeh Lin,  D. Liotard,  E. Livshits,  R. C. Lochan,  I. Lotan,  
 L. A. Martinez-Martinez,  P. E. Maslen,  N. Nair,  D. P. O'Neill,  
 D. Neuhauser,  E. Neuscamman,  C. M. Oana,  R. Olivares-Amaya,  R. Olson,  
 T. M. Perrine,  B. Peters,  P. A. Pieniazek,  A. Prociuk,  Y. M. Rhee,  
 J. Ritchie,  M. A. Rohrdanz,  E. Rosta,  N. J. Russ,  H. F. Schaefer III,  
 M. W. Schmidt,  N. E. Schultz,  S. Sharma,  N. Shenvi,  C. D. Sherrill,  
 A. C. Simmonett,  A. Sodt,  T. Stein,  D. Stuck,  K. S. Thanthiriwatte,  
 V. Vanovschi,  L. Vogt,  Tao Wang,  A. Warshel,  M. A. Watson,  
 C. F. Williams,  Q. Wu,  X. Xu,  Jun Yang,  W. Zhang,  Yan Zhao

 Please cite Q-Chem as follows:
 Y. Shao et al., Mol. Phys. 113, 184-215 (2015)
 DOI: 10.1080/00268976.2014.952696

 Q-Chem 5.4.1 for Intel X86 EM64T Linux

 Parts of Q-Chem use Armadillo 9.800.1 (Horizon Scraper).
 http://arma.sourceforge.net/

 Q-Chem begins on Sun Oct  1 18:39:04 2023  

 Host: 
0

     Scratch files written to /scratch/ari.fischer/qChem1788867.hpc-mn1/qchem157665//
 Aug1521 |scratch|qcdevops|jenkins|workspace|build_RNUM 8249   
 Processing $rem in /usr/local/qchem-5.4.1/config/preferences:
 Processing $rem in /home/ari.fischer/.qchemrc:
 Symmetry turned off for PCM/SM12/SMD calculation


!!********************************************.
!!******************Warning*******************.
!!Desired Analytical derivatives not available.
!!Finite difference job might take a long time.
!!********************************************.
!!********************************************.


 2-order derivative to be evaluated numerically with 1-order analytical derivatives

 Checking the input file for inconsistencies... 	...done.

--------------------------------------------------------------
User input:
--------------------------------------------------------------
$molecule
-1 2
C   -0.9037440    1.7901609   -0.1570075
O   -0.7708866    1.6705391    1.0804676
O   -0.9102249    3.0865070   -0.6633885
H   -0.7989518    3.7360866    0.1488310
O   -1.0325666    0.8993703   -1.0196253
O   -0.7540275    4.1619511    1.0798627
H   -0.8234287    3.4371191    1.7706425
$end

$rem
BASIS = 6-311++G(2df,2p)
GUI = 2
JOB_TYPE = Frequency
METHOD = wB97M-v
SCF_ALGORITHM = DIIS_GDM
MAX_SCF_CYCLES = 400
SCF_CONVERGENCE = 6
THRESH = 11
solvent_method = SMD
$end

--------------------------------------------------------------
 ----------------------------------------------------------------
             Standard Nuclear Orientation (Angstroms)
    I     Atom           X                Y                Z
 ----------------------------------------------------------------
    1      C      -0.9037440000     1.7901609000    -0.1570075000
    2      O      -0.7708866000     1.6705391000     1.0804676000
    3      O      -0.9102249000     3.0865070000    -0.6633885000
    4      H      -0.7989518000     3.7360866000     0.1488310000
    5      O      -1.0325666000     0.8993703000    -1.0196253000
    6      O      -0.7540275000     4.1619511000     1.0798627000
    7      H      -0.8234287000     3.4371191000     1.7706425000
 ----------------------------------------------------------------
 Nuclear Repulsion Energy =         176.44659301 hartrees
 There are       21 alpha and       20 beta electrons
 Requested basis set is 6-311++G(2df,2p)
 There are 52 shells and 190 basis functions

 Total QAlloc Memory Limit 288000 MB
 Mega-Array Size       188 MB
 MEM_STATIC part       192 MB
 
 Citation of the SMD model:
 Marenich, A.V.; Cramer, C.J.; Truhlar, D.G.
 J. Phys. Chem. B 2009, 113, 6378-6396.
 iSolventCode=           1
 Solvent: water                                                           
 
 vradii
            1           2           3           4           5           6
    1   1.8500000   1.5200000   1.5200000   1.2000000   1.5200000   1.5200000
            7
    1   1.2000000
 Changing PCM_VDW_RADII to SMD_RADIUS
 Discretize the solute cavity surface with Lebedev spheres
	Using 110 Lebedev grid points for each H atom
	Using 194 Lebedev grid points for other atoms
	Atomic van der Waals radii will be scaled by 1.20
 Remove points where switching function is < 1.0e-08
 Keep 682 surface tesserae and discard 508 interior tesserae
 Molecular Surface Area = 83.051 Angst**2

                       Distance Matrix (Angstroms)
             C (  1)   O (  2)   O (  3)   H (  4)   O (  5)   O (  6)
   O (  2)  1.250322
   O (  3)  1.391753  2.250648
   H (  4)  1.972599  2.266103  1.045962
   O (  5)  1.246681  2.252458  2.219333  3.076821
   O (  6)  2.679114  2.491469  2.054240  1.024792  3.889713
   H (  7)  2.536682  1.897342  2.460685  1.649319  3.777499  1.003681

 
 A cutoff of  1.0D-11 yielded   1305 shell pairs
 There are     17691 function pairs (     22684 Cartesian)
 Smallest overlap matrix eigenvalue = 4.02E-04
 Guess from superposition of atomic densities
 Warning:  Energy on first SCF cycle will be non-variational
 SAD guess density has 40.000000 electrons

 -----------------------------------------------------------------------
  General SCF calculation program by
  Eric Jon Sundstrom, Paul Horn, Yuezhi Mao, Dmitri Zuev, Alec White,
  David Stuck, Shaama M.S., Shane Yost, Joonho Lee, David Small,
  Daniel Levine, Susi Lehtola, Hugh Burton, Evgeny Epifanovsky,
  Bang C. Huynh
 -----------------------------------------------------------------------
 Exchange:     0.1500 Hartree-Fock + 1.0000 wB97M-V + LR-HF
 Correlation:  1.0000 wB97M-V
 Using SG-2 standard quadrature grid
 Nonlocal Correlation:  VV10 with C = 0.0100 and b = 6.00 and scale = 1.00000
 Grid used for NLC:  SG-1 standard quadrature
 using 32 threads for integral computing
 -------------------------------------------------------
 OpenMP Integral computing Module                
 Release: version 1.0, May 2013, Q-Chem Inc. Pittsburgh 
 -------------------------------------------------------
 
 Citation of the SMD model:
 Marenich, A.V.; Cramer, C.J.; Truhlar, D.G.
 J. Phys. Chem. B 2009, 113, 6378-6396.
 iSolventCode=           1
 Solvent: water                                                           
 
 vradii
            1           2           3           4           5           6
    1   1.8500000   1.5200000   1.5200000   1.2000000   1.5200000   1.5200000
            7
    1   1.2000000
 -------------------------------------------------------
 OpenMP BLAS3 based DFT computing Module                
 Release: version 1.0, May 2013, Q-Chem Inc. Pittsburgh 
 -------------------------------------------------------
 A unrestricted SCF calculation will be
 performed using DIIS, GDM
 SCF converges when RMS gradient is below 1.0e-06
 ---------------------------------------
  Cycle       Energy         DIIS error
 ---------------------------------------
    1    -340.8024595988      1.79e-02  
    2    -340.1337672582      3.54e-03  Done DIIS. Switching to GDM
 ---------------------------------------
  Cycle       Energy        RMS Gradient
 ---------------------------------------
    1    -340.1337672582      1.64e-01   Descent step
    2    -340.2942640630      3.43e-02   Normal BFGS step
    3    -340.3076125614      1.51e-02   Normal BFGS step
    4    -340.3095265009      3.05e-02   Normal BFGS step
    5    -340.3110942911      2.19e-02   Normal BFGS step
    6    -340.3120564737      1.37e-02   Normal BFGS step
    7    -340.3126563917      8.96e-03   Normal BFGS step
    8    -340.3128316369      3.81e-03   Normal BFGS step
    9    -340.3129164152      2.36e-03   Normal BFGS step
   10    -340.3129489354      1.08e-03   Normal BFGS step
   11    -340.3129582132      7.96e-04   Normal BFGS step
   12    -340.3129609480      4.56e-04   Normal BFGS step
   13    -340.3129615889      3.05e-04   Normal BFGS step
   14    -340.3129619055      1.77e-04   Normal BFGS step
   15    -340.3129620279      1.04e-04   Normal BFGS step
   16    -340.3129620622      8.82e-05   Normal BFGS step
   17    -340.3129620837      6.58e-05   Normal BFGS step
   18    -340.3129621001      3.76e-05   Normal BFGS step
   19    -340.3129621105      1.95e-05   Normal BFGS step
   20    -340.3129621138      8.64e-06   Normal BFGS step
   21    -340.3129621143      3.32e-06   Normal BFGS step
   22    -340.3129621143      1.41e-06   Normal BFGS step
   23    -340.3129621143      5.66e-07  Convergence criterion met
 ---------------------------------------
 SCF time:   CPU 629.89s  wall 20.00s 
<S^2> =          0.755957934
(3)  G-ENP(liq) elect-nuc-pol free energy of system     -340.312962114 a.u.
(4)  G-CDS(liq) cavity-dispersion-solvent structure 
     free energy                                                3.7762 kcal/mol
(6)  G-S(liq) free energy of system                     -340.306944393 a.u.
 SCF   energy in the final basis set =     -340.3069443925
 Total energy in the final basis set =     -340.3069443925
 
 --------------------------------------------------------------
 
                    Orbital Energies (a.u.)
 --------------------------------------------------------------
 
 Alpha MOs
 -- Occupied --
-19.3840 -19.3530 -19.3032 -19.2955 -10.4949  -1.2556  -1.1674  -1.1107
 -1.0980  -0.7431  -0.6386  -0.5950  -0.5760  -0.5567  -0.5430  -0.4610
 -0.4453  -0.4279  -0.4065  -0.3868  -0.3694
 -- Virtual --
  0.0398   0.0671   0.0772   0.0884   0.1058   0.1195   0.1527   0.2080
  0.2201   0.2250   0.2424   0.2459   0.2584   0.2694   0.2889   0.2916
  0.3117   0.3216   0.3245   0.3287   0.3462   0.3642   0.3762   0.4110
  0.4292   0.5302   0.5543   0.5948   0.6179   0.6678   0.7280   0.7593
  0.7651   0.7830   0.8011   0.8401   0.8656   0.8845   1.0082   1.0248
  1.0450   1.0622   1.0973   1.1100   1.1219   1.1303   1.1402   1.1752
  1.2042   1.2210   1.2355   1.2583   1.3250   1.4157   1.4788   1.5025
  1.5888   1.6070   1.6206   1.6349   1.6904   1.7010   1.7543   1.8115
  1.8631   1.8997   1.9552   2.0039   2.1768   2.1815   2.2173   2.2326
  2.3443   2.3677   2.4285   2.4362   2.5202   2.5398   2.6448   2.7516
  2.8323   2.8603   2.8838   3.0129   3.0946   3.1829   3.2208   3.2375
  3.3834   3.4553   3.4991   3.5791   3.6123   3.6274   3.6839   3.7170
  3.7498   3.7539   3.9827   4.0080   4.0998   4.1387   4.2216   4.2561
  5.0106   5.0766   5.0869   5.1055   5.1132   5.1619   5.1629   5.1730
  5.1825   5.1929   5.1992   5.2176   5.2450   5.2578   5.2796   5.3191
  5.3460   5.3662   5.4489   5.4603   5.4794   5.5537   5.5604   5.5906
  5.6766   5.7286   5.8606   5.8892   5.9349   6.0144   6.1782   6.2977
  6.3121   6.4800   6.5073   6.8977   6.9291   6.9464   6.9480   6.9937
  7.0039   7.0658   7.0950   7.1954   7.2190   7.2386   7.3193   7.3279
  7.3450   7.4381   7.4601   7.5173   7.6558   7.6701   7.7535   7.7857
  7.8378   7.8573   8.0269   8.2193  25.2621  50.5051  50.5539  50.6836
 50.7235
 
 Beta MOs
 -- Occupied --
-19.3693 -19.3390 -19.3012 -19.2956 -10.4953  -1.2371  -1.1496  -1.1034
 -1.0713  -0.7075  -0.6231  -0.5724  -0.5707  -0.5424  -0.5077  -0.4469
 -0.4122  -0.4039  -0.3850  -0.3611
 -- Virtual --
 -0.0952   0.0408   0.0688   0.0787   0.0889   0.1063   0.1205   0.1538
  0.2093   0.2231   0.2280   0.2441   0.2462   0.2610   0.2721   0.2900
  0.2921   0.3133   0.3239   0.3274   0.3304   0.3476   0.3664   0.3769
  0.4127   0.4346   0.5341   0.5620   0.6002   0.6268   0.6678   0.7328
  0.7604   0.7716   0.7971   0.8051   0.8439   0.8687   0.8860   1.0101
  1.0323   1.0527   1.0756   1.1003   1.1168   1.1290   1.1388   1.1440
  1.1803   1.2085   1.2258   1.2378   1.2627   1.3278   1.4206   1.4936
  1.5082   1.5908   1.6165   1.6240   1.6386   1.7064   1.7125   1.7580
  1.8147   1.8702   1.9124   1.9578   2.0100   2.1852   2.2009   2.2228
  2.2439   2.3518   2.3837   2.4381   2.4557   2.5224   2.5431   2.6607
  2.7539   2.8390   2.8602   2.8930   3.0251   3.0953   3.1821   3.2197
  3.2369   3.3841   3.4559   3.5007   3.5816   3.6119   3.6275   3.6878
  3.7202   3.7545   3.7582   3.9866   4.0170   4.1086   4.1413   4.2265
  4.2801   5.0468   5.0985   5.1130   5.1231   5.1472   5.1653   5.1715
  5.1803   5.1985   5.2018   5.2065   5.2294   5.2493   5.2653   5.2987
  5.3290   5.3624   5.3839   5.4632   5.4781   5.4890   5.5630   5.5662
  5.6018   5.6824   5.7486   5.8872   5.8999   5.9662   6.0403   6.1989
  6.3138   6.3497   6.4820   6.5209   6.9136   6.9529   6.9594   6.9842
  7.0018   7.0214   7.0813   7.1232   7.2207   7.2381   7.2517   7.3270
  7.3579   7.3708   7.4667   7.5134   7.5443   7.6700   7.7000   7.7630
  7.7914   7.8545   7.8855   8.0906   8.2663  25.2618  50.5149  50.5637
 50.6848  50.7249
 --------------------------------------------------------------
 
          Ground-State Mulliken Net Atomic Charges

     Atom                 Charge (a.u.)    Spin (a.u.)
  --------------------------------------------------------
      1 C                     0.517522      -0.024882
      2 O                    -0.658600       0.000359
      3 O                    -0.434224       0.489215
      4 H                     0.501948      -0.005855
      5 O                    -0.652838       0.065009
      6 O                    -0.614559       0.484118
      7 H                     0.340750      -0.007964
  --------------------------------------------------------
  Sum of atomic charges =    -1.000000
  Sum of spin   charges =     1.000000

 -----------------------------------------------------------------
                    Cartesian Multipole Moments
 -----------------------------------------------------------------
    Charge (ESU x 10^10)
                -4.8032
    Dipole Moment (Debye)
         X       4.2459      Y      -8.2999      Z       1.1559
       Tot       9.3942
    Quadrupole Moments (Debye-Ang)
        XX     -34.7098     XY       6.6372     YY     -57.4875
        XZ      -2.2947     YZ      -0.1404     ZZ     -36.3384
    Octopole Moments (Debye-Ang^2)
       XXX      84.0461    XXY     -79.4169    XYY      47.4537
       YYY    -330.8474    XXZ      -0.6713    XYZ      -2.2178
       YYZ     -11.2759    XZZ      31.9522    YZZ     -76.9033
       ZZZ       0.1848
    Hexadecapole Moments (Debye-Ang^3)
      XXXX    -174.4895   XXXY     190.0189   XXYY    -272.8132
      XYYY     270.8228   YYYY   -1825.5791   XXXZ      -2.7105
      XXYZ     -21.6270   XYYZ       1.0176   YYYZ    -132.7157
      XXZZ     -65.3900   XYZZ      64.6176   YYZZ    -253.8967
      XZZZ      -9.2778   YZZZ     -39.9544   ZZZZ    -172.5303
 -----------------------------------------------------------------
 Calculating analytic gradient of the SCF energy
 Gradient of CDS energy
            1           2           3           4           5           6
    1  -0.0000679  -0.0001437  -0.0000377   0.0001051   0.0001935  -0.0000115
    2   0.0026089   0.0003074  -0.0051348   0.0003450   0.0016887   0.0000483
    3  -0.0017311  -0.0016449   0.0020576  -0.0002227   0.0011750  -0.0000477
            7
    1  -0.0000377
    2   0.0001366
    3   0.0004138
 Gradient of SCF Energy
            1           2           3           4           5           6
    1  -0.0010423  -0.0001213   0.0100019  -0.0059655   0.0033449  -0.0039526
    2  -0.0157622   0.0066692   0.0617379  -0.0295536   0.0250748  -0.0552064
    3   0.0057368  -0.0316819   0.0796318   0.0133625   0.0268453  -0.0987515
            7
    1  -0.0022651
    2   0.0070403
    3   0.0048570
 Max gradient component =       9.875E-02
 RMS gradient           =       3.581E-02
 Computing fast CPCM-SWIG gradient
 Updating gradient with PCM contributions...
 -- total gradient after adding PCM contribution --
---------------------------------------------------
  Atom         X              Y              Z     
---------------------------------------------------
   1      -0.000482       0.009431      -0.008565
   2       0.001534       0.011866       0.005849
   3       0.010395       0.066472       0.069595
   4      -0.005726      -0.020464       0.004762
   5      -0.000712      -0.009115       0.002274
   6      -0.002695      -0.044948      -0.101493
   7      -0.002316      -0.013242       0.027577
---------------------------------------------------
 Number of fixed atoms: 0
 Gradient time:  CPU 56.24 s  wall 2.97 s
 ######################################################
 ######################################################
 # Starting finite difference calculation for IDERIV  #
 Finite diff step size:  1.88973e-03 a.u.
 ----------------------------------------------------------------
             Standard Nuclear Orientation (Angstroms)
    I     Atom           X                Y                Z
 ----------------------------------------------------------------
    1      C      -0.9027440000     1.7901609000    -0.1570075000
    2      O      -0.7708866000     1.6705391000     1.0804676000
    3      O      -0.9102249000     3.0865070000    -0.6633885000
    4      H      -0.7989518000     3.7360866000     0.1488310000
    5      O      -1.0325666000     0.8993703000    -1.0196253000
    6      O      -0.7540275000     4.1619511000     1.0798627000
    7      H      -0.8234287000     3.4371191000     1.7706425000
 ----------------------------------------------------------------
 Nuclear Repulsion Energy =         176.44680811 hartrees
 There are       21 alpha and       20 beta electrons
 Discretize the solute cavity surface with Lebedev spheres
	Using 110 Lebedev grid points for each H atom
	Using 194 Lebedev grid points for other atoms
	Atomic van der Waals radii will be scaled by 1.20
 Remove points where switching function is < 1.0e-08
 Keep 681 surface tesserae and discard 509 interior tesserae
 Molecular Surface Area = 83.051 Angst**2

                       Distance Matrix (Angstroms)
             C (  1)   O (  2)   O (  3)   H (  4)   O (  5)   O (  6)
   O (  2)  1.250216
   O (  3)  1.391758  2.250648
   H (  4)  1.972546  2.266103  1.045962
   O (  5)  1.246784  2.252458  2.219333  3.076821
   O (  6)  2.679058  2.491469  2.054240  1.024792  3.889713
   H (  7)  2.536651  1.897342  2.460685  1.649319  3.777499  1.003681

 
 Requested basis set is 6-311++G(2df,2p)
 There are 52 shells and 190 basis functions
 A cutoff of  1.0D-11 yielded   1305 shell pairs
 There are     17691 function pairs (     22684 Cartesian)
 Smallest overlap matrix eigenvalue = 4.02E-04
 Guess MOs from SCF MO coefficient file

 -----------------------------------------------------------------------
  General SCF calculation program by
  Eric Jon Sundstrom, Paul Horn, Yuezhi Mao, Dmitri Zuev, Alec White,
  David Stuck, Shaama M.S., Shane Yost, Joonho Lee, David Small,
  Daniel Levine, Susi Lehtola, Hugh Burton, Evgeny Epifanovsky,
  Bang C. Huynh
 -----------------------------------------------------------------------
 Exchange:     0.1500 Hartree-Fock + 1.0000 wB97M-V + LR-HF
 Correlation:  1.0000 wB97M-V
 Using SG-2 standard quadrature grid
 Nonlocal Correlation:  VV10 with C = 0.0100 and b = 6.00 and scale = 1.00000
 Grid used for NLC:  SG-1 standard quadrature
 
 Citation of the SMD model:
 Marenich, A.V.; Cramer, C.J.; Truhlar, D.G.
 J. Phys. Chem. B 2009, 113, 6378-6396.
 iSolventCode=           1
 Solvent: water                                                           
 
 vradii
            1           2           3           4           5           6
    1   1.8500000   1.5200000   1.5200000   1.2000000   1.5200000   1.5200000
            7
    1   1.2000000
 -------------------------------------------------------
 OpenMP BLAS3 based DFT computing Module                
 Release: version 1.0, May 2013, Q-Chem Inc. Pittsburgh 
 -------------------------------------------------------
 A unrestricted SCF calculation will be
 performed using Roothaan-Hall, DIIS, GDM
 SCF converges when RMS gradient is below 1.0e-06
 ---------------------------------------
  Cycle       Energy         DIIS error
 ---------------------------------------
    1    -340.2048983694      2.90e-04  Roothaan Step
 ---------------------------------------
  Cycle       Energy         DIIS error
 ---------------------------------------
    1    -340.3091692586      3.79e-04  
    2    -340.3106006882      4.45e-04  Done DIIS. Switching to GDM
 ---------------------------------------
  Cycle       Energy        RMS Gradient
 ---------------------------------------
    1    -340.3106006882      1.62e-02   Normal BFGS step
    2    -340.3093702107      2.81e-02  Line search: overstep
    3    -340.3128243500      3.37e-03   Normal BFGS step
    4    -340.3129096616      3.04e-03   Normal BFGS step
    5    -340.3129392031      1.53e-03   Normal BFGS step
    6    -340.3129509039      1.40e-03   Normal BFGS step
    7    -340.3129580921      9.33e-04   Normal BFGS step
    8    -340.3129611329      4.60e-04   Normal BFGS step
    9    -340.3129619164      3.53e-04   Normal BFGS step
   10    -340.3129622639      2.09e-04   Normal BFGS step
   11    -340.3129623925      8.88e-05   Normal BFGS step
   12    -340.3129624284      4.24e-05   Normal BFGS step
   13    -340.3129624411      2.48e-05   Normal BFGS step
   14    -340.3129624443      1.24e-05   Normal BFGS step
   15    -340.3129624453      7.63e-06   Normal BFGS step
   16    -340.3129624455      6.72e-06   Normal BFGS step
   17    -340.3129624455      5.39e-06   Normal BFGS step
   18    -340.3129624457      3.44e-06   Normal BFGS step
   19    -340.3129624458      1.43e-06   Normal BFGS step
   20    -340.3129624458      7.99e-07  Convergence criterion met
 ---------------------------------------
 SCF time:   CPU 554.51s  wall 18.00s 
<S^2> =          0.755958084
(3)  G-ENP(liq) elect-nuc-pol free energy of system     -340.312962446 a.u.
(4)  G-CDS(liq) cavity-dispersion-solvent structure 
     free energy                                                3.7761 kcal/mol
(6)  G-S(liq) free energy of system                     -340.306944858 a.u.
 SCF   energy in the final basis set =     -340.3069448582
 Total energy in the final basis set =     -340.3069448582
 
 --------------------------------------------------------------
 
                    Orbital Energies (a.u.)
 --------------------------------------------------------------
 
 Alpha MOs
 -- Occupied --
-19.3840 -19.3530 -19.3032 -19.2955 -10.4949  -1.2556  -1.1674  -1.1107
 -1.0980  -0.7431  -0.6386  -0.5950  -0.5760  -0.5567  -0.5430  -0.4610
 -0.4453  -0.4279  -0.4065  -0.3868  -0.3694
 -- Virtual --
  0.0398   0.0671   0.0773   0.0884   0.1058   0.1195   0.1527   0.2079
  0.2201   0.2250   0.2424   0.2459   0.2583   0.2694   0.2889   0.2916
  0.3116   0.3216   0.3245   0.3287   0.3462   0.3642   0.3762   0.4110
  0.4292   0.5302   0.5543   0.5948   0.6178   0.6678   0.7281   0.7594
  0.7650   0.7830   0.8010   0.8403   0.8656   0.8845   1.0082   1.0248
  1.0450   1.0621   1.0973   1.1099   1.1219   1.1303   1.1402   1.1752
  1.2042   1.2211   1.2354   1.2583   1.3250   1.4157   1.4788   1.5025
  1.5889   1.6071   1.6205   1.6348   1.6904   1.7010   1.7543   1.8114
  1.8632   1.8997   1.9553   2.0039   2.1767   2.1816   2.2174   2.2325
  2.3443   2.3677   2.4285   2.4363   2.5202   2.5398   2.6448   2.7516
  2.8323   2.8604   2.8838   3.0129   3.0946   3.1829   3.2208   3.2374
  3.3833   3.4553   3.4991   3.5791   3.6123   3.6273   3.6838   3.7171
  3.7499   3.7538   3.9828   4.0080   4.0998   4.1387   4.2216   4.2560
  5.0106   5.0766   5.0869   5.1055   5.1132   5.1619   5.1629   5.1730
  5.1825   5.1929   5.1992   5.2176   5.2450   5.2578   5.2796   5.3191
  5.3460   5.3661   5.4489   5.4603   5.4794   5.5537   5.5605   5.5906
  5.6766   5.7286   5.8607   5.8891   5.9349   6.0145   6.1782   6.2976
  6.3122   6.4799   6.5073   6.8977   6.9291   6.9463   6.9479   6.9936
  7.0039   7.0658   7.0950   7.1955   7.2189   7.2386   7.3192   7.3280
  7.3451   7.4380   7.4602   7.5174   7.6558   7.6702   7.7534   7.7857
  7.8378   7.8573   8.0269   8.2193  25.2621  50.5051  50.5539  50.6835
 50.7235
 
 Beta MOs
 -- Occupied --
-19.3693 -19.3390 -19.3012 -19.2956 -10.4953  -1.2371  -1.1496  -1.1034
 -1.0712  -0.7075  -0.6231  -0.5724  -0.5707  -0.5424  -0.5077  -0.4469
 -0.4122  -0.4039  -0.3850  -0.3611
 -- Virtual --
 -0.0952   0.0408   0.0688   0.0787   0.0889   0.1063   0.1205   0.1538
  0.2093   0.2231   0.2280   0.2441   0.2462   0.2610   0.2721   0.2899
  0.2921   0.3133   0.3240   0.3274   0.3304   0.3476   0.3664   0.3769
  0.4127   0.4346   0.5341   0.5621   0.6002   0.6267   0.6678   0.7329
  0.7605   0.7714   0.7970   0.8050   0.8440   0.8687   0.8860   1.0101
  1.0323   1.0527   1.0756   1.1003   1.1168   1.1290   1.1387   1.1442
  1.1803   1.2085   1.2258   1.2378   1.2627   1.3278   1.4206   1.4936
  1.5082   1.5908   1.6167   1.6239   1.6385   1.7064   1.7124   1.7580
  1.8146   1.8702   1.9124   1.9579   2.0100   2.1851   2.2009   2.2229
  2.2439   2.3519   2.3838   2.4382   2.4557   2.5223   2.5431   2.6607
  2.7539   2.8390   2.8603   2.8930   3.0250   3.0953   3.1821   3.2197
  3.2369   3.3841   3.4559   3.5007   3.5817   3.6118   3.6275   3.6877
  3.7203   3.7545   3.7582   3.9866   4.0170   4.1086   4.1413   4.2266
  4.2800   5.0468   5.0985   5.1130   5.1231   5.1472   5.1653   5.1715
  5.1802   5.1985   5.2018   5.2065   5.2294   5.2493   5.2653   5.2987
  5.3290   5.3624   5.3839   5.4632   5.4781   5.4890   5.5630   5.5663
  5.6018   5.6824   5.7486   5.8874   5.8997   5.9662   6.0403   6.1990
  6.3137   6.3498   6.4819   6.5209   6.9136   6.9529   6.9594   6.9842
  7.0017   7.0214   7.0813   7.1232   7.2208   7.2381   7.2517   7.3269
  7.3579   7.3709   7.4667   7.5134   7.5443   7.6701   7.7000   7.7629
  7.7915   7.8545   7.8854   8.0906   8.2663  25.2618  50.5149  50.5637
 50.6847  50.7250
 --------------------------------------------------------------
 
          Ground-State Mulliken Net Atomic Charges

     Atom                 Charge (a.u.)    Spin (a.u.)
  --------------------------------------------------------
      1 C                     0.517514      -0.024887
      2 O                    -0.658433       0.000357
      3 O                    -0.434222       0.489218
      4 H                     0.501933      -0.005855
      5 O                    -0.652963       0.065046
      6 O                    -0.614578       0.484083
      7 H                     0.340749      -0.007963
  --------------------------------------------------------
  Sum of atomic charges =    -1.000000
  Sum of spin   charges =     1.000000

 -----------------------------------------------------------------
                    Cartesian Multipole Moments
 -----------------------------------------------------------------
    Charge (ESU x 10^10)
                -4.8032
    Dipole Moment (Debye)
         X       4.2484      Y      -8.2997      Z       1.1572
       Tot       9.3954
    Quadrupole Moments (Debye-Ang)
        XX     -34.7143     XY       6.6415     YY     -57.4881
        XZ      -2.2965     YZ      -0.1393     ZZ     -36.3383
    Octopole Moments (Debye-Ang^2)
       XXX      84.0381    XXY     -79.4248    XYY      47.4542
       YYY    -330.8519    XXZ      -0.6685    XYZ      -2.2206
       YYZ     -11.2751    XZZ      31.9437    YZZ     -76.9031
       ZZZ       0.1899
    Hexadecapole Moments (Debye-Ang^3)
      XXXX    -174.4458   XXXY     190.0049   XXYY    -272.8142
      XYYY     270.7942   YYYY   -1825.6043   XXXZ      -2.7127
      XXYZ     -21.6225   XYYZ       1.0154   YYYZ    -132.7205
      XXZZ     -65.3749   XYZZ      64.6027   YYZZ    -253.8981
      XZZZ      -9.2814   YZZZ     -39.9489   ZZZZ    -172.5303
 -----------------------------------------------------------------
 Calculating analytic gradient of the SCF energy
 Gradient of CDS energy
            1           2           3           4           5           6
    1  -0.0000740  -0.0001423  -0.0000342   0.0001051   0.0001950  -0.0000118
    2   0.0026071   0.0003072  -0.0051344   0.0003450   0.0016903   0.0000483
    3  -0.0017342  -0.0016431   0.0020574  -0.0002227   0.0011765  -0.0000477
            7
    1  -0.0000377
    2   0.0001367
    3   0.0004138
 Gradient of SCF Energy
            1           2           3           4           5           6
    1  -0.0007552  -0.0002346   0.0099095  -0.0059553   0.0032499  -0.0039502
    2  -0.0157075   0.0066791   0.0617464  -0.0295624   0.0250117  -0.0552012
    3   0.0058769  -0.0317610   0.0796320   0.0133602   0.0267858  -0.0987533
            7
    1  -0.0022641
    2   0.0070338
    3   0.0048593
 Max gradient component =       9.875E-02
 RMS gradient           =       3.581E-02
 Computing fast CPCM-SWIG gradient
 Updating gradient with PCM contributions...
 -- total gradient after adding PCM contribution --
---------------------------------------------------
  Atom         X              Y              Z     
---------------------------------------------------
   1      -0.000011       0.009475      -0.008447
   2       0.001356       0.011873       0.005784
   3       0.010270       0.066484       0.069594
   4      -0.005720      -0.020473       0.004758
   5      -0.000883      -0.009168       0.002226
   6      -0.002697      -0.044945      -0.101492
   7      -0.002315      -0.013246       0.027577
---------------------------------------------------
 Number of fixed atoms: 0
 Gradient time:  CPU 55.17 s  wall 2.37 s
 ----------------------------------------------------------------
             Standard Nuclear Orientation (Angstroms)
    I     Atom           X                Y                Z
 ----------------------------------------------------------------
    1      C      -0.9047440000     1.7901609000    -0.1570075000
    2      O      -0.7708866000     1.6705391000     1.0804676000
    3      O      -0.9102249000     3.0865070000    -0.6633885000
    4      H      -0.7989518000     3.7360866000     0.1488310000
    5      O      -1.0325666000     0.8993703000    -1.0196253000
    6      O      -0.7540275000     4.1619511000     1.0798627000
    7      H      -0.8234287000     3.4371191000     1.7706425000
 ----------------------------------------------------------------
 Nuclear Repulsion Energy =         176.44634134 hartrees
 There are       21 alpha and       20 beta electrons
 Discretize the solute cavity surface with Lebedev spheres
	Using 110 Lebedev grid points for each H atom
	Using 194 Lebedev grid points for other atoms
	Atomic van der Waals radii will be scaled by 1.20
 Remove points where switching function is < 1.0e-08
 Keep 682 surface tesserae and discard 508 interior tesserae
 Molecular Surface Area = 83.051 Angst**2

                       Distance Matrix (Angstroms)
             C (  1)   O (  2)   O (  3)   H (  4)   O (  5)   O (  6)
   O (  2)  1.250429
   O (  3)  1.391749  2.250648
   H (  4)  1.972652  2.266103  1.045962
   O (  5)  1.246578  2.252458  2.219333  3.076821
   O (  6)  2.679170  2.491469  2.054240  1.024792  3.889713
   H (  7)  2.536714  1.897342  2.460685  1.649319  3.777499  1.003681

 
 Requested basis set is 6-311++G(2df,2p)
 There are 52 shells and 190 basis functions
 A cutoff of  1.0D-11 yielded   1305 shell pairs
 There are     17691 function pairs (     22684 Cartesian)
 Smallest overlap matrix eigenvalue = 4.02E-04
 Guess MOs from SCF MO coefficient file

 -----------------------------------------------------------------------
  General SCF calculation program by
  Eric Jon Sundstrom, Paul Horn, Yuezhi Mao, Dmitri Zuev, Alec White,
  David Stuck, Shaama M.S., Shane Yost, Joonho Lee, David Small,
  Daniel Levine, Susi Lehtola, Hugh Burton, Evgeny Epifanovsky,
  Bang C. Huynh
 -----------------------------------------------------------------------
 Exchange:     0.1500 Hartree-Fock + 1.0000 wB97M-V + LR-HF
 Correlation:  1.0000 wB97M-V
 Using SG-2 standard quadrature grid
 Nonlocal Correlation:  VV10 with C = 0.0100 and b = 6.00 and scale = 1.00000
 Grid used for NLC:  SG-1 standard quadrature
 
 Citation of the SMD model:
 Marenich, A.V.; Cramer, C.J.; Truhlar, D.G.
 J. Phys. Chem. B 2009, 113, 6378-6396.
 iSolventCode=           1
 Solvent: water                                                           
 
 vradii
            1           2           3           4           5           6
    1   1.8500000   1.5200000   1.5200000   1.2000000   1.5200000   1.5200000
            7
    1   1.2000000
 -------------------------------------------------------
 OpenMP BLAS3 based DFT computing Module                
 Release: version 1.0, May 2013, Q-Chem Inc. Pittsburgh 
 -------------------------------------------------------
 A unrestricted SCF calculation will be
 performed using Roothaan-Hall, DIIS, GDM
 SCF converges when RMS gradient is below 1.0e-06
 ---------------------------------------
  Cycle       Energy         DIIS error
 ---------------------------------------
    1    -340.2048953554      2.90e-04  Roothaan Step
 ---------------------------------------
  Cycle       Energy         DIIS error
 ---------------------------------------
    1    -340.3091739495      3.78e-04  
    2    -340.3106101786      4.44e-04  Done DIIS. Switching to GDM
 ---------------------------------------
  Cycle       Energy        RMS Gradient
 ---------------------------------------
    1    -340.3106101786      1.61e-02   Normal BFGS step
    2    -340.3093913246      2.80e-02  Line search: overstep
    3    -340.3128225497      3.40e-03   Normal BFGS step
    4    -340.3129078970      3.05e-03   Normal BFGS step
    5    -340.3129375409      1.53e-03   Normal BFGS step
    6    -340.3129493026      1.40e-03   Normal BFGS step
    7    -340.3129565288      9.32e-04   Normal BFGS step
    8    -340.3129595671      4.60e-04   Normal BFGS step
    9    -340.3129603519      3.54e-04   Normal BFGS step
   10    -340.3129607005      2.08e-04   Normal BFGS step
   11    -340.3129608292      8.80e-05   Normal BFGS step
   12    -340.3129608650      4.20e-05   Normal BFGS step
   13    -340.3129608776      2.46e-05   Normal BFGS step
   14    -340.3129608807      1.24e-05   Normal BFGS step
   15    -340.3129608816      5.72e-06   Normal BFGS step
   16    -340.3129608817      5.17e-06   Normal BFGS step
   17    -340.3129608818      4.32e-06   Normal BFGS step
   18    -340.3129608818      3.01e-06   Normal BFGS step
   19    -340.3129608819      1.46e-06   Normal BFGS step
   20    -340.3129608820      7.39e-07  Convergence criterion met
 ---------------------------------------
 SCF time:   CPU 555.25s  wall 18.00s 
<S^2> =          0.755957761
(3)  G-ENP(liq) elect-nuc-pol free energy of system     -340.312960882 a.u.
(4)  G-CDS(liq) cavity-dispersion-solvent structure 
     free energy                                                3.7763 kcal/mol
(6)  G-S(liq) free energy of system                     -340.306943038 a.u.
 SCF   energy in the final basis set =     -340.3069430376
 Total energy in the final basis set =     -340.3069430376
 
 --------------------------------------------------------------
 
                    Orbital Energies (a.u.)
 --------------------------------------------------------------
 
 Alpha MOs
 -- Occupied --
-19.3840 -19.3530 -19.3032 -19.2954 -10.4949  -1.2556  -1.1674  -1.1107
 -1.0980  -0.7431  -0.6386  -0.5950  -0.5760  -0.5567  -0.5430  -0.4610
 -0.4453  -0.4279  -0.4065  -0.3868  -0.3694
 -- Virtual --
  0.0398   0.0671   0.0772   0.0884   0.1058   0.1195   0.1527   0.2080
  0.2201   0.2250   0.2424   0.2459   0.2584   0.2694   0.2889   0.2916
  0.3117   0.3215   0.3245   0.3287   0.3462   0.3642   0.3762   0.4110
  0.4292   0.5301   0.5543   0.5948   0.6179   0.6678   0.7279   0.7592
  0.7652   0.7831   0.8013   0.8400   0.8656   0.8844   1.0081   1.0249
  1.0450   1.0622   1.0973   1.1100   1.1219   1.1304   1.1401   1.1752
  1.2042   1.2209   1.2355   1.2583   1.3250   1.4157   1.4788   1.5025
  1.5888   1.6068   1.6206   1.6350   1.6905   1.7010   1.7544   1.8115
  1.8631   1.8997   1.9551   2.0039   2.1769   2.1815   2.2173   2.2327
  2.3443   2.3676   2.4284   2.4362   2.5202   2.5398   2.6448   2.7516
  2.8323   2.8602   2.8839   3.0129   3.0946   3.1829   3.2208   3.2375
  3.3834   3.4553   3.4990   3.5790   3.6123   3.6274   3.6840   3.7170
  3.7498   3.7539   3.9827   4.0080   4.0999   4.1387   4.2215   4.2561
  5.0106   5.0766   5.0869   5.1055   5.1132   5.1619   5.1629   5.1731
  5.1825   5.1929   5.1993   5.2176   5.2450   5.2578   5.2797   5.3191
  5.3460   5.3662   5.4489   5.4604   5.4795   5.5538   5.5604   5.5906
  5.6766   5.7286   5.8606   5.8893   5.9350   6.0144   6.1781   6.2979
  6.3120   6.4800   6.5072   6.8978   6.9290   6.9465   6.9480   6.9937
  7.0038   7.0658   7.0950   7.1953   7.2190   7.2386   7.3195   7.3278
  7.3450   7.4381   7.4601   7.5173   7.6557   7.6701   7.7536   7.7857
  7.8378   7.8573   8.0269   8.2193  25.2621  50.5051  50.5539  50.6836
 50.7234
 
 Beta MOs
 -- Occupied --
-19.3693 -19.3390 -19.3012 -19.2956 -10.4953  -1.2371  -1.1496  -1.1034
 -1.0713  -0.7075  -0.6231  -0.5724  -0.5707  -0.5424  -0.5077  -0.4469
 -0.4121  -0.4039  -0.3850  -0.3611
 -- Virtual --
 -0.0952   0.0408   0.0688   0.0786   0.0889   0.1063   0.1205   0.1538
  0.2093   0.2231   0.2280   0.2440   0.2461   0.2610   0.2721   0.2900
  0.2920   0.3133   0.3239   0.3274   0.3304   0.3476   0.3664   0.3769
  0.4127   0.4346   0.5341   0.5620   0.6002   0.6268   0.6678   0.7327
  0.7602   0.7717   0.7972   0.8052   0.8437   0.8687   0.8859   1.0101
  1.0324   1.0527   1.0757   1.1003   1.1168   1.1291   1.1389   1.1439
  1.1803   1.2085   1.2257   1.2379   1.2627   1.3278   1.4206   1.4936
  1.5082   1.5907   1.6163   1.6240   1.6387   1.7065   1.7125   1.7581
  1.8147   1.8701   1.9124   1.9577   2.0100   2.1852   2.2008   2.2228
  2.2440   2.3518   2.3837   2.4381   2.4557   2.5224   2.5430   2.6607
  2.7539   2.8391   2.8601   2.8930   3.0251   3.0952   3.1821   3.2196
  3.2369   3.3842   3.4560   3.5007   3.5816   3.6119   3.6276   3.6879
  3.7201   3.7545   3.7582   3.9866   4.0170   4.1087   4.1413   4.2265
  4.2801   5.0468   5.0985   5.1130   5.1231   5.1472   5.1652   5.1714
  5.1803   5.1985   5.2018   5.2065   5.2294   5.2493   5.2653   5.2987
  5.3289   5.3624   5.3839   5.4632   5.4781   5.4890   5.5630   5.5662
  5.6018   5.6824   5.7486   5.8871   5.9000   5.9663   6.0402   6.1988
  6.3138   6.3497   6.4820   6.5208   6.9136   6.9529   6.9594   6.9843
  7.0018   7.0214   7.0813   7.1232   7.2206   7.2382   7.2517   7.3270
  7.3580   7.3708   7.4667   7.5134   7.5443   7.6699   7.7000   7.7631
  7.7914   7.8545   7.8855   8.0906   8.2663  25.2618  50.5149  50.5636
 50.6848  50.7249
 --------------------------------------------------------------
 
          Ground-State Mulliken Net Atomic Charges

     Atom                 Charge (a.u.)    Spin (a.u.)
  --------------------------------------------------------
      1 C                     0.517527      -0.024876
      2 O                    -0.658765       0.000360
      3 O                    -0.434224       0.489212
      4 H                     0.501963      -0.005855
      5 O                    -0.652712       0.064972
      6 O                    -0.614540       0.484151
      7 H                     0.340752      -0.007964
  --------------------------------------------------------
  Sum of atomic charges =    -1.000000
  Sum of spin   charges =     1.000000

 -----------------------------------------------------------------
                    Cartesian Multipole Moments
 -----------------------------------------------------------------
    Charge (ESU x 10^10)
                -4.8032
    Dipole Moment (Debye)
         X       4.2434      Y      -8.3000      Z       1.1545
       Tot       9.3931
    Quadrupole Moments (Debye-Ang)
        XX     -34.7052     XY       6.6328     YY     -57.4869
        XZ      -2.2929     YZ      -0.1416     ZZ     -36.3384
    Octopole Moments (Debye-Ang^2)
       XXX      84.0541    XXY     -79.4089    XYY      47.4533
       YYY    -330.8430    XXZ      -0.6740    XYZ      -2.2150
       YYZ     -11.2767    XZZ      31.9607    YZZ     -76.9036
       ZZZ       0.1797
    Hexadecapole Moments (Debye-Ang^3)
      XXXX    -174.5333   XXXY     190.0329   XXYY    -272.8121
      XYYY     270.8512   YYYY   -1825.5545   XXXZ      -2.7083
      XXYZ     -21.6316   XYYZ       1.0198   YYYZ    -132.7112
      XXZZ     -65.4052   XYZZ      64.6325   YYZZ    -253.8954
      XZZZ      -9.2743   YZZZ     -39.9600   ZZZZ    -172.5305
 -----------------------------------------------------------------
 Calculating analytic gradient of the SCF energy
 Gradient of CDS energy
            1           2           3           4           5           6
    1  -0.0000618  -0.0001451  -0.0000413   0.0001051   0.0001921  -0.0000112
    2   0.0026107   0.0003076  -0.0051351   0.0003449   0.0016871   0.0000482
    3  -0.0017280  -0.0016467   0.0020578  -0.0002227   0.0011735  -0.0000477
            7
    1  -0.0000377
    2   0.0001366
    3   0.0004138
 Gradient of SCF Energy
            1           2           3           4           5           6
    1  -0.0013294  -0.0000079   0.0100942  -0.0059758   0.0034398  -0.0039548
    2  -0.0158169   0.0066593   0.0617295  -0.0295449   0.0251377  -0.0552115
    3   0.0055965  -0.0316024   0.0796317   0.0133646   0.0269046  -0.0987497
            7
    1  -0.0022662
    2   0.0070467
    3   0.0048547
 Max gradient component =       9.875E-02
 RMS gradient           =       3.581E-02
 Computing fast CPCM-SWIG gradient
 Updating gradient with PCM contributions...
 -- total gradient after adding PCM contribution --
---------------------------------------------------
  Atom         X              Y              Z     
---------------------------------------------------
   1      -0.000953       0.009386      -0.008682
   2       0.001713       0.011859       0.005915
   3       0.010520       0.066460       0.069595
   4      -0.005731      -0.020455       0.004767
   5      -0.000541      -0.009061       0.002322
   6      -0.002692      -0.044952      -0.101493
   7      -0.002316      -0.013238       0.027577
---------------------------------------------------
 Number of fixed atoms: 0
 Gradient time:  CPU 54.91 s  wall 2.34 s
 ----------------------------------------------------------------
             Standard Nuclear Orientation (Angstroms)
    I     Atom           X                Y                Z
 ----------------------------------------------------------------
    1      C      -0.9037440000     1.7911609000    -0.1570075000
    2      O      -0.7708866000     1.6705391000     1.0804676000
    3      O      -0.9102249000     3.0865070000    -0.6633885000
    4      H      -0.7989518000     3.7360866000     0.1488310000
    5      O      -1.0325666000     0.8993703000    -1.0196253000
    6      O      -0.7540275000     4.1619511000     1.0798627000
    7      H      -0.8234287000     3.4371191000     1.7706425000
 ----------------------------------------------------------------
 Nuclear Repulsion Energy =         176.44983971 hartrees
 There are       21 alpha and       20 beta electrons
 Discretize the solute cavity surface with Lebedev spheres
	Using 110 Lebedev grid points for each H atom
	Using 194 Lebedev grid points for other atoms
	Atomic van der Waals radii will be scaled by 1.20
 Remove points where switching function is < 1.0e-08
 Keep 682 surface tesserae and discard 508 interior tesserae
 Molecular Surface Area = 83.050 Angst**2

                       Distance Matrix (Angstroms)
             C (  1)   O (  2)   O (  3)   H (  4)   O (  5)   O (  6)
   O (  2)  1.250418
   O (  3)  1.390822  2.250648
   H (  4)  1.971612  2.266103  1.045962
   O (  5)  1.247395  2.252458  2.219333  3.076821
   O (  6)  2.678229  2.491469  2.054240  1.024792  3.889713
   H (  7)  2.536033  1.897342  2.460685  1.649319  3.777499  1.003681

 
 Requested basis set is 6-311++G(2df,2p)
 There are 52 shells and 190 basis functions
 A cutoff of  1.0D-11 yielded   1305 shell pairs
 There are     17691 function pairs (     22684 Cartesian)
 Smallest overlap matrix eigenvalue = 4.02E-04
 Guess MOs from SCF MO coefficient file

 -----------------------------------------------------------------------
  General SCF calculation program by
  Eric Jon Sundstrom, Paul Horn, Yuezhi Mao, Dmitri Zuev, Alec White,
  David Stuck, Shaama M.S., Shane Yost, Joonho Lee, David Small,
  Daniel Levine, Susi Lehtola, Hugh Burton, Evgeny Epifanovsky,
  Bang C. Huynh
 -----------------------------------------------------------------------
 Exchange:     0.1500 Hartree-Fock + 1.0000 wB97M-V + LR-HF
 Correlation:  1.0000 wB97M-V
 Using SG-2 standard quadrature grid
 Nonlocal Correlation:  VV10 with C = 0.0100 and b = 6.00 and scale = 1.00000
 Grid used for NLC:  SG-1 standard quadrature
 
 Citation of the SMD model:
 Marenich, A.V.; Cramer, C.J.; Truhlar, D.G.
 J. Phys. Chem. B 2009, 113, 6378-6396.
 iSolventCode=           1
 Solvent: water                                                           
 
 vradii
            1           2           3           4           5           6
    1   1.8500000   1.5200000   1.5200000   1.2000000   1.5200000   1.5200000
            7
    1   1.2000000
 -------------------------------------------------------
 OpenMP BLAS3 based DFT computing Module                
 Release: version 1.0, May 2013, Q-Chem Inc. Pittsburgh 
 -------------------------------------------------------
 A unrestricted SCF calculation will be
 performed using Roothaan-Hall, DIIS, GDM
 SCF converges when RMS gradient is below 1.0e-06
 ---------------------------------------
  Cycle       Energy         DIIS error
 ---------------------------------------
    1    -340.2048577788      2.90e-04  Roothaan Step
 ---------------------------------------
  Cycle       Energy         DIIS error
 ---------------------------------------
    1    -340.3091235935      3.81e-04  
    2    -340.3105483623      4.48e-04  Done DIIS. Switching to GDM
 ---------------------------------------
  Cycle       Energy        RMS Gradient
 ---------------------------------------
    1    -340.3105483623      1.64e-02   Normal BFGS step
    2    -340.3092875485      2.84e-02  Line search: overstep
    3    -340.3128091771      3.33e-03   Normal BFGS step
    4    -340.3128950219      3.05e-03   Normal BFGS step
    5    -340.3129247667      1.54e-03   Normal BFGS step
    6    -340.3129365680      1.41e-03   Normal BFGS step
    7    -340.3129438712      9.46e-04   Normal BFGS step
    8    -340.3129469911      4.66e-04   Normal BFGS step
    9    -340.3129477941      3.55e-04   Normal BFGS step
   10    -340.3129481457      2.08e-04   Normal BFGS step
   11    -340.3129482764      8.93e-05   Normal BFGS step
   12    -340.3129483124      4.33e-05   Normal BFGS step
   13    -340.3129483251      2.45e-05   Normal BFGS step
   14    -340.3129483283      1.25e-05   Normal BFGS step
   15    -340.3129483294      7.77e-06   Normal BFGS step
   16    -340.3129483296      6.84e-06   Normal BFGS step
   17    -340.3129483297      5.47e-06   Normal BFGS step
   18    -340.3129483298      3.51e-06   Normal BFGS step
   19    -340.3129483299      1.47e-06   Normal BFGS step
   20    -340.3129483300      8.39e-07  Convergence criterion met
 ---------------------------------------
 SCF time:   CPU 554.77s  wall 18.00s 
<S^2> =          0.755958783
(3)  G-ENP(liq) elect-nuc-pol free energy of system     -340.312948330 a.u.
(4)  G-CDS(liq) cavity-dispersion-solvent structure 
     free energy                                                3.7793 kcal/mol
(6)  G-S(liq) free energy of system                     -340.306925623 a.u.
 SCF   energy in the final basis set =     -340.3069256228
 Total energy in the final basis set =     -340.3069256228
 
 --------------------------------------------------------------
 
                    Orbital Energies (a.u.)
 --------------------------------------------------------------
 
 Alpha MOs
 -- Occupied --
-19.3842 -19.3531 -19.3031 -19.2955 -10.4949  -1.2558  -1.1673  -1.1108
 -1.0979  -0.7433  -0.6387  -0.5951  -0.5761  -0.5567  -0.5429  -0.4610
 -0.4454  -0.4280  -0.4065  -0.3867  -0.3693
 -- Virtual --
  0.0397   0.0671   0.0773   0.0884   0.1058   0.1195   0.1526   0.2079
  0.2201   0.2250   0.2424   0.2459   0.2584   0.2694   0.2889   0.2916
  0.3117   0.3216   0.3246   0.3287   0.3462   0.3642   0.3762   0.4111
  0.4295   0.5302   0.5541   0.5947   0.6176   0.6678   0.7277   0.7593
  0.7650   0.7830   0.8010   0.8402   0.8657   0.8847   1.0082   1.0248
  1.0450   1.0622   1.0973   1.1100   1.1219   1.1304   1.1402   1.1751
  1.2042   1.2212   1.2355   1.2583   1.3249   1.4157   1.4786   1.5024
  1.5890   1.6068   1.6206   1.6350   1.6903   1.7008   1.7540   1.8118
  1.8630   1.8996   1.9552   2.0038   2.1767   2.1815   2.2172   2.2325
  2.3448   2.3675   2.4284   2.4362   2.5198   2.5400   2.6448   2.7518
  2.8323   2.8603   2.8840   3.0128   3.0948   3.1830   3.2211   3.2377
  3.3838   3.4552   3.4994   3.5794   3.6114   3.6270   3.6840   3.7174
  3.7503   3.7542   3.9824   4.0078   4.0999   4.1374   4.2216   4.2560
  5.0105   5.0766   5.0868   5.1055   5.1133   5.1620   5.1629   5.1731
  5.1826   5.1929   5.1993   5.2176   5.2450   5.2578   5.2794   5.3191
  5.3459   5.3659   5.4488   5.4605   5.4790   5.5537   5.5609   5.5903
  5.6765   5.7285   5.8605   5.8907   5.9352   6.0145   6.1776   6.2976
  6.3114   6.4774   6.5070   6.8977   6.9291   6.9465   6.9482   6.9938
  7.0039   7.0657   7.0951   7.1955   7.2190   7.2390   7.3192   7.3279
  7.3448   7.4378   7.4600   7.5171   7.6557   7.6699   7.7532   7.7857
  7.8376   7.8570   8.0270   8.2192  25.2620  50.5051  50.5541  50.6826
 50.7233
 
 Beta MOs
 -- Occupied --
-19.3695 -19.3391 -19.3011 -19.2956 -10.4954  -1.2372  -1.1495  -1.1032
 -1.0714  -0.7077  -0.6231  -0.5724  -0.5707  -0.5424  -0.5077  -0.4469
 -0.4122  -0.4039  -0.3849  -0.3610
 -- Virtual --
 -0.0953   0.0408   0.0688   0.0787   0.0889   0.1063   0.1205   0.1537
  0.2093   0.2231   0.2280   0.2440   0.2462   0.2611   0.2721   0.2900
  0.2921   0.3133   0.3240   0.3275   0.3304   0.3476   0.3664   0.3769
  0.4127   0.4349   0.5341   0.5618   0.6001   0.6265   0.6678   0.7325
  0.7604   0.7715   0.7970   0.8049   0.8439   0.8687   0.8862   1.0100
  1.0324   1.0527   1.0757   1.1003   1.1168   1.1290   1.1389   1.1441
  1.1802   1.2085   1.2259   1.2378   1.2627   1.3277   1.4205   1.4934
  1.5081   1.5910   1.6163   1.6240   1.6386   1.7063   1.7124   1.7577
  1.8150   1.8701   1.9124   1.9578   2.0099   2.1853   2.2007   2.2227
  2.2438   2.3524   2.3836   2.4381   2.4556   2.5220   2.5434   2.6607
  2.7540   2.8390   2.8602   2.8931   3.0250   3.0955   3.1823   3.2200
  3.2371   3.3846   3.4559   3.5010   3.5820   3.6110   3.6272   3.6879
  3.7205   3.7550   3.7585   3.9863   4.0168   4.1087   4.1399   4.2266
  4.2800   5.0467   5.0985   5.1129   5.1231   5.1472   5.1653   5.1715
  5.1804   5.1986   5.2018   5.2066   5.2293   5.2492   5.2653   5.2984
  5.3290   5.3623   5.3836   5.4633   5.4780   5.4886   5.5630   5.5666
  5.6015   5.6822   5.7485   5.8872   5.9014   5.9662   6.0403   6.1984
  6.3131   6.3496   6.4794   6.5206   6.9137   6.9533   6.9594   6.9842
  7.0019   7.0214   7.0812   7.1233   7.2208   7.2382   7.2520   7.3272
  7.3577   7.3705   7.4665   7.5133   7.5441   7.6699   7.7000   7.7627
  7.7913   7.8542   7.8854   8.0906   8.2662  25.2617  50.5149  50.5638
 50.6838  50.7248
 --------------------------------------------------------------
 
          Ground-State Mulliken Net Atomic Charges

     Atom                 Charge (a.u.)    Spin (a.u.)
  --------------------------------------------------------
      1 C                     0.517403      -0.024925
      2 O                    -0.658654       0.000350
      3 O                    -0.433479       0.488700
      4 H                     0.501895      -0.005844
      5 O                    -0.653647       0.065322
      6 O                    -0.614265       0.484365
      7 H                     0.340746      -0.007968
  --------------------------------------------------------
  Sum of atomic charges =    -1.000000
  Sum of spin   charges =     1.000000

 -----------------------------------------------------------------
                    Cartesian Multipole Moments
 -----------------------------------------------------------------
    Charge (ESU x 10^10)
                -4.8032
    Dipole Moment (Debye)
         X       4.2466      Y      -8.2860      Z       1.1595
       Tot       9.3828
    Quadrupole Moments (Debye-Ang)
        XX     -34.7116     XY       6.6261     YY     -57.4255
        XZ      -2.2983     YZ      -0.1368     ZZ     -36.3411
    Octopole Moments (Debye-Ang^2)
       XXX      84.0512    XXY     -79.4036    XYY      47.4028
       YYY    -330.6064    XXZ      -0.6647    XYZ      -2.2207
       YYZ     -11.2631    XZZ      31.9563    YZZ     -76.8961
       ZZZ       0.2014
    Hexadecapole Moments (Debye-Ang^3)
      XXXX    -174.5031   XXXY     190.0029   XXYY    -272.7460
      XYYY     270.6276   YYYY   -1824.6115   XXXZ      -2.7236
      XXYZ     -21.6228   XYYZ       1.0106   YYYZ    -132.6398
      XXZZ     -65.3982   XYZZ      64.6147   YYZZ    -253.8378
      XZZZ      -9.2944   YZZZ     -39.9309   ZZZZ    -172.5520
 -----------------------------------------------------------------
 Calculating analytic gradient of the SCF energy
 Gradient of CDS energy
            1           2           3           4           5           6
    1  -0.0000697  -0.0001439  -0.0000372   0.0001047   0.0001951  -0.0000112
    2   0.0026660   0.0003090  -0.0052043   0.0003438   0.0017004   0.0000486
    3  -0.0017690  -0.0016466   0.0020851  -0.0002218   0.0011859  -0.0000474
            7
    1  -0.0000377
    2   0.0001366
    3   0.0004138
 Gradient of SCF Energy
            1           2           3           4           5           6
    1  -0.0009887  -0.0001105   0.0099981  -0.0059647   0.0032847  -0.0039522
    2  -0.0147555   0.0065506   0.0614099  -0.0295773   0.0245475  -0.0552186
    3   0.0059903  -0.0316007   0.0796882   0.0134034   0.0264423  -0.0987735
            7
    1  -0.0022667
    2   0.0070435
    3   0.0048499
 Max gradient component =       9.877E-02
 RMS gradient           =       3.574E-02
 Computing fast CPCM-SWIG gradient
 Updating gradient with PCM contributions...
 -- total gradient after adding PCM contribution --
---------------------------------------------------
  Atom         X              Y              Z     
---------------------------------------------------
   1      -0.000437       0.010433      -0.008352
   2       0.001544       0.011689       0.005925
   3       0.010394       0.066201       0.069634
   4      -0.005724      -0.020490       0.004811
   5      -0.000764      -0.009637       0.001934
   6      -0.002695      -0.044965      -0.101509
   7      -0.002317      -0.013230       0.027557
---------------------------------------------------
 Number of fixed atoms: 0
 Gradient time:  CPU 52.38 s  wall 2.21 s
 ----------------------------------------------------------------
             Standard Nuclear Orientation (Angstroms)
    I     Atom           X                Y                Z
 ----------------------------------------------------------------
    1      C      -0.9037440000     1.7891609000    -0.1570075000
    2      O      -0.7708866000     1.6705391000     1.0804676000
    3      O      -0.9102249000     3.0865070000    -0.6633885000
    4      H      -0.7989518000     3.7360866000     0.1488310000
    5      O      -1.0325666000     0.8993703000    -1.0196253000
    6      O      -0.7540275000     4.1619511000     1.0798627000
    7      H      -0.8234287000     3.4371191000     1.7706425000
 ----------------------------------------------------------------
 Nuclear Repulsion Energy =         176.44335838 hartrees
 There are       21 alpha and       20 beta electrons
 Discretize the solute cavity surface with Lebedev spheres
	Using 110 Lebedev grid points for each H atom
	Using 194 Lebedev grid points for other atoms
	Atomic van der Waals radii will be scaled by 1.20
 Remove points where switching function is < 1.0e-08
 Keep 682 surface tesserae and discard 508 interior tesserae
 Molecular Surface Area = 83.052 Angst**2

                       Distance Matrix (Angstroms)
             C (  1)   O (  2)   O (  3)   H (  4)   O (  5)   O (  6)
   O (  2)  1.250227
   O (  3)  1.392685  2.250648
   H (  4)  1.973585  2.266103  1.045962
   O (  5)  1.245966  2.252458  2.219333  3.076821
   O (  6)  2.679999  2.491469  2.054240  1.024792  3.889713
   H (  7)  2.537332  1.897342  2.460685  1.649319  3.777499  1.003681

 
 Requested basis set is 6-311++G(2df,2p)
 There are 52 shells and 190 basis functions
 A cutoff of  1.0D-11 yielded   1305 shell pairs
 There are     17691 function pairs (     22684 Cartesian)
 Smallest overlap matrix eigenvalue = 4.02E-04
 Guess MOs from SCF MO coefficient file

 -----------------------------------------------------------------------
  General SCF calculation program by
  Eric Jon Sundstrom, Paul Horn, Yuezhi Mao, Dmitri Zuev, Alec White,
  David Stuck, Shaama M.S., Shane Yost, Joonho Lee, David Small,
  Daniel Levine, Susi Lehtola, Hugh Burton, Evgeny Epifanovsky,
  Bang C. Huynh
 -----------------------------------------------------------------------
 Exchange:     0.1500 Hartree-Fock + 1.0000 wB97M-V + LR-HF
 Correlation:  1.0000 wB97M-V
 Using SG-2 standard quadrature grid
 Nonlocal Correlation:  VV10 with C = 0.0100 and b = 6.00 and scale = 1.00000
 Grid used for NLC:  SG-1 standard quadrature
 
 Citation of the SMD model:
 Marenich, A.V.; Cramer, C.J.; Truhlar, D.G.
 J. Phys. Chem. B 2009, 113, 6378-6396.
 iSolventCode=           1
 Solvent: water                                                           
 
 vradii
            1           2           3           4           5           6
    1   1.8500000   1.5200000   1.5200000   1.2000000   1.5200000   1.5200000
            7
    1   1.2000000
 -------------------------------------------------------
 OpenMP BLAS3 based DFT computing Module                
 Release: version 1.0, May 2013, Q-Chem Inc. Pittsburgh 
 -------------------------------------------------------
 A unrestricted SCF calculation will be
 performed using Roothaan-Hall, DIIS, GDM
 SCF converges when RMS gradient is below 1.0e-06
 ---------------------------------------
  Cycle       Energy         DIIS error
 ---------------------------------------
    1    -340.2049027067      2.92e-04  Roothaan Step
 ---------------------------------------
  Cycle       Energy         DIIS error
 ---------------------------------------
    1    -340.3092204965      3.76e-04  
    2    -340.3106669880      4.39e-04  Done DIIS. Switching to GDM
 ---------------------------------------
  Cycle       Energy        RMS Gradient
 ---------------------------------------
    1    -340.3106669880      1.60e-02   Normal BFGS step
    2    -340.3094818824      2.78e-02  Line search: overstep
    3    -340.3128369507      3.47e-03   Normal BFGS step
    4    -340.3129217884      3.04e-03   Normal BFGS step
    5    -340.3129512111      1.52e-03   Normal BFGS step
    6    -340.3129628465      1.38e-03   Normal BFGS step
    7    -340.3129698988      9.14e-04   Normal BFGS step
    8    -340.3129728268      4.53e-04   Normal BFGS step
    9    -340.3129735867      3.52e-04   Normal BFGS step
   10    -340.3129739317      2.10e-04   Normal BFGS step
   11    -340.3129740592      8.83e-05   Normal BFGS step
   12    -340.3129740955      4.09e-05   Normal BFGS step
   13    -340.3129741082      2.53e-05   Normal BFGS step
   14    -340.3129741114      1.23e-05   Normal BFGS step
   15    -340.3129741123      6.81e-06   Normal BFGS step
   16    -340.3129741125      6.06e-06   Normal BFGS step
   17    -340.3129741125      4.93e-06   Normal BFGS step
   18    -340.3129741126      3.23e-06   Normal BFGS step
   19    -340.3129741127      1.40e-06   Normal BFGS step
   20    -340.3129741128      7.41e-07  Convergence criterion met
 ---------------------------------------
 SCF time:   CPU 550.08s  wall 18.00s 
<S^2> =          0.755957073
(3)  G-ENP(liq) elect-nuc-pol free energy of system     -340.312974113 a.u.
(4)  G-CDS(liq) cavity-dispersion-solvent structure 
     free energy                                                3.7731 kcal/mol
(6)  G-S(liq) free energy of system                     -340.306961260 a.u.
 SCF   energy in the final basis set =     -340.3069612603
 Total energy in the final basis set =     -340.3069612603
 
 --------------------------------------------------------------
 
                    Orbital Energies (a.u.)
 --------------------------------------------------------------
 
 Alpha MOs
 -- Occupied --
-19.3839 -19.3529 -19.3033 -19.2955 -10.4948  -1.2554  -1.1675  -1.1106
 -1.0982  -0.7429  -0.6385  -0.5950  -0.5760  -0.5566  -0.5431  -0.4610
 -0.4452  -0.4278  -0.4065  -0.3869  -0.3695
 -- Virtual --
  0.0398   0.0671   0.0772   0.0884   0.1057   0.1195   0.1528   0.2080
  0.2201   0.2250   0.2424   0.2459   0.2583   0.2694   0.2889   0.2916
  0.3116   0.3215   0.3244   0.3287   0.3462   0.3642   0.3762   0.4110
  0.4289   0.5301   0.5545   0.5948   0.6182   0.6679   0.7283   0.7593
  0.7652   0.7831   0.8013   0.8401   0.8655   0.8843   1.0082   1.0248
  1.0450   1.0622   1.0973   1.1099   1.1220   1.1303   1.1401   1.1752
  1.2042   1.2208   1.2355   1.2584   1.3251   1.4158   1.4790   1.5026
  1.5886   1.6072   1.6206   1.6349   1.6905   1.7012   1.7547   1.8111
  1.8632   1.8997   1.9553   2.0040   2.1769   2.1815   2.2175   2.2327
  2.3438   2.3678   2.4285   2.4363   2.5206   2.5395   2.6448   2.7515
  2.8323   2.8603   2.8837   3.0129   3.0944   3.1828   3.2205   3.2372
  3.3829   3.4554   3.4987   3.5788   3.6132   3.6278   3.6839   3.7167
  3.7493   3.7536   3.9830   4.0081   4.0998   4.1401   4.2215   4.2562
  5.0107   5.0767   5.0870   5.1055   5.1131   5.1618   5.1629   5.1729
  5.1823   5.1929   5.1992   5.2176   5.2450   5.2578   5.2798   5.3191
  5.3461   5.3664   5.4490   5.4602   5.4799   5.5538   5.5600   5.5909
  5.6768   5.7288   5.8608   5.8877   5.9347   6.0143   6.1787   6.2979
  6.3129   6.4826   6.5075   6.8978   6.9291   6.9462   6.9478   6.9935
  7.0039   7.0659   7.0949   7.1953   7.2189   7.2382   7.3195   7.3279
  7.3452   7.4383   7.4602   7.5175   7.6558   7.6703   7.7538   7.7857
  7.8380   7.8576   8.0269   8.2193  25.2622  50.5052  50.5538  50.6845
 50.7236
 
 Beta MOs
 -- Occupied --
-19.3691 -19.3389 -19.3013 -19.2956 -10.4953  -1.2369  -1.1497  -1.1035
 -1.0711  -0.7073  -0.6231  -0.5724  -0.5706  -0.5423  -0.5078  -0.4469
 -0.4121  -0.4038  -0.3851  -0.3612
 -- Virtual --
 -0.0950   0.0408   0.0688   0.0786   0.0889   0.1063   0.1205   0.1539
  0.2093   0.2231   0.2280   0.2441   0.2461   0.2609   0.2721   0.2900
  0.2921   0.3133   0.3239   0.3273   0.3304   0.3476   0.3664   0.3769
  0.4127   0.4343   0.5340   0.5622   0.6002   0.6270   0.6679   0.7330
  0.7604   0.7716   0.7972   0.8053   0.8438   0.8686   0.8858   1.0101
  1.0323   1.0527   1.0756   1.1002   1.1168   1.1291   1.1388   1.1440
  1.1803   1.2084   1.2256   1.2378   1.2627   1.3279   1.4207   1.4938
  1.5083   1.5906   1.6167   1.6239   1.6387   1.7066   1.7126   1.7584
  1.8143   1.8702   1.9125   1.9579   2.0101   2.1850   2.2011   2.2230
  2.2441   2.3513   2.3839   2.4381   2.4558   2.5228   2.5428   2.6607
  2.7538   2.8391   2.8602   2.8929   3.0251   3.0950   3.1820   3.2193
  3.2367   3.3837   3.4560   3.5004   3.5813   3.6127   3.6279   3.6877
  3.7198   3.7539   3.7579   3.9869   4.0171   4.1086   4.1427   4.2265
  4.2801   5.0469   5.0985   5.1131   5.1231   5.1471   5.1652   5.1714
  5.1802   5.1985   5.2018   5.2064   5.2295   5.2493   5.2652   5.2990
  5.3289   5.3625   5.3842   5.4630   5.4782   5.4894   5.5630   5.5659
  5.6020   5.6826   5.7487   5.8872   5.8984   5.9662   6.0402   6.1994
  6.3145   6.3499   6.4846   6.5212   6.9136   6.9525   6.9594   6.9843
  7.0016   7.0214   7.0813   7.1231   7.2206   7.2381   7.2514   7.3267
  7.3582   7.3711   7.4669   7.5136   7.5445   7.6701   7.6999   7.7633
  7.7917   7.8549   7.8855   8.0905   8.2663  25.2620  50.5150  50.5635
 50.6857  50.7251
 --------------------------------------------------------------
 
          Ground-State Mulliken Net Atomic Charges

     Atom                 Charge (a.u.)    Spin (a.u.)
  --------------------------------------------------------
      1 C                     0.517639      -0.024838
      2 O                    -0.658545       0.000368
      3 O                    -0.434967       0.489730
      4 H                     0.502000      -0.005866
      5 O                    -0.652026       0.064698
      6 O                    -0.614855       0.483867
      7 H                     0.340754      -0.007959
  --------------------------------------------------------
  Sum of atomic charges =    -1.000000
  Sum of spin   charges =     1.000000

 -----------------------------------------------------------------
                    Cartesian Multipole Moments
 -----------------------------------------------------------------
    Charge (ESU x 10^10)
                -4.8032
    Dipole Moment (Debye)
         X       4.2452      Y      -8.3137      Z       1.1522
       Tot       9.4057
    Quadrupole Moments (Debye-Ang)
        XX     -34.7079     XY       6.6483     YY     -57.5496
        XZ      -2.2911     YZ      -0.1441     ZZ     -36.3356
    Octopole Moments (Debye-Ang^2)
       XXX      84.0409    XXY     -79.4301    XYY      47.5047
       YYY    -331.0890    XXZ      -0.6779    XYZ      -2.2148
       YYZ     -11.2888    XZZ      31.9481    YZZ     -76.9106
       ZZZ       0.1681
    Hexadecapole Moments (Debye-Ang^3)
      XXXX    -174.4760   XXXY     190.0350   XXYY    -272.8805
      XYYY     271.0182   YYYY   -1826.5499   XXXZ      -2.6974
      XXYZ     -21.6314   XYYZ       1.0248   YYYZ    -132.7925
      XXZZ     -65.3819   XYZZ      64.6206   YYZZ    -253.9560
      XZZZ      -9.2613   YZZZ     -39.9781   ZZZZ    -172.5088
 -----------------------------------------------------------------
 Calculating analytic gradient of the SCF energy
 Gradient of CDS energy
            1           2           3           4           5           6
    1  -0.0000661  -0.0001435  -0.0000383   0.0001055   0.0001920  -0.0000118
    2   0.0025429   0.0003058  -0.0050564   0.0003461   0.0016770   0.0000479
    3  -0.0016899  -0.0016431   0.0020267  -0.0002237   0.0011642  -0.0000480
            7
    1  -0.0000377
    2   0.0001366
    3   0.0004138
 Gradient of SCF Energy
            1           2           3           4           5           6
    1  -0.0010963  -0.0001320   0.0100057  -0.0059664   0.0034056  -0.0039528
    2  -0.0167767   0.0067877   0.0620723  -0.0295303   0.0256040  -0.0551940
    3   0.0054823  -0.0317623   0.0795732   0.0133211   0.0272511  -0.0987294
            7
    1  -0.0022637
    2   0.0070370
    3   0.0048641
 Max gradient component =       9.873E-02
 RMS gradient           =       3.588E-02
 Computing fast CPCM-SWIG gradient
 Updating gradient with PCM contributions...
 -- total gradient after adding PCM contribution --
---------------------------------------------------
  Atom         X              Y              Z     
---------------------------------------------------
   1      -0.000526       0.008420      -0.008778
   2       0.001525       0.012043       0.005774
   3       0.010397       0.066749       0.069554
   4      -0.005727      -0.020438       0.004713
   5      -0.000659      -0.008590       0.002617
   6      -0.002694      -0.044931      -0.101476
   7      -0.002315      -0.013253       0.027596
---------------------------------------------------
 Number of fixed atoms: 0
 Gradient time:  CPU 55.47 s  wall 2.42 s
 ----------------------------------------------------------------
             Standard Nuclear Orientation (Angstroms)
    I     Atom           X                Y                Z
 ----------------------------------------------------------------
    1      C      -0.9037440000     1.7901609000    -0.1560075000
    2      O      -0.7708866000     1.6705391000     1.0804676000
    3      O      -0.9102249000     3.0865070000    -0.6633885000
    4      H      -0.7989518000     3.7360866000     0.1488310000
    5      O      -1.0325666000     0.8993703000    -1.0196253000
    6      O      -0.7540275000     4.1619511000     1.0798627000
    7      H      -0.8234287000     3.4371191000     1.7706425000
 ----------------------------------------------------------------
 Nuclear Repulsion Energy =         176.44874204 hartrees
 There are       21 alpha and       20 beta electrons
 Discretize the solute cavity surface with Lebedev spheres
	Using 110 Lebedev grid points for each H atom
	Using 194 Lebedev grid points for other atoms
	Atomic van der Waals radii will be scaled by 1.20
 Remove points where switching function is < 1.0e-08
 Keep 682 surface tesserae and discard 508 interior tesserae
 Molecular Surface Area = 83.051 Angst**2

                       Distance Matrix (Angstroms)
             C (  1)   O (  2)   O (  3)   H (  4)   O (  5)   O (  6)
   O (  2)  1.249332
   O (  3)  1.392117  2.250648
   H (  4)  1.972444  2.266103  1.045962
   O (  5)  1.247373  2.252458  2.219333  3.076821
   O (  6)  2.678652  2.491469  2.054240  1.024792  3.889713
   H (  7)  2.535922  1.897342  2.460685  1.649319  3.777499  1.003681

 
 Requested basis set is 6-311++G(2df,2p)
 There are 52 shells and 190 basis functions
 A cutoff of  1.0D-11 yielded   1305 shell pairs
 There are     17691 function pairs (     22684 Cartesian)
 Smallest overlap matrix eigenvalue = 4.02E-04
 Guess MOs from SCF MO coefficient file

 -----------------------------------------------------------------------
  General SCF calculation program by
  Eric Jon Sundstrom, Paul Horn, Yuezhi Mao, Dmitri Zuev, Alec White,
  David Stuck, Shaama M.S., Shane Yost, Joonho Lee, David Small,
  Daniel Levine, Susi Lehtola, Hugh Burton, Evgeny Epifanovsky,
  Bang C. Huynh
 -----------------------------------------------------------------------
 Exchange:     0.1500 Hartree-Fock + 1.0000 wB97M-V + LR-HF
 Correlation:  1.0000 wB97M-V
 Using SG-2 standard quadrature grid
 Nonlocal Correlation:  VV10 with C = 0.0100 and b = 6.00 and scale = 1.00000
 Grid used for NLC:  SG-1 standard quadrature
 
 Citation of the SMD model:
 Marenich, A.V.; Cramer, C.J.; Truhlar, D.G.
 J. Phys. Chem. B 2009, 113, 6378-6396.
 iSolventCode=           1
 Solvent: water                                                           
 
 vradii
            1           2           3           4           5           6
    1   1.8500000   1.5200000   1.5200000   1.2000000   1.5200000   1.5200000
            7
    1   1.2000000
 -------------------------------------------------------
 OpenMP BLAS3 based DFT computing Module                
 Release: version 1.0, May 2013, Q-Chem Inc. Pittsburgh 
 -------------------------------------------------------
 A unrestricted SCF calculation will be
 performed using Roothaan-Hall, DIIS, GDM
 SCF converges when RMS gradient is below 1.0e-06
 ---------------------------------------
  Cycle       Energy         DIIS error
 ---------------------------------------
    1    -340.2049311960      2.89e-04  Roothaan Step
 ---------------------------------------
  Cycle       Energy         DIIS error
 ---------------------------------------
    1    -340.3091614000      3.81e-04  
    2    -340.3105759159      4.48e-04  Done DIIS. Switching to GDM
 ---------------------------------------
  Cycle       Energy        RMS Gradient
 ---------------------------------------
    1    -340.3105759159      1.65e-02   Normal BFGS step
    2    -340.3093079026      2.84e-02  Line search: overstep
    3    -340.3128363315      3.25e-03   Normal BFGS step
    4    -340.3129214502      3.03e-03   Normal BFGS step
    5    -340.3129506444      1.52e-03   Normal BFGS step
    6    -340.3129621631      1.40e-03   Normal BFGS step
    7    -340.3129692759      9.37e-04   Normal BFGS step
    8    -340.3129723474      4.58e-04   Normal BFGS step
    9    -340.3129731263      3.45e-04   Normal BFGS step
   10    -340.3129734654      2.05e-04   Normal BFGS step
   11    -340.3129735896      8.84e-05   Normal BFGS step
   12    -340.3129736240      4.28e-05   Normal BFGS step
   13    -340.3129736361      2.43e-05   Normal BFGS step
   14    -340.3129736391      1.24e-05   Normal BFGS step
   15    -340.3129736401      6.87e-06   Normal BFGS step
   16    -340.3129736403      6.10e-06   Normal BFGS step
   17    -340.3129736403      4.98e-06   Normal BFGS step
   18    -340.3129736404      3.30e-06   Normal BFGS step
   19    -340.3129736405      1.47e-06   Normal BFGS step
   20    -340.3129736406      7.80e-07  Convergence criterion met
 ---------------------------------------
 SCF time:   CPU 558.14s  wall 18.00s 
<S^2> =          0.755959606
(3)  G-ENP(liq) elect-nuc-pol free energy of system     -340.312973641 a.u.
(4)  G-CDS(liq) cavity-dispersion-solvent structure 
     free energy                                                3.7741 kcal/mol
(6)  G-S(liq) free energy of system                     -340.306959209 a.u.
 SCF   energy in the final basis set =     -340.3069592092
 Total energy in the final basis set =     -340.3069592092
 
 --------------------------------------------------------------
 
                    Orbital Energies (a.u.)
 --------------------------------------------------------------
 
 Alpha MOs
 -- Occupied --
-19.3840 -19.3529 -19.3031 -19.2957 -10.4949  -1.2556  -1.1673  -1.1110
 -1.0979  -0.7430  -0.6387  -0.5951  -0.5760  -0.5567  -0.5430  -0.4610
 -0.4453  -0.4279  -0.4065  -0.3869  -0.3695
 -- Virtual --
  0.0398   0.0671   0.0773   0.0884   0.1058   0.1195   0.1527   0.2080
  0.2201   0.2250   0.2424   0.2459   0.2583   0.2694   0.2889   0.2916
  0.3116   0.3215   0.3245   0.3287   0.3462   0.3642   0.3762   0.4110
  0.4291   0.5302   0.5541   0.5947   0.6181   0.6678   0.7279   0.7593
  0.7652   0.7830   0.8010   0.8403   0.8655   0.8845   1.0083   1.0248
  1.0450   1.0621   1.0973   1.1100   1.1219   1.1302   1.1401   1.1753
  1.2043   1.2211   1.2355   1.2583   1.3249   1.4158   1.4788   1.5024
  1.5888   1.6071   1.6206   1.6348   1.6905   1.7011   1.7544   1.8112
  1.8631   1.8998   1.9552   2.0039   2.1768   2.1817   2.2172   2.2324
  2.3442   2.3676   2.4285   2.4362   2.5201   2.5398   2.6450   2.7516
  2.8323   2.8603   2.8838   3.0128   3.0949   3.1828   3.2209   3.2372
  3.3832   3.4553   3.4991   3.5793   3.6126   3.6272   3.6838   3.7166
  3.7497   3.7537   3.9832   4.0080   4.0999   4.1392   4.2217   4.2557
  5.0106   5.0766   5.0869   5.1055   5.1131   5.1619   5.1628   5.1731
  5.1825   5.1928   5.1991   5.2176   5.2450   5.2579   5.2793   5.3195
  5.3461   5.3660   5.4489   5.4603   5.4795   5.5538   5.5602   5.5905
  5.6769   5.7288   5.8606   5.8885   5.9350   6.0145   6.1783   6.2979
  6.3122   6.4810   6.5073   6.8977   6.9290   6.9461   6.9477   6.9935
  7.0039   7.0658   7.0951   7.1955   7.2189   7.2389   7.3194   7.3278
  7.3450   7.4381   7.4600   7.5174   7.6559   7.6705   7.7530   7.7860
  7.8379   7.8571   8.0269   8.2192  25.2621  50.5052  50.5539  50.6833
 50.7239
 
 Beta MOs
 -- Occupied --
[...]
 J. Phys. Chem. B 2009, 113, 6378-6396.
 iSolventCode=           1
 Solvent: water                                                           
 
 vradii
            1           2           3           4           5           6
    1   1.8500000   1.5200000   1.5200000   1.2000000   1.5200000   1.5200000
            7
    1   1.2000000
 -------------------------------------------------------
 OpenMP BLAS3 based DFT computing Module                
 Release: version 1.0, May 2013, Q-Chem Inc. Pittsburgh 
 -------------------------------------------------------
 A unrestricted SCF calculation will be
 performed using Roothaan-Hall, DIIS, GDM
 SCF converges when RMS gradient is below 1.0e-07
 ---------------------------------------
  Cycle       Energy         DIIS error
 ---------------------------------------
    1    -340.2293381465      3.16e-04  Roothaan Step
 ---------------------------------------
  Cycle       Energy         DIIS error
 ---------------------------------------
    1    -340.3327027212      4.51e-04  
    2    -340.3340424374      5.59e-04  Done DIIS. Switching to GDM
 ---------------------------------------
  Cycle       Energy        RMS Gradient
 ---------------------------------------
    1    -340.3340424374      2.75e-02   Normal BFGS step
    2    -340.3318055412      4.78e-02  Line search: overstep
    3    -340.3375765008      4.55e-03   Normal BFGS step
    4    -340.3376886574      4.07e-03   Normal BFGS step
    5    -340.3377376483      2.48e-03   Normal BFGS step
    6    -340.3377599097      1.93e-03   Normal BFGS step
    7    -340.3377788965      1.14e-03   Normal BFGS step
    8    -340.3377869482      7.50e-04   Normal BFGS step
    9    -340.3377896092      6.96e-04   Normal BFGS step
   10    -340.3377912423      2.92e-04   Normal BFGS step
   11    -340.3377919581      2.97e-04   Normal BFGS step
   12    -340.3377922657      1.84e-04   Normal BFGS step
   13    -340.3377924396      1.69e-04   Normal BFGS step
   14    -340.3377925973      1.43e-04   Normal BFGS step
   15    -340.3377927508      9.17e-05   Normal BFGS step
   16    -340.3377928206      7.21e-05   Normal BFGS step
   17    -340.3377928497      4.81e-05   Normal BFGS step
   18    -340.3377928583      1.95e-05   Normal BFGS step
   19    -340.3377928607      5.84e-06   Normal BFGS step
   20    -340.3377928611      3.85e-06   Normal BFGS step
   21    -340.3377928612      2.45e-06   Normal BFGS step
   22    -340.3377928613      1.14e-06   Normal BFGS step
   23    -340.3377928613      5.08e-07   Normal BFGS step
   24    -340.3377928613      3.34e-07   Normal BFGS step
   25    -340.3377928613      2.04e-07   Normal BFGS step
   26    -340.3377928613      2.70e-08  Convergence criterion met
 ---------------------------------------
 SCF time:   CPU 719.10s  wall 23.00s 
<S^2> =          0.758839421
(3)  G-ENP(liq) elect-nuc-pol free energy of system     -340.337792861 a.u.
(4)  G-CDS(liq) cavity-dispersion-solvent structure 
     free energy                                                3.9193 kcal/mol
(6)  G-S(liq) free energy of system                     -340.331546985 a.u.
 SCF   energy in the final basis set =     -340.3315469845
 Total energy in the final basis set =     -340.3315469845
 
 --------------------------------------------------------------
 
                    Orbital Energies (a.u.)
 --------------------------------------------------------------
 
 Alpha MOs
 -- Occupied --
-19.3789 -19.3752 -19.3018 -19.2985 -10.4930  -1.2365  -1.1528  -1.1136
 -1.1032  -0.7164  -0.6219  -0.5898  -0.5727  -0.5668  -0.5451  -0.4633
 -0.4537  -0.4311  -0.4084  -0.3882  -0.3710
 -- Virtual --
  0.0395   0.0678   0.0770   0.0880   0.1060   0.1200   0.1554   0.2097
  0.2114   0.2302   0.2414   0.2446   0.2557   0.2710   0.2841   0.2915
  0.3123   0.3188   0.3231   0.3307   0.3472   0.3644   0.3745   0.4015
  0.4113   0.4377   0.5347   0.5796   0.6176   0.6364   0.6690   0.7423
  0.7618   0.7683   0.8219   0.8503   0.8540   0.8745   0.9766   1.0034
  1.0496   1.0741   1.0861   1.1026   1.1221   1.1377   1.1538   1.1692
  1.1978   1.2288   1.2386   1.2526   1.3174   1.3809   1.4563   1.5192
  1.5505   1.5754   1.6000   1.6230   1.6256   1.6550   1.7470   1.7829
  1.8433   1.8886   1.9361   1.9872   1.9969   2.0702   2.1920   2.2022
  2.3092   2.3420   2.3871   2.4523   2.5135   2.5262   2.5859   2.7389
  2.7918   2.8455   2.8675   2.9369   3.0707   3.1579   3.2277   3.2545
  3.3804   3.4639   3.4953   3.5470   3.6078   3.6217   3.7097   3.7274
  3.7442   3.8137   3.8891   3.9934   4.1023   4.1231   4.1772   4.2587
  5.0249   5.0695   5.0912   5.1052   5.1110   5.1282   5.1417   5.1616
  5.1736   5.1919   5.2028   5.2078   5.2260   5.2473   5.2555   5.3088
  5.3207   5.3296   5.3563   5.4231   5.4420   5.4639   5.5119   5.5537
  5.6027   5.6314   5.6470   5.6710   5.7815   5.9009   6.0040   6.1586
  6.3253   6.4909   6.5098   6.8738   6.8983   6.9175   6.9446   6.9590
  6.9818   7.0007   7.0685   7.1033   7.1176   7.1870   7.2187   7.2677
  7.3211   7.3271   7.4039   7.4491   7.5065   7.6671   7.7256   7.7573
  7.8016   7.8437   7.8447   8.0040  25.2680  50.4349  50.5245  50.6861
 50.7103
 
 Beta MOs
 -- Occupied --
-19.3676 -19.3587 -19.2996 -19.2986 -10.4934  -1.2258  -1.1270  -1.1063
 -1.0771  -0.6912  -0.6094  -0.5715  -0.5651  -0.5519  -0.5068  -0.4353
 -0.4179  -0.4025  -0.3865  -0.3622
 -- Virtual --
 -0.1088   0.0407   0.0696   0.0781   0.0887   0.1066   0.1212   0.1565
  0.2111   0.2153   0.2338   0.2427   0.2458   0.2582   0.2753   0.2858
  0.2922   0.3140   0.3210   0.3252   0.3334   0.3489   0.3665   0.3778
  0.4071   0.4190   0.4484   0.5363   0.5832   0.6222   0.6518   0.6710
  0.7454   0.7629   0.7690   0.8251   0.8529   0.8566   0.8756   0.9788
  1.0078   1.0561   1.0886   1.0910   1.1054   1.1348   1.1403   1.1609
  1.1774   1.2015   1.2317   1.2437   1.2584   1.3203   1.3878   1.4649
  1.5361   1.5616   1.5873   1.6085   1.6264   1.6292   1.6612   1.7497
  1.7880   1.8612   1.8991   1.9418   1.9924   2.0098   2.0850   2.1952
  2.2147   2.3155   2.3497   2.3970   2.4661   2.5194   2.5289   2.5924
  2.7486   2.7943   2.8506   2.8727   2.9316   3.0692   3.1574   3.2268
  3.2543   3.3809   3.4644   3.4964   3.5476   3.6082   3.6215   3.7112
  3.7328   3.7478   3.8156   3.8898   3.9979   4.0941   4.1268   4.1837
  4.2642   5.0775   5.1047   5.1127   5.1235   5.1412   5.1546   5.1652
  5.1699   5.1795   5.1976   5.2123   5.2167   5.2430   5.2587   5.2632
  5.3228   5.3405   5.3568   5.3706   5.4423   5.4665   5.4716   5.5303
  5.5628   5.6244   5.6372   5.6671   5.6831   5.8257   5.9079   6.0184
  6.1706   6.3277   6.4991   6.5117   6.9073   6.9171   6.9514   6.9616
  6.9853   7.0041   7.0244   7.0849   7.1426   7.1643   7.2050   7.2494
  7.2870   7.3240   7.3557   7.4219   7.4721   7.5357   7.6749   7.7544
  7.7683   7.8200   7.8468   7.8899   8.0447  25.2678  50.4461  50.5323
 50.6877  50.7110
 --------------------------------------------------------------
 
          Ground-State Mulliken Net Atomic Charges

     Atom                 Charge (a.u.)    Spin (a.u.)
  --------------------------------------------------------
      1 C                     0.523559      -0.023644
      2 O                    -0.658765       0.001925
      3 O                    -0.412956       0.383386
      4 H                     0.372320      -0.042974
      5 O                    -0.650465       0.074874
      6 O                    -0.504974       0.617076
      7 H                     0.331281      -0.010644
  --------------------------------------------------------
  Sum of atomic charges =    -1.000000
  Sum of spin   charges =     1.000000

 -----------------------------------------------------------------
                    Cartesian Multipole Moments
 -----------------------------------------------------------------
    Charge (ESU x 10^10)
                -4.8032
    Dipole Moment (Debye)
         X       4.8114      Y      -7.9314      Z       1.2885
       Tot       9.3657
    Quadrupole Moments (Debye-Ang)
        XX     -35.7028     XY       8.6982     YY     -56.2330
        XZ      -2.0665     YZ      -0.2208     ZZ     -37.6498
    Octopole Moments (Debye-Ang^2)
       XXX      87.6096    XXY     -82.8834    XYY      56.3241
       YYY    -326.4991    XXZ      -1.3867    XYZ      -0.7555
       YYZ     -13.8122    XZZ      34.4525    YZZ     -79.8771
       ZZZ      -1.5037
    Hexadecapole Moments (Debye-Ang^3)
      XXXX    -183.8203   XXXY     202.3822   XXYY    -292.0960
      XYYY     310.1757   YYYY   -1841.5860   XXXZ      -0.7359
      XXYZ     -27.3177   XYYZ       9.2864   YYYZ    -159.4500
      XXZZ     -70.9125   XYZZ      72.3130   YYZZ    -271.2818
      XZZZ      -6.4557   YZZZ     -54.4592   ZZZZ    -189.8000
 -----------------------------------------------------------------
 Calculating analytic gradient of the SCF energy
 Gradient of CDS energy
            1           2           3           4           5           6
    1  -0.0002085  -0.0001620   0.0001224   0.0002128   0.0001344  -0.0000965
    2   0.0024791   0.0003138  -0.0049275   0.0003078   0.0016042   0.0001467
    3  -0.0016643  -0.0015857   0.0019286  -0.0002098   0.0012196  -0.0000910
            7
    1  -0.0000026
    2   0.0000759
    3   0.0004027
 Gradient of SCF Energy
            1           2           3           4           5           6
    1   0.0034054  -0.0032656  -0.0025569   0.0002530   0.0028460  -0.0021240
    2  -0.0250430   0.0010887   0.0037802  -0.0117268   0.0306553  -0.0219096
    3   0.0112460  -0.0376634   0.0137333  -0.0027884   0.0261127   0.0006922
            7
    1   0.0014421
    2   0.0231552
    3  -0.0113324
 Max gradient component =       3.766E-02
 RMS gradient           =       1.593E-02
 Computing fast CPCM-SWIG gradient
 Updating gradient with PCM contributions...
 -- total gradient after adding PCM contribution --
---------------------------------------------------
  Atom         X              Y              Z     
---------------------------------------------------
   1      -0.000004      -0.000027       0.000014
   2       0.000016      -0.000009      -0.000029
   3       0.000009       0.000080       0.000014
   4       0.000007      -0.000044       0.000072
   5      -0.000002       0.000028      -0.000028
   6      -0.000078       0.000020      -0.000042
   7       0.000053      -0.000047      -0.000001
---------------------------------------------------
 Number of fixed atoms: 0
 Gradient time:  CPU 56.26 s  wall 2.34 s
 Geometry Optimization Parameters
   NAtoms,    NIC,     NZ,  NCons,   NDum,   NFix, NCnnct, MaxDiis
        7      30       0       0       0       0       0       0

 Cartesian Hessian Update
 Hessian updated using Powell/Murtagh-Sargent update
  Mixing factors:     0.992280 Powell                      0.007720 Murtagh-Sargent


** GEOMETRY OPTIMIZATION IN DELOCALIZED INTERNAL COORDINATES **
   Searching for a Transition State

   Optimization Cycle:  26

                       Coordinates (Angstroms)
     ATOM                X               Y               Z
      1  C        -0.9167548059    1.7245666103   -0.1592717289
      2  O        -0.7805538881    1.5610874849    1.0663494505
      3  O        -0.9731624422    3.0236536776   -0.6539293518
      4  H        -0.6915768965    3.7702593696    0.1119089561
      5  O        -1.0175845438    0.8828030396   -1.0710642309
      6  O        -0.8075355966    4.3196603114    1.2066211273
      7  H        -0.8066619269    3.4997036066    1.7391682774
   Point Group: c1    Number of degrees of freedom:    15


   Energy is   -340.331546985

 Hessian updated using Powell/Murtagh-Sargent update
  Mixing factors:     0.974021 Powell                      0.025979 Murtagh-Sargent

 15 Hessian modes will be used to form the next step
  Hessian Eigenvalues:
    -0.153772    0.006006    0.019591    0.041561    0.056067    0.123702
     0.191474    0.216285    0.239205    0.292605    0.332413    0.405448
     0.511165    0.691995    0.806140

 Transition state search - taking P-RFO step
 Searching for Lamda that Maximizes Along the Lowest mode
 Value Taken    Lamda =   0.00000000
 Searching for Lamda that Minimizes Along All other modes
 Value Taken    Lamda =  -0.00000025
 Step Taken.  Stepsize is  0.003737

                             Maximum     Tolerance    Cnvgd?
         Gradient           0.000067      0.000300     YES
         Displacement       0.003384      0.001200      NO
         Energy change     -0.000001      0.000001     YES


                       Distance Matrix (Angstroms)
             C (  1)   O (  2)   O (  3)   H (  4)   O (  5)   O (  6)
   O (  2)  1.243955
   O (  3)  1.391221  2.266177
   H (  4)  2.075838  2.408176  1.105992
   O (  5)  1.245029  2.254948  2.181563  3.137373
   O (  6)  2.934639  2.762269  2.273480  1.230318  4.128433
   H (  7)  2.601405  2.052218  2.445662  1.653608  3.845785  0.977720

 
 Final energy is   -340.331546984529     


 ******************************
 **  OPTIMIZATION CONVERGED  **
 ******************************

                       Coordinates (Angstroms)
     ATOM                X               Y               Z
      1  C        -0.9167548059    1.7245666103   -0.1592717289
      2  O        -0.7805538881    1.5610874849    1.0663494505
      3  O        -0.9731624422    3.0236536776   -0.6539293518
      4  H        -0.6915768965    3.7702593696    0.1119089561
      5  O        -1.0175845438    0.8828030396   -1.0710642309
      6  O        -0.8075355966    4.3196603114    1.2066211273
      7  H        -0.8066619269    3.4997036066    1.7391682774

Z-matrix Print:
$molecule
-1 2
C 
O  1 1.243955
O  1 1.245029 2 129.908820
O  1 1.391221 2 118.520376 3 179.962619 0
H  4 1.105992 1 111.951616 2 11.030185 0
O  5 1.230318 4 153.325858 1 -56.533675 0
H  6 0.977720 5 96.319142 4 49.951801 0
$end

 
 --------------------------------------------------------------
 
                    Orbital Energies (a.u.)
 --------------------------------------------------------------
 
 Alpha MOs
 -- Occupied --
-19.3789 -19.3752 -19.3018 -19.2985 -10.4930  -1.2365  -1.1528  -1.1136
 -1.1032  -0.7164  -0.6219  -0.5898  -0.5727  -0.5668  -0.5451  -0.4633
 -0.4537  -0.4311  -0.4084  -0.3882  -0.3710
 -- Virtual --
  0.0395   0.0678   0.0770   0.0880   0.1060   0.1200   0.1554   0.2097
  0.2114   0.2302   0.2414   0.2446   0.2557   0.2710   0.2841   0.2915
  0.3123   0.3188   0.3231   0.3307   0.3472   0.3644   0.3745   0.4015
  0.4113   0.4377   0.5347   0.5796   0.6176   0.6364   0.6690   0.7423
  0.7618   0.7683   0.8219   0.8503   0.8540   0.8745   0.9766   1.0034
  1.0496   1.0741   1.0861   1.1026   1.1221   1.1377   1.1538   1.1692
  1.1978   1.2288   1.2386   1.2526   1.3174   1.3809   1.4563   1.5192
  1.5505   1.5754   1.6000   1.6230   1.6256   1.6550   1.7470   1.7829
  1.8433   1.8886   1.9361   1.9872   1.9969   2.0702   2.1920   2.2022
  2.3092   2.3420   2.3871   2.4523   2.5135   2.5262   2.5859   2.7389
  2.7918   2.8455   2.8675   2.9369   3.0707   3.1579   3.2277   3.2545
  3.3804   3.4639   3.4953   3.5470   3.6078   3.6217   3.7097   3.7274
  3.7442   3.8137   3.8891   3.9934   4.1023   4.1231   4.1772   4.2587
  5.0249   5.0695   5.0912   5.1052   5.1110   5.1282   5.1417   5.1616
  5.1736   5.1919   5.2028   5.2078   5.2260   5.2473   5.2555   5.3088
  5.3207   5.3296   5.3563   5.4231   5.4420   5.4639   5.5119   5.5537
  5.6027   5.6314   5.6470   5.6710   5.7815   5.9009   6.0040   6.1586
  6.3253   6.4909   6.5098   6.8738   6.8983   6.9175   6.9446   6.9590
  6.9818   7.0007   7.0685   7.1033   7.1176   7.1870   7.2187   7.2677
  7.3211   7.3271   7.4039   7.4491   7.5065   7.6671   7.7256   7.7573
  7.8016   7.8437   7.8447   8.0040  25.2680  50.4349  50.5245  50.6861
 50.7103
 
 Beta MOs
 -- Occupied --
-19.3676 -19.3587 -19.2996 -19.2986 -10.4934  -1.2258  -1.1270  -1.1063
 -1.0771  -0.6912  -0.6094  -0.5715  -0.5651  -0.5519  -0.5068  -0.4353
 -0.4179  -0.4025  -0.3865  -0.3622
 -- Virtual --
 -0.1088   0.0407   0.0696   0.0781   0.0887   0.1066   0.1212   0.1565
  0.2111   0.2153   0.2338   0.2427   0.2458   0.2582   0.2753   0.2858
  0.2922   0.3140   0.3210   0.3252   0.3334   0.3489   0.3665   0.3778
  0.4071   0.4190   0.4484   0.5363   0.5832   0.6222   0.6518   0.6710
  0.7454   0.7629   0.7690   0.8251   0.8529   0.8566   0.8756   0.9788
  1.0078   1.0561   1.0886   1.0910   1.1054   1.1348   1.1403   1.1609
  1.1774   1.2015   1.2317   1.2437   1.2584   1.3203   1.3878   1.4649
  1.5361   1.5616   1.5873   1.6085   1.6264   1.6292   1.6612   1.7497
  1.7880   1.8612   1.8991   1.9418   1.9924   2.0098   2.0850   2.1952
  2.2147   2.3155   2.3497   2.3970   2.4661   2.5194   2.5289   2.5924
  2.7486   2.7943   2.8506   2.8727   2.9316   3.0692   3.1574   3.2268
  3.2543   3.3809   3.4644   3.4964   3.5476   3.6082   3.6215   3.7112
  3.7328   3.7478   3.8156   3.8898   3.9979   4.0941   4.1268   4.1837
  4.2642   5.0775   5.1047   5.1127   5.1235   5.1412   5.1546   5.1652
  5.1699   5.1795   5.1976   5.2123   5.2167   5.2430   5.2587   5.2632
  5.3228   5.3405   5.3568   5.3706   5.4423   5.4665   5.4716   5.5303
  5.5628   5.6244   5.6372   5.6671   5.6831   5.8257   5.9079   6.0184
  6.1706   6.3277   6.4991   6.5117   6.9073   6.9171   6.9514   6.9616
  6.9853   7.0041   7.0244   7.0849   7.1426   7.1643   7.2050   7.2494
  7.2870   7.3240   7.3557   7.4219   7.4721   7.5357   7.6749   7.7544
  7.7683   7.8200   7.8468   7.8899   8.0447  25.2678  50.4461  50.5323
 50.6877  50.7110
 --------------------------------------------------------------
 
          Ground-State Mulliken Net Atomic Charges

     Atom                 Charge (a.u.)    Spin (a.u.)
  --------------------------------------------------------
      1 C                     0.523559      -0.023644
      2 O                    -0.658765       0.001925
      3 O                    -0.412956       0.383386
      4 H                     0.372320      -0.042974
      5 O                    -0.650465       0.074874
      6 O                    -0.504974       0.617076
      7 H                     0.331281      -0.010644
  --------------------------------------------------------
  Sum of atomic charges =    -1.000000
  Sum of spin   charges =     1.000000

 -----------------------------------------------------------------
                    Cartesian Multipole Moments
 -----------------------------------------------------------------
    Charge (ESU x 10^10)
                -4.8032
    Dipole Moment (Debye)
         X       4.8114      Y      -7.9314      Z       1.2885
       Tot       9.3657
    Quadrupole Moments (Debye-Ang)
        XX     -35.7028     XY       8.6982     YY     -56.2330
        XZ      -2.0665     YZ      -0.2208     ZZ     -37.6498
    Octopole Moments (Debye-Ang^2)
       XXX      87.6096    XXY     -82.8834    XYY      56.3241
       YYY    -326.4991    XXZ      -1.3867    XYZ      -0.7555
       YYZ     -13.8122    XZZ      34.4525    YZZ     -79.8771
       ZZZ      -1.5037
    Hexadecapole Moments (Debye-Ang^3)
      XXXX    -183.8203   XXXY     202.3822   XXYY    -292.0960
      XYYY     310.1757   YYYY   -1841.5860   XXXZ      -0.7359
      XXYZ     -27.3177   XYYZ       9.2864   YYYZ    -159.4500
      XXZZ     -70.9125   XYZZ      72.3130   YYZZ    -271.2818
      XZZZ      -6.4557   YZZZ     -54.4592   ZZZZ    -189.8000
 -----------------------------------------------------------------
 Total job time:  647.27s(wall), 19642.32s(cpu) 
 Sun Oct  1 19:04:47 2023

        *************************************************************
        *                                                           *
        *  Thank you very much for using Q-Chem.  Have a nice day.  *
        *                                                           *
        *************************************************************


