
Running Job 1 of 1 Q_in.in
qchem Q_in.in_5586.0 /scratch/ari.fischer/qChem1647381.hpc-mn1/qchem5586/ 0
/usr/local/qchem-5.4.1/exe/qcprog.exe_s Q_in.in_5586.0 /scratch/ari.fischer/qChem1647381.hpc-mn1/qchem5586/
                  Welcome to Q-Chem
     A Quantum Leap Into The Future Of Chemistry


 Q-Chem 5.4, Q-Chem, Inc., Pleasanton, CA (2021)

 License issued to: Nanyang Technological University (site)

 E. Epifanovsky,  A. T. B. Gilbert,  Xintian Feng,  Joonho Lee,  Yuezhi Mao,  
 N. Mardirossian,  P. Pokhilko,  A. White,  M. Wormit,  M. P. Coons,  
 A. L. Dempwolff,  Zhengting Gan,  D. Hait,  P. R. Horn,  L. D. Jacobson,  
 I. Kaliman,  J. Kussmann,  A. W. Lange,  Ka Un Lao,  D. S. Levine,  Jie Liu,  
 S. C. McKenzie,  A. F. Morrison,  K. Nanda,  F. Plasser,  D. R. Rehn,  
 M. L. Vidal,  Zhi-Qiang You,  Ying Zhu,  B. Alam,  B. Albrecht,  
 A. Aldossary,  E. Alguire,  J. H. Andersen,  D. Barton,  K. Begam,  A. Behn,  
 Y. A. Bernard,  E. J. Berquist,  H. Burton,  A. Carreras,  K. Carter-Fenk,  
 R. Chakraborty,  A. D. Chien,  K. D. Closser,  V. Cofer-Shabica,  
 S. Dasgupta,  Jia Deng,  M. de Wergifosse,  M. Diedenhofen,  Hainam Do,  
 S. Ehlert,  Po-Tung Fang,  S. Fatehi,  Qingguo Feng,  T. Friedhoff,  
 J. Gayvert,  Qinghui Ge,  G. Gidofalvi,  M. Goldey,  J. Gomes,  
 C. Gonzalez-Espinoza,  S. Gulania,  A. Gunina,  M. W. D. Hanson-Heine,  
 P. H. P. Harbach,  A. W. Hauser,  M. F. Herbst,  M. Hernandez Vera,  
 M. Hodecker,  Z. C. Holden,  S. Houck,  Xunkun Huang,  Kerwin Hui,  
 B. C. Huynh,  M. Ivanov,  Hyunjun Ji,  Hanjie Jiang,  B. Kaduk,  S. Kaehler,  
 K. Khistyaev,  Jaehoon Kim,  P. Klunzinger,  Z. Koczor-Benda,  
 Joong Hoon Koh,  D. Kosenkov,  L. Koulias,  T. Kowalczyk,  C. M. Krauter,  
 K. Kue,  A. Kunitsa,  T. Kus,  A. Landau,  K. V. Lawler,  D. Lefrancois,  
 S. Lehtola,  Rain Li,  Yi-Pei Li,  Jiashu Liang,  M. Liebenthal,  
 Hung-Hsuan Lin,  You-Sheng Lin,  Fenglai Liu,  Kuan-Yu Liu,  
 M. Loipersberger,  A. Luenser,  A. Manjanath,  P. Manohar,  E. Mansoor,  
 S. F. Manzer,  Shan-Ping Mao,  A. V. Marenich,  T. Markovich,  S. Mason,  
 S. A. Maurer,  P. F. McLaughlin,  M. F. S. J. Menger,  J.-M. Mewes,  
 S. A. Mewes,  P. Morgante,  J. W. Mullinax,  K. J. Oosterbaan,  G. Paran,  
 Alexander C. Paul,  Suranjan K. Paul,  F. Pavosevic,  Zheng Pei,  S. Prager,  
 E. I. Proynov,  E. Ramos,  B. Rana,  A. E. Rask,  A. Rettig,  R. M. Richard,  
 F. Rob,  E. Rossomme,  T. Scheele,  M. Scheurer,  M. Schneider,  
 N. Sergueev,  S. M. Sharada,  W. Skomorowski,  D. W. Small,  C. J. Stein,  
 Yu-Chuan Su,  E. J. Sundstrom,  Zhen Tao,  J. Thirman,  T. Tsuchimochi,  
 N. M. Tubman,  S. P. Veccham,  O. Vydrov,  J. Wenzel,  J. Witte,  A. Yamada,  
 Kun Yao,  S. Yeganeh,  S. R. Yost,  A. Zech,  Igor Ying Zhang,  Xing Zhang,  
 Yu Zhang,  D. Zuev,  A. Aspuru-Guzik,  A. T. Bell,  N. A. Besley,  
 K. B. Bravaya,  B. R. Brooks,  D. Casanova,  Jeng-Da Chai,  S. Coriani,  
 C. J. Cramer,  A. E. DePrince, III,  R. A. DiStasio Jr.,  A. Dreuw,  
 B. D. Dunietz,  T. R. Furlani,  W. A. Goddard III,  S. Grimme,  
 S. Hammes-Schiffer,  T. Head-Gordon,  W. J. Hehre,  Chao-Ping Hsu,  
 T.-C. Jagau,  Yousung Jung,  A. Klamt,  Jing Kong,  D. S. Lambrecht,  
 WanZhen Liang,  N. J. Mayhall,  C. W. McCurdy,  J. B. Neaton,  
 C. Ochsenfeld,  J. A. Parkhill,  R. Peverati,  V. A. Rassolov,  Yihan Shao,  
 L. V. Slipchenko,  T. Stauch,  R. P. Steele,  J. E. Subotnik,  
 A. J. W. Thom,  A. Tkatchenko,  D. G. Truhlar,  T. Van Voorhis,  
 T. A. Wesolowski,  K. B. Whaley,  H. L. Woodcock III,  P. M. Zimmerman,  
 S. Faraji,  P. M. W. Gill,  M. Head-Gordon,  J. M. Herbert,  A. I. Krylov

 Additional authors for Version 5.4.1: 
 S. Kotaru,  Shaozhi Li,  Xiangyuan Li,  F. Matz,  A. Molle,  Haisheng Ren,  
 Yingli Su,  Hung-Yi Tsai,  C. Utku,  Fang Wang

 Contributors to earlier versions of Q-Chem not listed above: 
 R. D. Adamson,  B. Austin,  R. Baer,  J. Baker,  G. J. O. Beran,  
 K. Brandhorst,  S. T. Brown,  E. F. C. Byrd,  A. K. Chakraborty,  
 G. K. L. Chan,  Chun-Min Chang,  Yunqing Chen,  C.-L. Cheng,  
 Siu Hung Chien,  D. M. Chipman,  D. L. Crittenden,  H. Dachsel,  
 R. J. Doerksen,  A. D. Dutoi,  R. G. Edgar,  J. Fosso-Tande,  
 L. Fusti-Molnar,  D. Ghosh,  A. Ghysels,  A. Golubeva-Zadorozhnaya,  
 J. Gonthier,  M. S. Gordon,  S. R. Gwaltney,  G. Hawkins,  J. E. Herr,  
 A. Heyden,  S. Hirata,  E. G. Hohenstein,  G. Kedziora,  F. J. Keil,  
 C. Kelley,  Jihan Kim,  R. A. King,  R. Z. Khaliullin,  P. P. Korambath,  
 W. Kurlancheek,  A. Laurent,  A. M. Lee,  M. S. Lee,  S. V. Levchenko,  
 Ching Yeh Lin,  D. Liotard,  E. Livshits,  R. C. Lochan,  I. Lotan,  
 L. A. Martinez-Martinez,  P. E. Maslen,  N. Nair,  D. P. O'Neill,  
 D. Neuhauser,  E. Neuscamman,  C. M. Oana,  R. Olivares-Amaya,  R. Olson,  
 T. M. Perrine,  B. Peters,  P. A. Pieniazek,  A. Prociuk,  Y. M. Rhee,  
 J. Ritchie,  M. A. Rohrdanz,  E. Rosta,  N. J. Russ,  H. F. Schaefer III,  
 M. W. Schmidt,  N. E. Schultz,  S. Sharma,  N. Shenvi,  C. D. Sherrill,  
 A. C. Simmonett,  A. Sodt,  T. Stein,  D. Stuck,  K. S. Thanthiriwatte,  
 V. Vanovschi,  L. Vogt,  Tao Wang,  A. Warshel,  M. A. Watson,  
 C. F. Williams,  Q. Wu,  X. Xu,  Jun Yang,  W. Zhang,  Yan Zhao

 Please cite Q-Chem as follows:
 Y. Shao et al., Mol. Phys. 113, 184-215 (2015)
 DOI: 10.1080/00268976.2014.952696

 Q-Chem 5.4.1 for Intel X86 EM64T Linux

 Parts of Q-Chem use Armadillo 9.800.1 (Horizon Scraper).
 http://arma.sourceforge.net/

 Q-Chem begins on Tue Jul 25 04:21:37 2023  

 Host: 
0

     Scratch files written to /scratch/ari.fischer/qChem1647381.hpc-mn1/qchem5586//
 Aug1521 |scratch|qcdevops|jenkins|workspace|build_RNUM 8249   
 Processing $rem in /usr/local/qchem-5.4.1/config/preferences:
 Processing $rem in /home/ari.fischer/.qchemrc:
 Symmetry turned off for PCM/SM12/SMD calculation


!!********************************************.
!!******************Warning*******************.
!!Desired Analytical derivatives not available.
!!Finite difference job might take a long time.
!!********************************************.
!!********************************************.


 2-order derivative to be evaluated numerically with 1-order analytical derivatives

 Checking the input file for inconsistencies... 	...done.

--------------------------------------------------------------
User input:
--------------------------------------------------------------
$molecule
-1 2
C        -0.7377342278   -0.7004582887    0.3870869238
O        -0.8871843324   -1.6228435279    1.1927371935
O        -1.2439507399   -0.4101770833   -0.7000052174
$end

$rem
BASIS = 6-311++G(2df,2p)
GUI = 2
JOB_TYPE = Frequency
METHOD = wB97M-V
SOLVENT_METHOD = SMD
SCF_ALGORITHM = DIIS_GDM
MAX_SCF_CYCLES = 400
SCF_CONVERGENCE = 7
THRESH = 12
UNRESTRICTED = 1
SYMMETRY_IGNORE = 1
$end
--------------------------------------------------------------
 ----------------------------------------------------------------
             Standard Nuclear Orientation (Angstroms)
    I     Atom           X                Y                Z
 ----------------------------------------------------------------
    1      C      -0.7377342278    -0.7004582887     0.3870869238
    2      O      -0.8871843324    -1.6228435279     1.1927371935
    3      O      -1.2439507399    -0.4101770833    -0.7000052174
 ----------------------------------------------------------------
 Nuclear Repulsion Energy =          56.05466878 hartrees
 There are       12 alpha and       11 beta electrons
 Requested basis set is 6-311++G(2df,2p)
 There are 24 shells and 102 basis functions

 Total QAlloc Memory Limit 288000 MB
 Mega-Array Size       188 MB
 MEM_STATIC part       192 MB
 
 Citation of the SMD model:
 Marenich, A.V.; Cramer, C.J.; Truhlar, D.G.
 J. Phys. Chem. B 2009, 113, 6378-6396.
 iSolventCode=           1
 Solvent: water                                                           
 
 vradii
            1           2           3
    1   1.8500000   1.5200000   1.5200000
 Changing PCM_VDW_RADII to SMD_RADIUS
 Discretize the solute cavity surface with Lebedev spheres
	Using 110 Lebedev grid points for each H atom
	Using 194 Lebedev grid points for other atoms
	Atomic van der Waals radii will be scaled by 1.20
 Remove points where switching function is < 1.0e-08
 Keep 393 surface tesserae and discard 189 interior tesserae
 Molecular Surface Area = 56.996 Angst**2

                       Distance Matrix (Angstroms)
             C (  1)   O (  2)
   O (  2)  1.233776
   O (  3)  1.233810  2.276031
 
 A cutoff of  1.0D-12 yielded    297 shell pairs
 There are      5439 function pairs (      7191 Cartesian)
 Smallest overlap matrix eigenvalue = 1.05E-03
 Guess from superposition of atomic densities
 Warning:  Energy on first SCF cycle will be non-variational
 SAD guess density has 22.000000 electrons

 -----------------------------------------------------------------------
  General SCF calculation program by
  Eric Jon Sundstrom, Paul Horn, Yuezhi Mao, Dmitri Zuev, Alec White,
  David Stuck, Shaama M.S., Shane Yost, Joonho Lee, David Small,
  Daniel Levine, Susi Lehtola, Hugh Burton, Evgeny Epifanovsky,
  Bang C. Huynh
 -----------------------------------------------------------------------
 Exchange:     0.1500 Hartree-Fock + 1.0000 wB97M-V + LR-HF
 Correlation:  1.0000 wB97M-V
 Using SG-2 standard quadrature grid
 Nonlocal Correlation:  VV10 with C = 0.0100 and b = 6.00 and scale = 1.00000
 Grid used for NLC:  SG-1 standard quadrature
 using 8 threads for integral computing
 -------------------------------------------------------
 OpenMP Integral computing Module                
 Release: version 1.0, May 2013, Q-Chem Inc. Pittsburgh 
 -------------------------------------------------------
 
 Citation of the SMD model:
 Marenich, A.V.; Cramer, C.J.; Truhlar, D.G.
 J. Phys. Chem. B 2009, 113, 6378-6396.
 iSolventCode=           1
 Solvent: water                                                           
 
 vradii
            1           2           3
    1   1.8500000   1.5200000   1.5200000
 -------------------------------------------------------
 OpenMP BLAS3 based DFT computing Module                
 Release: version 1.0, May 2013, Q-Chem Inc. Pittsburgh 
 -------------------------------------------------------
 A unrestricted SCF calculation will be
 performed using DIIS, GDM
 SCF converges when RMS gradient is below 1.0e-07
 ---------------------------------------
  Cycle       Energy         DIIS error
 ---------------------------------------
    1    -188.7716313138      2.42e-02  
    2    -188.5808977882      5.21e-03  Done DIIS. Switching to GDM
 ---------------------------------------
  Cycle       Energy        RMS Gradient
 ---------------------------------------
    1    -188.5808977882      1.62e-01   Descent step
    2    -188.6861367522      2.41e-02   Normal BFGS step
    3    -188.6911712395      7.76e-03   Normal BFGS step
    4    -188.6915296409      2.17e-03   Normal BFGS step
    5    -188.6915776098      8.09e-04   Normal BFGS step
    6    -188.6915813970      2.94e-04   Normal BFGS step
    7    -188.6915818614      9.77e-05   Normal BFGS step
    8    -188.6915819170      4.29e-05   Normal BFGS step
    9    -188.6915819296      3.56e-05   Normal BFGS step
   10    -188.6915819367      7.35e-06   Normal BFGS step
   11    -188.6915819369      2.90e-06   Normal BFGS step
   12    -188.6915819370      5.13e-07   Normal BFGS step
   13    -188.6915819370      1.75e-07   Normal BFGS step
   14    -188.6915819370      4.94e-08  Convergence criterion met
 ---------------------------------------
 SCF time:   CPU 49.52s  wall 7.00s 
<S^2> =          0.752883650
(3)  G-ENP(liq) elect-nuc-pol free energy of system     -188.691581937 a.u.
(4)  G-CDS(liq) cavity-dispersion-solvent structure 
     free energy                                                5.3497 kcal/mol
(6)  G-S(liq) free energy of system                     -188.683056573 a.u.
 SCF   energy in the final basis set =     -188.6830565728
 Total energy in the final basis set =     -188.6830565728
 
 --------------------------------------------------------------
 
                    Orbital Energies (a.u.)
 --------------------------------------------------------------
 
 Alpha MOs
 -- Occupied --
-19.3143 -19.3143 -10.4333  -1.1874  -1.1136  -0.6282  -0.5566  -0.5405
 -0.5317  -0.3956  -0.3945  -0.2517
 -- Virtual --
  0.0802   0.0888   0.0963   0.1004   0.1458   0.2263   0.2304   0.2519
  0.2828   0.3038   0.3090   0.3243   0.3594   0.4731   0.5767   0.6213
  0.6291   0.7896   0.7969   0.7997   0.8815   0.9709   1.0694   1.0930
  1.1360   1.1585   1.1697   1.2013   1.3802   1.4569   1.5786   1.5800
  1.6090   1.7048   1.7117   1.8012   2.0638   2.0818   2.1847   2.3851
  2.5100   2.5403   2.8447   2.8943   2.9552   3.1030   3.1213   3.2353
  3.2661   3.2969   3.4669   3.4939   3.5560   3.6655   3.6769   3.9240
  4.1753   5.1500   5.1541   5.1652   5.1659   5.1695   5.1949   5.2287
  5.2812   5.3066   5.4344   5.4994   5.5267   5.5512   5.6576   6.0306
  6.2820   6.6104   6.8632   6.8909   6.9079   6.9617   6.9680   6.9729
  7.2609   7.2909   7.3830   7.4212   7.5651   7.7582   7.7638  25.1223
 50.6464  50.6622
 
 Beta MOs
 -- Occupied --
-19.3086 -19.3086 -10.4243  -1.1733  -1.0982  -0.6099  -0.5389  -0.5211
 -0.5043  -0.3896  -0.3716
 -- Virtual --
  0.0207   0.0878   0.0881   0.0910   0.1153   0.1631   0.2223   0.2282
  0.2492   0.2816   0.3017   0.3070   0.3243   0.3613   0.4805   0.5978
  0.6334   0.6446   0.8049   0.8139   0.8142   0.8978   0.9806   1.0757
  1.0988   1.1399   1.1744   1.1765   1.2032   1.3885   1.4781   1.5831
  1.5858   1.6129   1.7183   1.7188   1.8147   2.0696   2.1029   2.1945
  2.4128   2.5207   2.5581   2.8609   2.9361   3.0005   3.1340   3.1491
  3.2667   3.3231   3.3583   3.4801   3.5285   3.5872   3.6918   3.6929
  3.9470   4.2093   5.1602   5.1627   5.1730   5.1737   5.1772   5.2088
  5.2376   5.3018   5.3214   5.4490   5.5055   5.5393   5.5637   5.6679
  6.0577   6.2895   6.6285   6.8844   6.9061   6.9225   6.9814   6.9852
  6.9878   7.2830   7.2969   7.3940   7.4428   7.5871   7.7730   7.7858
 25.1299  50.6512  50.6671
 --------------------------------------------------------------
 
          Ground-State Mulliken Net Atomic Charges

     Atom                 Charge (a.u.)    Spin (a.u.)
  --------------------------------------------------------
      1 C                     0.013583       0.756240
      2 O                    -0.506462       0.121663
      3 O                    -0.507121       0.122097
  --------------------------------------------------------
  Sum of atomic charges =    -1.000000
  Sum of spin   charges =     1.000000

 -----------------------------------------------------------------
                    Cartesian Multipole Moments
 -----------------------------------------------------------------
    Charge (ESU x 10^10)
                -4.8032
    Dipole Moment (Debye)
         X       4.8518      Y       4.6249      Z      -1.2977
       Tot       6.8275
    Quadrupole Moments (Debye-Ang)
        XX     -24.6060     XY      -4.8289     YY     -26.4075
        XZ      -0.2558     YZ       4.8182     ZZ     -25.2479
    Octopole Moments (Debye-Ang^2)
       XXX      60.4145    XXY      22.2690    XYY      25.2850
       YYY      63.8755    XXZ      -4.1603    XYZ      -3.7174
       YYZ     -14.9665    XZZ      23.5469    YZZ      25.0280
       ZZZ     -21.6634
    Hexadecapole Moments (Debye-Ang^3)
      XXXX    -139.3030   XXXY     -52.5024   XXYY     -53.9665
      XYYY     -58.9337   YYYY    -169.0353   XXXZ       5.3736
      XXYZ      14.9624   XYYZ      10.7044   YYYZ      52.2660
      XXZZ     -44.4650   XYZZ     -22.7059   YYZZ     -53.7549
      XZZZ      11.8261   YZZZ      44.7677   ZZZZ    -110.2834
 -----------------------------------------------------------------
 Calculating analytic gradient of the SCF energy
 Gradient of CDS energy
            1           2           3
    1  -0.0009344   0.0002129   0.0007215
    2  -0.0009004   0.0013141  -0.0004137
    3  -0.0004015  -0.0011478   0.0015493
 Gradient of SCF Energy
            1           2           3
    1  -0.0215897   0.0051295   0.0164602
    2  -0.0208648   0.0297265  -0.0088617
    3  -0.0093437  -0.0254734   0.0348171
 Max gradient component =       3.482E-02
 RMS gradient           =       2.137E-02
 Computing fast CPCM-SWIG gradient
 Updating gradient with PCM contributions...
 -- total gradient after adding PCM contribution --
---------------------------------------------------
  Atom         X              Y              Z     
---------------------------------------------------
   1       0.000034      -0.000115      -0.000072
   2      -0.000047       0.000043       0.000094
   3       0.000013       0.000072      -0.000022
---------------------------------------------------
 Number of fixed atoms: 0
 Gradient time:  CPU 8.33 s  wall 1.08 s
 ######################################################
 ######################################################
 # Starting finite difference calculation for IDERIV  #
 Finite diff step size:  1.88973e-03 a.u.
 ----------------------------------------------------------------
             Standard Nuclear Orientation (Angstroms)
    I     Atom           X                Y                Z
 ----------------------------------------------------------------
    1      C      -0.7367342278    -0.7004582887     0.3870869238
    2      O      -0.8871843324    -1.6228435279     1.1927371935
    3      O      -1.2439507399    -0.4101770833    -0.7000052174
 ----------------------------------------------------------------
 Nuclear Repulsion Energy =          56.04579173 hartrees
 There are       12 alpha and       11 beta electrons
 Discretize the solute cavity surface with Lebedev spheres
	Using 110 Lebedev grid points for each H atom
	Using 194 Lebedev grid points for other atoms
	Atomic van der Waals radii will be scaled by 1.20
 Remove points where switching function is < 1.0e-08
 Keep 392 surface tesserae and discard 190 interior tesserae
 Molecular Surface Area = 57.001 Angst**2

                       Distance Matrix (Angstroms)
             C (  1)   O (  2)
   O (  2)  1.233897
   O (  3)  1.234221  2.276031
 
 Requested basis set is 6-311++G(2df,2p)
 There are 24 shells and 102 basis functions
 A cutoff of  1.0D-12 yielded    297 shell pairs
 There are      5439 function pairs (      7191 Cartesian)
 Smallest overlap matrix eigenvalue = 1.05E-03
 Guess MOs from SCF MO coefficient file

 -----------------------------------------------------------------------
  General SCF calculation program by
  Eric Jon Sundstrom, Paul Horn, Yuezhi Mao, Dmitri Zuev, Alec White,
  David Stuck, Shaama M.S., Shane Yost, Joonho Lee, David Small,
  Daniel Levine, Susi Lehtola, Hugh Burton, Evgeny Epifanovsky,
  Bang C. Huynh
 -----------------------------------------------------------------------
 Exchange:     0.1500 Hartree-Fock + 1.0000 wB97M-V + LR-HF
 Correlation:  1.0000 wB97M-V
 Using SG-2 standard quadrature grid
 Nonlocal Correlation:  VV10 with C = 0.0100 and b = 6.00 and scale = 1.00000
 Grid used for NLC:  SG-1 standard quadrature
 
 Citation of the SMD model:
 Marenich, A.V.; Cramer, C.J.; Truhlar, D.G.
 J. Phys. Chem. B 2009, 113, 6378-6396.
 iSolventCode=           1
 Solvent: water                                                           
 
 vradii
            1           2           3
    1   1.8500000   1.5200000   1.5200000
 -------------------------------------------------------
 OpenMP BLAS3 based DFT computing Module                
 Release: version 1.0, May 2013, Q-Chem Inc. Pittsburgh 
 -------------------------------------------------------
 A unrestricted SCF calculation will be
 performed using Roothaan-Hall, DIIS, GDM
 SCF converges when RMS gradient is below 1.0e-07
 ---------------------------------------
  Cycle       Energy         DIIS error
 ---------------------------------------
    1    -188.5803447752      3.09e-04  Roothaan Step
 ---------------------------------------
  Cycle       Energy         DIIS error
 ---------------------------------------
    1    -188.6896007254      4.24e-04  
    2    -188.6907014150      5.04e-04  Done DIIS. Switching to GDM
 ---------------------------------------
  Cycle       Energy        RMS Gradient
 ---------------------------------------
    1    -188.6907014150      1.21e-02   Normal BFGS step
    2    -188.6905573794      1.62e-02  Line search: overstep
    3    -188.6915136894      4.68e-03   Normal BFGS step
    4    -188.6915647587      2.59e-03   Normal BFGS step
    5    -188.6915779108      5.85e-04   Normal BFGS step
    6    -188.6915794736      2.23e-04   Normal BFGS step
    7    -188.6915797440      6.49e-05   Normal BFGS step
    8    -188.6915797523      5.99e-05   Normal BFGS step
    9    -188.6915797670      1.14e-05   Normal BFGS step
   10    -188.6915797678      4.40e-06   Normal BFGS step
   11    -188.6915797680      1.09e-06   Normal BFGS step
   12    -188.6915797680      6.56e-07   Normal BFGS step
   13    -188.6915797680      3.26e-07   Normal BFGS step
   14    -188.6915797680      1.52e-07   Normal BFGS step
   15    -188.6915797680      4.46e-08  Convergence criterion met
 ---------------------------------------
 SCF time:   CPU 54.58s  wall 7.00s 
<S^2> =          0.752887375
(3)  G-ENP(liq) elect-nuc-pol free energy of system     -188.691579768 a.u.
(4)  G-CDS(liq) cavity-dispersion-solvent structure 
     free energy                                                5.3486 kcal/mol
(6)  G-S(liq) free energy of system                     -188.683056175 a.u.
 SCF   energy in the final basis set =     -188.6830561755
 Total energy in the final basis set =     -188.6830561755
 
 --------------------------------------------------------------
 
                    Orbital Energies (a.u.)
 --------------------------------------------------------------
 
 Alpha MOs
 -- Occupied --
-19.3143 -19.3143 -10.4334  -1.1873  -1.1135  -0.6282  -0.5565  -0.5404
 -0.5316  -0.3955  -0.3945  -0.2519
 -- Virtual --
  0.0802   0.0888   0.0962   0.1004   0.1457   0.2263   0.2304   0.2519
  0.2827   0.3037   0.3090   0.3243   0.3594   0.4730   0.5763   0.6213
  0.6290   0.7893   0.7970   0.7998   0.8817   0.9707   1.0694   1.0929
  1.1360   1.1585   1.1696   1.2012   1.3802   1.4561   1.5784   1.5802
  1.6091   1.7046   1.7121   1.8009   2.0636   2.0812   2.1842   2.3851
  2.5096   2.5398   2.8446   2.8944   2.9553   3.1035   3.1211   3.2354
  3.2661   3.2969   3.4668   3.4944   3.5555   3.6658   3.6762   3.9235
  4.1738   5.1500   5.1541   5.1651   5.1659   5.1696   5.1949   5.2287
  5.2810   5.3065   5.4335   5.4996   5.5259   5.5513   5.6569   6.0291
  6.2813   6.6082   6.8628   6.8909   6.9059   6.9617   6.9678   6.9730
  7.2605   7.2911   7.3826   7.4211   7.5652   7.7578   7.7620  25.1213
 50.6462  50.6612
 
 Beta MOs
 -- Occupied --
-19.3086 -19.3086 -10.4244  -1.1732  -1.0981  -0.6099  -0.5388  -0.5210
 -0.5043  -0.3896  -0.3716
 -- Virtual --
  0.0206   0.0878   0.0881   0.0910   0.1152   0.1630   0.2223   0.2282
  0.2492   0.2815   0.3016   0.3071   0.3243   0.3613   0.4804   0.5974
  0.6334   0.6446   0.8046   0.8140   0.8143   0.8980   0.9804   1.0757
  1.0987   1.1399   1.1744   1.1764   1.2032   1.3885   1.4774   1.5829
  1.5860   1.6130   1.7181   1.7191   1.8145   2.0694   2.1023   2.1940
  2.4128   2.5203   2.5575   2.8608   2.9362   3.0006   3.1338   3.1496
  3.2669   3.3233   3.3585   3.4802   3.5289   3.5867   3.6922   3.6923
  3.9465   4.2079   5.1602   5.1628   5.1730   5.1737   5.1772   5.2089
  5.2376   5.3016   5.3214   5.4481   5.5056   5.5385   5.5637   5.6672
  6.0562   6.2888   6.6263   6.8841   6.9061   6.9205   6.9813   6.9853
  6.9876   7.2826   7.2971   7.3936   7.4429   7.5873   7.7727   7.7839
 25.1290  50.6510  50.6661
 --------------------------------------------------------------
 
          Ground-State Mulliken Net Atomic Charges

     Atom                 Charge (a.u.)    Spin (a.u.)
  --------------------------------------------------------
      1 C                     0.014237       0.755766
      2 O                    -0.506575       0.121910
      3 O                    -0.507662       0.122324
  --------------------------------------------------------
  Sum of atomic charges =    -1.000000
  Sum of spin   charges =     1.000000

 -----------------------------------------------------------------
                    Cartesian Multipole Moments
 -----------------------------------------------------------------
    Charge (ESU x 10^10)
                -4.8032
    Dipole Moment (Debye)
         X       4.8532      Y       4.6251      Z      -1.2946
       Tot       6.8280
    Quadrupole Moments (Debye-Ang)
        XX     -24.6095     XY      -4.8294     YY     -26.4048
        XZ      -0.2581     YZ       4.8187     ZZ     -25.2464
    Octopole Moments (Debye-Ang^2)
       XXX      60.4039    XXY      22.2703    XYY      25.2768
       YYY      63.8681    XXZ      -4.1573    XYZ      -3.7171
       YYZ     -14.9634    XZZ      23.5388    YZZ      25.0283
       ZZZ     -21.6556
    Hexadecapole Moments (Debye-Ang^3)
      XXXX    -139.2594   XXXY     -52.4919   XXYY     -53.9524
      XYYY     -58.9115   YYYY    -169.0015   XXXZ       5.3621
      XXYZ      14.9622   XYYZ      10.6967   YYYZ      52.2634
      XXZZ     -44.4503   XYZZ     -22.6991   YYZZ     -53.7505
      XZZZ      11.8118   YZZZ      44.7715   ZZZZ    -110.2752
 -----------------------------------------------------------------
 Calculating analytic gradient of the SCF energy
 Gradient of CDS energy
            1           2           3
    1  -0.0009406   0.0002146   0.0007260
    2  -0.0009003   0.0013158  -0.0004155
    3  -0.0004067  -0.0011493   0.0015560
 Gradient of SCF Energy
            1           2           3
    1  -0.0213623   0.0050927   0.0162697
    2  -0.0207666   0.0295874  -0.0088208
    3  -0.0090126  -0.0254231   0.0344357
 Max gradient component =       3.444E-02
 RMS gradient           =       2.120E-02
 Computing fast CPCM-SWIG gradient
 Updating gradient with PCM contributions...
 -- total gradient after adding PCM contribution --
---------------------------------------------------
  Atom         X              Y              Z     
---------------------------------------------------
   1       0.000387       0.000060       0.000264
   2      -0.000149      -0.000144       0.000149
   3      -0.000237       0.000084      -0.000413
---------------------------------------------------
 Number of fixed atoms: 0
 Gradient time:  CPU 8.21 s  wall 1.05 s
 ----------------------------------------------------------------
             Standard Nuclear Orientation (Angstroms)
    I     Atom           X                Y                Z
 ----------------------------------------------------------------
    1      C      -0.7387342278    -0.7004582887     0.3870869238
    2      O      -0.8871843324    -1.6228435279     1.1927371935
    3      O      -1.2439507399    -0.4101770833    -0.7000052174
 ----------------------------------------------------------------
 Nuclear Repulsion Energy =          56.06352620 hartrees
 There are       12 alpha and       11 beta electrons
 Discretize the solute cavity surface with Lebedev spheres
	Using 110 Lebedev grid points for each H atom
	Using 194 Lebedev grid points for other atoms
	Atomic van der Waals radii will be scaled by 1.20
 Remove points where switching function is < 1.0e-08
 Keep 393 surface tesserae and discard 189 interior tesserae
 Molecular Surface Area = 56.991 Angst**2

                       Distance Matrix (Angstroms)
             C (  1)   O (  2)
   O (  2)  1.233655
   O (  3)  1.233400  2.276031
 
 Requested basis set is 6-311++G(2df,2p)
 There are 24 shells and 102 basis functions
 A cutoff of  1.0D-12 yielded    297 shell pairs
 There are      5439 function pairs (      7191 Cartesian)
 Smallest overlap matrix eigenvalue = 1.05E-03
 Guess MOs from SCF MO coefficient file

 -----------------------------------------------------------------------
  General SCF calculation program by
  Eric Jon Sundstrom, Paul Horn, Yuezhi Mao, Dmitri Zuev, Alec White,
  David Stuck, Shaama M.S., Shane Yost, Joonho Lee, David Small,
  Daniel Levine, Susi Lehtola, Hugh Burton, Evgeny Epifanovsky,
  Bang C. Huynh
 -----------------------------------------------------------------------
 Exchange:     0.1500 Hartree-Fock + 1.0000 wB97M-V + LR-HF
 Correlation:  1.0000 wB97M-V
 Using SG-2 standard quadrature grid
 Nonlocal Correlation:  VV10 with C = 0.0100 and b = 6.00 and scale = 1.00000
 Grid used for NLC:  SG-1 standard quadrature
 
 Citation of the SMD model:
 Marenich, A.V.; Cramer, C.J.; Truhlar, D.G.
 J. Phys. Chem. B 2009, 113, 6378-6396.
 iSolventCode=           1
 Solvent: water                                                           
 
 vradii
            1           2           3
    1   1.8500000   1.5200000   1.5200000
 -------------------------------------------------------
 OpenMP BLAS3 based DFT computing Module                
 Release: version 1.0, May 2013, Q-Chem Inc. Pittsburgh 
 -------------------------------------------------------
 A unrestricted SCF calculation will be
 performed using Roothaan-Hall, DIIS, GDM
 SCF converges when RMS gradient is below 1.0e-07
 ---------------------------------------
  Cycle       Energy         DIIS error
 ---------------------------------------
    1    -188.5803373994      3.11e-04  Roothaan Step
 ---------------------------------------
  Cycle       Energy         DIIS error
 ---------------------------------------
    1    -188.6896241669      4.21e-04  
    2    -188.6907190703      5.01e-04  Done DIIS. Switching to GDM
 ---------------------------------------
  Cycle       Energy        RMS Gradient
 ---------------------------------------
    1    -188.6907190703      1.20e-02   Normal BFGS step
    2    -188.6905777148      1.61e-02  Line search: overstep
    3    -188.6915189054      4.62e-03   Normal BFGS step
    4    -188.6915688297      2.56e-03   Normal BFGS step
    5    -188.6915815896      5.80e-04   Normal BFGS step
    6    -188.6915831341      2.23e-04   Normal BFGS step
    7    -188.6915834012      6.56e-05   Normal BFGS step
    8    -188.6915834079      7.12e-05   Normal BFGS step
    9    -188.6915834282      1.42e-05   Normal BFGS step
   10    -188.6915834293      5.68e-06   Normal BFGS step
   11    -188.6915834295      2.20e-06   Normal BFGS step
   12    -188.6915834295      1.27e-06   Normal BFGS step
   13    -188.6915834295      4.97e-07   Normal BFGS step
   14    -188.6915834295      1.76e-07   Normal BFGS step
   15    -188.6915834295      6.44e-08  Convergence criterion met
 ---------------------------------------
 SCF time:   CPU 54.65s  wall 7.00s 
<S^2> =          0.752879937
(3)  G-ENP(liq) elect-nuc-pol free energy of system     -188.691583430 a.u.
(4)  G-CDS(liq) cavity-dispersion-solvent structure 
     free energy                                                5.3509 kcal/mol
(6)  G-S(liq) free energy of system                     -188.683056306 a.u.
 SCF   energy in the final basis set =     -188.6830563055
 Total energy in the final basis set =     -188.6830563055
 
 --------------------------------------------------------------
 
                    Orbital Energies (a.u.)
 --------------------------------------------------------------
 
 Alpha MOs
 -- Occupied --
-19.3143 -19.3143 -10.4332  -1.1875  -1.1138  -0.6282  -0.5567  -0.5406
 -0.5318  -0.3956  -0.3946  -0.2514
 -- Virtual --
  0.0803   0.0888   0.0963   0.1004   0.1460   0.2264   0.2304   0.2519
  0.2828   0.3038   0.3090   0.3242   0.3594   0.4732   0.5772   0.6214
  0.6291   0.7899   0.7967   0.7995   0.8813   0.9711   1.0694   1.0930
  1.1359   1.1585   1.1698   1.2013   1.3802   1.4577   1.5789   1.5799
  1.6089   1.7051   1.7114   1.8014   2.0639   2.0825   2.1852   2.3851
  2.5104   2.5408   2.8447   2.8943   2.9550   3.1024   3.1214   3.2351
  3.2660   3.2968   3.4669   3.4934   3.5565   3.6651   3.6775   3.9245
  4.1767   5.1500   5.1540   5.1652   5.1659   5.1695   5.1949   5.2288
  5.2814   5.3066   5.4353   5.4993   5.5275   5.5512   5.6583   6.0321
  6.2828   6.6126   6.8635   6.8909   6.9098   6.9618   6.9681   6.9728
  7.2612   7.2907   7.3834   7.4213   7.5649   7.7585   7.7656  25.1232
 50.6466  50.6633
 
 Beta MOs
 -- Occupied --
-19.3086 -19.3086 -10.4242  -1.1735  -1.0984  -0.6099  -0.5389  -0.5212
 -0.5044  -0.3897  -0.3717
 -- Virtual --
  0.0208   0.0878   0.0882   0.0910   0.1154   0.1632   0.2224   0.2282
  0.2492   0.2816   0.3017   0.3070   0.3242   0.3613   0.4806   0.5982
  0.6334   0.6447   0.8052   0.8137   0.8141   0.8976   0.9808   1.0757
  1.0988   1.1398   1.1744   1.1766   1.2032   1.3885   1.4788   1.5834
  1.5857   1.6128   1.7184   1.7186   1.8149   2.0697   2.1036   2.1949
  2.4127   2.5211   2.5586   2.8610   2.9360   3.0003   3.1341   3.1485
  3.2666   3.3230   3.3582   3.4801   3.5280   3.5877   3.6914   3.6936
  3.9475   4.2108   5.1601   5.1627   5.1730   5.1738   5.1773   5.2088
  5.2377   5.3020   5.3215   5.4499   5.5053   5.5401   5.5636   5.6686
  6.0592   6.2903   6.6307   6.8847   6.9061   6.9245   6.9814   6.9851
  6.9879   7.2833   7.2967   7.3944   7.4428   7.5869   7.7733   7.7876
 25.1308  50.6515  50.6682
 --------------------------------------------------------------
 
          Ground-State Mulliken Net Atomic Charges

     Atom                 Charge (a.u.)    Spin (a.u.)
  --------------------------------------------------------
      1 C                     0.012926       0.756714
      2 O                    -0.506348       0.121417
      3 O                    -0.506579       0.121869
  --------------------------------------------------------
  Sum of atomic charges =    -1.000000
  Sum of spin   charges =     1.000000

 -----------------------------------------------------------------
                    Cartesian Multipole Moments
 -----------------------------------------------------------------
    Charge (ESU x 10^10)
                -4.8032
    Dipole Moment (Debye)
         X       4.8505      Y       4.6247      Z      -1.3007
       Tot       6.8269
    Quadrupole Moments (Debye-Ang)
        XX     -24.6026     XY      -4.8283     YY     -26.4103
        XZ      -0.2534     YZ       4.8177     ZZ     -25.2494
    Octopole Moments (Debye-Ang^2)
       XXX      60.4251    XXY      22.2676    XYY      25.2931
       YYY      63.8829    XXZ      -4.1633    XYZ      -3.7178
       YYZ     -14.9697    XZZ      23.5551    YZZ      25.0277
       ZZZ     -21.6713
    Hexadecapole Moments (Debye-Ang^3)
      XXXX    -139.3466   XXXY     -52.5128   XXYY     -53.9807
      XYYY     -58.9560   YYYY    -169.0691   XXXZ       5.3852
      XXYZ      14.9625   XYYZ      10.7121   YYYZ      52.2687
      XXZZ     -44.4797   XYZZ     -22.7128   YYZZ     -53.7593
      XZZZ      11.8403   YZZZ      44.7638   ZZZZ    -110.2918
 -----------------------------------------------------------------
 Calculating analytic gradient of the SCF energy
 Gradient of CDS energy
            1           2           3
    1  -0.0009282   0.0002112   0.0007170
    2  -0.0009005   0.0013125  -0.0004119
    3  -0.0003964  -0.0011464   0.0015427
 Gradient of SCF Energy
            1           2           3
    1  -0.0218157   0.0051656   0.0166501
    2  -0.0209622   0.0298649  -0.0089027
    3  -0.0096762  -0.0255230   0.0351993
 Max gradient component =       3.520E-02
 RMS gradient           =       2.154E-02
 Computing fast CPCM-SWIG gradient
 Updating gradient with PCM contributions...
 -- total gradient after adding PCM contribution --
---------------------------------------------------
  Atom         X              Y              Z     
---------------------------------------------------
   1      -0.000317      -0.000288      -0.000409
   2       0.000054       0.000229       0.000039
   3       0.000263       0.000060       0.000370
---------------------------------------------------
 Number of fixed atoms: 0
 Gradient time:  CPU 8.41 s  wall 1.17 s
 ----------------------------------------------------------------
             Standard Nuclear Orientation (Angstroms)
    I     Atom           X                Y                Z
 ----------------------------------------------------------------
    1      C      -0.7377342278    -0.6994582887     0.3870869238
    2      O      -0.8871843324    -1.6228435279     1.1927371935
    3      O      -1.2439507399    -0.4101770833    -0.7000052174
 ----------------------------------------------------------------
 Nuclear Repulsion Energy =          56.04611824 hartrees
 There are       12 alpha and       11 beta electrons
 Discretize the solute cavity surface with Lebedev spheres
	Using 110 Lebedev grid points for each H atom
	Using 194 Lebedev grid points for other atoms
	Atomic van der Waals radii will be scaled by 1.20
 Remove points where switching function is < 1.0e-08
 Keep 393 surface tesserae and discard 189 interior tesserae
 Molecular Surface Area = 57.002 Angst**2

                       Distance Matrix (Angstroms)
             C (  1)   O (  2)
   O (  2)  1.234523
   O (  3)  1.233575  2.276031
 
 Requested basis set is 6-311++G(2df,2p)
 There are 24 shells and 102 basis functions
 A cutoff of  1.0D-12 yielded    297 shell pairs
 There are      5439 function pairs (      7191 Cartesian)
 Smallest overlap matrix eigenvalue = 1.05E-03
 Guess MOs from SCF MO coefficient file

 -----------------------------------------------------------------------
  General SCF calculation program by
  Eric Jon Sundstrom, Paul Horn, Yuezhi Mao, Dmitri Zuev, Alec White,
  David Stuck, Shaama M.S., Shane Yost, Joonho Lee, David Small,
  Daniel Levine, Susi Lehtola, Hugh Burton, Evgeny Epifanovsky,
  Bang C. Huynh
 -----------------------------------------------------------------------
 Exchange:     0.1500 Hartree-Fock + 1.0000 wB97M-V + LR-HF
 Correlation:  1.0000 wB97M-V
 Using SG-2 standard quadrature grid
 Nonlocal Correlation:  VV10 with C = 0.0100 and b = 6.00 and scale = 1.00000
 Grid used for NLC:  SG-1 standard quadrature
 
 Citation of the SMD model:
 Marenich, A.V.; Cramer, C.J.; Truhlar, D.G.
 J. Phys. Chem. B 2009, 113, 6378-6396.
 iSolventCode=           1
 Solvent: water                                                           
 
 vradii
            1           2           3
    1   1.8500000   1.5200000   1.5200000
 -------------------------------------------------------
 OpenMP BLAS3 based DFT computing Module                
 Release: version 1.0, May 2013, Q-Chem Inc. Pittsburgh 
 -------------------------------------------------------
 A unrestricted SCF calculation will be
 performed using Roothaan-Hall, DIIS, GDM
 SCF converges when RMS gradient is below 1.0e-07
 ---------------------------------------
  Cycle       Energy         DIIS error
 ---------------------------------------
    1    -188.5803552168      3.09e-04  Roothaan Step
 ---------------------------------------
  Cycle       Energy         DIIS error
 ---------------------------------------
    1    -188.6895943258      4.24e-04  
    2    -188.6906984611      5.05e-04  Done DIIS. Switching to GDM
 ---------------------------------------
  Cycle       Energy        RMS Gradient
 ---------------------------------------
    1    -188.6906984611      1.21e-02   Normal BFGS step
    2    -188.6905548271      1.62e-02  Line search: overstep
    3    -188.6915130830      4.71e-03   Normal BFGS step
    4    -188.6915645779      2.61e-03   Normal BFGS step
    5    -188.6915778734      5.86e-04   Normal BFGS step
    6    -188.6915794415      2.24e-04   Normal BFGS step
    7    -188.6915796778      1.20e-04   Normal BFGS step
    8    -188.6915797216      6.77e-05   Normal BFGS step
    9    -188.6915797459      1.71e-05   Normal BFGS step
   10    -188.6915797472      8.30e-06   Normal BFGS step
   11    -188.6915797475      1.13e-06   Normal BFGS step
   12    -188.6915797475      5.08e-07   Normal BFGS step
   13    -188.6915797475      1.00e-07   Normal BFGS step
   14    -188.6915797475      6.24e-08  Convergence criterion met
 ---------------------------------------
 SCF time:   CPU 51.65s  wall 7.00s 
<S^2> =          0.752887227
(3)  G-ENP(liq) elect-nuc-pol free energy of system     -188.691579748 a.u.
(4)  G-CDS(liq) cavity-dispersion-solvent structure 
     free energy                                                5.3487 kcal/mol
(6)  G-S(liq) free energy of system                     -188.683056098 a.u.
 SCF   energy in the final basis set =     -188.6830560983
 Total energy in the final basis set =     -188.6830560983
 
 --------------------------------------------------------------
 
                    Orbital Energies (a.u.)
 --------------------------------------------------------------
 
 Alpha MOs
 -- Occupied --
-19.3144 -19.3142 -10.4334  -1.1873  -1.1135  -0.6282  -0.5565  -0.5404
 -0.5316  -0.3955  -0.3945  -0.2519
 -- Virtual --
  0.0802   0.0888   0.0962   0.1004   0.1457   0.2263   0.2304   0.2519
  0.2827   0.3037   0.3090   0.3243   0.3594   0.4730   0.5763   0.6213
  0.6290   0.7893   0.7970   0.7998   0.8817   0.9707   1.0694   1.0929
  1.1360   1.1585   1.1696   1.2012   1.3802   1.4561   1.5784   1.5802
  1.6091   1.7046   1.7121   1.8009   2.0637   2.0812   2.1842   2.3851
  2.5096   2.5398   2.8446   2.8944   2.9553   3.1035   3.1212   3.2354
  3.2661   3.2969   3.4668   3.4943   3.5555   3.6658   3.6762   3.9235
  4.1739   5.1500   5.1541   5.1651   5.1659   5.1695   5.1949   5.2287
  5.2810   5.3065   5.4335   5.4996   5.5259   5.5513   5.6570   6.0291
  6.2813   6.6083   6.8629   6.8909   6.9060   6.9617   6.9678   6.9730
  7.2605   7.2911   7.3826   7.4211   7.5652   7.7578   7.7621  25.1214
 50.6462  50.6612
 
 Beta MOs
 -- Occupied --
-19.3087 -19.3085 -10.4244  -1.1732  -1.0981  -0.6099  -0.5388  -0.5210
 -0.5043  -0.3896  -0.3716
 -- Virtual --
  0.0206   0.0878   0.0881   0.0910   0.1152   0.1630   0.2223   0.2282
  0.2492   0.2816   0.3016   0.3071   0.3243   0.3613   0.4804   0.5974
  0.6334   0.6446   0.8046   0.8140   0.8143   0.8980   0.9804   1.0757
  1.0987   1.1399   1.1744   1.1764   1.2032   1.3885   1.4774   1.5829
  1.5860   1.6130   1.7181   1.7191   1.8145   2.0694   2.1023   2.1940
  2.4128   2.5203   2.5576   2.8608   2.9362   3.0006   3.1338   3.1496
  3.2669   3.3233   3.3585   3.4802   3.5289   3.5867   3.6922   3.6923
  3.9465   4.2079   5.1602   5.1628   5.1730   5.1737   5.1772   5.2089
  5.2376   5.3016   5.3214   5.4481   5.5056   5.5385   5.5637   5.6673
  6.0563   6.2888   6.6264   6.8841   6.9061   6.9206   6.9813   6.9853
  6.9876   7.2827   7.2971   7.3937   7.4429   7.5873   7.7727   7.7840
 25.1290  50.6510  50.6661
 --------------------------------------------------------------
 
          Ground-State Mulliken Net Atomic Charges

     Atom                 Charge (a.u.)    Spin (a.u.)
  --------------------------------------------------------
      1 C                     0.014214       0.755781
      2 O                    -0.507502       0.121861
      3 O                    -0.506712       0.122358
  --------------------------------------------------------
  Sum of atomic charges =    -1.000000
  Sum of spin   charges =     1.000000

 -----------------------------------------------------------------
                    Cartesian Multipole Moments
 -----------------------------------------------------------------
    Charge (ESU x 10^10)
                -4.8032
    Dipole Moment (Debye)
         X       4.8520      Y       4.6308      Z      -1.3048
       Tot       6.8329
    Quadrupole Moments (Debye-Ang)
        XX     -24.6023     XY      -4.8334     YY     -26.4189
        XZ      -0.2490     YZ       4.8274     ZZ     -25.2536
    Octopole Moments (Debye-Ang^2)
       XXX      60.4061    XXY      22.2683    XYY      25.2925
       YYY      63.8860    XXZ      -4.1721    XYZ      -3.7249
       YYZ     -14.9830    XZZ      23.5506    YZZ      25.0338
       ZZZ     -21.6898
    Hexadecapole Moments (Debye-Ang^3)
      XXXX    -139.2650   XXXY     -52.4962   XXYY     -53.9653
      XYYY     -58.9385   YYYY    -169.0460   XXXZ       5.3969
      XXYZ      14.9742   XYYZ      10.7161   YYYZ      52.2926
      XXZZ     -44.4665   XYZZ     -22.7084   YYZZ     -53.7664
      XZZZ      11.8492   YZZZ      44.7965   ZZZZ    -110.3177
 -----------------------------------------------------------------
 Calculating analytic gradient of the SCF energy
 Gradient of CDS energy
            1           2           3
    1  -0.0009343   0.0002146   0.0007197
    2  -0.0009146   0.0013259  -0.0004113
    3  -0.0003887  -0.0011568   0.0015455
 Gradient of SCF Energy
            1           2           3
    1  -0.0214925   0.0049841   0.0165084
    2  -0.0202096   0.0291481  -0.0089385
    3  -0.0100024  -0.0250099   0.0350124
 Max gradient component =       3.501E-02
 RMS gradient           =       2.121E-02
 Computing fast CPCM-SWIG gradient
 Updating gradient with PCM contributions...
 -- total gradient after adding PCM contribution --
---------------------------------------------------
  Atom         X              Y              Z     
---------------------------------------------------
   1       0.000208       0.000616      -0.000626
   2      -0.000216      -0.000566       0.000520
   3       0.000008      -0.000050       0.000107
---------------------------------------------------
 Number of fixed atoms: 0
 Gradient time:  CPU 8.29 s  wall 1.06 s
 ----------------------------------------------------------------
             Standard Nuclear Orientation (Angstroms)
    I     Atom           X                Y                Z
 ----------------------------------------------------------------
    1      C      -0.7377342278    -0.7014582887     0.3870869238
    2      O      -0.8871843324    -1.6228435279     1.1927371935
    3      O      -1.2439507399    -0.4101770833    -0.7000052174
 ----------------------------------------------------------------
 Nuclear Repulsion Energy =          56.06321719 hartrees
 There are       12 alpha and       11 beta electrons
 Discretize the solute cavity surface with Lebedev spheres
	Using 110 Lebedev grid points for each H atom
	Using 194 Lebedev grid points for other atoms
	Atomic van der Waals radii will be scaled by 1.20
 Remove points where switching function is < 1.0e-08
 Keep 392 surface tesserae and discard 190 interior tesserae
 Molecular Surface Area = 56.990 Angst**2

                       Distance Matrix (Angstroms)
             C (  1)   O (  2)
   O (  2)  1.233028
   O (  3)  1.234046  2.276031
 
 Requested basis set is 6-311++G(2df,2p)
 There are 24 shells and 102 basis functions
 A cutoff of  1.0D-12 yielded    297 shell pairs
 There are      5439 function pairs (      7191 Cartesian)
 Smallest overlap matrix eigenvalue = 1.05E-03
 Guess MOs from SCF MO coefficient file

 -----------------------------------------------------------------------
  General SCF calculation program by
  Eric Jon Sundstrom, Paul Horn, Yuezhi Mao, Dmitri Zuev, Alec White,
  David Stuck, Shaama M.S., Shane Yost, Joonho Lee, David Small,
  Daniel Levine, Susi Lehtola, Hugh Burton, Evgeny Epifanovsky,
  Bang C. Huynh
 -----------------------------------------------------------------------
 Exchange:     0.1500 Hartree-Fock + 1.0000 wB97M-V + LR-HF
 Correlation:  1.0000 wB97M-V
 Using SG-2 standard quadrature grid
 Nonlocal Correlation:  VV10 with C = 0.0100 and b = 6.00 and scale = 1.00000
 Grid used for NLC:  SG-1 standard quadrature
 
 Citation of the SMD model:
 Marenich, A.V.; Cramer, C.J.; Truhlar, D.G.
 J. Phys. Chem. B 2009, 113, 6378-6396.
 iSolventCode=           1
 Solvent: water                                                           
 
 vradii
            1           2           3
    1   1.8500000   1.5200000   1.5200000
 -------------------------------------------------------
 OpenMP BLAS3 based DFT computing Module                
 Release: version 1.0, May 2013, Q-Chem Inc. Pittsburgh 
 -------------------------------------------------------
 A unrestricted SCF calculation will be
 performed using Roothaan-Hall, DIIS, GDM
 SCF converges when RMS gradient is below 1.0e-07
 ---------------------------------------
  Cycle       Energy         DIIS error
 ---------------------------------------
    1    -188.5803363926      3.11e-04  Roothaan Step
 ---------------------------------------
  Cycle       Energy         DIIS error
 ---------------------------------------
    1    -188.6896228992      4.21e-04  
    2    -188.6907179110      5.01e-04  Done DIIS. Switching to GDM
 ---------------------------------------
  Cycle       Energy        RMS Gradient
 ---------------------------------------
    1    -188.6907179110      1.20e-02   Normal BFGS step
    2    -188.6905763027      1.61e-02  Line search: overstep
    3    -188.6915181690      4.62e-03   Normal BFGS step
    4    -188.6915681117      2.56e-03   Normal BFGS step
    5    -188.6915808615      5.78e-04   Normal BFGS step
    6    -188.6915823987      2.23e-04   Normal BFGS step
    7    -188.6915826074      1.53e-04   Normal BFGS step
    8    -188.6915826998      4.45e-05   Normal BFGS step
    9    -188.6915827142      1.65e-05   Normal BFGS step
   10    -188.6915827155      7.89e-06   Normal BFGS step
   11    -188.6915827158      1.65e-06   Normal BFGS step
   12    -188.6915827159      1.03e-06   Normal BFGS step
   13    -188.6915827159      4.19e-07   Normal BFGS step
   14    -188.6915827159      1.87e-07   Normal BFGS step
   15    -188.6915827159      5.59e-08  Convergence criterion met
 ---------------------------------------
 SCF time:   CPU 53.55s  wall 8.00s 
<S^2> =          0.752880084
(3)  G-ENP(liq) elect-nuc-pol free energy of system     -188.691582716 a.u.
(4)  G-CDS(liq) cavity-dispersion-solvent structure 
     free energy                                                5.3508 kcal/mol
(6)  G-S(liq) free energy of system                     -188.683055664 a.u.
 SCF   energy in the final basis set =     -188.6830556635
 Total energy in the final basis set =     -188.6830556635
 
 --------------------------------------------------------------
 
                    Orbital Energies (a.u.)
 --------------------------------------------------------------
 
 Alpha MOs
 -- Occupied --
-19.3144 -19.3142 -10.4332  -1.1875  -1.1138  -0.6282  -0.5566  -0.5406
 -0.5318  -0.3956  -0.3946  -0.2514
 -- Virtual --
  0.0803   0.0888   0.0963   0.1004   0.1460   0.2264   0.2304   0.2519
  0.2828   0.3038   0.3090   0.3242   0.3594   0.4731   0.5771   0.6214
  0.6291   0.7898   0.7967   0.7995   0.8813   0.9711   1.0694   1.0930
  1.1360   1.1585   1.1698   1.2013   1.3802   1.4576   1.5789   1.5799
  1.6089   1.7051   1.7114   1.8014   2.0639   2.0824   2.1851   2.3851
  2.5104   2.5408   2.8447   2.8943   2.9550   3.1024   3.1214   3.2351
  3.2660   3.2968   3.4669   3.4935   3.5565   3.6652   3.6775   3.9245
  4.1766   5.1500   5.1540   5.1652   5.1659   5.1695   5.1949   5.2288
  5.2814   5.3066   5.4352   5.4993   5.5275   5.5512   5.6583   6.0320
  6.2828   6.6125   6.8635   6.8909   6.9098   6.9618   6.9681   6.9728
  7.2612   7.2907   7.3834   7.4213   7.5649   7.7585   7.7656  25.1231
 50.6466  50.6633
 
 Beta MOs
 -- Occupied --
-19.3087 -19.3085 -10.4242  -1.1735  -1.0984  -0.6099  -0.5389  -0.5212
 -0.5044  -0.3897  -0.3717
 -- Virtual --
  0.0208   0.0878   0.0882   0.0910   0.1154   0.1632   0.2224   0.2282
  0.2492   0.2816   0.3017   0.3070   0.3242   0.3613   0.4806   0.5982
  0.6334   0.6447   0.8052   0.8137   0.8141   0.8976   0.9808   1.0757
  1.0988   1.1398   1.1744   1.1766   1.2032   1.3885   1.4788   1.5834
  1.5857   1.6128   1.7184   1.7186   1.8149   2.0697   2.1035   2.1949
  2.4127   2.5211   2.5586   2.8610   2.9360   3.0003   3.1341   3.1486
  3.2666   3.3230   3.3582   3.4801   3.5280   3.5877   3.6914   3.6936
  3.9474   4.2107   5.1601   5.1627   5.1730   5.1738   5.1773   5.2088
  5.2377   5.3020   5.3215   5.4498   5.5053   5.5401   5.5636   5.6686
  6.0592   6.2903   6.6306   6.8847   6.9061   6.9244   6.9814   6.9851
  6.9879   7.2833   7.2967   7.3944   7.4428   7.5870   7.7733   7.7876
 25.1308  50.6514  50.6682
 --------------------------------------------------------------
 
          Ground-State Mulliken Net Atomic Charges

     Atom                 Charge (a.u.)    Spin (a.u.)
  --------------------------------------------------------
      1 C                     0.012949       0.756698
      2 O                    -0.505420       0.121467
      3 O                    -0.507529       0.121835
  --------------------------------------------------------
  Sum of atomic charges =    -1.000000
  Sum of spin   charges =     1.000000

 -----------------------------------------------------------------
                    Cartesian Multipole Moments
 -----------------------------------------------------------------
    Charge (ESU x 10^10)
                -4.8032
    Dipole Moment (Debye)
         X       4.8516      Y       4.6191      Z      -1.2905
       Tot       6.8220
    Quadrupole Moments (Debye-Ang)
        XX     -24.6098     XY      -4.8243     YY     -26.3961
        XZ      -0.2625     YZ       4.8090     ZZ     -25.2422
    Octopole Moments (Debye-Ang^2)
       XXX      60.4229    XXY      22.2696    XYY      25.2774
       YYY      63.8651    XXZ      -4.1484    XYZ      -3.7100
       YYZ     -14.9500    XZZ      23.5433    YZZ      25.0222
       ZZZ     -21.6370
    Hexadecapole Moments (Debye-Ang^3)
      XXXX    -139.3410   XXXY     -52.5086   XXYY     -53.9677
      XYYY     -58.9289   YYYY    -169.0246   XXXZ       5.3503
      XXYZ      14.9505   XYYZ      10.6927   YYYZ      52.2394
      XXZZ     -44.4635   XYZZ     -22.7035   YYZZ     -53.7433
      XZZZ      11.8029   YZZZ      44.7388   ZZZZ    -110.2493
 -----------------------------------------------------------------
 Calculating analytic gradient of the SCF energy
 Gradient of CDS energy
            1           2           3
    1  -0.0009345   0.0002113   0.0007232
    2  -0.0008863   0.0013025  -0.0004162
    3  -0.0004143  -0.0011389   0.0015532
 Gradient of SCF Energy
            1           2           3
    1  -0.0216873   0.0052756   0.0164117
    2  -0.0215226   0.0303073  -0.0087847
    3  -0.0086813  -0.0259401   0.0346214
 Max gradient component =       3.462E-02
 RMS gradient           =       2.153E-02
 Computing fast CPCM-SWIG gradient
 Updating gradient with PCM contributions...
 -- total gradient after adding PCM contribution --
---------------------------------------------------
  Atom         X              Y              Z     
---------------------------------------------------
   1      -0.000140      -0.000848       0.000487
   2       0.000122       0.000654      -0.000335
   3       0.000019       0.000194      -0.000151
---------------------------------------------------
 Number of fixed atoms: 0
 Gradient time:  CPU 8.13 s  wall 1.04 s
 ----------------------------------------------------------------
             Standard Nuclear Orientation (Angstroms)
    I     Atom           X                Y                Z
 ----------------------------------------------------------------
    1      C      -0.7377342278    -0.7004582887     0.3880869238
    2      O      -0.8871843324    -1.6228435279     1.1927371935
    3      O      -1.2439507399    -0.4101770833    -0.7000052174
 ----------------------------------------------------------------
 Nuclear Repulsion Energy =          56.05087441 hartrees
 There are       12 alpha and       11 beta electrons
 Discretize the solute cavity surface with Lebedev spheres
	Using 110 Lebedev grid points for each H atom
	Using 194 Lebedev grid points for other atoms
	Atomic van der Waals radii will be scaled by 1.20
 Remove points where switching function is < 1.0e-08
 Keep 393 surface tesserae and discard 189 interior tesserae
 Molecular Surface Area = 56.999 Angst**2

                       Distance Matrix (Angstroms)
             C (  1)   O (  2)
   O (  2)  1.233123
   O (  3)  1.234691  2.276031
 
 Requested basis set is 6-311++G(2df,2p)
 There are 24 shells and 102 basis functions
 A cutoff of  1.0D-12 yielded    297 shell pairs
 There are      5439 function pairs (      7191 Cartesian)
 Smallest overlap matrix eigenvalue = 1.05E-03
 Guess MOs from SCF MO coefficient file

 -----------------------------------------------------------------------
  General SCF calculation program by
  Eric Jon Sundstrom, Paul Horn, Yuezhi Mao, Dmitri Zuev, Alec White,
  David Stuck, Shaama M.S., Shane Yost, Joonho Lee, David Small,
  Daniel Levine, Susi Lehtola, Hugh Burton, Evgeny Epifanovsky,
  Bang C. Huynh
 -----------------------------------------------------------------------
 Exchange:     0.1500 Hartree-Fock + 1.0000 wB97M-V + LR-HF
 Correlation:  1.0000 wB97M-V
 Using SG-2 standard quadrature grid
 Nonlocal Correlation:  VV10 with C = 0.0100 and b = 6.00 and scale = 1.00000
 Grid used for NLC:  SG-1 standard quadrature
 
 Citation of the SMD model:
 Marenich, A.V.; Cramer, C.J.; Truhlar, D.G.
 J. Phys. Chem. B 2009, 113, 6378-6396.
 iSolventCode=           1
 Solvent: water                                                           
 
 vradii
            1           2           3
    1   1.8500000   1.5200000   1.5200000
 -------------------------------------------------------
 OpenMP BLAS3 based DFT computing Module                
 Release: version 1.0, May 2013, Q-Chem Inc. Pittsburgh 
 -------------------------------------------------------
 A unrestricted SCF calculation will be
 performed using Roothaan-Hall, DIIS, GDM
 SCF converges when RMS gradient is below 1.0e-07
 ---------------------------------------
  Cycle       Energy         DIIS error
 ---------------------------------------
    1    -188.5803560136      3.09e-04  Roothaan Step
 ---------------------------------------
  Cycle       Energy         DIIS error
 ---------------------------------------
    1    -188.6895985212      4.24e-04  
    2    -188.6907018678      5.04e-04  Done DIIS. Switching to GDM
 ---------------------------------------
  Cycle       Energy        RMS Gradient
 ---------------------------------------
    1    -188.6907018678      1.21e-02   Normal BFGS step
    2    -188.6905589724      1.62e-02  Line search: overstep
    3    -188.6915138130      4.70e-03   Normal BFGS step
    4    -188.6915651124      2.60e-03   Normal BFGS step
    5    -188.6915783425      5.84e-04   Normal BFGS step
    6    -188.6915799071      2.25e-04   Normal BFGS step
    7    -188.6915801214      1.50e-04   Normal BFGS step
    8    -188.6915802072      4.77e-05   Normal BFGS step
    9    -188.6915802232      1.68e-05   Normal BFGS step
   10    -188.6915802246      8.04e-06   Normal BFGS step
   11    -188.6915802249      1.55e-06   Normal BFGS step
   12    -188.6915802249      9.70e-07   Normal BFGS step
   13    -188.6915802249      4.07e-07   Normal BFGS step
   14    -188.6915802249      1.88e-07   Normal BFGS step
   15    -188.6915802249      5.55e-08  Convergence criterion met
 ---------------------------------------
 SCF time:   CPU 54.23s  wall 7.00s 
<S^2> =          0.752885246
(3)  G-ENP(liq) elect-nuc-pol free energy of system     -188.691580225 a.u.
(4)  G-CDS(liq) cavity-dispersion-solvent structure 
     free energy                                                5.3493 kcal/mol
(6)  G-S(liq) free energy of system                     -188.683055643 a.u.
 SCF   energy in the final basis set =     -188.6830556432
 Total energy in the final basis set =     -188.6830556432
 
 --------------------------------------------------------------
 
                    Orbital Energies (a.u.)
 --------------------------------------------------------------
 
 Alpha MOs
 -- Occupied --
-19.3144 -19.3142 -10.4333  -1.1873  -1.1136  -0.6282  -0.5566  -0.5405
 -0.5317  -0.3955  -0.3945  -0.2518
 -- Virtual --
  0.0802   0.0888   0.0963   0.1004   0.1458   0.2263   0.2304   0.2519
  0.2828   0.3038   0.3090   0.3243   0.3594   0.4730   0.5766   0.6213
  0.6291   0.7894   0.7969   0.7997   0.8816   0.9709   1.0694   1.0930
  1.1360   1.1585   1.1697   1.2013   1.3802   1.4566   1.5785   1.5801
  1.6090   1.7047   1.7119   1.8011   2.0637   2.0816   2.1844   2.3851
  2.5098   2.5401   2.8446   2.8943   2.9552   3.1032   3.1212   3.2353
  3.2661   3.2969   3.4669   3.4941   3.5558   3.6656   3.6766   3.9238
  4.1746   5.1500   5.1541   5.1651   5.1659   5.1695   5.1949   5.2287
  5.2811   5.3066   5.4340   5.4995   5.5263   5.5513   5.6573   6.0299
  6.2817   6.6094   6.8630   6.8909   6.9071   6.9617   6.9679   6.9730
  7.2607   7.2910   7.3828   7.4212   7.5651   7.7580   7.7631  25.1219
 50.6463  50.6618
 
 Beta MOs
 -- Occupied --
-19.3087 -19.3084 -10.4243  -1.1733  -1.0982  -0.6099  -0.5388  -0.5211
 -0.5043  -0.3896  -0.3716
 -- Virtual --
  0.0207   0.0878   0.0881   0.0910   0.1153   0.1631   0.2223   0.2282
  0.2492   0.2816   0.3016   0.3070   0.3243   0.3613   0.4804   0.5976
  0.6334   0.6446   0.8047   0.8139   0.8143   0.8979   0.9806   1.0757
  1.0987   1.1399   1.1744   1.1765   1.2032   1.3885   1.4778   1.5830
  1.5859   1.6129   1.7182   1.7189   1.8146   2.0695   2.1027   2.1942
  2.4128   2.5205   2.5579   2.8609   2.9362   3.0005   3.1339   3.1493
  3.2668   3.3232   3.3584   3.4802   3.5286   3.5869   3.6920   3.6927
  3.9468   4.2087   5.1602   5.1628   5.1730   5.1737   5.1772   5.2088
  5.2376   5.3017   5.3214   5.4486   5.5056   5.5389   5.5637   5.6676
  6.0571   6.2892   6.6276   6.8843   6.9061   6.9217   6.9814   6.9853
  6.9877   7.2828   7.2970   7.3939   7.4428   7.5872   7.7729   7.7850
 25.1295  50.6511  50.6667
 --------------------------------------------------------------
 
          Ground-State Mulliken Net Atomic Charges

     Atom                 Charge (a.u.)    Spin (a.u.)
  --------------------------------------------------------
      1 C                     0.013866       0.756034
      2 O                    -0.505475       0.121817
      3 O                    -0.508391       0.122149
  --------------------------------------------------------
  Sum of atomic charges =    -1.000000
  Sum of spin   charges =     1.000000

 -----------------------------------------------------------------
                    Cartesian Multipole Moments
 -----------------------------------------------------------------
    Charge (ESU x 10^10)
                -4.8032
    Dipole Moment (Debye)
         X       4.8549      Y       4.6178      Z      -1.2859
       Tot       6.8226
    Quadrupole Moments (Debye-Ang)
        XX     -24.6092     XY      -4.8240     YY     -26.3951
        XZ      -0.2667     YZ       4.8051     ZZ     -25.2422
    Octopole Moments (Debye-Ang^2)
       XXX      60.4249    XXY      22.2580    XYY      25.2776
       YYY      63.8387    XXZ      -4.1459    XYZ      -3.7059
       YYZ     -14.9471    XZZ      23.5430    YZZ      25.0130
       ZZZ     -21.6474
    Hexadecapole Moments (Debye-Ang^3)
      XXXX    -139.3215   XXXY     -52.4838   XXYY     -53.9480
      XYYY     -58.9057   YYYY    -168.9393   XXXZ       5.3487
      XXYZ      14.9447   XYYZ      10.6859   YYYZ      52.2279
      XXZZ     -44.4594   XYZZ     -22.6937   YYZZ     -53.7330
      XZZZ      11.8083   YZZZ      44.7417   ZZZZ    -110.2761
 -----------------------------------------------------------------
 Calculating analytic gradient of the SCF energy
 Gradient of CDS energy
            1           2           3
    1  -0.0009396   0.0002115   0.0007281
    2  -0.0008876   0.0013052  -0.0004175
    3  -0.0004265  -0.0011386   0.0015651
 Gradient of SCF Energy
            1           2           3
    1  -0.0212594   0.0051877   0.0160716
    2  -0.0215264   0.0302043  -0.0086779
    3  -0.0081733  -0.0258856   0.0340589
 Max gradient component =       3.406E-02
 RMS gradient           =       2.130E-02
 Computing fast CPCM-SWIG gradient
 Updating gradient with PCM contributions...
 -- total gradient after adding PCM contribution --
---------------------------------------------------
  Atom         X              Y              Z     
---------------------------------------------------
   1       0.000369      -0.000672       0.001055
   2      -0.000012       0.000444      -0.000303
   3      -0.000357       0.000227      -0.000752
---------------------------------------------------
 Number of fixed atoms: 0
 Gradient time:  CPU 8.88 s  wall 1.15 s
 ----------------------------------------------------------------
             Standard Nuclear Orientation (Angstroms)
    I     Atom           X                Y                Z
 ----------------------------------------------------------------
    1      C      -0.7377342278    -0.7004582887     0.3860869238
    2      O      -0.8871843324    -1.6228435279     1.1927371935
    3      O      -1.2439507399    -0.4101770833    -0.7000052174
 ----------------------------------------------------------------
 Nuclear Repulsion Energy =          56.05848489 hartrees
 There are       12 alpha and       11 beta electrons
 Discretize the solute cavity surface with Lebedev spheres
	Using 110 Lebedev grid points for each H atom
	Using 194 Lebedev grid points for other atoms
	Atomic van der Waals radii will be scaled by 1.20
 Remove points where switching function is < 1.0e-08
 Keep 393 surface tesserae and discard 189 interior tesserae
 Molecular Surface Area = 56.993 Angst**2

                       Distance Matrix (Angstroms)
             C (  1)   O (  2)
   O (  2)  1.234429
   O (  3)  1.232929  2.276031
 
 Requested basis set is 6-311++G(2df,2p)
 There are 24 shells and 102 basis functions
 A cutoff of  1.0D-12 yielded    297 shell pairs
 There are      5439 function pairs (      7191 Cartesian)
 Smallest overlap matrix eigenvalue = 1.05E-03
 Guess MOs from SCF MO coefficient file

 -----------------------------------------------------------------------
  General SCF calculation program by
  Eric Jon Sundstrom, Paul Horn, Yuezhi Mao, Dmitri Zuev, Alec White,
  David Stuck, Shaama M.S., Shane Yost, Joonho Lee, David Small,
  Daniel Levine, Susi Lehtola, Hugh Burton, Evgeny Epifanovsky,
  Bang C. Huynh
 -----------------------------------------------------------------------
 Exchange:     0.1500 Hartree-Fock + 1.0000 wB97M-V + LR-HF
 Correlation:  1.0000 wB97M-V
 Using SG-2 standard quadrature grid
 Nonlocal Correlation:  VV10 with C = 0.0100 and b = 6.00 and scale = 1.00000
 Grid used for NLC:  SG-1 standard quadrature
 
 Citation of the SMD model:
 Marenich, A.V.; Cramer, C.J.; Truhlar, D.G.
 J. Phys. Chem. B 2009, 113, 6378-6396.
 iSolventCode=           1
 Solvent: water                                                           
 
 vradii
            1           2           3
    1   1.8500000   1.5200000   1.5200000
 -------------------------------------------------------
 OpenMP BLAS3 based DFT computing Module                
 Release: version 1.0, May 2013, Q-Chem Inc. Pittsburgh 
 -------------------------------------------------------
 A unrestricted SCF calculation will be
 performed using Roothaan-Hall, DIIS, GDM
 SCF converges when RMS gradient is below 1.0e-07
 ---------------------------------------
  Cycle       Energy         DIIS error
 ---------------------------------------
    1    -188.5803388434      3.11e-04  Roothaan Step
 ---------------------------------------
  Cycle       Energy         DIIS error
 ---------------------------------------
    1    -188.6896142115      4.22e-04  
    2    -188.6907117270      5.02e-04  Done DIIS. Switching to GDM
 ---------------------------------------
  Cycle       Energy        RMS Gradient
 ---------------------------------------
    1    -188.6907117270      1.20e-02   Normal BFGS step
    2    -188.6905692053      1.61e-02  Line search: overstep
    3    -188.6915163043      4.64e-03   Normal BFGS step
    4    -188.6915666905      2.57e-03   Normal BFGS step
    5    -188.6915795772      5.77e-04   Normal BFGS step
    6    -188.6915811150      2.26e-04   Normal BFGS step
    7    -188.6915812979      1.82e-04   Normal BFGS step
    8    -188.6915814602      2.90e-05   Normal BFGS step
    9    -188.6915814668      1.68e-05   Normal BFGS step
   10    -188.6915814684      4.32e-06   Normal BFGS step
   11    -188.6915814685      1.53e-06   Normal BFGS step
   12    -188.6915814685      8.60e-07   Normal BFGS step
   13    -188.6915814685      4.28e-07   Normal BFGS step
   14    -188.6915814685      1.76e-07   Normal BFGS step
   15    -188.6915814685      5.85e-08  Convergence criterion met
 ---------------------------------------
 SCF time:   CPU 53.96s  wall 7.00s 
<S^2> =          0.752882069
(3)  G-ENP(liq) elect-nuc-pol free energy of system     -188.691581468 a.u.
(4)  G-CDS(liq) cavity-dispersion-solvent structure 
     free energy                                                5.3502 kcal/mol
(6)  G-S(liq) free energy of system                     -188.683055369 a.u.
 SCF   energy in the final basis set =     -188.6830553691
 Total energy in the final basis set =     -188.6830553691
 
 --------------------------------------------------------------
 
                    Orbital Energies (a.u.)
 --------------------------------------------------------------
 
 Alpha MOs
 -- Occupied --
-19.3144 -19.3142 -10.4333  -1.1874  -1.1137  -0.6282  -0.5566  -0.5405
 -0.5318  -0.3956  -0.3945  -0.2516
 -- Virtual --
  0.0803   0.0888   0.0963   0.1004   0.1459   0.2263   0.2304   0.2519
  0.2828   0.3038   0.3090   0.3243   0.3594   0.4731   0.5769   0.6213
  0.6291   0.7897   0.7968   0.7996   0.8814   0.9710   1.0694   1.0930
  1.1360   1.1585   1.1697   1.2013   1.3802   1.4572   1.5787   1.5800
  1.6089   1.7049   1.7116   1.8013   2.0638   2.0821   2.1849   2.3851
  2.5102   2.5405   2.8447   2.8943   2.9551   3.1027   3.1214   3.2352
  3.2660   3.2968   3.4669   3.4937   3.5562   3.6653   3.6772   3.9242
  4.1759   5.1500   5.1540   5.1652   5.1659   5.1695   5.1949   5.2288
  5.2813   5.3066   5.4347   5.4994   5.5270   5.5512   5.6579   6.0312
  6.2824   6.6113   6.8633   6.8909   6.9087   6.9618   6.9680   6.9729
  7.2610   7.2908   7.3832   7.4212   7.5650   7.7583   7.7646  25.1226
 50.6465  50.6627
 
 Beta MOs
 -- Occupied --
-19.3087 -19.3085 -10.4243  -1.1734  -1.0983  -0.6099  -0.5389  -0.5211
 -0.5044  -0.3896  -0.3717
 -- Virtual --
  0.0207   0.0878   0.0882   0.0910   0.1154   0.1632   0.2223   0.2282
  0.2492   0.2816   0.3017   0.3070   0.3243   0.3613   0.4805   0.5980
  0.6334   0.6446   0.8050   0.8138   0.8142   0.8977   0.9807   1.0757
  1.0988   1.1399   1.1744   1.1765   1.2032   1.3885   1.4784   1.5832
  1.5858   1.6128   1.7184   1.7186   1.8148   2.0696   2.1032   2.1947
  2.4127   2.5209   2.5583   2.8609   2.9361   3.0004   3.1340   3.1489
  3.2666   3.3231   3.3583   3.4801   3.5283   3.5874   3.6916   3.6932
  3.9472   4.2100   5.1601   5.1627   5.1730   5.1738   5.1772   5.2088
  5.2377   5.3019   5.3214   5.4494   5.5054   5.5396   5.5636   5.6682
  6.0584   6.2899   6.6295   6.8845   6.9061   6.9234   6.9814   6.9852
  6.9878   7.2831   7.2968   7.3942   7.4428   7.5870   7.7732   7.7866
 25.1303  50.6513  50.6676
 --------------------------------------------------------------
 
          Ground-State Mulliken Net Atomic Charges

     Atom                 Charge (a.u.)    Spin (a.u.)
  --------------------------------------------------------
      1 C                     0.013299       0.756443
      2 O                    -0.507448       0.121510
      3 O                    -0.505850       0.122047
  --------------------------------------------------------
  Sum of atomic charges =    -1.000000
  Sum of spin   charges =     1.000000

 -----------------------------------------------------------------
                    Cartesian Multipole Moments
 -----------------------------------------------------------------
    Charge (ESU x 10^10)
                -4.8032
    Dipole Moment (Debye)
         X       4.8488      Y       4.6321      Z      -1.3094
       Tot       6.8324
    Quadrupole Moments (Debye-Ang)
        XX     -24.6028     XY      -4.8337     YY     -26.4200
        XZ      -0.2449     YZ       4.8313     ZZ     -25.2536
    Octopole Moments (Debye-Ang^2)
       XXX      60.4041    XXY      22.2799    XYY      25.2924
       YYY      63.9123    XXZ      -4.1746    XYZ      -3.7289
       YYZ     -14.9860    XZZ      23.5509    YZZ      25.0430
       ZZZ     -21.6795
    Hexadecapole Moments (Debye-Ang^3)
      XXXX    -139.2844   XXXY     -52.5210   XXYY     -53.9851
      XYYY     -58.9618   YYYY    -169.1314   XXXZ       5.3986
      XXYZ      14.9800   XYYZ      10.7230   YYYZ      52.3042
      XXZZ     -44.4706   XYZZ     -22.7182   YYZZ     -53.7767
      XZZZ      11.8439   YZZZ      44.7936   ZZZZ    -110.2909
 -----------------------------------------------------------------
 Calculating analytic gradient of the SCF energy
 Gradient of CDS energy
            1           2           3
    1  -0.0009292   0.0002144   0.0007149
    2  -0.0009132   0.0013231  -0.0004099
    3  -0.0003766  -0.0011571   0.0015337
 Gradient of SCF Energy
            1           2           3
    1  -0.0219234   0.0050716   0.0168519
    2  -0.0202040   0.0292513  -0.0090473
    3  -0.0105178  -0.0250626   0.0355804
 Max gradient component =       3.558E-02
 RMS gradient           =       2.145E-02
 Computing fast CPCM-SWIG gradient
 Updating gradient with PCM contributions...
 -- total gradient after adding PCM contribution --
---------------------------------------------------
  Atom         X              Y              Z     
---------------------------------------------------
   1      -0.000304       0.000442      -0.001203
   2      -0.000082      -0.000356       0.000489
   3       0.000386      -0.000085       0.000714
---------------------------------------------------
 Number of fixed atoms: 0
 Gradient time:  CPU 8.16 s  wall 1.04 s
 ----------------------------------------------------------------
             Standard Nuclear Orientation (Angstroms)
    I     Atom           X                Y                Z
 ----------------------------------------------------------------
    1      C      -0.7377342278    -0.7004582887     0.3870869238
    2      O      -0.8861843324    -1.6228435279     1.1927371935
    3      O      -1.2439507399    -0.4101770833    -0.7000052174
 ----------------------------------------------------------------
 Nuclear Repulsion Energy =          56.05565750 hartrees
 There are       12 alpha and       11 beta electrons
 Discretize the solute cavity surface with Lebedev spheres
	Using 110 Lebedev grid points for each H atom
	Using 194 Lebedev grid points for other atoms
	Atomic van der Waals radii will be scaled by 1.20
 Remove points where switching function is < 1.0e-08
 Keep 393 surface tesserae and discard 189 interior tesserae
 Molecular Surface Area = 56.996 Angst**2

                       Distance Matrix (Angstroms)
             C (  1)   O (  2)
   O (  2)  1.233655
   O (  3)  1.233810  2.276188
 
 Requested basis set is 6-311++G(2df,2p)
 There are 24 shells and 102 basis functions
 A cutoff of  1.0D-12 yielded    297 shell pairs
 There are      5439 function pairs (      7191 Cartesian)
 Smallest overlap matrix eigenvalue = 1.05E-03
 Guess MOs from SCF MO coefficient file

 -----------------------------------------------------------------------
  General SCF calculation program by
  Eric Jon Sundstrom, Paul Horn, Yuezhi Mao, Dmitri Zuev, Alec White,
  David Stuck, Shaama M.S., Shane Yost, Joonho Lee, David Small,
  Daniel Levine, Susi Lehtola, Hugh Burton, Evgeny Epifanovsky,
  Bang C. Huynh
 -----------------------------------------------------------------------
 Exchange:     0.1500 Hartree-Fock + 1.0000 wB97M-V + LR-HF
 Correlation:  1.0000 wB97M-V
 Using SG-2 standard quadrature grid
 Nonlocal Correlation:  VV10 with C = 0.0100 and b = 6.00 and scale = 1.00000
 Grid used for NLC:  SG-1 standard quadrature
 
 Citation of the SMD model:
 Marenich, A.V.; Cramer, C.J.; Truhlar, D.G.
 J. Phys. Chem. B 2009, 113, 6378-6396.
 iSolventCode=           1
 Solvent: water                                                           
 
 vradii
            1           2           3
    1   1.8500000   1.5200000   1.5200000
 -------------------------------------------------------
 OpenMP BLAS3 based DFT computing Module                
 Release: version 1.0, May 2013, Q-Chem Inc. Pittsburgh 
 -------------------------------------------------------
 A unrestricted SCF calculation will be
 performed using Roothaan-Hall, DIIS, GDM
 SCF converges when RMS gradient is below 1.0e-07
 ---------------------------------------
  Cycle       Energy         DIIS error
 ---------------------------------------
    1    -188.5803545451      3.10e-04  Roothaan Step
 ---------------------------------------
  Cycle       Energy         DIIS error
 ---------------------------------------
    1    -188.6896099903      4.22e-04  
    2    -188.6907106549      5.02e-04  Done DIIS. Switching to GDM
 ---------------------------------------
  Cycle       Energy        RMS Gradient
 ---------------------------------------
    1    -188.6907106549      1.20e-02   Normal BFGS step
    2    -188.6905690686      1.61e-02  Line search: overstep
    3    -188.6915167165      4.66e-03   Normal BFGS step
    4    -188.6915674666      2.59e-03   Normal BFGS step
    5    -188.6915805135      5.83e-04   Normal BFGS step
    6    -188.6915820712      2.24e-04   Normal BFGS step
    7    -188.6915823313      7.48e-05   Normal BFGS step
    8    -188.6915823410      7.98e-05   Normal BFGS step
    9    -188.6915823673      1.65e-05   Normal BFGS step
   10    -188.6915823685      7.30e-06   Normal BFGS step
   11    -188.6915823688      1.34e-06   Normal BFGS step
   12    -188.6915823688      8.22e-07   Normal BFGS step
   13    -188.6915823688      3.82e-07   Normal BFGS step
   14    -188.6915823688      1.86e-07   Normal BFGS step
   15    -188.6915823688      5.32e-08  Convergence criterion met
 ---------------------------------------
 SCF time:   CPU 55.38s  wall 7.00s 
<S^2> =          0.752882292
(3)  G-ENP(liq) elect-nuc-pol free energy of system     -188.691582369 a.u.
(4)  G-CDS(liq) cavity-dispersion-solvent structure 
     free energy                                                5.3500 kcal/mol
(6)  G-S(liq) free energy of system                     -188.683056604 a.u.
 SCF   energy in the final basis set =     -188.6830566039
 Total energy in the final basis set =     -188.6830566039
 
 --------------------------------------------------------------
 
                    Orbital Energies (a.u.)
 --------------------------------------------------------------
 
 Alpha MOs
 -- Occupied --
-19.3143 -19.3143 -10.4333  -1.1874  -1.1137  -0.6282  -0.5566  -0.5405
 -0.5317  -0.3956  -0.3945  -0.2516
 -- Virtual --
  0.0803   0.0888   0.0963   0.1004   0.1459   0.2264   0.2304   0.2519
  0.2828   0.3038   0.3090   0.3242   0.3594   0.4731   0.5769   0.6213
  0.6291   0.7897   0.7968   0.7996   0.8814   0.9710   1.0694   1.0930
  1.1359   1.1585   1.1698   1.2013   1.3802   1.4572   1.5788   1.5799
  1.6089   1.7049   1.7115   1.8013   2.0638   2.0821   2.1849   2.3851
  2.5101   2.5405   2.8447   2.8943   2.9551   3.1026   3.1214   3.2352
  3.2660   3.2968   3.4667   3.4937   3.5562   3.6652   3.6771   3.9241
  4.1759   5.1500   5.1540   5.1652   5.1659   5.1695   5.1949   5.2287
  5.2812   5.3066   5.4347   5.4992   5.5270   5.5510   5.6578   6.0311
  6.2821   6.6112   6.8632   6.8909   6.9086   6.9617   6.9680   6.9726
  7.2611   7.2908   7.3832   7.4214   7.5649   7.7583   7.7646  25.1224
 50.6464  50.6626
 
[...]
      XYYY     -58.9492   YYYY    -169.0904   XXXZ       5.4221
      XXYZ      14.9781   XYYZ      10.7269   YYYZ      52.3040
      XXZZ     -44.4544   XYZZ     -22.7103   YYZZ     -53.7631
      XZZZ      11.8720   YZZZ      44.8002   ZZZZ    -110.2507
 -----------------------------------------------------------------
 Calculating analytic gradient of the SCF energy
 Gradient of CDS energy
            1           2           3
    1  -0.0009278   0.0002129   0.0007149
    2  -0.0009042   0.0013141  -0.0004099
    3  -0.0003859  -0.0011478   0.0015337
 Gradient of SCF Energy
            1           2           3
    1  -0.0219817   0.0051221   0.0168597
    2  -0.0206770   0.0298013  -0.0091243
    3  -0.0101102  -0.0255685   0.0356788
 Max gradient component =       3.568E-02
 RMS gradient           =       2.166E-02
 Computing fast CPCM-SWIG gradient
 Updating gradient with PCM contributions...
 -- total gradient after adding PCM contribution --
---------------------------------------------------
  Atom         X              Y              Z     
---------------------------------------------------
   1      -0.000359       0.000016      -0.000808
   2      -0.000054       0.000200      -0.000092
   3       0.000413      -0.000216       0.000900
---------------------------------------------------
 Number of fixed atoms: 0
 Gradient time:  CPU 8.95 s  wall 1.17 s
 ----------------------------------------------------------------
             Standard Nuclear Orientation (Angstroms)
    I     Atom           X                Y                Z
 ----------------------------------------------------------------
    1      C      -0.7377342278    -0.7004582887     0.3870869238
    2      O      -0.8871843324    -1.6228435279     1.1927371935
    3      O      -1.2439507399    -0.4101770833    -0.7010052174
 ----------------------------------------------------------------
 Nuclear Repulsion Energy =          56.03454100 hartrees
 There are       12 alpha and       11 beta electrons
 Discretize the solute cavity surface with Lebedev spheres
	Using 110 Lebedev grid points for each H atom
	Using 194 Lebedev grid points for other atoms
	Atomic van der Waals radii will be scaled by 1.20
 Remove points where switching function is < 1.0e-08
 Keep 393 surface tesserae and discard 189 interior tesserae
 Molecular Surface Area = 57.005 Angst**2

                       Distance Matrix (Angstroms)
             C (  1)   O (  2)
   O (  2)  1.233776
   O (  3)  1.234691  2.276862
 
 Requested basis set is 6-311++G(2df,2p)
 There are 24 shells and 102 basis functions
 A cutoff of  1.0D-12 yielded    297 shell pairs
 There are      5439 function pairs (      7191 Cartesian)
 Smallest overlap matrix eigenvalue = 1.05E-03
 Guess MOs from SCF MO coefficient file

 -----------------------------------------------------------------------
  General SCF calculation program by
  Eric Jon Sundstrom, Paul Horn, Yuezhi Mao, Dmitri Zuev, Alec White,
  David Stuck, Shaama M.S., Shane Yost, Joonho Lee, David Small,
  Daniel Levine, Susi Lehtola, Hugh Burton, Evgeny Epifanovsky,
  Bang C. Huynh
 -----------------------------------------------------------------------
 Exchange:     0.1500 Hartree-Fock + 1.0000 wB97M-V + LR-HF
 Correlation:  1.0000 wB97M-V
 Using SG-2 standard quadrature grid
 Nonlocal Correlation:  VV10 with C = 0.0100 and b = 6.00 and scale = 1.00000
 Grid used for NLC:  SG-1 standard quadrature
 
 Citation of the SMD model:
 Marenich, A.V.; Cramer, C.J.; Truhlar, D.G.
 J. Phys. Chem. B 2009, 113, 6378-6396.
 iSolventCode=           1
 Solvent: water                                                           
 
 vradii
            1           2           3
    1   1.8500000   1.5200000   1.5200000
 -------------------------------------------------------
 OpenMP BLAS3 based DFT computing Module                
 Release: version 1.0, May 2013, Q-Chem Inc. Pittsburgh 
 -------------------------------------------------------
 A unrestricted SCF calculation will be
 performed using Roothaan-Hall, DIIS, GDM
 SCF converges when RMS gradient is below 1.0e-07
 ---------------------------------------
  Cycle       Energy         DIIS error
 ---------------------------------------
    1    -188.5803561274      3.10e-04  Roothaan Step
 ---------------------------------------
  Cycle       Energy         DIIS error
 ---------------------------------------
    1    -188.6895953334      4.23e-04  
    2    -188.6907005878      5.04e-04  Done DIIS. Switching to GDM
 ---------------------------------------
  Cycle       Energy        RMS Gradient
 ---------------------------------------
    1    -188.6907005878      1.21e-02   Normal BFGS step
    2    -188.6905585205      1.62e-02  Line search: overstep
    3    -188.6915115807      4.69e-03   Normal BFGS step
    4    -188.6915629345      2.61e-03   Normal BFGS step
    5    -188.6915762086      5.83e-04   Normal BFGS step
    6    -188.6915777725      2.25e-04   Normal BFGS step
    7    -188.6915779956      1.39e-04   Normal BFGS step
    8    -188.6915780652      5.59e-05   Normal BFGS step
    9    -188.6915780844      1.69e-05   Normal BFGS step
   10    -188.6915780857      8.28e-06   Normal BFGS step
   11    -188.6915780860      1.11e-06   Normal BFGS step
   12    -188.6915780860      4.99e-07   Normal BFGS step
   13    -188.6915780860      2.34e-07   Normal BFGS step
   14    -188.6915780860      1.34e-07   Normal BFGS step
   15    -188.6915780860      3.74e-08  Convergence criterion met
 ---------------------------------------
 SCF time:   CPU 55.88s  wall 8.00s 
<S^2> =          0.752887085
(3)  G-ENP(liq) elect-nuc-pol free energy of system     -188.691578086 a.u.
(4)  G-CDS(liq) cavity-dispersion-solvent structure 
     free energy                                                5.3479 kcal/mol
(6)  G-S(liq) free energy of system                     -188.683055665 a.u.
 SCF   energy in the final basis set =     -188.6830556646
 Total energy in the final basis set =     -188.6830556646
 
 --------------------------------------------------------------
 
                    Orbital Energies (a.u.)
 --------------------------------------------------------------
 
 Alpha MOs
 -- Occupied --
-19.3145 -19.3143 -10.4334  -1.1872  -1.1135  -0.6283  -0.5565  -0.5404
 -0.5316  -0.3956  -0.3945  -0.2518
 -- Virtual --
  0.0802   0.0888   0.0962   0.1004   0.1457   0.2263   0.2304   0.2519
  0.2828   0.3037   0.3090   0.3242   0.3594   0.4727   0.5765   0.6212
  0.6291   0.7892   0.7968   0.7995   0.8815   0.9708   1.0694   1.0930
  1.1359   1.1585   1.1698   1.2013   1.3800   1.4566   1.5786   1.5799
  1.6089   1.7046   1.7113   1.8010   2.0633   2.0816   2.1845   2.3850
  2.5096   2.5398   2.8446   2.8942   2.9549   3.1026   3.1213   3.2355
  3.2662   3.2968   3.4662   3.4939   3.5559   3.6649   3.6763   3.9231
  4.1744   5.1500   5.1541   5.1651   5.1659   5.1694   5.1949   5.2286
  5.2808   5.3066   5.4337   5.4986   5.5260   5.5503   5.6567   6.0293
  6.2802   6.6087   6.8621   6.8909   6.9058   6.9616   6.9678   6.9715
  7.2608   7.2907   7.3828   7.4217   7.5645   7.7577   7.7627  25.1204
 50.6458  50.6612
 
 Beta MOs
 -- Occupied --
-19.3087 -19.3086 -10.4244  -1.1731  -1.0981  -0.6099  -0.5388  -0.5210
 -0.5042  -0.3896  -0.3717
 -- Virtual --
  0.0206   0.0878   0.0881   0.0910   0.1153   0.1629   0.2223   0.2282
  0.2492   0.2816   0.3016   0.3070   0.3242   0.3613   0.4801   0.5976
  0.6334   0.6445   0.8045   0.8138   0.8141   0.8978   0.9805   1.0757
  1.0988   1.1398   1.1743   1.1765   1.2032   1.3883   1.4778   1.5831
  1.5857   1.6128   1.7181   1.7183   1.8145   2.0691   2.1027   2.1943
  2.4126   2.5203   2.5576   2.8608   2.9361   3.0002   3.1340   3.1487
  3.2669   3.3233   3.3584   3.4795   3.5285   3.5870   3.6912   3.6923
  3.9462   4.2084   5.1602   5.1628   5.1729   5.1737   5.1771   5.2088
  5.2375   5.3014   5.3214   5.4483   5.5047   5.5386   5.5627   5.6670
  6.0565   6.2877   6.6268   6.8834   6.9060   6.9204   6.9812   6.9838
  6.9876   7.2829   7.2968   7.3939   7.4434   7.5866   7.7726   7.7846
 25.1280  50.6507  50.6661
 --------------------------------------------------------------
 
          Ground-State Mulliken Net Atomic Charges

     Atom                 Charge (a.u.)    Spin (a.u.)
  --------------------------------------------------------
      1 C                     0.013935       0.756001
      2 O                    -0.505988       0.121811
      3 O                    -0.507947       0.122188
  --------------------------------------------------------
  Sum of atomic charges =    -1.000000
  Sum of spin   charges =     1.000000

 -----------------------------------------------------------------
                    Cartesian Multipole Moments
 -----------------------------------------------------------------
    Charge (ESU x 10^10)
                -4.8032
    Dipole Moment (Debye)
         X       4.8538      Y       4.6211      Z      -1.2883
       Tot       6.8245
    Quadrupole Moments (Debye-Ang)
        XX     -24.6086     XY      -4.8262     YY     -26.4006
        XZ      -0.2645     YZ       4.8099     ZZ     -25.2489
    Octopole Moments (Debye-Ang^2)
       XXX      60.4238    XXY      22.2638    XYY      25.2812
       YYY      63.8556    XXZ      -4.1391    XYZ      -3.7096
       YYZ     -14.9439    XZZ      23.5511    YZZ      25.0215
       ZZZ     -21.6186
    Hexadecapole Moments (Debye-Ang^3)
      XXXX    -139.3174   XXXY     -52.4943   XXYY     -53.9566
      XYYY     -58.9183   YYYY    -168.9803   XXXZ       5.3251
      XXYZ      14.9466   XYYZ      10.6820   YYYZ      52.2281
      XXZZ     -44.4756   XYZZ     -22.7016   YYZZ     -53.7467
      XZZZ      11.7802   YZZZ      44.7351   ZZZZ    -110.3164
 -----------------------------------------------------------------
 Calculating analytic gradient of the SCF energy
 Gradient of CDS energy
            1           2           3
    1  -0.0009411   0.0002129   0.0007281
    2  -0.0008966   0.0013141  -0.0004175
    3  -0.0004173  -0.0011478   0.0015651
 Gradient of SCF Energy
            1           2           3
    1  -0.0212006   0.0051368   0.0160638
    2  -0.0210506   0.0296517  -0.0086010
    3  -0.0085824  -0.0253783   0.0339607
 Max gradient component =       3.396E-02
 RMS gradient           =       2.109E-02
 Computing fast CPCM-SWIG gradient
 Updating gradient with PCM contributions...
 -- total gradient after adding PCM contribution --
---------------------------------------------------
  Atom         X              Y              Z     
---------------------------------------------------
   1       0.000424      -0.000243       0.000658
   2      -0.000041      -0.000115       0.000280
   3      -0.000383       0.000358      -0.000938
---------------------------------------------------
 Number of fixed atoms: 0
 Gradient time:  CPU 8.23 s  wall 1.05 s
Dipole drv :
gprntSymmMtrx error report: 
 Final Hessian.
            1           2           3           4           5           6
    1   0.1861242   0.0921440   0.1780060  -0.0537795  -0.0986885   0.0290373
    2   0.0921440   0.3875029  -0.2945020  -0.0892542  -0.3227452   0.2261521
    3   0.1780060  -0.2945020   0.5974118   0.0185909   0.2118439  -0.2095539
    4  -0.0537795  -0.0892542   0.0185909   0.0326884   0.0575666  -0.0149963
    5  -0.0986885  -0.3227452   0.2118439   0.0575666   0.3420173  -0.2952991
    6   0.0290373   0.2261521  -0.2095539  -0.0149963  -0.2952991   0.3080136
    7  -0.1323463  -0.0028882  -0.1965959   0.0210919   0.0411211  -0.0140415
    8   0.0065458  -0.0647572   0.0826586   0.0316870  -0.0192724   0.0691469
    9  -0.2070413   0.0683480  -0.3878584  -0.0035954   0.0834563  -0.0984594
            7           8           9
    1  -0.1323463   0.0065458  -0.2070413
    2  -0.0028882  -0.0647572   0.0683480
    3  -0.1965959   0.0826586  -0.3878584
    4   0.0210919   0.0316870  -0.0035954
    5   0.0411211  -0.0192724   0.0834563
    6  -0.0140415   0.0691469  -0.0984594
    7   0.1112552  -0.0382336   0.2106363
    8  -0.0382336   0.0840294  -0.1518046
    9   0.2106363  -0.1518046   0.4863180
 ----------------------------------------------------------------
             Standard Nuclear Orientation (Angstroms)
    I     Atom           X                Y                Z
 ----------------------------------------------------------------
    1      C      -0.7377342278    -0.7004582887     0.3870869238
    2      O      -0.8871843324    -1.6228435279     1.1927371935
    3      O      -1.2439507399    -0.4101770833    -0.7000052174
 ----------------------------------------------------------------
 Nuclear Repulsion Energy =          56.05466878 hartrees
 There are       12 alpha and       11 beta electrons
 old dipole drv.
            1           2           3           4           5           6
    1   0.2845096   0.0419675   0.6374767  -0.5460386   0.0190771  -0.2184353
    2   0.0403781   1.2163178  -1.4864839  -0.2919628  -1.4215466   0.6823598
    3   0.6391198  -1.4880063   2.4534065   0.1286764   1.1542942  -1.5083360
            7           8           9
    1  -0.7384839  -0.0610313  -0.4190310
    2   0.2515876  -0.7947589   0.8041217
    3  -0.7677862   0.3337117  -1.9450851
 New transposed dipole drv.
            1           2           3
    1   0.2845096   0.0403781   0.6391198
    2   0.0419675   1.2163178  -1.4880063
    3   0.6374767  -1.4864839   2.4534065
    4  -0.5460386  -0.2919628   0.1286764
    5   0.0190771  -1.4215466   1.1542942
    6  -0.2184353   0.6823598  -1.5083360
    7  -0.7384839   0.2515876  -0.7677862
    8  -0.0610313  -0.7947589   0.3337117
    9  -0.4190310   0.8041217  -1.9450851
FINAL TENSOR RESULT:
Order 2, Length 9
    Atom      X          Y          Z
     1 Order 1, Length 9
    Atom      X          Y          Z
     1    1.861241707387416e-01   9.214403276902090e-02   1.780060465976679e-01
     2   -5.377951218247174e-02  -9.868853244778941e-02   2.903728715424322e-02
     3   -1.323462603327305e-01   6.545806538913590e-03  -2.070413227311880e-01

Order 1, Length 9
    Atom      X          Y          Z
     1    9.214403276902090e-02   3.875029352649909e-01  -2.945019849387462e-01
     2   -8.925417851859593e-02  -3.227451704109429e-01   2.261521089309203e-01
     3   -2.888216913024580e-03  -6.475722477139928e-02   6.834799291485570e-02

Order 1, Length 9
    Atom      X          Y          Z
     1    1.780060465976679e-01  -2.945019849387462e-01   5.974117792348550e-01
     2    1.859087444244793e-02   2.118438524541045e-01  -2.095539175752270e-01
     3   -1.965959290720127e-01   8.265856778847640e-02  -3.878584461808307e-01


     2 Order 1, Length 9
    Atom      X          Y          Z
     1   -5.377951218247174e-02  -8.925417851859593e-02   1.859087444244793e-02
     2    3.268839146504256e-02   5.756658761284086e-02  -1.499633516979513e-02
     3    2.109188484376041e-02   3.168698468809042e-02  -3.595420733964842e-03

Order 1, Length 9
    Atom      X          Y          Z
     1   -9.868853244778941e-02  -3.227451704109429e-01   2.118438524541045e-01
     2    5.756658761284086e-02   3.420172771781066e-01  -2.952990767477561e-01
     3    4.112109523823921e-02  -1.927242843839762e-02   8.345626367802317e-02

Order 1, Length 9
    Atom      X          Y          Z
     1    2.903728715424322e-02   2.261521089309203e-01  -2.095539175752270e-01
     2   -1.499633516979513e-02  -2.952990767477561e-01   3.080136202200857e-01
     3   -1.404145441423823e-02   6.914690739403610e-02  -9.845935307233886e-02


     3 Order 1, Length 9
    Atom      X          Y          Z
     1   -1.323462603327305e-01  -2.888216913024580e-03  -1.965959290720127e-01
     2    2.109188484376041e-02   4.112109523823921e-02  -1.404145441423823e-02
     3    1.112552131415638e-01  -3.823357896517406e-02   2.106362539244976e-01

Order 1, Length 9
    Atom      X          Y          Z
     1    6.545806538913590e-03  -6.475722477139928e-02   8.265856778847640e-02
     2    3.168698468809042e-02  -1.927242843839762e-02   6.914690739403610e-02
     3   -3.823357896517406e-02   8.402943480117264e-02  -1.518046314746873e-01

Order 1, Length 9
    Atom      X          Y          Z
     1   -2.070413227311880e-01   6.834799291485570e-02  -3.878584461808307e-01
     2   -3.595420733964842e-03   8.345626367802317e-02  -9.845935307233886e-02
     3    2.106362539244976e-01  -1.518046314746873e-01   4.863180342110243e-01




 # Finishing finite difference calculation for IDERIV #
 ######################################################
 ######################################################
 Requested basis set is 6-311++G(2df,2p)
 There are 24 shells and 102 basis functions
 **********************************************************************
 **                                                                  **
 **                       VIBRATIONAL ANALYSIS                       **
 **                       --------------------                       **
 **                                                                  **
 **        VIBRATIONAL FREQUENCIES (CM**-1) AND NORMAL MODES         **
 **     FORCE CONSTANTS (mDYN/ANGSTROM) AND REDUCED MASSES (AMU)     **
 **                  INFRARED INTENSITIES (KM/MOL)                   **
 **                                                                  **
 **********************************************************************
 

 Mode:                 1                      2                      3
 Frequency:       711.62                1314.42                1612.97
 Force Cnst:      4.2179                14.6598                19.9164
 Red. Mass:      14.1366                14.4015                12.9930
 IR Active:          YES                    YES                    YES
 IR Intens:       35.353                 50.840               1685.691
 Raman Active:       YES                    YES                    YES
               X      Y      Z        X      Y      Z        X      Y      Z
 C         -0.469 -0.452 -0.202   -0.435 -0.418 -0.188    0.135 -0.463  0.721
 O          0.246 -0.070  0.449    0.085  0.420 -0.341    0.043  0.264 -0.231
 O          0.106  0.409 -0.298    0.241 -0.106  0.482   -0.144  0.083 -0.310
 TransDip  -0.131 -0.126 -0.057   -0.158 -0.150 -0.069    0.206 -0.701  1.094

 STANDARD THERMODYNAMIC QUANTITIES AT   298.15 K  AND     1.00 ATM

   This Molecule has  0 Imaginary Frequencies
   Zero point vibrational energy:        5.202 kcal/mol

   Atom    1 Element C  Has Mass   12.00000
   Atom    2 Element O  Has Mass   15.99491
   Atom    3 Element O  Has Mass   15.99491
   Molecular Mass:    43.989820 amu
   Principal axes and moments of inertia in amu*Bohr^2:
                             1           2           3
    Eigenvalues --        7.07916   147.94687   155.02604
          X               0.15675     0.68782     0.70875
          Y              -0.53280     0.66313    -0.52572
          Z               0.83160     0.29521    -0.47042
   Rotational Symmetry Number is   1
   The Molecule is an Asymmetric Top
   Translational Enthalpy:        0.889 kcal/mol
   Rotational Enthalpy:           0.889 kcal/mol
   Vibrational Enthalpy:          5.279 kcal/mol
   gas constant (RT):             0.592 kcal/mol
   Translational Entropy:        37.270  cal/mol.K
   Rotational Entropy:           19.724  cal/mol.K
   Vibrational Entropy:           0.326  cal/mol.K

   Total Enthalpy:                7.649 kcal/mol
   Total Entropy:                57.319  cal/mol.K
 Total job time:  159.24s(wall), 1208.32s(cpu) 
 Tue Jul 25 04:24:16 2023

        *************************************************************
        *                                                           *
        *  Thank you very much for using Q-Chem.  Have a nice day.  *
        *                                                           *
        *************************************************************


