
Running Job 1 of 1 Q_in.in
qchem Q_in.in_403070.0 /scratch/ari.fischer/qChem1647076.hpc-mn1/qchem403070/ 0
/usr/local/qchem-5.4.1/exe/qcprog.exe_s Q_in.in_403070.0 /scratch/ari.fischer/qChem1647076.hpc-mn1/qchem403070/
                  Welcome to Q-Chem
     A Quantum Leap Into The Future Of Chemistry


 Q-Chem 5.4, Q-Chem, Inc., Pleasanton, CA (2021)

 License issued to: Nanyang Technological University (site)

 E. Epifanovsky,  A. T. B. Gilbert,  Xintian Feng,  Joonho Lee,  Yuezhi Mao,  
 N. Mardirossian,  P. Pokhilko,  A. White,  M. Wormit,  M. P. Coons,  
 A. L. Dempwolff,  Zhengting Gan,  D. Hait,  P. R. Horn,  L. D. Jacobson,  
 I. Kaliman,  J. Kussmann,  A. W. Lange,  Ka Un Lao,  D. S. Levine,  Jie Liu,  
 S. C. McKenzie,  A. F. Morrison,  K. Nanda,  F. Plasser,  D. R. Rehn,  
 M. L. Vidal,  Zhi-Qiang You,  Ying Zhu,  B. Alam,  B. Albrecht,  
 A. Aldossary,  E. Alguire,  J. H. Andersen,  D. Barton,  K. Begam,  A. Behn,  
 Y. A. Bernard,  E. J. Berquist,  H. Burton,  A. Carreras,  K. Carter-Fenk,  
 R. Chakraborty,  A. D. Chien,  K. D. Closser,  V. Cofer-Shabica,  
 S. Dasgupta,  Jia Deng,  M. de Wergifosse,  M. Diedenhofen,  Hainam Do,  
 S. Ehlert,  Po-Tung Fang,  S. Fatehi,  Qingguo Feng,  T. Friedhoff,  
 J. Gayvert,  Qinghui Ge,  G. Gidofalvi,  M. Goldey,  J. Gomes,  
 C. Gonzalez-Espinoza,  S. Gulania,  A. Gunina,  M. W. D. Hanson-Heine,  
 P. H. P. Harbach,  A. W. Hauser,  M. F. Herbst,  M. Hernandez Vera,  
 M. Hodecker,  Z. C. Holden,  S. Houck,  Xunkun Huang,  Kerwin Hui,  
 B. C. Huynh,  M. Ivanov,  Hyunjun Ji,  Hanjie Jiang,  B. Kaduk,  S. Kaehler,  
 K. Khistyaev,  Jaehoon Kim,  P. Klunzinger,  Z. Koczor-Benda,  
 Joong Hoon Koh,  D. Kosenkov,  L. Koulias,  T. Kowalczyk,  C. M. Krauter,  
 K. Kue,  A. Kunitsa,  T. Kus,  A. Landau,  K. V. Lawler,  D. Lefrancois,  
 S. Lehtola,  Rain Li,  Yi-Pei Li,  Jiashu Liang,  M. Liebenthal,  
 Hung-Hsuan Lin,  You-Sheng Lin,  Fenglai Liu,  Kuan-Yu Liu,  
 M. Loipersberger,  A. Luenser,  A. Manjanath,  P. Manohar,  E. Mansoor,  
 S. F. Manzer,  Shan-Ping Mao,  A. V. Marenich,  T. Markovich,  S. Mason,  
 S. A. Maurer,  P. F. McLaughlin,  M. F. S. J. Menger,  J.-M. Mewes,  
 S. A. Mewes,  P. Morgante,  J. W. Mullinax,  K. J. Oosterbaan,  G. Paran,  
 Alexander C. Paul,  Suranjan K. Paul,  F. Pavosevic,  Zheng Pei,  S. Prager,  
 E. I. Proynov,  E. Ramos,  B. Rana,  A. E. Rask,  A. Rettig,  R. M. Richard,  
 F. Rob,  E. Rossomme,  T. Scheele,  M. Scheurer,  M. Schneider,  
 N. Sergueev,  S. M. Sharada,  W. Skomorowski,  D. W. Small,  C. J. Stein,  
 Yu-Chuan Su,  E. J. Sundstrom,  Zhen Tao,  J. Thirman,  T. Tsuchimochi,  
 N. M. Tubman,  S. P. Veccham,  O. Vydrov,  J. Wenzel,  J. Witte,  A. Yamada,  
 Kun Yao,  S. Yeganeh,  S. R. Yost,  A. Zech,  Igor Ying Zhang,  Xing Zhang,  
 Yu Zhang,  D. Zuev,  A. Aspuru-Guzik,  A. T. Bell,  N. A. Besley,  
 K. B. Bravaya,  B. R. Brooks,  D. Casanova,  Jeng-Da Chai,  S. Coriani,  
 C. J. Cramer,  A. E. DePrince, III,  R. A. DiStasio Jr.,  A. Dreuw,  
 B. D. Dunietz,  T. R. Furlani,  W. A. Goddard III,  S. Grimme,  
 S. Hammes-Schiffer,  T. Head-Gordon,  W. J. Hehre,  Chao-Ping Hsu,  
 T.-C. Jagau,  Yousung Jung,  A. Klamt,  Jing Kong,  D. S. Lambrecht,  
 WanZhen Liang,  N. J. Mayhall,  C. W. McCurdy,  J. B. Neaton,  
 C. Ochsenfeld,  J. A. Parkhill,  R. Peverati,  V. A. Rassolov,  Yihan Shao,  
 L. V. Slipchenko,  T. Stauch,  R. P. Steele,  J. E. Subotnik,  
 A. J. W. Thom,  A. Tkatchenko,  D. G. Truhlar,  T. Van Voorhis,  
 T. A. Wesolowski,  K. B. Whaley,  H. L. Woodcock III,  P. M. Zimmerman,  
 S. Faraji,  P. M. W. Gill,  M. Head-Gordon,  J. M. Herbert,  A. I. Krylov

 Additional authors for Version 5.4.1: 
 S. Kotaru,  Shaozhi Li,  Xiangyuan Li,  F. Matz,  A. Molle,  Haisheng Ren,  
 Yingli Su,  Hung-Yi Tsai,  C. Utku,  Fang Wang

 Contributors to earlier versions of Q-Chem not listed above: 
 R. D. Adamson,  B. Austin,  R. Baer,  J. Baker,  G. J. O. Beran,  
 K. Brandhorst,  S. T. Brown,  E. F. C. Byrd,  A. K. Chakraborty,  
 G. K. L. Chan,  Chun-Min Chang,  Yunqing Chen,  C.-L. Cheng,  
 Siu Hung Chien,  D. M. Chipman,  D. L. Crittenden,  H. Dachsel,  
 R. J. Doerksen,  A. D. Dutoi,  R. G. Edgar,  J. Fosso-Tande,  
 L. Fusti-Molnar,  D. Ghosh,  A. Ghysels,  A. Golubeva-Zadorozhnaya,  
 J. Gonthier,  M. S. Gordon,  S. R. Gwaltney,  G. Hawkins,  J. E. Herr,  
 A. Heyden,  S. Hirata,  E. G. Hohenstein,  G. Kedziora,  F. J. Keil,  
 C. Kelley,  Jihan Kim,  R. A. King,  R. Z. Khaliullin,  P. P. Korambath,  
 W. Kurlancheek,  A. Laurent,  A. M. Lee,  M. S. Lee,  S. V. Levchenko,  
 Ching Yeh Lin,  D. Liotard,  E. Livshits,  R. C. Lochan,  I. Lotan,  
 L. A. Martinez-Martinez,  P. E. Maslen,  N. Nair,  D. P. O'Neill,  
 D. Neuhauser,  E. Neuscamman,  C. M. Oana,  R. Olivares-Amaya,  R. Olson,  
 T. M. Perrine,  B. Peters,  P. A. Pieniazek,  A. Prociuk,  Y. M. Rhee,  
 J. Ritchie,  M. A. Rohrdanz,  E. Rosta,  N. J. Russ,  H. F. Schaefer III,  
 M. W. Schmidt,  N. E. Schultz,  S. Sharma,  N. Shenvi,  C. D. Sherrill,  
 A. C. Simmonett,  A. Sodt,  T. Stein,  D. Stuck,  K. S. Thanthiriwatte,  
 V. Vanovschi,  L. Vogt,  Tao Wang,  A. Warshel,  M. A. Watson,  
 C. F. Williams,  Q. Wu,  X. Xu,  Jun Yang,  W. Zhang,  Yan Zhao

 Please cite Q-Chem as follows:
 Y. Shao et al., Mol. Phys. 113, 184-215 (2015)
 DOI: 10.1080/00268976.2014.952696

 Q-Chem 5.4.1 for Intel X86 EM64T Linux

 Parts of Q-Chem use Armadillo 9.800.1 (Horizon Scraper).
 http://arma.sourceforge.net/

 Q-Chem begins on Tue Jul 25 18:21:11 2023  

 Host: 
0

     Scratch files written to /scratch/ari.fischer/qChem1647076.hpc-mn1/qchem403070//
 Aug1521 |scratch|qcdevops|jenkins|workspace|build_RNUM 8249   
 Processing $rem in /usr/local/qchem-5.4.1/config/preferences:
 Processing $rem in /home/ari.fischer/.qchemrc:
 Symmetry turned off for PCM/SM12/SMD calculation

 Checking the input file for inconsistencies... 	...done.

--------------------------------------------------------------
User input:
--------------------------------------------------------------
$molecule
-1 2
C        -0.7266424734   -0.6897642277    0.3918469922
O        -0.8919700806   -1.6307751983    1.1943908825
O        -1.2502567461   -0.4129394739   -0.7064189747
$end

$rem
BASIS = 6-311++G(2df,2p)
GUI = 2
JOB_TYPE = Optimization
METHOD = wB97M-V
SCF_ALGORITHM = DIIS_GDM
MAX_SCF_CYCLES = 400
GEOM_OPT_MAX_CYCLES = 150
SCF_CONVERGENCE = 7
THRESH = 12
UNRESTRICTED = 1
Solvent_method = SMD
$end
--------------------------------------------------------------
 ----------------------------------------------------------------
             Standard Nuclear Orientation (Angstroms)
    I     Atom           X                Y                Z
 ----------------------------------------------------------------
    1      C      -0.7266424734    -0.6897642277     0.3918469922
    2      O      -0.8919700806    -1.6307751983     1.1943908825
    3      O      -1.2502567461    -0.4129394739    -0.7064189747
 ----------------------------------------------------------------
 Nuclear Repulsion Energy =          55.53000388 hartrees
 There are       12 alpha and       11 beta electrons
 Requested basis set is 6-311++G(2df,2p)
 There are 24 shells and 102 basis functions

 Total QAlloc Memory Limit 288000 MB
 Mega-Array Size       188 MB
 MEM_STATIC part       192 MB
 
 Citation of the SMD model:
 Marenich, A.V.; Cramer, C.J.; Truhlar, D.G.
 J. Phys. Chem. B 2009, 113, 6378-6396.
 iSolventCode=           1
 Solvent: water                                                           
 
 vradii
            1           2           3
    1   1.8500000   1.5200000   1.5200000
 Changing PCM_VDW_RADII to SMD_RADIUS
 Discretize the solute cavity surface with Lebedev spheres
	Using 110 Lebedev grid points for each H atom
	Using 194 Lebedev grid points for other atoms
	Atomic van der Waals radii will be scaled by 1.20
 Remove points where switching function is < 1.0e-08
 Keep 395 surface tesserae and discard 187 interior tesserae
 Molecular Surface Area = 57.286 Angst**2
 A cutoff of  1.0D-12 yielded    297 shell pairs
 There are      5439 function pairs (      7191 Cartesian)
 Smallest overlap matrix eigenvalue = 1.11E-03

 Scale SEOQF with 1.000000e-01/1.000000e-01/1.000000e-01

 Standard Electronic Orientation quadrupole field applied
 Nucleus-field energy     =     0.0000000009 hartrees
 Guess from superposition of atomic densities
 Warning:  Energy on first SCF cycle will be non-variational
 SAD guess density has 22.000000 electrons

 -----------------------------------------------------------------------
  General SCF calculation program by
  Eric Jon Sundstrom, Paul Horn, Yuezhi Mao, Dmitri Zuev, Alec White,
  David Stuck, Shaama M.S., Shane Yost, Joonho Lee, David Small,
  Daniel Levine, Susi Lehtola, Hugh Burton, Evgeny Epifanovsky,
  Bang C. Huynh
 -----------------------------------------------------------------------
 Exchange:     0.1500 Hartree-Fock + 1.0000 wB97M-V + LR-HF
 Correlation:  1.0000 wB97M-V
 Using SG-2 standard quadrature grid
 Nonlocal Correlation:  VV10 with C = 0.0100 and b = 6.00 and scale = 1.00000
 Grid used for NLC:  SG-1 standard quadrature
 
 Citation of the SMD model:
 Marenich, A.V.; Cramer, C.J.; Truhlar, D.G.
 J. Phys. Chem. B 2009, 113, 6378-6396.
 iSolventCode=           1
 Solvent: water                                                           
 
 vradii
            1           2           3
    1   1.8500000   1.5200000   1.5200000
 using 8 threads for integral computing
 -------------------------------------------------------
 OpenMP Integral computing Module                
 Release: version 1.0, May 2013, Q-Chem Inc. Pittsburgh 
 -------------------------------------------------------
 -------------------------------------------------------
 OpenMP BLAS3 based DFT computing Module                
 Release: version 1.0, May 2013, Q-Chem Inc. Pittsburgh 
 -------------------------------------------------------
 A unrestricted SCF calculation will be
 performed using DIIS, GDM
 SCF converges when RMS gradient is below 1.0e-07
 ---------------------------------------
  Cycle       Energy         DIIS error
 ---------------------------------------
    1    -188.7171576218      2.35e-02  
    2    -188.5776609969      5.26e-03  Done DIIS. Switching to GDM
 ---------------------------------------
  Cycle       Energy        RMS Gradient
 ---------------------------------------
    1    -188.5776609969      1.69e-01   Descent step
    2    -188.6854673668      2.44e-02   Normal BFGS step
    3    -188.6904846710      8.23e-03   Normal BFGS step
    4    -188.6908489252      2.33e-03   Normal BFGS step
    5    -188.6908962170      8.20e-04   Normal BFGS step
    6    -188.6909004567      2.96e-04   Normal BFGS step
    7    -188.6909010095      1.20e-04   Normal BFGS step
    8    -188.6909010842      4.94e-05   Normal BFGS step
    9    -188.6909010954      4.59e-05   Normal BFGS step
   10    -188.6909011054      6.87e-06   Normal BFGS step
   11    -188.6909011056      2.12e-06   Normal BFGS step
   12    -188.6909011056      4.74e-07   Normal BFGS step
   13    -188.6909011056      1.83e-07   Normal BFGS step
   14    -188.6909011056      4.60e-08  Convergence criterion met
 ---------------------------------------
 SCF time:   CPU 49.73s  wall 7.00s 
<S^2> =          0.753048008
(3)  G-ENP(liq) elect-nuc-pol free energy of system     -188.690901106 a.u.
(4)  G-CDS(liq) cavity-dispersion-solvent structure 
     free energy                                                5.2866 kcal/mol
(6)  G-S(liq) free energy of system                     -188.682476391 a.u.
 SCF   energy in the final basis set =     -188.6824763913
 Total energy in the final basis set =     -188.6824763913
 
 --------------------------------------------------------------
 
                    Orbital Energies (a.u.)
 --------------------------------------------------------------
 
 Alpha MOs
 -- Occupied --
-19.3152 -19.3152 -10.4373  -1.1812  -1.1067  -0.6296  -0.5540  -0.5363
 -0.5269  -0.3934  -0.3929  -0.2608
 -- Virtual --
  0.0791   0.0888   0.0954   0.0999   0.1395   0.2252   0.2301   0.2517
  0.2812   0.3017   0.3095   0.3249   0.3600   0.4661   0.5604   0.6189
  0.6283   0.7763   0.8005   0.8018   0.8881   0.9630   1.0689   1.0919
  1.1362   1.1595   1.1670   1.2006   1.3772   1.4274   1.5716   1.5846
  1.6109   1.6948   1.7175   1.7908   2.0540   2.0591   2.1667   2.3827
  2.4927   2.5183   2.8409   2.8952   2.9565   3.1150   3.1164   3.2437
  3.2704   3.2991   3.4591   3.5079   3.5398   3.6481   3.6686   3.8974
  4.1198   5.1506   5.1555   5.1622   5.1645   5.1696   5.1936   5.2258
  5.2712   5.3057   5.3993   5.4923   5.4945   5.5397   5.6266   5.9706
  6.2352   6.5201   6.8208   6.8353   6.8907   6.9580   6.9619   6.9629
  7.2476   7.2942   7.3680   7.4117   7.5616   7.7060   7.7407  25.0685
 50.6191  50.6328
 
 Beta MOs
 -- Occupied --
-19.3094 -19.3094 -10.4280  -1.1670  -1.0911  -0.6103  -0.5353  -0.5163
 -0.4998  -0.3879  -0.3694
 -- Virtual --
  0.0168   0.0873   0.0883   0.0909   0.1115   0.1569   0.2216   0.2280
  0.2495   0.2799   0.2997   0.3077   0.3250   0.3623   0.4735   0.5827
  0.6325   0.6418   0.7905   0.8163   0.8177   0.9050   0.9727   1.0753
  1.0973   1.1399   1.1740   1.1755   1.2025   1.3855   1.4496   1.5762
  1.5896   1.6148   1.7084   1.7247   1.8045   2.0600   2.0800   2.1766
  2.4108   2.5038   2.5352   2.8572   2.9378   3.0016   3.1293   3.1606
  3.2740   3.3294   3.3636   3.4747   3.5410   3.5691   3.6638   3.6978
  3.9219   4.1533   5.1610   5.1644   5.1725   5.1731   5.1747   5.2084
  5.2348   5.2923   5.3206   5.4137   5.5008   5.5054   5.5525   5.6365
  5.9968   6.2429   6.5379   6.8352   6.8578   6.9061   6.9749   6.9782
  6.9823   7.2708   7.3006   7.3795   7.4374   7.5842   7.7248   7.7562
 25.0765  50.6239  50.6377
 --------------------------------------------------------------
 
          Ground-State Mulliken Net Atomic Charges

     Atom                 Charge (a.u.)    Spin (a.u.)
  --------------------------------------------------------
      1 C                     0.037251       0.738704
      2 O                    -0.518295       0.130438
      3 O                    -0.518956       0.130858
  --------------------------------------------------------
  Sum of atomic charges =    -1.000000
  Sum of spin   charges =     1.000000

 -----------------------------------------------------------------
                    Cartesian Multipole Moments
 -----------------------------------------------------------------
    Charge (ESU x 10^10)
                -4.8032
    Dipole Moment (Debye)
         X       4.9281      Y       4.6983      Z      -1.2649
       Tot       6.9253
    Quadrupole Moments (Debye-Ang)
        XX     -24.6954     XY      -4.9197     YY     -26.5314
        XZ      -0.2715     YZ       4.8999     ZZ     -25.3146
    Octopole Moments (Debye-Ang^2)
       XXX      60.6393    XXY      22.3863    XYY      25.4285
       YYY      64.1627    XXZ      -4.1334    XYZ      -3.7789
       YYZ     -15.0763    XZZ      23.6321    YZZ      25.1919
       ZZZ     -21.6978
    Hexadecapole Moments (Debye-Ang^3)
      XXXX    -139.5794   XXXY     -52.7659   XXYY     -54.1604
      XYYY     -59.2092   YYYY    -169.7590   XXXZ       5.2503
      XXYZ      15.1183   XYYZ      10.7134   YYYZ      52.7577
      XXZZ     -44.6084   XYZZ     -22.8287   YYZZ     -54.1439
      XZZZ      11.7652   YZZZ      45.3172   ZZZZ    -111.1416
 -----------------------------------------------------------------
 Calculating analytic gradient of the SCF energy
 Gradient of CDS energy
            1           2           3
    1  -0.0011364   0.0002726   0.0008638
    2  -0.0010952   0.0015519  -0.0004567
    3  -0.0004883  -0.0013235   0.0018118
 Gradient of SCF Energy
            1           2           3
    1  -0.0113636   0.0021112   0.0092523
    2  -0.0109951   0.0176781  -0.0066829
    3  -0.0049697  -0.0165592   0.0215289
 Max gradient component =       2.153E-02
 RMS gradient           =       1.274E-02
 Computing fast CPCM-SWIG gradient
 Updating gradient with PCM contributions...
 -- total gradient after adding PCM contribution --
---------------------------------------------------
  Atom         X              Y              Z     
---------------------------------------------------
   1       0.013444       0.012836       0.005673
   2      -0.004461      -0.014219       0.009358
   3      -0.008983       0.001383      -0.015031
---------------------------------------------------
 Number of fixed atoms: 0
 Gradient time:  CPU 9.34 s  wall 1.19 s
 Geometry Optimization Parameters
   NAtoms,    NIC,     NZ,  NCons,   NDum,   NFix, NCnnct, MaxDiis
        3       9       0       0       0       0       0       0


** GEOMETRY OPTIMIZATION IN DELOCALIZED INTERNAL COORDINATES **
   Searching for a Minimum

   Optimization Cycle:   1

                       Coordinates (Angstroms)
     ATOM                X               Y               Z
      1  C        -0.7266424734   -0.6897642277    0.3918469922
      2  O        -0.8919700806   -1.6307751983    1.1943908825
      3  O        -1.2502567461   -0.4129394739   -0.7064189747
   Point Group: c1    Number of degrees of freedom:     3


   Energy is   -188.682476391


 Attempting to generate delocalized internal coordinates
 Initial Hessian constructed with Jon Baker's OPTIMIZE code

  3 Hessian modes will be used to form the next step
  Hessian Eigenvalues:
     0.250000    0.840569    0.840690

 Minimum search - taking simple RFO step
 Searching for Lamda that Minimizes Along All modes
 Value Taken    Lamda =  -0.00091491
 Step Taken.  Stepsize is  0.040647

                             Maximum     Tolerance    Cnvgd?
         Gradient           0.024297      0.000300      NO
         Displacement       0.039987      0.001200      NO
         Energy change     *********      0.000001      NO


 New Cartesian Coordinates Obtained by Inverse Iteration

 Displacement from previous Coordinates is:  0.032650
 ----------------------------------------------------------------
             Standard Nuclear Orientation (Angstroms)
    I     Atom           X                Y                Z
 ----------------------------------------------------------------
    1      C      -0.7360385916    -0.6988255443     0.3878169538
    2      O      -0.8877490040    -1.6246205325     1.1938723398
    3      O      -1.2450817046    -0.4100328231    -0.7018703937
 ----------------------------------------------------------------
 Nuclear Repulsion Energy =          55.92809939 hartrees
 There are       12 alpha and       11 beta electrons
 Discretize the solute cavity surface with Lebedev spheres
	Using 110 Lebedev grid points for each H atom
	Using 194 Lebedev grid points for other atoms
	Atomic van der Waals radii will be scaled by 1.20
 Remove points where switching function is < 1.0e-08
 Keep 393 surface tesserae and discard 189 interior tesserae
 Molecular Surface Area = 57.059 Angst**2
 Applying Cartesian multipole field
    Component          Value
    ---------          -----
     (2,0,0)        1.00000E-11
     (0,2,0)        2.00000E-11
     (0,0,2)       -3.00000E-11
 Nucleus-field energy     =     0.0000000009 hartrees
 Requested basis set is 6-311++G(2df,2p)
 There are 24 shells and 102 basis functions
 A cutoff of  1.0D-12 yielded    297 shell pairs
 There are      5439 function pairs (      7191 Cartesian)
 Smallest overlap matrix eigenvalue = 1.07E-03
 Guess MOs from SCF MO coefficient file

 -----------------------------------------------------------------------
  General SCF calculation program by
  Eric Jon Sundstrom, Paul Horn, Yuezhi Mao, Dmitri Zuev, Alec White,
  David Stuck, Shaama M.S., Shane Yost, Joonho Lee, David Small,
  Daniel Levine, Susi Lehtola, Hugh Burton, Evgeny Epifanovsky,
  Bang C. Huynh
 -----------------------------------------------------------------------
 Exchange:     0.1500 Hartree-Fock + 1.0000 wB97M-V + LR-HF
 Correlation:  1.0000 wB97M-V
 Using SG-2 standard quadrature grid
 Nonlocal Correlation:  VV10 with C = 0.0100 and b = 6.00 and scale = 1.00000
 Grid used for NLC:  SG-1 standard quadrature
 
 Citation of the SMD model:
 Marenich, A.V.; Cramer, C.J.; Truhlar, D.G.
 J. Phys. Chem. B 2009, 113, 6378-6396.
 iSolventCode=           1
 Solvent: water                                                           
 
 vradii
            1           2           3
    1   1.8500000   1.5200000   1.5200000
 -------------------------------------------------------
 OpenMP BLAS3 based DFT computing Module                
 Release: version 1.0, May 2013, Q-Chem Inc. Pittsburgh 
 -------------------------------------------------------
 A unrestricted SCF calculation will be
 performed using Roothaan-Hall, DIIS, GDM
 SCF converges when RMS gradient is below 1.0e-07
 ---------------------------------------
  Cycle       Energy         DIIS error
 ---------------------------------------
    1    -188.5795453562      4.12e-04  Roothaan Step
 ---------------------------------------
  Cycle       Energy         DIIS error
 ---------------------------------------
    1    -188.6897413603      4.09e-04  
    2    -188.6907331604      4.86e-04  Done DIIS. Switching to GDM
 ---------------------------------------
  Cycle       Energy        RMS Gradient
 ---------------------------------------
    1    -188.6907331604      1.20e-02   Normal BFGS step
    2    -188.6905612473      1.61e-02  Line search: overstep
    3    -188.6914866802      3.79e-03   Normal BFGS step
    4    -188.6915253374      2.02e-03   Normal BFGS step
    5    -188.6915338442      5.39e-04   Normal BFGS step
    6    -188.6915350828      1.91e-04   Normal BFGS step
    7    -188.6915353217      6.03e-05   Normal BFGS step
    8    -188.6915353334      2.36e-05   Normal BFGS step
    9    -188.6915353346      1.60e-05   Normal BFGS step
   10    -188.6915353357      3.36e-06   Normal BFGS step
   11    -188.6915353358      1.14e-06   Normal BFGS step
   12    -188.6915353358      2.43e-07   Normal BFGS step
   13    -188.6915353358      7.30e-08  Convergence criterion met
 ---------------------------------------
 SCF time:   CPU 49.06s  wall 7.00s 
<S^2> =          0.752915123
(3)  G-ENP(liq) elect-nuc-pol free energy of system     -188.691535336 a.u.
(4)  G-CDS(liq) cavity-dispersion-solvent structure 
     free energy                                                5.3366 kcal/mol
(6)  G-S(liq) free energy of system                     -188.683030898 a.u.
 SCF   energy in the final basis set =     -188.6830308980
 Total energy in the final basis set =     -188.6830308980
 
 --------------------------------------------------------------
 
                    Orbital Energies (a.u.)
 --------------------------------------------------------------
 
 Alpha MOs
 -- Occupied --
-19.3146 -19.3146 -10.4342  -1.1860  -1.1123  -0.6286  -0.5561  -0.5396
 -0.5307  -0.3953  -0.3942  -0.2533
 -- Virtual --
  0.0800   0.0888   0.0961   0.1003   0.1445   0.2262   0.2303   0.2518
  0.2825   0.3034   0.3090   0.3243   0.3595   0.4712   0.5739   0.6207
  0.6289   0.7868   0.7973   0.7996   0.8824   0.9696   1.0692   1.0930
  1.1359   1.1584   1.1695   1.2012   1.3791   1.4520   1.5775   1.5804
  1.6089   1.7030   1.7113   1.7992   2.0613   2.0781   2.1818   2.3846
  2.5067   2.5360   2.8439   2.8942   2.9548   3.1036   3.1206   3.2370
  3.2670   3.2971   3.4640   3.4960   3.5534   3.6644   3.6713   3.9180
  4.1651   5.1501   5.1544   5.1645   5.1656   5.1692   5.1946   5.2280
  5.2788   5.3065   5.4277   5.4966   5.5199   5.5471   5.6507   6.0187
  6.2706   6.5933   6.8569   6.8901   6.8908   6.9608   6.9667   6.9677
  7.2591   7.2910   7.3805   7.4227   7.5633   7.7514   7.7546  25.1100
 50.6430  50.6532
 
 Beta MOs
 -- Occupied --
-19.3089 -19.3089 -10.4252  -1.1719  -1.0968  -0.6100  -0.5382  -0.5200
 -0.5033  -0.3893  -0.3713
 -- Virtual --
  0.0200   0.0878   0.0881   0.0910   0.1146   0.1618   0.2222   0.2281
  0.2492   0.2814   0.3013   0.3071   0.3243   0.3615   0.4786   0.5953
  0.6332   0.6439   0.8019   0.8142   0.8143   0.8988   0.9793   1.0756
  1.0987   1.1397   1.1743   1.1763   1.2032   1.3875   1.4734   1.5821
  1.5860   1.6128   1.7165   1.7184   1.8127   2.0671   2.0993   2.1916
  2.4122   2.5174   2.5537   2.8601   2.9362   3.0001   3.1334   3.1497
  3.2682   3.3245   3.3592   3.4776   3.5303   3.5842   3.6872   3.6912
  3.9413   4.1991   5.1603   5.1631   5.1727   5.1735   5.1767   5.2087
  5.2370   5.2995   5.3213   5.4423   5.5027   5.5326   5.5596   5.6610
  6.0457   6.2781   6.6114   6.8784   6.9047   6.9060   6.9798   6.9805
  6.9866   7.2814   7.2971   7.3916   7.4450   7.5855   7.7696   7.7729
 25.1177  50.6478  50.6581
 --------------------------------------------------------------
 
          Ground-State Mulliken Net Atomic Charges

     Atom                 Charge (a.u.)    Spin (a.u.)
  --------------------------------------------------------
      1 C                     0.017967       0.753120
      2 O                    -0.508645       0.123223
      3 O                    -0.509322       0.123657
  --------------------------------------------------------
  Sum of atomic charges =    -1.000000
  Sum of spin   charges =     1.000000

 -----------------------------------------------------------------
                    Cartesian Multipole Moments
 -----------------------------------------------------------------
    Charge (ESU x 10^10)
                -4.8032
    Dipole Moment (Debye)
         X       4.8645      Y       4.6370      Z      -1.2921
       Tot       6.8436
    Quadrupole Moments (Debye-Ang)
        XX     -24.6212     XY      -4.8420     YY     -26.4311
        XZ      -0.2594     YZ       4.8368     ZZ     -25.2673
    Octopole Moments (Debye-Ang^2)
       XXX      60.4576    XXY      22.2871    XYY      25.3103
       YYY      63.9359    XXZ      -4.1531    XYZ      -3.7307
       YYZ     -14.9939    XZZ      23.5697    YZZ      25.0671
       ZZZ     -21.6746
    Hexadecapole Moments (Debye-Ang^3)
      XXXX    -139.3524   XXXY     -52.5372   XXYY     -54.0051
      XYYY     -58.9785   YYYY    -169.2228   XXXZ       5.3393
      XXYZ      15.0050   XYYZ      10.7101   YYYZ      52.4087
      XXZZ     -44.5159   XYZZ     -22.7331   YYZZ     -53.8617
      XZZZ      11.8102   YZZZ      44.9139   ZZZZ    -110.5554
 -----------------------------------------------------------------
 Calculating analytic gradient of the SCF energy
 Gradient of CDS energy
            1           2           3
    1  -0.0009726   0.0002232   0.0007494
    2  -0.0009371   0.0013623  -0.0004251
    3  -0.0004181  -0.0011861   0.0016042
 Gradient of SCF Energy
            1           2           3
    1  -0.0195143   0.0046073   0.0149070
    2  -0.0188671   0.0269809  -0.0081138
    3  -0.0084493  -0.0231934   0.0316428
 Max gradient component =       3.164E-02
 RMS gradient           =       1.939E-02
 Computing fast CPCM-SWIG gradient
 Updating gradient with PCM contributions...
 -- total gradient after adding PCM contribution --
---------------------------------------------------
  Atom         X              Y              Z     
---------------------------------------------------
   1       0.002615       0.002372       0.001038
   2      -0.000754      -0.003182       0.002630
   3      -0.001861       0.000810      -0.003668
---------------------------------------------------
 Number of fixed atoms: 0
 Gradient time:  CPU 9.18 s  wall 1.17 s
 Geometry Optimization Parameters
   NAtoms,    NIC,     NZ,  NCons,   NDum,   NFix, NCnnct, MaxDiis
        3       9       0       0       0       0       0       0

 Cartesian Hessian Update
 Hessian updated using BFGS update


** GEOMETRY OPTIMIZATION IN DELOCALIZED INTERNAL COORDINATES **
   Searching for a Minimum

   Optimization Cycle:   2

                       Coordinates (Angstroms)
     ATOM                X               Y               Z
      1  C        -0.7360385916   -0.6988255443    0.3878169538
      2  O        -0.8877490040   -1.6246205325    1.1938723398
      3  O        -1.2450817046   -0.4100328231   -0.7018703937
   Point Group: c1    Number of degrees of freedom:     3


   Energy is   -188.683030898

 Hessian updated using BFGS update

  3 Hessian modes will be used to form the next step
  Hessian Eigenvalues:
     0.253239    0.660721    0.840630

 Minimum search - taking simple RFO step
 Searching for Lamda that Minimizes Along All modes
 Value Taken    Lamda =  -0.00005531
 Step Taken.  Stepsize is  0.009530

                             Maximum     Tolerance    Cnvgd?
         Gradient           0.005215      0.000300      NO
         Displacement       0.009153      0.001200      NO
         Energy change     -0.000555      0.000001      NO


 New Cartesian Coordinates Obtained by Inverse Iteration

 Displacement from previous Coordinates is:  0.007959
 ----------------------------------------------------------------
             Standard Nuclear Orientation (Angstroms)
    I     Atom           X                Y                Z
 ----------------------------------------------------------------
    1      C      -0.7374016838    -0.7001384888     0.3872305536
    2      O      -0.8874492206    -1.6226674974     1.1921413780
    3      O      -1.2440183957    -0.4106729137    -0.6995530317
 ----------------------------------------------------------------
 Nuclear Repulsion Energy =          56.07295918 hartrees
 There are       12 alpha and       11 beta electrons
 Discretize the solute cavity surface with Lebedev spheres
	Using 110 Lebedev grid points for each H atom
	Using 194 Lebedev grid points for other atoms
	Atomic van der Waals radii will be scaled by 1.20
 Remove points where switching function is < 1.0e-08
 Keep 392 surface tesserae and discard 190 interior tesserae
 Molecular Surface Area = 56.991 Angst**2
 Applying Cartesian multipole field
    Component          Value
    ---------          -----
     (2,0,0)        1.00000E-11
     (0,2,0)        2.00000E-11
     (0,0,2)       -3.00000E-11
 Nucleus-field energy     =     0.0000000009 hartrees
 Requested basis set is 6-311++G(2df,2p)
 There are 24 shells and 102 basis functions
 A cutoff of  1.0D-12 yielded    297 shell pairs
 There are      5439 function pairs (      7191 Cartesian)
 Smallest overlap matrix eigenvalue = 1.05E-03
 Guess MOs from SCF MO coefficient file

 -----------------------------------------------------------------------
  General SCF calculation program by
  Eric Jon Sundstrom, Paul Horn, Yuezhi Mao, Dmitri Zuev, Alec White,
  David Stuck, Shaama M.S., Shane Yost, Joonho Lee, David Small,
  Daniel Levine, Susi Lehtola, Hugh Burton, Evgeny Epifanovsky,
  Bang C. Huynh
 -----------------------------------------------------------------------
 Exchange:     0.1500 Hartree-Fock + 1.0000 wB97M-V + LR-HF
 Correlation:  1.0000 wB97M-V
 Using SG-2 standard quadrature grid
 Nonlocal Correlation:  VV10 with C = 0.0100 and b = 6.00 and scale = 1.00000
 Grid used for NLC:  SG-1 standard quadrature
 
 Citation of the SMD model:
 Marenich, A.V.; Cramer, C.J.; Truhlar, D.G.
 J. Phys. Chem. B 2009, 113, 6378-6396.
 iSolventCode=           1
 Solvent: water                                                           
 
 vradii
            1           2           3
    1   1.8500000   1.5200000   1.5200000
 -------------------------------------------------------
 OpenMP BLAS3 based DFT computing Module                
 Release: version 1.0, May 2013, Q-Chem Inc. Pittsburgh 
 -------------------------------------------------------
 A unrestricted SCF calculation will be
 performed using Roothaan-Hall, DIIS, GDM
 SCF converges when RMS gradient is below 1.0e-07
 ---------------------------------------
  Cycle       Energy         DIIS error
 ---------------------------------------
    1    -188.5802422285      3.18e-04  Roothaan Step
 ---------------------------------------
  Cycle       Energy         DIIS error
 ---------------------------------------
    1    -188.6896598051      4.19e-04  
    2    -188.6907274488      4.99e-04  Done DIIS. Switching to GDM
 ---------------------------------------
  Cycle       Energy        RMS Gradient
 ---------------------------------------
    1    -188.6907274488      1.19e-02   Normal BFGS step
    2    -188.6905771240      1.62e-02  Line search: overstep
    3    -188.6915225399      4.48e-03   Normal BFGS step
    4    -188.6915699319      2.45e-03   Normal BFGS step
    5    -188.6915816910      5.74e-04   Normal BFGS step
    6    -188.6915831707      2.15e-04   Normal BFGS step
    7    -188.6915834331      6.20e-05   Normal BFGS step
    8    -188.6915834470      2.57e-05   Normal BFGS step
    9    -188.6915834498      7.13e-06   Normal BFGS step
   10    -188.6915834499      3.12e-06   Normal BFGS step
   11    -188.6915834500      1.93e-06   Normal BFGS step
   12    -188.6915834500      3.55e-07   Normal BFGS step
   13    -188.6915834500      1.54e-07   Normal BFGS step
   14    -188.6915834500      2.24e-08  Convergence criterion met
 ---------------------------------------
 SCF time:   CPU 51.53s  wall 7.00s 
<S^2> =          0.752883573
(3)  G-ENP(liq) elect-nuc-pol free energy of system     -188.691583450 a.u.
(4)  G-CDS(liq) cavity-dispersion-solvent structure 
     free energy                                                5.3510 kcal/mol
(6)  G-S(liq) free energy of system                     -188.683056090 a.u.
 SCF   energy in the final basis set =     -188.6830560896
 Total energy in the final basis set =     -188.6830560896
 
 --------------------------------------------------------------
 
                    Orbital Energies (a.u.)
 --------------------------------------------------------------
 
 Alpha MOs
 -- Occupied --
-19.3142 -19.3142 -10.4332  -1.1876  -1.1137  -0.6282  -0.5566  -0.5406
 -0.5318  -0.3955  -0.3945  -0.2518
 -- Virtual --
  0.0802   0.0888   0.0963   0.1004   0.1460   0.2263   0.2305   0.2519
  0.2827   0.3038   0.3090   0.3244   0.3594   0.4735   0.5765   0.6215
  0.6290   0.7897   0.7971   0.8000   0.8818   0.9708   1.0694   1.0929
  1.1361   1.1586   1.1695   1.2012   1.3806   1.4563   1.5783   1.5804
  1.6093   1.7048   1.7129   1.8012   2.0643   2.0813   2.1842   2.3853
  2.5100   2.5403   2.8447   2.8945   2.9557   3.1043   3.1211   3.2352
  3.2660   3.2970   3.4678   3.4945   3.5555   3.6668   3.6769   3.9245
  4.1746   5.1500   5.1540   5.1652   5.1659   5.1697   5.1950   5.2288
  5.2815   5.3065   5.4341   5.5008   5.5267   5.5528   5.6581   6.0304
  6.2838   6.6099   6.8643   6.8910   6.9083   6.9619   6.9680   6.9752
  7.2605   7.2914   7.3827   7.4203   7.5661   7.7584   7.7630  25.1239
 50.6470  50.6623
 
 Beta MOs
 -- Occupied --
-19.3085 -19.3085 -10.4242  -1.1735  -1.0982  -0.6098  -0.5388  -0.5212
 -0.5044  -0.3896  -0.3715
 -- Virtual --
  0.0206   0.0878   0.0881   0.0910   0.1153   0.1632   0.2223   0.2283
  0.2492   0.2815   0.3016   0.3071   0.3244   0.3613   0.4809   0.5975
  0.6334   0.6447   0.8050   0.8141   0.8146   0.8981   0.9805   1.0757
  1.0987   1.1399   1.1745   1.1763   1.2031   1.3889   1.4776   1.5828
  1.5861   1.6132   1.7183   1.7200   1.8147   2.0700   2.1024   2.1940
  2.4130   2.5207   2.5580   2.8610   2.9363   3.0010   3.1338   3.1504
  3.2667   3.3230   3.3585   3.4812   3.5290   3.5867   3.6930   3.6932
  3.9476   4.2087   5.1601   5.1627   5.1732   5.1737   5.1773   5.2089
  5.2378   5.3021   5.3213   5.4487   5.5069   5.5393   5.5652   5.6683
  6.0575   6.2913   6.6280   6.8854   6.9061   6.9230   6.9816   6.9876
  6.9878   7.2826   7.2974   7.3937   7.4420   7.5882   7.7733   7.7849
 25.1315  50.6518  50.6672
 --------------------------------------------------------------
 
          Ground-State Mulliken Net Atomic Charges

     Atom                 Charge (a.u.)    Spin (a.u.)
  --------------------------------------------------------
      1 C                     0.013954       0.755945
      2 O                    -0.506646       0.121812
      3 O                    -0.507308       0.122243
  --------------------------------------------------------
  Sum of atomic charges =    -1.000000
  Sum of spin   charges =     1.000000

 -----------------------------------------------------------------
                    Cartesian Multipole Moments
 -----------------------------------------------------------------
    Charge (ESU x 10^10)
                -4.8032
    Dipole Moment (Debye)
         X       4.8536      Y       4.6266      Z      -1.2969
       Tot       6.8297
    Quadrupole Moments (Debye-Ang)
        XX     -24.6070     XY      -4.8325     YY     -26.4073
        XZ      -0.2557     YZ       4.8165     ZZ     -25.2428
    Octopole Moments (Debye-Ang^2)
       XXX      60.4140    XXY      22.2725    XYY      25.2870
       YYY      63.8714    XXZ      -4.1608    XYZ      -3.7165
       YYZ     -14.9621    XZZ      23.5420    YZZ      25.0228
       ZZZ     -21.6593
    Hexadecapole Moments (Debye-Ang^3)
      XXXX    -139.2981   XXXY     -52.5141   XXYY     -53.9640
      XYYY     -58.9401   YYYY    -168.9940   XXXZ       5.3795
      XXYZ      14.9533   XYYZ      10.7014   YYYZ      52.2323
      XXZZ     -44.4457   XYZZ     -22.7034   YYZZ     -53.7302
      XZZZ      11.8281   YZZZ      44.7394   ZZZZ    -110.2014
 -----------------------------------------------------------------
 Calculating analytic gradient of the SCF energy
 Gradient of CDS energy
            1           2           3
    1  -0.0009329   0.0002131   0.0007198
    2  -0.0008989   0.0013102  -0.0004113
    3  -0.0004009  -0.0011431   0.0015441
 Gradient of SCF Energy
            1           2           3
    1  -0.0216737   0.0051006   0.0165730
    2  -0.0209479   0.0300114  -0.0090635
    3  -0.0093776  -0.0258349   0.0352125
 Max gradient component =       3.521E-02
 RMS gradient           =       2.157E-02
 Computing fast CPCM-SWIG gradient
 Updating gradient with PCM contributions...
 -- total gradient after adding PCM contribution --
---------------------------------------------------
  Atom         X              Y              Z     
---------------------------------------------------
   1       0.000050      -0.000101      -0.000063
   2      -0.000146       0.000345      -0.000393
   3       0.000096      -0.000244       0.000456
---------------------------------------------------
 Number of fixed atoms: 0
 Gradient time:  CPU 9.03 s  wall 1.15 s
 Geometry Optimization Parameters
   NAtoms,    NIC,     NZ,  NCons,   NDum,   NFix, NCnnct, MaxDiis
        3       9       0       0       0       0       0       0

 Cartesian Hessian Update
 Hessian updated using BFGS update


** GEOMETRY OPTIMIZATION IN DELOCALIZED INTERNAL COORDINATES **
   Searching for a Minimum

   Optimization Cycle:   3

                       Coordinates (Angstroms)
     ATOM                X               Y               Z
      1  C        -0.7374016838   -0.7001384888    0.3872305536
      2  O        -0.8874492206   -1.6226674974    1.1921413780
      3  O        -1.2440183957   -0.4106729137   -0.6995530317
   Point Group: c1    Number of degrees of freedom:     3


   Energy is   -188.683056090

 Hessian updated using BFGS update

  3 Hessian modes will be used to form the next step
  Hessian Eigenvalues:
     0.240613    0.760254    0.840634

 Minimum search - taking simple RFO step
 Searching for Lamda that Minimizes Along All modes
 Value Taken    Lamda =  -0.00000119
 Step Taken.  Stepsize is  0.001683

                             Maximum     Tolerance    Cnvgd?
         Gradient           0.000743      0.000300      NO
         Displacement       0.001676      0.001200      NO
         Energy change     -0.000025      0.000001      NO


 New Cartesian Coordinates Obtained by Inverse Iteration

 Displacement from previous Coordinates is:  0.002022
 ----------------------------------------------------------------
             Standard Nuclear Orientation (Angstroms)
    I     Atom           X                Y                Z
 ----------------------------------------------------------------
    1      C      -0.7377342278    -0.7004582887     0.3870869238
    2      O      -0.8871843324    -1.6228435279     1.1927371935
    3      O      -1.2439507399    -0.4101770833    -0.7000052174
 ----------------------------------------------------------------
 Nuclear Repulsion Energy =          56.05466878 hartrees
 There are       12 alpha and       11 beta electrons
 Discretize the solute cavity surface with Lebedev spheres
	Using 110 Lebedev grid points for each H atom
	Using 194 Lebedev grid points for other atoms
	Atomic van der Waals radii will be scaled by 1.20
 Remove points where switching function is < 1.0e-08
 Keep 393 surface tesserae and discard 189 interior tesserae
 Molecular Surface Area = 56.996 Angst**2
 Applying Cartesian multipole field
    Component          Value
    ---------          -----
     (2,0,0)        1.00000E-11
     (0,2,0)        2.00000E-11
     (0,0,2)       -3.00000E-11
 Nucleus-field energy     =     0.0000000009 hartrees
 Requested basis set is 6-311++G(2df,2p)
 There are 24 shells and 102 basis functions
 A cutoff of  1.0D-12 yielded    297 shell pairs
 There are      5439 function pairs (      7191 Cartesian)
 Smallest overlap matrix eigenvalue = 1.05E-03
 Guess MOs from SCF MO coefficient file

 -----------------------------------------------------------------------
  General SCF calculation program by
  Eric Jon Sundstrom, Paul Horn, Yuezhi Mao, Dmitri Zuev, Alec White,
  David Stuck, Shaama M.S., Shane Yost, Joonho Lee, David Small,
  Daniel Levine, Susi Lehtola, Hugh Burton, Evgeny Epifanovsky,
  Bang C. Huynh
 -----------------------------------------------------------------------
 Exchange:     0.1500 Hartree-Fock + 1.0000 wB97M-V + LR-HF
 Correlation:  1.0000 wB97M-V
 Using SG-2 standard quadrature grid
 Nonlocal Correlation:  VV10 with C = 0.0100 and b = 6.00 and scale = 1.00000
 Grid used for NLC:  SG-1 standard quadrature
 
 Citation of the SMD model:
 Marenich, A.V.; Cramer, C.J.; Truhlar, D.G.
 J. Phys. Chem. B 2009, 113, 6378-6396.
 iSolventCode=           1
 Solvent: water                                                           
 
 vradii
            1           2           3
    1   1.8500000   1.5200000   1.5200000
 -------------------------------------------------------
 OpenMP BLAS3 based DFT computing Module                
 Release: version 1.0, May 2013, Q-Chem Inc. Pittsburgh 
 -------------------------------------------------------
 A unrestricted SCF calculation will be
 performed using Roothaan-Hall, DIIS, GDM
 SCF converges when RMS gradient is below 1.0e-07
 ---------------------------------------
  Cycle       Energy         DIIS error
 ---------------------------------------
    1    -188.5803437101      3.10e-04  Roothaan Step
 ---------------------------------------
  Cycle       Energy         DIIS error
 ---------------------------------------
    1    -188.6896104718      4.22e-04  
    2    -188.6907110460      5.02e-04  Done DIIS. Switching to GDM
 ---------------------------------------
  Cycle       Energy        RMS Gradient
 ---------------------------------------
    1    -188.6907110460      1.20e-02   Normal BFGS step
    2    -188.6905697695      1.61e-02  Line search: overstep
    3    -188.6915164611      4.65e-03   Normal BFGS step
    4    -188.6915670783      2.58e-03   Normal BFGS step
    5    -188.6915800906      5.82e-04   Normal BFGS step
    6    -188.6915816443      2.23e-04   Normal BFGS step
    7    -188.6915819195      6.23e-05   Normal BFGS step
    8    -188.6915819337      2.65e-05   Normal BFGS step
    9    -188.6915819367      7.07e-06   Normal BFGS step
   10    -188.6915819369      3.74e-06   Normal BFGS step
   11    -188.6915819370      1.34e-06   Normal BFGS step
   12    -188.6915819370      3.62e-07   Normal BFGS step
   13    -188.6915819370      1.53e-07   Normal BFGS step
   14    -188.6915819370      2.21e-08  Convergence criterion met
 ---------------------------------------
 SCF time:   CPU 51.34s  wall 7.00s 
<S^2> =          0.752883649
(3)  G-ENP(liq) elect-nuc-pol free energy of system     -188.691581937 a.u.
(4)  G-CDS(liq) cavity-dispersion-solvent structure 
     free energy                                                5.3497 kcal/mol
(6)  G-S(liq) free energy of system                     -188.683056573 a.u.
 SCF   energy in the final basis set =     -188.6830565729
 Total energy in the final basis set =     -188.6830565729
 
 --------------------------------------------------------------
 
                    Orbital Energies (a.u.)
 --------------------------------------------------------------
 
 Alpha MOs
 -- Occupied --
-19.3143 -19.3143 -10.4333  -1.1874  -1.1136  -0.6282  -0.5566  -0.5405
 -0.5317  -0.3956  -0.3945  -0.2517
 -- Virtual --
  0.0802   0.0888   0.0963   0.1004   0.1458   0.2263   0.2304   0.2519
  0.2828   0.3038   0.3090   0.3243   0.3594   0.4731   0.5767   0.6213
  0.6291   0.7896   0.7969   0.7997   0.8815   0.9709   1.0694   1.0930
  1.1360   1.1585   1.1697   1.2013   1.3802   1.4569   1.5786   1.5800
  1.6090   1.7048   1.7117   1.8012   2.0638   2.0818   2.1847   2.3851
  2.5100   2.5403   2.8447   2.8943   2.9552   3.1030   3.1213   3.2353
  3.2661   3.2969   3.4669   3.4939   3.5560   3.6655   3.6769   3.9240
  4.1753   5.1500   5.1541   5.1652   5.1659   5.1695   5.1949   5.2287
  5.2812   5.3066   5.4344   5.4994   5.5267   5.5512   5.6576   6.0306
  6.2820   6.6104   6.8632   6.8909   6.9079   6.9617   6.9680   6.9729
  7.2609   7.2909   7.3830   7.4212   7.5651   7.7582   7.7638  25.1223
 50.6464  50.6622
 
 Beta MOs
 -- Occupied --
-19.3086 -19.3086 -10.4243  -1.1733  -1.0982  -0.6099  -0.5389  -0.5211
 -0.5043  -0.3896  -0.3716
 -- Virtual --
  0.0207   0.0878   0.0881   0.0910   0.1153   0.1631   0.2223   0.2282
  0.2492   0.2816   0.3017   0.3070   0.3243   0.3613   0.4805   0.5978
  0.6334   0.6446   0.8049   0.8139   0.8142   0.8978   0.9806   1.0757
  1.0988   1.1399   1.1744   1.1765   1.2032   1.3885   1.4781   1.5831
  1.5858   1.6129   1.7183   1.7188   1.8147   2.0696   2.1029   2.1945
  2.4128   2.5207   2.5581   2.8609   2.9361   3.0005   3.1340   3.1491
  3.2667   3.3231   3.3583   3.4801   3.5285   3.5872   3.6918   3.6929
  3.9470   4.2093   5.1602   5.1627   5.1730   5.1737   5.1772   5.2088
  5.2376   5.3018   5.3214   5.4490   5.5055   5.5393   5.5637   5.6679
  6.0577   6.2895   6.6285   6.8844   6.9061   6.9225   6.9814   6.9852
  6.9878   7.2830   7.2969   7.3940   7.4428   7.5871   7.7730   7.7858
 25.1299  50.6512  50.6671
 --------------------------------------------------------------
 
          Ground-State Mulliken Net Atomic Charges

     Atom                 Charge (a.u.)    Spin (a.u.)
  --------------------------------------------------------
      1 C                     0.013582       0.756240
      2 O                    -0.506462       0.121664
      3 O                    -0.507121       0.122097
  --------------------------------------------------------
  Sum of atomic charges =    -1.000000
  Sum of spin   charges =     1.000000

 -----------------------------------------------------------------
                    Cartesian Multipole Moments
 -----------------------------------------------------------------
    Charge (ESU x 10^10)
                -4.8032
    Dipole Moment (Debye)
         X       4.8518      Y       4.6249      Z      -1.2977
       Tot       6.8275
    Quadrupole Moments (Debye-Ang)
        XX     -24.6060     XY      -4.8289     YY     -26.4075
        XZ      -0.2558     YZ       4.8182     ZZ     -25.2479
    Octopole Moments (Debye-Ang^2)
       XXX      60.4145    XXY      22.2690    XYY      25.2850
       YYY      63.8755    XXZ      -4.1603    XYZ      -3.7174
       YYZ     -14.9665    XZZ      23.5469    YZZ      25.0280
       ZZZ     -21.6634
    Hexadecapole Moments (Debye-Ang^3)
      XXXX    -139.3030   XXXY     -52.5024   XXYY     -53.9665
      XYYY     -58.9337   YYYY    -169.0353   XXXZ       5.3736
      XXYZ      14.9624   XYYZ      10.7044   YYYZ      52.2660
      XXZZ     -44.4650   XYZZ     -22.7059   YYZZ     -53.7549
      XZZZ      11.8261   YZZZ      44.7677   ZZZZ    -110.2834
 -----------------------------------------------------------------
 Calculating analytic gradient of the SCF energy
 Gradient of CDS energy
            1           2           3
    1  -0.0009344   0.0002129   0.0007215
    2  -0.0009004   0.0013141  -0.0004137
    3  -0.0004015  -0.0011478   0.0015493
 Gradient of SCF Energy
            1           2           3
    1  -0.0215897   0.0051295   0.0164602
    2  -0.0208648   0.0297265  -0.0088617
    3  -0.0093437  -0.0254734   0.0348171
 Max gradient component =       3.482E-02
 RMS gradient           =       2.137E-02
 Computing fast CPCM-SWIG gradient
 Updating gradient with PCM contributions...
 -- total gradient after adding PCM contribution --
---------------------------------------------------
  Atom         X              Y              Z     
---------------------------------------------------
   1       0.000034      -0.000115      -0.000072
   2      -0.000047       0.000043       0.000094
   3       0.000013       0.000072      -0.000022
---------------------------------------------------
 Number of fixed atoms: 0
 Gradient time:  CPU 9.13 s  wall 1.16 s
 Geometry Optimization Parameters
   NAtoms,    NIC,     NZ,  NCons,   NDum,   NFix, NCnnct, MaxDiis
        3       9       0       0       0       0       0       0

 Cartesian Hessian Update
 Hessian updated using BFGS update


** GEOMETRY OPTIMIZATION IN DELOCALIZED INTERNAL COORDINATES **
   Searching for a Minimum

   Optimization Cycle:   4

                       Coordinates (Angstroms)
     ATOM                X               Y               Z
      1  C        -0.7377342278   -0.7004582887    0.3870869238
      2  O        -0.8871843324   -1.6228435279    1.1927371935
      3  O        -1.2439507399   -0.4101770833   -0.7000052174
   Point Group: c1    Number of degrees of freedom:     3


   Energy is   -188.683056573

 Hessian updated using BFGS update

  3 Hessian modes will be used to form the next step
  Hessian Eigenvalues:
     0.285785    0.760161    0.840629

 Minimum search - taking simple RFO step
 Searching for Lamda that Minimizes Along All modes
 Value Taken    Lamda =  -0.00000005
 Step Taken.  Stepsize is  0.000401

                             Maximum     Tolerance    Cnvgd?
         Gradient           0.000130      0.000300     YES
         Displacement       0.000335      0.001200     YES
         Energy change     -0.000000      0.000001     YES


                       Distance Matrix (Angstroms)
             C (  1)   O (  2)
   O (  2)  1.233776
   O (  3)  1.233810  2.276031
 
 Final energy is   -188.683056572853     


 ******************************
 **  OPTIMIZATION CONVERGED  **
 ******************************

                       Coordinates (Angstroms)
     ATOM                X               Y               Z
      1  C        -0.7377342278   -0.7004582887    0.3870869238
      2  O        -0.8871843324   -1.6228435279    1.1927371935
      3  O        -1.2439507399   -0.4101770833   -0.7000052174

Z-matrix Print:
$molecule
-1 2
C 
O  1 1.233776
O  1 1.233810 2 134.550549
$end

 
 --------------------------------------------------------------
 
                    Orbital Energies (a.u.)
 --------------------------------------------------------------
 
 Alpha MOs
 -- Occupied --
-19.3143 -19.3143 -10.4333  -1.1874  -1.1136  -0.6282  -0.5566  -0.5405
 -0.5317  -0.3956  -0.3945  -0.2517
 -- Virtual --
  0.0802   0.0888   0.0963   0.1004   0.1458   0.2263   0.2304   0.2519
  0.2828   0.3038   0.3090   0.3243   0.3594   0.4731   0.5767   0.6213
  0.6291   0.7896   0.7969   0.7997   0.8815   0.9709   1.0694   1.0930
  1.1360   1.1585   1.1697   1.2013   1.3802   1.4569   1.5786   1.5800
  1.6090   1.7048   1.7117   1.8012   2.0638   2.0818   2.1847   2.3851
  2.5100   2.5403   2.8447   2.8943   2.9552   3.1030   3.1213   3.2353
  3.2661   3.2969   3.4669   3.4939   3.5560   3.6655   3.6769   3.9240
  4.1753   5.1500   5.1541   5.1652   5.1659   5.1695   5.1949   5.2287
  5.2812   5.3066   5.4344   5.4994   5.5267   5.5512   5.6576   6.0306
  6.2820   6.6104   6.8632   6.8909   6.9079   6.9617   6.9680   6.9729
  7.2609   7.2909   7.3830   7.4212   7.5651   7.7582   7.7638  25.1223
 50.6464  50.6622
 
 Beta MOs
 -- Occupied --
-19.3086 -19.3086 -10.4243  -1.1733  -1.0982  -0.6099  -0.5389  -0.5211
 -0.5043  -0.3896  -0.3716
 -- Virtual --
  0.0207   0.0878   0.0881   0.0910   0.1153   0.1631   0.2223   0.2282
  0.2492   0.2816   0.3017   0.3070   0.3243   0.3613   0.4805   0.5978
  0.6334   0.6446   0.8049   0.8139   0.8142   0.8978   0.9806   1.0757
  1.0988   1.1399   1.1744   1.1765   1.2032   1.3885   1.4781   1.5831
  1.5858   1.6129   1.7183   1.7188   1.8147   2.0696   2.1029   2.1945
  2.4128   2.5207   2.5581   2.8609   2.9361   3.0005   3.1340   3.1491
  3.2667   3.3231   3.3583   3.4801   3.5285   3.5872   3.6918   3.6929
  3.9470   4.2093   5.1602   5.1627   5.1730   5.1737   5.1772   5.2088
  5.2376   5.3018   5.3214   5.4490   5.5055   5.5393   5.5637   5.6679
  6.0577   6.2895   6.6285   6.8844   6.9061   6.9225   6.9814   6.9852
  6.9878   7.2830   7.2969   7.3940   7.4428   7.5871   7.7730   7.7858
 25.1299  50.6512  50.6671
 --------------------------------------------------------------
 
          Ground-State Mulliken Net Atomic Charges

     Atom                 Charge (a.u.)    Spin (a.u.)
  --------------------------------------------------------
      1 C                     0.013582       0.756240
      2 O                    -0.506462       0.121664
      3 O                    -0.507121       0.122097
  --------------------------------------------------------
  Sum of atomic charges =    -1.000000
  Sum of spin   charges =     1.000000

 -----------------------------------------------------------------
                    Cartesian Multipole Moments
 -----------------------------------------------------------------
    Charge (ESU x 10^10)
                -4.8032
    Dipole Moment (Debye)
         X       4.8518      Y       4.6249      Z      -1.2977
       Tot       6.8275
    Quadrupole Moments (Debye-Ang)
        XX     -24.6060     XY      -4.8289     YY     -26.4075
        XZ      -0.2558     YZ       4.8182     ZZ     -25.2479
    Octopole Moments (Debye-Ang^2)
       XXX      60.4145    XXY      22.2690    XYY      25.2850
       YYY      63.8755    XXZ      -4.1603    XYZ      -3.7174
       YYZ     -14.9665    XZZ      23.5469    YZZ      25.0280
       ZZZ     -21.6634
    Hexadecapole Moments (Debye-Ang^3)
      XXXX    -139.3030   XXXY     -52.5024   XXYY     -53.9665
      XYYY     -58.9337   YYYY    -169.0353   XXXZ       5.3736
      XXYZ      14.9624   XYYZ      10.7044   YYYZ      52.2660
      XXZZ     -44.4650   XYZZ     -22.7059   YYZZ     -53.7549
      XZZZ      11.8261   YZZZ      44.7677   ZZZZ    -110.2834
 -----------------------------------------------------------------
 Total job time:  32.25s(wall), 248.91s(cpu) 
 Tue Jul 25 18:21:43 2023

        *************************************************************
        *                                                           *
        *  Thank you very much for using Q-Chem.  Have a nice day.  *
        *                                                           *
        *************************************************************


