
Running Job 1 of 1 Q_in.in
qchem Q_in.in_257322.0 /scratch/ari.fischer/qChem1854162.hpc-mn1/qchem257322/ 0
/usr/local/qchem-5.4.1/exe/qcprog.exe_s Q_in.in_257322.0 /scratch/ari.fischer/qChem1854162.hpc-mn1/qchem257322/
                  Welcome to Q-Chem
     A Quantum Leap Into The Future Of Chemistry


 Q-Chem 5.4, Q-Chem, Inc., Pleasanton, CA (2021)

 License issued to: Nanyang Technological University (site)

 E. Epifanovsky,  A. T. B. Gilbert,  Xintian Feng,  Joonho Lee,  Yuezhi Mao,  
 N. Mardirossian,  P. Pokhilko,  A. White,  M. Wormit,  M. P. Coons,  
 A. L. Dempwolff,  Zhengting Gan,  D. Hait,  P. R. Horn,  L. D. Jacobson,  
 I. Kaliman,  J. Kussmann,  A. W. Lange,  Ka Un Lao,  D. S. Levine,  Jie Liu,  
 S. C. McKenzie,  A. F. Morrison,  K. Nanda,  F. Plasser,  D. R. Rehn,  
 M. L. Vidal,  Zhi-Qiang You,  Ying Zhu,  B. Alam,  B. Albrecht,  
 A. Aldossary,  E. Alguire,  J. H. Andersen,  D. Barton,  K. Begam,  A. Behn,  
 Y. A. Bernard,  E. J. Berquist,  H. Burton,  A. Carreras,  K. Carter-Fenk,  
 R. Chakraborty,  A. D. Chien,  K. D. Closser,  V. Cofer-Shabica,  
 S. Dasgupta,  Jia Deng,  M. de Wergifosse,  M. Diedenhofen,  Hainam Do,  
 S. Ehlert,  Po-Tung Fang,  S. Fatehi,  Qingguo Feng,  T. Friedhoff,  
 J. Gayvert,  Qinghui Ge,  G. Gidofalvi,  M. Goldey,  J. Gomes,  
 C. Gonzalez-Espinoza,  S. Gulania,  A. Gunina,  M. W. D. Hanson-Heine,  
 P. H. P. Harbach,  A. W. Hauser,  M. F. Herbst,  M. Hernandez Vera,  
 M. Hodecker,  Z. C. Holden,  S. Houck,  Xunkun Huang,  Kerwin Hui,  
 B. C. Huynh,  M. Ivanov,  Hyunjun Ji,  Hanjie Jiang,  B. Kaduk,  S. Kaehler,  
 K. Khistyaev,  Jaehoon Kim,  P. Klunzinger,  Z. Koczor-Benda,  
 Joong Hoon Koh,  D. Kosenkov,  L. Koulias,  T. Kowalczyk,  C. M. Krauter,  
 K. Kue,  A. Kunitsa,  T. Kus,  A. Landau,  K. V. Lawler,  D. Lefrancois,  
 S. Lehtola,  Rain Li,  Yi-Pei Li,  Jiashu Liang,  M. Liebenthal,  
 Hung-Hsuan Lin,  You-Sheng Lin,  Fenglai Liu,  Kuan-Yu Liu,  
 M. Loipersberger,  A. Luenser,  A. Manjanath,  P. Manohar,  E. Mansoor,  
 S. F. Manzer,  Shan-Ping Mao,  A. V. Marenich,  T. Markovich,  S. Mason,  
 S. A. Maurer,  P. F. McLaughlin,  M. F. S. J. Menger,  J.-M. Mewes,  
 S. A. Mewes,  P. Morgante,  J. W. Mullinax,  K. J. Oosterbaan,  G. Paran,  
 Alexander C. Paul,  Suranjan K. Paul,  F. Pavosevic,  Zheng Pei,  S. Prager,  
 E. I. Proynov,  E. Ramos,  B. Rana,  A. E. Rask,  A. Rettig,  R. M. Richard,  
 F. Rob,  E. Rossomme,  T. Scheele,  M. Scheurer,  M. Schneider,  
 N. Sergueev,  S. M. Sharada,  W. Skomorowski,  D. W. Small,  C. J. Stein,  
 Yu-Chuan Su,  E. J. Sundstrom,  Zhen Tao,  J. Thirman,  T. Tsuchimochi,  
 N. M. Tubman,  S. P. Veccham,  O. Vydrov,  J. Wenzel,  J. Witte,  A. Yamada,  
 Kun Yao,  S. Yeganeh,  S. R. Yost,  A. Zech,  Igor Ying Zhang,  Xing Zhang,  
 Yu Zhang,  D. Zuev,  A. Aspuru-Guzik,  A. T. Bell,  N. A. Besley,  
 K. B. Bravaya,  B. R. Brooks,  D. Casanova,  Jeng-Da Chai,  S. Coriani,  
 C. J. Cramer,  A. E. DePrince, III,  R. A. DiStasio Jr.,  A. Dreuw,  
 B. D. Dunietz,  T. R. Furlani,  W. A. Goddard III,  S. Grimme,  
 S. Hammes-Schiffer,  T. Head-Gordon,  W. J. Hehre,  Chao-Ping Hsu,  
 T.-C. Jagau,  Yousung Jung,  A. Klamt,  Jing Kong,  D. S. Lambrecht,  
 WanZhen Liang,  N. J. Mayhall,  C. W. McCurdy,  J. B. Neaton,  
 C. Ochsenfeld,  J. A. Parkhill,  R. Peverati,  V. A. Rassolov,  Yihan Shao,  
 L. V. Slipchenko,  T. Stauch,  R. P. Steele,  J. E. Subotnik,  
 A. J. W. Thom,  A. Tkatchenko,  D. G. Truhlar,  T. Van Voorhis,  
 T. A. Wesolowski,  K. B. Whaley,  H. L. Woodcock III,  P. M. Zimmerman,  
 S. Faraji,  P. M. W. Gill,  M. Head-Gordon,  J. M. Herbert,  A. I. Krylov

 Additional authors for Version 5.4.1: 
 S. Kotaru,  Shaozhi Li,  Xiangyuan Li,  F. Matz,  A. Molle,  Haisheng Ren,  
 Yingli Su,  Hung-Yi Tsai,  C. Utku,  Fang Wang

 Contributors to earlier versions of Q-Chem not listed above: 
 R. D. Adamson,  B. Austin,  R. Baer,  J. Baker,  G. J. O. Beran,  
 K. Brandhorst,  S. T. Brown,  E. F. C. Byrd,  A. K. Chakraborty,  
 G. K. L. Chan,  Chun-Min Chang,  Yunqing Chen,  C.-L. Cheng,  
 Siu Hung Chien,  D. M. Chipman,  D. L. Crittenden,  H. Dachsel,  
 R. J. Doerksen,  A. D. Dutoi,  R. G. Edgar,  J. Fosso-Tande,  
 L. Fusti-Molnar,  D. Ghosh,  A. Ghysels,  A. Golubeva-Zadorozhnaya,  
 J. Gonthier,  M. S. Gordon,  S. R. Gwaltney,  G. Hawkins,  J. E. Herr,  
 A. Heyden,  S. Hirata,  E. G. Hohenstein,  G. Kedziora,  F. J. Keil,  
 C. Kelley,  Jihan Kim,  R. A. King,  R. Z. Khaliullin,  P. P. Korambath,  
 W. Kurlancheek,  A. Laurent,  A. M. Lee,  M. S. Lee,  S. V. Levchenko,  
 Ching Yeh Lin,  D. Liotard,  E. Livshits,  R. C. Lochan,  I. Lotan,  
 L. A. Martinez-Martinez,  P. E. Maslen,  N. Nair,  D. P. O'Neill,  
 D. Neuhauser,  E. Neuscamman,  C. M. Oana,  R. Olivares-Amaya,  R. Olson,  
 T. M. Perrine,  B. Peters,  P. A. Pieniazek,  A. Prociuk,  Y. M. Rhee,  
 J. Ritchie,  M. A. Rohrdanz,  E. Rosta,  N. J. Russ,  H. F. Schaefer III,  
 M. W. Schmidt,  N. E. Schultz,  S. Sharma,  N. Shenvi,  C. D. Sherrill,  
 A. C. Simmonett,  A. Sodt,  T. Stein,  D. Stuck,  K. S. Thanthiriwatte,  
 V. Vanovschi,  L. Vogt,  Tao Wang,  A. Warshel,  M. A. Watson,  
 C. F. Williams,  Q. Wu,  X. Xu,  Jun Yang,  W. Zhang,  Yan Zhao

 Please cite Q-Chem as follows:
 Y. Shao et al., Mol. Phys. 113, 184-215 (2015)
 DOI: 10.1080/00268976.2014.952696

 Q-Chem 5.4.1 for Intel X86 EM64T Linux

 Parts of Q-Chem use Armadillo 9.800.1 (Horizon Scraper).
 http://arma.sourceforge.net/

 Q-Chem begins on Thu Dec  7 15:53:31 2023  

 Host: 
0

     Scratch files written to /scratch/ari.fischer/qChem1854162.hpc-mn1/qchem257322//
 Aug1521 |scratch|qcdevops|jenkins|workspace|build_RNUM 8249   
 Processing $rem in /usr/local/qchem-5.4.1/config/preferences:
 Processing $rem in /home/ari.fischer/.qchemrc:
 Symmetry turned off for PCM/SM12/SMD calculation

 Checking the input file for inconsistencies... 	...done.

--------------------------------------------------------------
User input:
--------------------------------------------------------------
$molecule
0 2
O        -1.7005575682    1.7829465742    0.6678097587
H        -0.9876783031    2.4000545673    0.4231752626
$end

$rem
BASIS = 6-311++G(3df,2p)
JOB_TYPE = SP
METHOD = wB97M-V
SCF_ALGORITHM = DIIS_GDM
MAX_SCF_CYCLES = 400
SCF_CONVERGENCE = 7
THRESH = 12
Solvent_method = SMD
$end
--------------------------------------------------------------
 ----------------------------------------------------------------
             Standard Nuclear Orientation (Angstroms)
    I     Atom           X                Y                Z
 ----------------------------------------------------------------
    1      O      -1.7005575682     1.7829465742     0.6678097587
    2      H      -0.9876783031     2.4000545673     0.4231752626
 ----------------------------------------------------------------
 Nuclear Repulsion Energy =           4.34599147 hartrees
 There are        5 alpha and        4 beta electrons
 Requested basis set is 6-311++G(3df,2p)
 There are 15 shells and 49 basis functions

 Total QAlloc Memory Limit 288000 MB
 Mega-Array Size       188 MB
 MEM_STATIC part       192 MB
 
 Citation of the SMD model:
 Marenich, A.V.; Cramer, C.J.; Truhlar, D.G.
 J. Phys. Chem. B 2009, 113, 6378-6396.
 iSolventCode=           1
 Solvent: water                                                           
 
 vradii
            1           2
    1   1.5200000   1.2000000
 Changing PCM_VDW_RADII to SMD_RADIUS
 Discretize the solute cavity surface with Lebedev spheres
	Using 110 Lebedev grid points for each H atom
	Using 194 Lebedev grid points for other atoms
	Atomic van der Waals radii will be scaled by 1.20
 Remove points where switching function is < 1.0e-08
 Keep 245 surface tesserae and discard 59 interior tesserae
 Molecular Surface Area = 32.768 Angst**2

                       Distance Matrix (Angstroms)
             O (  1)
   H (  2)  0.974097
 
 A cutoff of  1.0D-12 yielded    120 shell pairs
 There are      1306 function pairs (      1660 Cartesian)
 Smallest overlap matrix eigenvalue = 1.39E-03

 Scale SEOQF with 1.000000e-01/1.000000e-01/1.000000e-01

 Standard Electronic Orientation quadrupole field applied
 Nucleus-field energy     =     0.0000000027 hartrees
 Guess from superposition of atomic densities
 Warning:  Energy on first SCF cycle will be non-variational
 SAD guess density has 9.000000 electrons

 -----------------------------------------------------------------------
  General SCF calculation program by
  Eric Jon Sundstrom, Paul Horn, Yuezhi Mao, Dmitri Zuev, Alec White,
  David Stuck, Shaama M.S., Shane Yost, Joonho Lee, David Small,
  Daniel Levine, Susi Lehtola, Hugh Burton, Evgeny Epifanovsky,
  Bang C. Huynh
 -----------------------------------------------------------------------
 Exchange:     0.1500 Hartree-Fock + 1.0000 wB97M-V + LR-HF
 Correlation:  1.0000 wB97M-V
 Using SG-2 standard quadrature grid
 Nonlocal Correlation:  VV10 with C = 0.0100 and b = 6.00 and scale = 1.00000
 Grid used for NLC:  SG-1 standard quadrature
 
 Citation of the SMD model:
 Marenich, A.V.; Cramer, C.J.; Truhlar, D.G.
 J. Phys. Chem. B 2009, 113, 6378-6396.
 iSolventCode=           1
 Solvent: water                                                           
 
 vradii
            1           2
    1   1.5200000   1.2000000
 using 4 threads for integral computing
 -------------------------------------------------------
 OpenMP Integral computing Module                
 Release: version 1.0, May 2013, Q-Chem Inc. Pittsburgh 
 -------------------------------------------------------
 -------------------------------------------------------
 OpenMP BLAS3 based DFT computing Module                
 Release: version 1.0, May 2013, Q-Chem Inc. Pittsburgh 
 -------------------------------------------------------
 A unrestricted SCF calculation will be
 performed using DIIS, GDM
 SCF converges when RMS gradient is below 1.0e-07
 ---------------------------------------
  Cycle       Energy         DIIS error
 ---------------------------------------
    1     -75.5131577820      1.97e-02  
    2     -75.7350117293      3.10e-03  Done DIIS. Switching to GDM
 ---------------------------------------
  Cycle       Energy        RMS Gradient
 ---------------------------------------
    1     -75.7350117293      4.89e-02   Normal BFGS step
    2     -75.7428047826      2.94e-02   Normal BFGS step
    3     -75.7451079906      6.06e-03   Normal BFGS step
    4     -75.7452439532      1.66e-03   Normal BFGS step
    5     -75.7452557184      3.76e-04   Normal BFGS step
    6     -75.7452566654      1.04e-04   Normal BFGS step
    7     -75.7452567135      3.39e-05   Normal BFGS step
    8     -75.7452567191      9.88e-06   Normal BFGS step
    9     -75.7452567194      9.88e-06   Normal BFGS step
   10     -75.7452567196      9.88e-06   Normal BFGS step
   11     -75.7452567200      9.86e-06   Normal BFGS step
   12     -75.7452567210      1.13e-05   Normal BFGS step
   13     -75.7452567234      2.12e-05   Normal BFGS step
   14     -75.7452567288      4.28e-05   Normal BFGS step
   15     -75.7452567405      7.67e-05   Normal BFGS step
   16     -75.7452567649      1.23e-04   Normal BFGS step
   17     -75.7452568128      1.74e-04   Normal BFGS step
   18     -75.7452569008      2.09e-04   Normal BFGS step
   19     -75.7452570428      1.99e-04   Normal BFGS step
   20     -75.7452571821      1.89e-04   Normal BFGS step
   21     -75.7452573002      7.05e-05   Normal BFGS step
   22     -75.7452573463      6.78e-05   Normal BFGS step
   23     -75.7452573611      2.05e-05   Normal BFGS step
   24     -75.7452573648      1.03e-05   Normal BFGS step
   25     -75.7452573657      7.42e-06   Normal BFGS step
   26     -75.7452573661      2.83e-06   Normal BFGS step
   27     -75.7452573661      8.18e-07   Normal BFGS step
   28     -75.7452573661      4.27e-07   Normal BFGS step
   29     -75.7452573661      1.49e-07   Normal BFGS step
   30     -75.7452573661      1.63e-08  Convergence criterion met
 ---------------------------------------
 SCF time:   CPU 44.28s  wall 13.00s 
<S^2> =          0.752762438
(3)  G-ENP(liq) elect-nuc-pol free energy of system      -75.745257366 a.u.
(4)  G-CDS(liq) cavity-dispersion-solvent structure 
     free energy                                                0.7386 kcal/mol
(6)  G-S(liq) free energy of system                      -75.744080379 a.u.
 SCF   energy in the final basis set =      -75.7440803786
 Total energy in the final basis set =      -75.7440803786
 
 --------------------------------------------------------------
 
                    Orbital Energies (a.u.)
 --------------------------------------------------------------
 
 Alpha MOs
 -- Occupied --
-19.4035  -1.1428  -0.5914  -0.5208  -0.4653
 -- Virtual --
  0.0349   0.1841   0.1957   0.1999   0.2201   0.2714   0.5851   0.7379
  0.7467   0.8427   0.8439   0.9514   1.0424   1.0668   1.1314   1.2255
  1.2324   1.4329   1.7421   2.6963   3.1488   3.1798   3.3735   3.3844
  3.4240   4.0159   4.0407   4.7048   4.9803   5.0429   5.0545   5.0599
  5.0767   5.0863   5.2965   5.5520   5.5962   6.9373  14.2962  14.3114
 14.3685  14.4337  14.8906  50.3722
 
 Beta MOs
 -- Occupied --
-19.3789  -1.0715  -0.5615  -0.4329
 -- Virtual --
 -0.0715   0.0362   0.1878   0.2056   0.2141   0.2269   0.2703   0.5938
  0.7485   0.7538   0.8548   0.8615   0.9595   1.0789   1.1016   1.1412
  1.2306   1.2341   1.4603   1.7549   2.7047   3.2033   3.2062   3.4427
  3.4608   3.4810   4.0561   4.0597   4.7289   5.0923   5.1184   5.1192
  5.1236   5.1560   5.1622   5.3387   5.6169   5.6225   6.9839  14.4480
 14.4504  14.4768  14.5063  14.9687  50.3890
 --------------------------------------------------------------
 
          Ground-State Mulliken Net Atomic Charges

     Atom                 Charge (a.u.)    Spin (a.u.)
  --------------------------------------------------------
      1 O                    -0.331738       1.018755
      2 H                     0.331738      -0.018755
  --------------------------------------------------------
  Sum of atomic charges =     0.000000
  Sum of spin   charges =     1.000000

 -----------------------------------------------------------------
                    Cartesian Multipole Moments
 -----------------------------------------------------------------
    Charge (ESU x 10^10)
                 0.0000
    Dipole Moment (Debye)
         X       1.5443      Y       1.3369      Z      -0.5299
       Tot       2.1102
    Quadrupole Moments (Debye-Ang)
        XX     -10.6676     XY       1.8717     YY      -1.0872
        XZ       1.7019     YZ      -0.3433     ZZ      -6.2445
    Octopole Moments (Debye-Ang^2)
       XXX      41.1307    XXY     -19.3379    XYY      12.1292
       YYY     -18.6702    XXZ      -8.0734    XYZ       2.6860
       YYZ      -3.5810    XZZ      10.8696    YZZ     -11.0378
       ZZZ     -11.6004
    Hexadecapole Moments (Debye-Ang^3)
      XXXX    -131.3024   XXXY      76.5811   XXYY     -55.1411
      XYYY      56.3484   YYYY     -88.6836   XXXZ      29.1704
      XXYZ     -14.7315   XYYZ      11.2330   YYYZ     -18.9209
      XXZZ     -23.4166   XYZZ      19.5474   YYZZ     -24.1431
      XZZZ      19.8984   YZZZ     -20.7350   ZZZZ     -19.4052
 -----------------------------------------------------------------
 Total job time:  12.73s(wall), 45.76s(cpu) 
 Thu Dec  7 15:53:44 2023

        *************************************************************
        *                                                           *
        *  Thank you very much for using Q-Chem.  Have a nice day.  *
        *                                                           *
        *************************************************************


