
Running Job 1 of 1 Q_in.in
qchem Q_in.in_233355.0 /scratch/ari.fischer/qChem1853808.hpc-mn1/qchem233355/ 0
/usr/local/qchem-5.4.1/exe/qcprog.exe_s Q_in.in_233355.0 /scratch/ari.fischer/qChem1853808.hpc-mn1/qchem233355/
                  Welcome to Q-Chem
     A Quantum Leap Into The Future Of Chemistry


 Q-Chem 5.4, Q-Chem, Inc., Pleasanton, CA (2021)

 License issued to: Nanyang Technological University (site)

 E. Epifanovsky,  A. T. B. Gilbert,  Xintian Feng,  Joonho Lee,  Yuezhi Mao,  
 N. Mardirossian,  P. Pokhilko,  A. White,  M. Wormit,  M. P. Coons,  
 A. L. Dempwolff,  Zhengting Gan,  D. Hait,  P. R. Horn,  L. D. Jacobson,  
 I. Kaliman,  J. Kussmann,  A. W. Lange,  Ka Un Lao,  D. S. Levine,  Jie Liu,  
 S. C. McKenzie,  A. F. Morrison,  K. Nanda,  F. Plasser,  D. R. Rehn,  
 M. L. Vidal,  Zhi-Qiang You,  Ying Zhu,  B. Alam,  B. Albrecht,  
 A. Aldossary,  E. Alguire,  J. H. Andersen,  D. Barton,  K. Begam,  A. Behn,  
 Y. A. Bernard,  E. J. Berquist,  H. Burton,  A. Carreras,  K. Carter-Fenk,  
 R. Chakraborty,  A. D. Chien,  K. D. Closser,  V. Cofer-Shabica,  
 S. Dasgupta,  Jia Deng,  M. de Wergifosse,  M. Diedenhofen,  Hainam Do,  
 S. Ehlert,  Po-Tung Fang,  S. Fatehi,  Qingguo Feng,  T. Friedhoff,  
 J. Gayvert,  Qinghui Ge,  G. Gidofalvi,  M. Goldey,  J. Gomes,  
 C. Gonzalez-Espinoza,  S. Gulania,  A. Gunina,  M. W. D. Hanson-Heine,  
 P. H. P. Harbach,  A. W. Hauser,  M. F. Herbst,  M. Hernandez Vera,  
 M. Hodecker,  Z. C. Holden,  S. Houck,  Xunkun Huang,  Kerwin Hui,  
 B. C. Huynh,  M. Ivanov,  Hyunjun Ji,  Hanjie Jiang,  B. Kaduk,  S. Kaehler,  
 K. Khistyaev,  Jaehoon Kim,  P. Klunzinger,  Z. Koczor-Benda,  
 Joong Hoon Koh,  D. Kosenkov,  L. Koulias,  T. Kowalczyk,  C. M. Krauter,  
 K. Kue,  A. Kunitsa,  T. Kus,  A. Landau,  K. V. Lawler,  D. Lefrancois,  
 S. Lehtola,  Rain Li,  Yi-Pei Li,  Jiashu Liang,  M. Liebenthal,  
 Hung-Hsuan Lin,  You-Sheng Lin,  Fenglai Liu,  Kuan-Yu Liu,  
 M. Loipersberger,  A. Luenser,  A. Manjanath,  P. Manohar,  E. Mansoor,  
 S. F. Manzer,  Shan-Ping Mao,  A. V. Marenich,  T. Markovich,  S. Mason,  
 S. A. Maurer,  P. F. McLaughlin,  M. F. S. J. Menger,  J.-M. Mewes,  
 S. A. Mewes,  P. Morgante,  J. W. Mullinax,  K. J. Oosterbaan,  G. Paran,  
 Alexander C. Paul,  Suranjan K. Paul,  F. Pavosevic,  Zheng Pei,  S. Prager,  
 E. I. Proynov,  E. Ramos,  B. Rana,  A. E. Rask,  A. Rettig,  R. M. Richard,  
 F. Rob,  E. Rossomme,  T. Scheele,  M. Scheurer,  M. Schneider,  
 N. Sergueev,  S. M. Sharada,  W. Skomorowski,  D. W. Small,  C. J. Stein,  
 Yu-Chuan Su,  E. J. Sundstrom,  Zhen Tao,  J. Thirman,  T. Tsuchimochi,  
 N. M. Tubman,  S. P. Veccham,  O. Vydrov,  J. Wenzel,  J. Witte,  A. Yamada,  
 Kun Yao,  S. Yeganeh,  S. R. Yost,  A. Zech,  Igor Ying Zhang,  Xing Zhang,  
 Yu Zhang,  D. Zuev,  A. Aspuru-Guzik,  A. T. Bell,  N. A. Besley,  
 K. B. Bravaya,  B. R. Brooks,  D. Casanova,  Jeng-Da Chai,  S. Coriani,  
 C. J. Cramer,  A. E. DePrince, III,  R. A. DiStasio Jr.,  A. Dreuw,  
 B. D. Dunietz,  T. R. Furlani,  W. A. Goddard III,  S. Grimme,  
 S. Hammes-Schiffer,  T. Head-Gordon,  W. J. Hehre,  Chao-Ping Hsu,  
 T.-C. Jagau,  Yousung Jung,  A. Klamt,  Jing Kong,  D. S. Lambrecht,  
 WanZhen Liang,  N. J. Mayhall,  C. W. McCurdy,  J. B. Neaton,  
 C. Ochsenfeld,  J. A. Parkhill,  R. Peverati,  V. A. Rassolov,  Yihan Shao,  
 L. V. Slipchenko,  T. Stauch,  R. P. Steele,  J. E. Subotnik,  
 A. J. W. Thom,  A. Tkatchenko,  D. G. Truhlar,  T. Van Voorhis,  
 T. A. Wesolowski,  K. B. Whaley,  H. L. Woodcock III,  P. M. Zimmerman,  
 S. Faraji,  P. M. W. Gill,  M. Head-Gordon,  J. M. Herbert,  A. I. Krylov

 Additional authors for Version 5.4.1: 
 S. Kotaru,  Shaozhi Li,  Xiangyuan Li,  F. Matz,  A. Molle,  Haisheng Ren,  
 Yingli Su,  Hung-Yi Tsai,  C. Utku,  Fang Wang

 Contributors to earlier versions of Q-Chem not listed above: 
 R. D. Adamson,  B. Austin,  R. Baer,  J. Baker,  G. J. O. Beran,  
 K. Brandhorst,  S. T. Brown,  E. F. C. Byrd,  A. K. Chakraborty,  
 G. K. L. Chan,  Chun-Min Chang,  Yunqing Chen,  C.-L. Cheng,  
 Siu Hung Chien,  D. M. Chipman,  D. L. Crittenden,  H. Dachsel,  
 R. J. Doerksen,  A. D. Dutoi,  R. G. Edgar,  J. Fosso-Tande,  
 L. Fusti-Molnar,  D. Ghosh,  A. Ghysels,  A. Golubeva-Zadorozhnaya,  
 J. Gonthier,  M. S. Gordon,  S. R. Gwaltney,  G. Hawkins,  J. E. Herr,  
 A. Heyden,  S. Hirata,  E. G. Hohenstein,  G. Kedziora,  F. J. Keil,  
 C. Kelley,  Jihan Kim,  R. A. King,  R. Z. Khaliullin,  P. P. Korambath,  
 W. Kurlancheek,  A. Laurent,  A. M. Lee,  M. S. Lee,  S. V. Levchenko,  
 Ching Yeh Lin,  D. Liotard,  E. Livshits,  R. C. Lochan,  I. Lotan,  
 L. A. Martinez-Martinez,  P. E. Maslen,  N. Nair,  D. P. O'Neill,  
 D. Neuhauser,  E. Neuscamman,  C. M. Oana,  R. Olivares-Amaya,  R. Olson,  
 T. M. Perrine,  B. Peters,  P. A. Pieniazek,  A. Prociuk,  Y. M. Rhee,  
 J. Ritchie,  M. A. Rohrdanz,  E. Rosta,  N. J. Russ,  H. F. Schaefer III,  
 M. W. Schmidt,  N. E. Schultz,  S. Sharma,  N. Shenvi,  C. D. Sherrill,  
 A. C. Simmonett,  A. Sodt,  T. Stein,  D. Stuck,  K. S. Thanthiriwatte,  
 V. Vanovschi,  L. Vogt,  Tao Wang,  A. Warshel,  M. A. Watson,  
 C. F. Williams,  Q. Wu,  X. Xu,  Jun Yang,  W. Zhang,  Yan Zhao

 Please cite Q-Chem as follows:
 Y. Shao et al., Mol. Phys. 113, 184-215 (2015)
 DOI: 10.1080/00268976.2014.952696

 Q-Chem 5.4.1 for Intel X86 EM64T Linux

 Parts of Q-Chem use Armadillo 9.800.1 (Horizon Scraper).
 http://arma.sourceforge.net/

 Q-Chem begins on Wed Dec  6 11:04:13 2023  

 Host: 
0

     Scratch files written to /scratch/ari.fischer/qChem1853808.hpc-mn1/qchem233355//
 Aug1521 |scratch|qcdevops|jenkins|workspace|build_RNUM 8249   
 Processing $rem in /usr/local/qchem-5.4.1/config/preferences:
 Processing $rem in /home/ari.fischer/.qchemrc:
 Symmetry turned off for PCM/SM12/SMD calculation

 Checking the input file for inconsistencies... 	...done.

--------------------------------------------------------------
User input:
--------------------------------------------------------------
$molecule
-1 2
C         1.4980164545    0.7660547243   -0.1383624944
O         1.8026323618    1.4121745551    0.8766832452
O         1.9798924524    0.8168866210   -1.2928620119
C         0.3676719600   -0.2762671958    0.0083766160
O        -0.0592124773   -0.7989272362   -1.1237456197
O        -0.4187979559   -0.3089060280    1.0215964248
H         0.0738809553   -1.0384616266    1.7114023966
O         1.5892850633   -1.6572546214    0.7212176276
O         1.0518619496   -1.9085083887    1.8610669549
H         0.5714289363   -0.4987389036   -1.8095437390
$end

$rem
BASIS = 6-311++G**
JOB_TYPE = SP
METHOD = wB97M-V
SCF_ALGORITHM = DIIS_GDM
MAX_SCF_CYCLES = 400
SCF_CONVERGENCE = 7
THRESH = 12
Solvent_method = SMD
$end
--------------------------------------------------------------
 ----------------------------------------------------------------
             Standard Nuclear Orientation (Angstroms)
    I     Atom           X                Y                Z
 ----------------------------------------------------------------
    1      C       1.4980164545     0.7660547243    -0.1383624944
    2      O       1.8026323618     1.4121745551     0.8766832452
    3      O       1.9798924524     0.8168866210    -1.2928620119
    4      C       0.3676719600    -0.2762671958     0.0083766160
    5      O      -0.0592124773    -0.7989272362    -1.1237456197
    6      O      -0.4187979559    -0.3089060280     1.0215964248
    7      H       0.0738809553    -1.0384616266     1.7114023966
    8      O       1.5892850633    -1.6572546214     0.7212176276
    9      O       1.0518619496    -1.9085083887     1.8610669549
   10      H       0.5714289363    -0.4987389036    -1.8095437390
 ----------------------------------------------------------------
 Nuclear Repulsion Energy =         396.51812469 hartrees
 There are       32 alpha and       31 beta electrons
 Requested basis set is 6-311++G(d,p)
 There are 58 shells and 190 basis functions

 Total QAlloc Memory Limit 288000 MB
 Mega-Array Size       188 MB
 MEM_STATIC part       192 MB
 
 Citation of the SMD model:
 Marenich, A.V.; Cramer, C.J.; Truhlar, D.G.
 J. Phys. Chem. B 2009, 113, 6378-6396.
 iSolventCode=           1
 Solvent: water                                                           
 
 vradii
            1           2           3           4           5           6
    1   1.8500000   1.5200000   1.5200000   1.8500000   1.5200000   1.5200000
            7           8           9          10
    1   1.2000000   1.5200000   1.5200000   1.2000000
 Changing PCM_VDW_RADII to SMD_RADIUS
 Discretize the solute cavity surface with Lebedev spheres
	Using 110 Lebedev grid points for each H atom
	Using 194 Lebedev grid points for other atoms
	Atomic van der Waals radii will be scaled by 1.20
 Remove points where switching function is < 1.0e-08
 Keep 951 surface tesserae and discard 821 interior tesserae
 Molecular Surface Area = 113.207 Angst**2

                       Distance Matrix (Angstroms)
             C (  1)   O (  2)   O (  3)   C (  4)   O (  5)   O (  6)
   O (  2)  1.241201
   O (  3)  1.252061  2.256705
   C (  4)  1.544554  2.379896  2.342533
   O (  5)  2.417666  3.515274  2.607183  1.317993
   O (  6)  2.485000  2.813871  3.518216  1.283049  2.229779
   H (  7)  2.950605  3.113030  4.012580  1.888796  2.848360  1.118399
   O (  8)  2.572865  3.080760  3.214104  1.976767  2.618809  2.437349
   O (  9)  3.368985  3.543953  4.270397  2.562184  3.372649  2.329437
   H ( 10)  2.291531  3.518987  1.995395  1.842782  0.978847  3.005319
             H (  7)   O (  8)   O (  9)
   O (  8)  1.913066
   O (  9)  1.317508  1.284994
   H ( 10)  3.596653  2.963603  3.961269
 
 A cutoff of  1.0D-12 yielded   1582 shell pairs
 There are     17435 function pairs (     18939 Cartesian)
 Smallest overlap matrix eigenvalue = 6.50E-05

 Scale SEOQF with 1.000000e-01/1.000000e-01/1.000000e-01

 Standard Electronic Orientation quadrupole field applied
 Nucleus-field energy     =     0.0000000015 hartrees
 Guess from superposition of atomic densities
 Warning:  Energy on first SCF cycle will be non-variational
 SAD guess density has 62.000000 electrons

 -----------------------------------------------------------------------
  General SCF calculation program by
  Eric Jon Sundstrom, Paul Horn, Yuezhi Mao, Dmitri Zuev, Alec White,
  David Stuck, Shaama M.S., Shane Yost, Joonho Lee, David Small,
  Daniel Levine, Susi Lehtola, Hugh Burton, Evgeny Epifanovsky,
  Bang C. Huynh
 -----------------------------------------------------------------------
 Exchange:     0.1500 Hartree-Fock + 1.0000 wB97M-V + LR-HF
 Correlation:  1.0000 wB97M-V
 Using SG-2 standard quadrature grid
 Nonlocal Correlation:  VV10 with C = 0.0100 and b = 6.00 and scale = 1.00000
 Grid used for NLC:  SG-1 standard quadrature
 
 Citation of the SMD model:
 Marenich, A.V.; Cramer, C.J.; Truhlar, D.G.
 J. Phys. Chem. B 2009, 113, 6378-6396.
 iSolventCode=           1
 Solvent: water                                                           
 
 vradii
            1           2           3           4           5           6
    1   1.8500000   1.5200000   1.5200000   1.8500000   1.5200000   1.5200000
            7           8           9          10
    1   1.2000000   1.5200000   1.5200000   1.2000000
 using 4 threads for integral computing
 -------------------------------------------------------
 OpenMP Integral computing Module                
 Release: version 1.0, May 2013, Q-Chem Inc. Pittsburgh 
 -------------------------------------------------------
 -------------------------------------------------------
 OpenMP BLAS3 based DFT computing Module                
 Release: version 1.0, May 2013, Q-Chem Inc. Pittsburgh 
 -------------------------------------------------------
 A unrestricted SCF calculation will be
 performed using DIIS, GDM
 SCF converges when RMS gradient is below 1.0e-07
 ---------------------------------------
  Cycle       Energy         DIIS error
 ---------------------------------------
    1    -529.9580814222      2.27e-02  
    2    -528.5947166225      4.22e-03  Done DIIS. Switching to GDM
 ---------------------------------------
  Cycle       Energy        RMS Gradient
 ---------------------------------------
    1    -528.5947166225      1.33e-01   Descent step
    2    -528.8053947849      4.23e-02   Normal BFGS step
    3    -528.8376228753      1.06e-02   Normal BFGS step
    4    -528.8384711358      1.09e-02   Normal BFGS step
    5    -528.8390181670      2.47e-03   Normal BFGS step
    6    -528.8390887673      1.27e-03   Normal BFGS step
    7    -528.8391069035      7.04e-04   Normal BFGS step
    8    -528.8391113736      4.88e-04   Normal BFGS step
    9    -528.8391130712      2.36e-04   Normal BFGS step
   10    -528.8391134790      1.69e-04   Normal BFGS step
   11    -528.8391135959      1.04e-04   Normal BFGS step
   12    -528.8391136674      9.97e-05   Normal BFGS step
   13    -528.8391136993      8.28e-05   Normal BFGS step
   14    -528.8391137191      4.01e-05   Normal BFGS step
   15    -528.8391137259      1.20e-05   Normal BFGS step
   16    -528.8391137276      4.74e-06   Normal BFGS step
   17    -528.8391137277      1.90e-06   Normal BFGS step
   18    -528.8391137278      1.19e-06   Normal BFGS step
   19    -528.8391137278      5.57e-07   Normal BFGS step
   20    -528.8391137278      2.18e-07   Normal BFGS step
   21    -528.8391137278      9.67e-08  Convergence criterion met
 ---------------------------------------
 SCF time:   CPU 277.79s  wall 71.00s 
<S^2> =          0.755952729
(3)  G-ENP(liq) elect-nuc-pol free energy of system     -528.839113728 a.u.
(4)  G-CDS(liq) cavity-dispersion-solvent structure 
     free energy                                                4.4950 kcal/mol
(6)  G-S(liq) free energy of system                     -528.831950533 a.u.
 SCF   energy in the final basis set =     -528.8319505330
 Total energy in the final basis set =     -528.8319505330
 
 --------------------------------------------------------------
 
                    Orbital Energies (a.u.)
 --------------------------------------------------------------
 
 Alpha MOs
 -- Occupied --
-19.4308 -19.4272 -19.3887 -19.3576 -19.3056 -19.3027 -10.5155 -10.4646
 -1.3460  -1.2618  -1.1886  -1.1836  -1.1041  -0.9533  -0.7945  -0.7374
 -0.7023  -0.6257  -0.6126  -0.6073  -0.6032  -0.5518  -0.5462  -0.5292
 -0.5126  -0.4835  -0.4621  -0.3987  -0.3877  -0.3866  -0.3766  -0.3644
 -- Virtual --
  0.0409   0.0432   0.0545   0.0734   0.0835   0.1025   0.1078   0.1129
  0.1289   0.1500   0.1655   0.1807   0.1880   0.2088   0.2330   0.2375
  0.2467   0.2505   0.2696   0.2759   0.2891   0.3032   0.3049   0.3212
  0.3246   0.3304   0.3359   0.3454   0.3485   0.3534   0.3580   0.3629
  0.3708   0.3885   0.3922   0.4047   0.4280   0.4344   0.4483   0.4525
  0.4635   0.5238   0.5566   0.6155   0.6237   0.7152   0.7202   0.7424
  0.7637   0.8000   0.8127   0.8529   0.9330   0.9874   1.0503   1.0742
  1.0903   1.1169   1.1279   1.1415   1.1721   1.1945   1.2087   1.2250
  1.2261   1.2343   1.2464   1.2585   1.2684   1.2840   1.3014   1.3185
  1.3373   1.4120   1.4880   1.5057   1.5361   1.5566   1.6374   1.6577
  1.6922   1.7319   1.7672   1.8160   1.8216   1.8407   1.8694   1.9059
  1.9689   2.0464   2.0902   2.1188   2.2025   2.2327   2.4612   2.5644
  2.6925   2.7289   2.7598   2.7942   2.8186   2.8977   2.9378   2.9511
  2.9845   3.0240   3.0293   3.0590   3.1162   3.1310   3.1710   3.1798
  3.1948   3.2842   3.3844   3.3893   3.3999   3.4558   3.4944   3.5098
  3.5680   3.5994   3.6260   3.6433   3.7247   3.8329   3.8825   3.9502
  4.0528   4.1388   4.2054   4.2510   4.9764   5.0003   5.0841   5.1197
  5.1707   5.1805   5.2075   5.2344   5.2981   5.3068   5.3561   5.4524
  5.5624   5.6688   5.8507   5.9951   6.0184   6.2379  24.0883  24.2165
 50.3617  50.3717  50.4658  50.5061  50.5220  50.6191
 
 Beta MOs
 -- Occupied --
-19.4150 -19.4124 -19.3888 -19.3577 -19.3056 -19.3027 -10.5158 -10.4646
 -1.3189  -1.2600  -1.1885  -1.1833  -1.1041  -0.9134  -0.7923  -0.7361
 -0.6968  -0.6239  -0.6066  -0.5834  -0.5520  -0.5435  -0.5366  -0.5213
 -0.5029  -0.4776  -0.4604  -0.3889  -0.3854  -0.3768  -0.3544
 -- Virtual --
 -0.0232   0.0420   0.0454   0.0549   0.0738   0.0840   0.1030   0.1084
  0.1134   0.1299   0.1503   0.1669   0.1814   0.1916   0.2116   0.2377
  0.2400   0.2479   0.2516   0.2715   0.2767   0.2941   0.3053   0.3067
  0.3224   0.3253   0.3318   0.3375   0.3473   0.3495   0.3561   0.3602
  0.3645   0.3710   0.3895   0.3960   0.4059   0.4288   0.4361   0.4487
  0.4526   0.4635   0.5245   0.5566   0.6158   0.6244   0.7152   0.7200
  0.7436   0.7643   0.8003   0.8132   0.8528   0.9345   0.9892   1.0566
  1.0903   1.0997   1.1245   1.1359   1.1454   1.1755   1.1980   1.2120
  1.2260   1.2277   1.2364   1.2489   1.2630   1.2709   1.2887   1.3074
  1.3228   1.3408   1.4136   1.4898   1.5076   1.5370   1.5575   1.6387
  1.6666   1.6958   1.7365   1.7692   1.8167   1.8240   1.8413   1.8699
  1.9085   1.9741   2.0524   2.0919   2.1190   2.2029   2.2329   2.5039
  2.5742   2.6951   2.7302   2.7651   2.8097   2.8502   2.9163   2.9443
  2.9605   2.9925   3.0270   3.0464   3.0668   3.1241   3.1447   3.1726
  3.1813   3.1980   3.2859   3.3880   3.3947   3.4075   3.4995   3.4998
  3.5128   3.5706   3.6010   3.6286   3.6551   3.7254   3.8337   3.8913
  3.9508   4.0688   4.1394   4.2053   4.2507   5.0149   5.0519   5.1025
  5.1345   5.1737   5.2039   5.2292   5.2512   5.3014   5.3209   5.3567
  5.4525   5.5651   5.6702   5.8509   5.9951   6.0184   6.2553  24.0881
 24.2165  50.3718  50.3831  50.4677  50.5061  50.5221  50.6191
 --------------------------------------------------------------
 
          Ground-State Mulliken Net Atomic Charges

     Atom                 Charge (a.u.)    Spin (a.u.)
  --------------------------------------------------------
      1 C                     0.439945       0.000390
      2 O                    -0.558371      -0.000408
      3 O                    -0.539956       0.000267
      4 C                    -0.289829      -0.025917
      5 O                    -0.129535      -0.005179
      6 O                    -0.309719       0.000523
      7 H                     0.396158      -0.010896
      8 O                    -0.164092       0.534367
      9 O                    -0.156701       0.506624
     10 H                     0.312101       0.000231
  --------------------------------------------------------
  Sum of atomic charges =    -1.000000
  Sum of spin   charges =     1.000000

 -----------------------------------------------------------------
                    Cartesian Multipole Moments
 -----------------------------------------------------------------
    Charge (ESU x 10^10)
                -4.8032
    Dipole Moment (Debye)
         X      -8.3924      Y      -2.8564      Z      -2.3378
       Tot       9.1683
    Quadrupole Moments (Debye-Ang)
        XX     -69.4397     XY      -7.9985     YY     -60.5522
        XZ      -1.4006     YZ       1.3462     ZZ     -53.2725
    Octopole Moments (Debye-Ang^2)
       XXX    -182.7690    XXY      -5.6958    XYY     -71.8099
       YYY      33.3939    XXZ      -8.9698    XYZ       7.0865
       YYZ     -21.3886    XZZ     -62.5869    YZZ       4.7650
       ZZZ     -39.7698
    Hexadecapole Moments (Debye-Ang^3)
      XXXX    -619.0212   XXXY     -58.6169   XXYY    -205.8722
      XYYY     -23.6738   YYYY    -456.4708   XXXZ     -10.2275
      XXYZ      33.2024   XYYZ     -27.5569   YYYZ      80.7847
      XXZZ    -186.9018   XYZZ     -15.3120   YYZZ    -156.6588
      XZZZ     -30.0519   YZZZ      86.5682   ZZZZ    -363.4221
 -----------------------------------------------------------------
 Total job time:  71.38s(wall), 279.58s(cpu) 
 Wed Dec  6 11:05:24 2023

        *************************************************************
        *                                                           *
        *  Thank you very much for using Q-Chem.  Have a nice day.  *
        *                                                           *
        *************************************************************


