
Running Job 1 of 1 Q_in.in
qchem Q_in.in_16047.0 /scratch/ari.fischer/qChem1591971.hpc-mn1/qchem16047/ 0
/usr/local/qchem-5.4.1/exe/qcprog.exe_s Q_in.in_16047.0 /scratch/ari.fischer/qChem1591971.hpc-mn1/qchem16047/
                  Welcome to Q-Chem
     A Quantum Leap Into The Future Of Chemistry


 Q-Chem 5.4, Q-Chem, Inc., Pleasanton, CA (2021)

 License issued to: Nanyang Technological University (site)

 E. Epifanovsky,  A. T. B. Gilbert,  Xintian Feng,  Joonho Lee,  Yuezhi Mao,  
 N. Mardirossian,  P. Pokhilko,  A. White,  M. Wormit,  M. P. Coons,  
 A. L. Dempwolff,  Zhengting Gan,  D. Hait,  P. R. Horn,  L. D. Jacobson,  
 I. Kaliman,  J. Kussmann,  A. W. Lange,  Ka Un Lao,  D. S. Levine,  Jie Liu,  
 S. C. McKenzie,  A. F. Morrison,  K. Nanda,  F. Plasser,  D. R. Rehn,  
 M. L. Vidal,  Zhi-Qiang You,  Ying Zhu,  B. Alam,  B. Albrecht,  
 A. Aldossary,  E. Alguire,  J. H. Andersen,  D. Barton,  K. Begam,  A. Behn,  
 Y. A. Bernard,  E. J. Berquist,  H. Burton,  A. Carreras,  K. Carter-Fenk,  
 R. Chakraborty,  A. D. Chien,  K. D. Closser,  V. Cofer-Shabica,  
 S. Dasgupta,  Jia Deng,  M. de Wergifosse,  M. Diedenhofen,  Hainam Do,  
 S. Ehlert,  Po-Tung Fang,  S. Fatehi,  Qingguo Feng,  T. Friedhoff,  
 J. Gayvert,  Qinghui Ge,  G. Gidofalvi,  M. Goldey,  J. Gomes,  
 C. Gonzalez-Espinoza,  S. Gulania,  A. Gunina,  M. W. D. Hanson-Heine,  
 P. H. P. Harbach,  A. W. Hauser,  M. F. Herbst,  M. Hernandez Vera,  
 M. Hodecker,  Z. C. Holden,  S. Houck,  Xunkun Huang,  Kerwin Hui,  
 B. C. Huynh,  M. Ivanov,  Hyunjun Ji,  Hanjie Jiang,  B. Kaduk,  S. Kaehler,  
 K. Khistyaev,  Jaehoon Kim,  P. Klunzinger,  Z. Koczor-Benda,  
 Joong Hoon Koh,  D. Kosenkov,  L. Koulias,  T. Kowalczyk,  C. M. Krauter,  
 K. Kue,  A. Kunitsa,  T. Kus,  A. Landau,  K. V. Lawler,  D. Lefrancois,  
 S. Lehtola,  Rain Li,  Yi-Pei Li,  Jiashu Liang,  M. Liebenthal,  
 Hung-Hsuan Lin,  You-Sheng Lin,  Fenglai Liu,  Kuan-Yu Liu,  
 M. Loipersberger,  A. Luenser,  A. Manjanath,  P. Manohar,  E. Mansoor,  
 S. F. Manzer,  Shan-Ping Mao,  A. V. Marenich,  T. Markovich,  S. Mason,  
 S. A. Maurer,  P. F. McLaughlin,  M. F. S. J. Menger,  J.-M. Mewes,  
 S. A. Mewes,  P. Morgante,  J. W. Mullinax,  K. J. Oosterbaan,  G. Paran,  
 Alexander C. Paul,  Suranjan K. Paul,  F. Pavosevic,  Zheng Pei,  S. Prager,  
 E. I. Proynov,  E. Ramos,  B. Rana,  A. E. Rask,  A. Rettig,  R. M. Richard,  
 F. Rob,  E. Rossomme,  T. Scheele,  M. Scheurer,  M. Schneider,  
 N. Sergueev,  S. M. Sharada,  W. Skomorowski,  D. W. Small,  C. J. Stein,  
 Yu-Chuan Su,  E. J. Sundstrom,  Zhen Tao,  J. Thirman,  T. Tsuchimochi,  
 N. M. Tubman,  S. P. Veccham,  O. Vydrov,  J. Wenzel,  J. Witte,  A. Yamada,  
 Kun Yao,  S. Yeganeh,  S. R. Yost,  A. Zech,  Igor Ying Zhang,  Xing Zhang,  
 Yu Zhang,  D. Zuev,  A. Aspuru-Guzik,  A. T. Bell,  N. A. Besley,  
 K. B. Bravaya,  B. R. Brooks,  D. Casanova,  Jeng-Da Chai,  S. Coriani,  
 C. J. Cramer,  A. E. DePrince, III,  R. A. DiStasio Jr.,  A. Dreuw,  
 B. D. Dunietz,  T. R. Furlani,  W. A. Goddard III,  S. Grimme,  
 S. Hammes-Schiffer,  T. Head-Gordon,  W. J. Hehre,  Chao-Ping Hsu,  
 T.-C. Jagau,  Yousung Jung,  A. Klamt,  Jing Kong,  D. S. Lambrecht,  
 WanZhen Liang,  N. J. Mayhall,  C. W. McCurdy,  J. B. Neaton,  
 C. Ochsenfeld,  J. A. Parkhill,  R. Peverati,  V. A. Rassolov,  Yihan Shao,  
 L. V. Slipchenko,  T. Stauch,  R. P. Steele,  J. E. Subotnik,  
 A. J. W. Thom,  A. Tkatchenko,  D. G. Truhlar,  T. Van Voorhis,  
 T. A. Wesolowski,  K. B. Whaley,  H. L. Woodcock III,  P. M. Zimmerman,  
 S. Faraji,  P. M. W. Gill,  M. Head-Gordon,  J. M. Herbert,  A. I. Krylov

 Additional authors for Version 5.4.1: 
 S. Kotaru,  Shaozhi Li,  Xiangyuan Li,  F. Matz,  A. Molle,  Haisheng Ren,  
 Yingli Su,  Hung-Yi Tsai,  C. Utku,  Fang Wang

 Contributors to earlier versions of Q-Chem not listed above: 
 R. D. Adamson,  B. Austin,  R. Baer,  J. Baker,  G. J. O. Beran,  
 K. Brandhorst,  S. T. Brown,  E. F. C. Byrd,  A. K. Chakraborty,  
 G. K. L. Chan,  Chun-Min Chang,  Yunqing Chen,  C.-L. Cheng,  
 Siu Hung Chien,  D. M. Chipman,  D. L. Crittenden,  H. Dachsel,  
 R. J. Doerksen,  A. D. Dutoi,  R. G. Edgar,  J. Fosso-Tande,  
 L. Fusti-Molnar,  D. Ghosh,  A. Ghysels,  A. Golubeva-Zadorozhnaya,  
 J. Gonthier,  M. S. Gordon,  S. R. Gwaltney,  G. Hawkins,  J. E. Herr,  
 A. Heyden,  S. Hirata,  E. G. Hohenstein,  G. Kedziora,  F. J. Keil,  
 C. Kelley,  Jihan Kim,  R. A. King,  R. Z. Khaliullin,  P. P. Korambath,  
 W. Kurlancheek,  A. Laurent,  A. M. Lee,  M. S. Lee,  S. V. Levchenko,  
 Ching Yeh Lin,  D. Liotard,  E. Livshits,  R. C. Lochan,  I. Lotan,  
 L. A. Martinez-Martinez,  P. E. Maslen,  N. Nair,  D. P. O'Neill,  
 D. Neuhauser,  E. Neuscamman,  C. M. Oana,  R. Olivares-Amaya,  R. Olson,  
 T. M. Perrine,  B. Peters,  P. A. Pieniazek,  A. Prociuk,  Y. M. Rhee,  
 J. Ritchie,  M. A. Rohrdanz,  E. Rosta,  N. J. Russ,  H. F. Schaefer III,  
 M. W. Schmidt,  N. E. Schultz,  S. Sharma,  N. Shenvi,  C. D. Sherrill,  
 A. C. Simmonett,  A. Sodt,  T. Stein,  D. Stuck,  K. S. Thanthiriwatte,  
 V. Vanovschi,  L. Vogt,  Tao Wang,  A. Warshel,  M. A. Watson,  
 C. F. Williams,  Q. Wu,  X. Xu,  Jun Yang,  W. Zhang,  Yan Zhao

 Please cite Q-Chem as follows:
 Y. Shao et al., Mol. Phys. 113, 184-215 (2015)
 DOI: 10.1080/00268976.2014.952696

 Q-Chem 5.4.1 for Intel X86 EM64T Linux

 Parts of Q-Chem use Armadillo 9.800.1 (Horizon Scraper).
 http://arma.sourceforge.net/

 Q-Chem begins on Tue Jun 20 05:41:34 2023  

 Host: 
0

     Scratch files written to /scratch/ari.fischer/qChem1591971.hpc-mn1/qchem16047//
 Aug1521 |scratch|qcdevops|jenkins|workspace|build_RNUM 8249   
 Processing $rem in /usr/local/qchem-5.4.1/config/preferences:
 Processing $rem in /home/ari.fischer/.qchemrc:
 Symmetry turned off for PCM/SM12/SMD calculation


!!********************************************.
!!******************Warning*******************.
!!Desired Analytical derivatives not available.
!!Finite difference job might take a long time.
!!********************************************.
!!********************************************.


 2-order derivative to be evaluated numerically with 1-order analytical derivatives

 Checking the input file for inconsistencies... 	...done.

--------------------------------------------------------------
User input:
--------------------------------------------------------------
$molecule
-1 2
C         0.0335825890    0.2156391192    0.2364698461
O         1.2001413651    0.0826017418    0.8943481755
H        -1.1277621868    1.3766541534   -0.6298194523
C        -0.8393693190   -0.8929137460   -0.0274891381
O        -0.5062190370   -2.0526716429    0.3744233366
O        -1.9104150558   -0.6008046154   -0.6669935653
O        -0.2722929998    1.4647120681   -0.1745756269
H         1.6345905442    0.9437645218    0.9577898244
$end

$rem
BASIS = 6-311++G(2df,2p)
GUI = 2
JOB_TYPE = Frequency
METHOD = wB97M-V
SOLVENT_METHOD = SMD
SCF_ALGORITHM = DIIS_GDM
MAX_SCF_CYCLES = 400
SCF_CONVERGENCE = 7
THRESH = 12
UNRESTRICTED = 1
SYMMETRY_IGNORE = 1
$end
--------------------------------------------------------------
 ----------------------------------------------------------------
             Standard Nuclear Orientation (Angstroms)
    I     Atom           X                Y                Z
 ----------------------------------------------------------------
    1      C       0.0335825890     0.2156391192     0.2364698461
    2      O       1.2001413651     0.0826017418     0.8943481755
    3      H      -1.1277621868     1.3766541534    -0.6298194523
    4      C      -0.8393693190    -0.8929137460    -0.0274891381
    5      O      -0.5062190370    -2.0526716429     0.3744233366
    6      O      -1.9104150558    -0.6008046154    -0.6669935653
    7      O      -0.2722929998     1.4647120681    -0.1745756269
    8      H       1.6345905442     0.9437645218     0.9577898244
 ----------------------------------------------------------------
 Nuclear Repulsion Energy =         230.26877983 hartrees
 There are       24 alpha and       23 beta electrons
 Requested basis set is 6-311++G(2df,2p)
 There are 60 shells and 224 basis functions

 Total QAlloc Memory Limit 288000 MB
 Mega-Array Size       188 MB
 MEM_STATIC part       192 MB
 
 Citation of the SMD model:
 Marenich, A.V.; Cramer, C.J.; Truhlar, D.G.
 J. Phys. Chem. B 2009, 113, 6378-6396.
 iSolventCode=           1
 Solvent: water                                                           
 
 vradii
            1           2           3           4           5           6
    1   1.8500000   1.5200000   1.2000000   1.8500000   1.5200000   1.5200000
            7           8
    1   1.5200000   1.2000000
 Changing PCM_VDW_RADII to SMD_RADIUS
 Discretize the solute cavity surface with Lebedev spheres
	Using 110 Lebedev grid points for each H atom
	Using 194 Lebedev grid points for other atoms
	Atomic van der Waals radii will be scaled by 1.20
 Remove points where switching function is < 1.0e-08
 Keep 774 surface tesserae and discard 610 interior tesserae
 Molecular Surface Area = 94.678 Angst**2

                       Distance Matrix (Angstroms)
             C (  1)   O (  2)   H (  3)   C (  4)   O (  5)   O (  6)
   O (  2)  1.345869
   H (  3)  1.856646  3.068679
   C (  4)  1.435482  2.441520  2.365779
   O (  5)  2.335733  2.782334  3.626995  1.271834
   O (  6)  2.293895  3.546885  2.127033  1.281184  2.272495
   O (  7)  1.350075  2.284927  0.973051  2.429323  3.567648  2.681842
   H (  8)  1.900972  0.966629  3.215352  3.234909  3.728540  4.194363
             O (  7)
   H (  8)  2.278123
 
 A cutoff of  1.0D-12 yielded   1725 shell pairs
 There are     24360 function pairs (     31327 Cartesian)
 Smallest overlap matrix eigenvalue = 4.60E-05
 Guess from superposition of atomic densities
 Warning:  Energy on first SCF cycle will be non-variational
 SAD guess density has 46.000000 electrons

 -----------------------------------------------------------------------
  General SCF calculation program by
  Eric Jon Sundstrom, Paul Horn, Yuezhi Mao, Dmitri Zuev, Alec White,
  David Stuck, Shaama M.S., Shane Yost, Joonho Lee, David Small,
  Daniel Levine, Susi Lehtola, Hugh Burton, Evgeny Epifanovsky,
  Bang C. Huynh
 -----------------------------------------------------------------------
 Exchange:     0.1500 Hartree-Fock + 1.0000 wB97M-V + LR-HF
 Correlation:  1.0000 wB97M-V
 Using SG-2 standard quadrature grid
 Nonlocal Correlation:  VV10 with C = 0.0100 and b = 6.00 and scale = 1.00000
 Grid used for NLC:  SG-1 standard quadrature
 using 8 threads for integral computing
 -------------------------------------------------------
 OpenMP Integral computing Module                
 Release: version 1.0, May 2013, Q-Chem Inc. Pittsburgh 
 -------------------------------------------------------
 
 Citation of the SMD model:
 Marenich, A.V.; Cramer, C.J.; Truhlar, D.G.
 J. Phys. Chem. B 2009, 113, 6378-6396.
 iSolventCode=           1
 Solvent: water                                                           
 
 vradii
            1           2           3           4           5           6
    1   1.8500000   1.5200000   1.2000000   1.8500000   1.5200000   1.5200000
            7           8
    1   1.5200000   1.2000000
 -------------------------------------------------------
 OpenMP BLAS3 based DFT computing Module                
 Release: version 1.0, May 2013, Q-Chem Inc. Pittsburgh 
 -------------------------------------------------------
 A unrestricted SCF calculation will be
 performed using DIIS, GDM
 SCF converges when RMS gradient is below 1.0e-07
 ---------------------------------------
  Cycle       Energy         DIIS error
 ---------------------------------------
    1    -379.3468316398      1.72e-02  
    2    -378.2675909505      3.32e-03  Done DIIS. Switching to GDM
 ---------------------------------------
  Cycle       Energy        RMS Gradient
 ---------------------------------------
    1    -378.2675909505      1.98e-01   Descent step
    2    -378.4631400963      5.86e-02   Normal BFGS step
    3    -378.4873746669      1.44e-02   Normal BFGS step
    4    -378.4886722910      7.36e-03   Normal BFGS step
    5    -378.4889947151      6.23e-03   Normal BFGS step
    6    -378.4890684280      2.27e-03   Normal BFGS step
    7    -378.4890876203      4.55e-04   Normal BFGS step
    8    -378.4890889967      1.86e-04   Normal BFGS step
    9    -378.4890892315      1.14e-04   Normal BFGS step
   10    -378.4890893274      4.85e-05   Normal BFGS step
   11    -378.4890893337      1.53e-05   Normal BFGS step
   12    -378.4890893362      7.95e-06   Normal BFGS step
   13    -378.4890893364      4.04e-06   Normal BFGS step
   14    -378.4890893365      1.15e-06   Normal BFGS step
   15    -378.4890893365      4.67e-07   Normal BFGS step
   16    -378.4890893365      1.31e-07   Normal BFGS step
   17    -378.4890893365      3.42e-08  Convergence criterion met
 ---------------------------------------
 SCF time:   CPU 329.56s  wall 41.00s 
<S^2> =          0.752996058
(3)  G-ENP(liq) elect-nuc-pol free energy of system     -378.489089337 a.u.
(4)  G-CDS(liq) cavity-dispersion-solvent structure 
     free energy                                                4.9896 kcal/mol
(6)  G-S(liq) free energy of system                     -378.481137953 a.u.
 SCF   energy in the final basis set =     -378.4811379535
 Total energy in the final basis set =     -378.4811379535
 
 --------------------------------------------------------------
 
                    Orbital Energies (a.u.)
 --------------------------------------------------------------
 
 Alpha MOs
 -- Occupied --
-19.3752 -19.3719 -19.2793 -19.2780 -10.4455 -10.4346  -1.2407  -1.1722
 -1.1528  -1.0669  -0.8211  -0.7058  -0.6681  -0.5851  -0.5816  -0.5301
 -0.5193  -0.5109  -0.4997  -0.4658  -0.3771  -0.3770  -0.3561  -0.2432
 -- Virtual --
  0.0350   0.0549   0.0742   0.0946   0.1045   0.1145   0.1183   0.1216
  0.1628   0.1722   0.1828   0.2121   0.2265   0.2379   0.2497   0.2692
  0.2860   0.2996   0.3050   0.3071   0.3239   0.3288   0.3382   0.3434
  0.3485   0.3621   0.3883   0.4037   0.4170   0.4291   0.4447   0.4641
  0.5677   0.6023   0.6105   0.6135   0.6950   0.6984   0.7132   0.7163
  0.7361   0.7516   0.7780   0.8400   0.8733   0.8752   0.8836   0.9188
  0.9197   0.9777   1.0503   1.1045   1.1081   1.1181   1.1285   1.1370
  1.1546   1.1668   1.1842   1.1853   1.2028   1.2640   1.2765   1.2781
  1.3113   1.4150   1.4436   1.4728   1.5152   1.5713   1.5952   1.6224
  1.6388   1.6611   1.7232   1.7527   1.8053   1.8116   1.8213   1.8376
  1.9529   1.9740   2.0093   2.0232   2.1533   2.1972   2.2883   2.3373
  2.4288   2.4441   2.4474   2.4957   2.5881   2.6154   2.6508   2.7339
  2.7557   2.8145   2.8291   2.8519   2.8887   2.9615   3.1321   3.1658
  3.2012   3.2368   3.2985   3.3138   3.3255   3.3908   3.4041   3.4460
  3.4891   3.5502   3.5694   3.6030   3.6177   3.6456   3.7218   3.7632
  3.7812   3.7898   3.8092   3.9375   4.0832   4.1293   4.1581   4.2160
  4.2751   4.2872   4.2987   4.3558   4.4808   4.9042   5.1161   5.1548
  5.1741   5.1805   5.1952   5.1982   5.2117   5.2192   5.2648   5.2777
  5.2888   5.3205   5.3520   5.3658   5.3734   5.4095   5.4613   5.5270
  5.5686   5.5717   5.6078   5.6139   5.6584   5.7044   5.8073   5.8856
  5.9000   5.9384   5.9537   6.0418   6.2883   6.3668   6.4810   6.5632
  6.8775   6.9305   6.9506   6.9866   7.0170   7.0214   7.0610   7.0873
  7.1963   7.2470   7.2564   7.2653   7.3079   7.3546   7.3673   7.4470
  7.4575   7.4982   7.5494   7.6557   7.7419   7.7761   7.8137   7.8354
  7.8706   7.9849  24.8747  25.2714  50.5692  50.5914  50.6974  50.7275
 
 Beta MOs
 -- Occupied --
-19.3720 -19.3687 -19.2768 -19.2753 -10.4357 -10.4341  -1.2320  -1.1652
 -1.1480  -1.0616  -0.8018  -0.6994  -0.6612  -0.5803  -0.5521  -0.5258
 -0.5150  -0.5068  -0.4822  -0.4398  -0.3711  -0.3561  -0.3527
 -- Virtual --
  0.0351   0.0368   0.0549   0.0744   0.0952   0.1047   0.1145   0.1183
  0.1224   0.1632   0.1725   0.2136   0.2238   0.2283   0.2397   0.2506
  0.2699   0.2864   0.3010   0.3068   0.3092   0.3250   0.3295   0.3449
  0.3482   0.3519   0.3648   0.3927   0.4081   0.4197   0.4312   0.4513
  0.4734   0.5708   0.6051   0.6152   0.6220   0.7015   0.7060   0.7219
  0.7250   0.7494   0.7581   0.7792   0.8444   0.8747   0.8844   0.8891
  0.9208   0.9297   0.9789   1.0543   1.1060   1.1170   1.1251   1.1292
  1.1383   1.1558   1.1757   1.1867   1.1930   1.2093   1.2685   1.2793
  1.2848   1.3141   1.4189   1.4501   1.4778   1.5182   1.5787   1.5991
  1.6259   1.6433   1.6655   1.7270   1.7597   1.8126   1.8223   1.8303
  1.8407   1.9587   1.9794   2.0206   2.0322   2.1590   2.2033   2.2951
  2.3421   2.4367   2.4523   2.4530   2.4992   2.5922   2.6221   2.6608
  2.7636   2.7689   2.8429   2.8641   2.8713   2.9197   2.9724   3.1542
  3.1751   3.2247   3.2603   3.3228   3.3301   3.3540   3.4104   3.4236
  3.4634   3.5071   3.5809   3.5909   3.6289   3.6325   3.6641   3.7368
  3.7770   3.7869   3.8050   3.8209   3.9456   4.0878   4.1328   4.1621
  4.2268   4.2813   4.3028   4.3417   4.3617   4.4912   4.9340   5.1252
  5.1704   5.1885   5.1891   5.2017   5.2074   5.2240   5.2275   5.2732
  5.2899   5.2958   5.3251   5.3578   5.3741   5.3823   5.4167   5.4648
  5.5306   5.5765   5.5790   5.6150   5.6209   5.6682   5.7102   5.8155
  5.8924   5.9147   5.9442   5.9664   6.0446   6.2971   6.3766   6.4864
  6.5711   6.8851   6.9429   6.9566   7.0009   7.0278   7.0341   7.0756
  7.0976   7.2015   7.2603   7.2696   7.2741   7.3138   7.3663   7.3736
  7.4554   7.4689   7.5064   7.5571   7.6601   7.7466   7.7801   7.8190
  7.8406   7.8755   7.9896  24.8809  25.2747  50.5718  50.5941  50.6995
 50.7297
 --------------------------------------------------------------
 
          Ground-State Mulliken Net Atomic Charges

     Atom                 Charge (a.u.)    Spin (a.u.)
  --------------------------------------------------------
      1 C                     0.151090       0.603140
      2 O                    -0.382835       0.077990
      3 H                     0.331850      -0.002380
      4 C                     0.409031       0.056359
      5 O                    -0.741231       0.093944
      6 O                    -0.741605       0.089792
      7 O                    -0.389607       0.081884
      8 H                     0.363308      -0.000729
  --------------------------------------------------------
  Sum of atomic charges =    -1.000000
  Sum of spin   charges =     1.000000

 -----------------------------------------------------------------
                    Cartesian Multipole Moments
 -----------------------------------------------------------------
    Charge (ESU x 10^10)
                -4.8032
    Dipole Moment (Debye)
         X       6.3544      Y       9.6526      Z       0.3448
       Tot      11.5616
    Quadrupole Moments (Debye-Ang)
        XX     -45.8996     XY      -5.5297     YY     -52.7849
        XZ      -2.4380     YZ       2.5560     ZZ     -38.2057
    Octopole Moments (Debye-Ang^2)
       XXX      75.1788    XXY      31.6641    XYY      25.7574
       YYY      68.6151    XXZ       6.9868    XYZ       7.6368
       YYZ      -8.4602    XZZ      18.2533    YZZ      16.8838
       ZZZ     -10.1947
    Hexadecapole Moments (Debye-Ang^3)
      XXXX    -324.4452   XXXY     -64.4978   XXYY    -103.1711
      XYYY     -73.4712   YYYY    -416.0698   XXXZ     -56.8638
      XXYZ       0.5421   XYYZ      -7.5471   YYYZ      21.2049
      XXZZ     -66.0170   XYZZ     -17.9838   YYZZ     -71.9187
      XZZZ     -47.2792   YZZZ      11.2115   ZZZZ     -97.3215
 -----------------------------------------------------------------
 Calculating analytic gradient of the SCF energy
 Gradient of CDS energy
            1           2           3           4           5           6
    1   0.0032171  -0.0038383  -0.0001841  -0.0022527  -0.0006893   0.0022640
    2   0.0044925   0.0003250   0.0002857  -0.0027663   0.0024627  -0.0007015
    3   0.0008700  -0.0021430  -0.0001575  -0.0007016  -0.0008437   0.0013682
            7           8
    1   0.0011394   0.0003439
    2  -0.0043251   0.0002270
    3   0.0014667   0.0001410
 Gradient of SCF Energy
            1           2           3           4           5           6
    1  -0.0191185   0.0028601   0.0270504   0.0068729  -0.0023859   0.0096398
    2  -0.0070622   0.0005473   0.0023012  -0.0031740   0.0182360  -0.0054835
    3  -0.0101827   0.0016182   0.0144457   0.0054526  -0.0048836   0.0061705
            7           8
    1  -0.0188295  -0.0060894
    2   0.0030642  -0.0084289
    3  -0.0109117  -0.0017091
 Max gradient component =       2.705E-02
 RMS gradient           =       1.057E-02
 Computing fast CPCM-SWIG gradient
 Updating gradient with PCM contributions...
 -- total gradient after adding PCM contribution --
---------------------------------------------------
  Atom         X              Y              Z     
---------------------------------------------------
   1       0.000037      -0.000015       0.000058
   2      -0.000058       0.000020      -0.000067
   3       0.000015       0.000011      -0.000006
   4       0.000123      -0.000054       0.000097
   5      -0.000032       0.000053      -0.000006
   6      -0.000078       0.000035      -0.000042
   7      -0.000011      -0.000027      -0.000033
   8       0.000004      -0.000024      -0.000001
---------------------------------------------------
 Number of fixed atoms: 0
 Gradient time:  CPU 51.21 s  wall 7.60 s
 ######################################################
 ######################################################
 # Starting finite difference calculation for IDERIV  #
 Finite diff step size:  1.88973e-03 a.u.
 ----------------------------------------------------------------
             Standard Nuclear Orientation (Angstroms)
    I     Atom           X                Y                Z
 ----------------------------------------------------------------
    1      C       0.0345825890     0.2156391192     0.2364698461
    2      O       1.2001413651     0.0826017418     0.8943481755
    3      H      -1.1277621868     1.3766541534    -0.6298194523
    4      C      -0.8393693190    -0.8929137460    -0.0274891381
    5      O      -0.5062190370    -2.0526716429     0.3744233366
    6      O      -1.9104150558    -0.6008046154    -0.6669935653
    7      O      -0.2722929998     1.4647120681    -0.1745756269
    8      H       1.6345905442     0.9437645218     0.9577898244
 ----------------------------------------------------------------
 Nuclear Repulsion Energy =         230.26715520 hartrees
 There are       24 alpha and       23 beta electrons
 Discretize the solute cavity surface with Lebedev spheres
	Using 110 Lebedev grid points for each H atom
	Using 194 Lebedev grid points for other atoms
	Atomic van der Waals radii will be scaled by 1.20
 Remove points where switching function is < 1.0e-08
 Keep 774 surface tesserae and discard 610 interior tesserae
 Molecular Surface Area = 94.678 Angst**2

                       Distance Matrix (Angstroms)
             C (  1)   O (  2)   H (  3)   C (  4)   O (  5)   O (  6)
   O (  2)  1.345002
   H (  3)  1.857272  3.068679
   C (  4)  1.436090  2.441520  2.365779
   O (  5)  2.335965  2.782334  3.626995  1.271834
   O (  6)  2.294742  3.546885  2.127033  1.281184  2.272495
   O (  7)  1.350302  2.284927  0.973051  2.429323  3.567648  2.681842
   H (  8)  1.900130  0.966629  3.215352  3.234909  3.728540  4.194363
             O (  7)
   H (  8)  2.278123
 
 Requested basis set is 6-311++G(2df,2p)
 There are 60 shells and 224 basis functions
 A cutoff of  1.0D-12 yielded   1725 shell pairs
 There are     24360 function pairs (     31327 Cartesian)
 Smallest overlap matrix eigenvalue = 4.61E-05
 Guess MOs from SCF MO coefficient file

 -----------------------------------------------------------------------
  General SCF calculation program by
  Eric Jon Sundstrom, Paul Horn, Yuezhi Mao, Dmitri Zuev, Alec White,
  David Stuck, Shaama M.S., Shane Yost, Joonho Lee, David Small,
  Daniel Levine, Susi Lehtola, Hugh Burton, Evgeny Epifanovsky,
  Bang C. Huynh
 -----------------------------------------------------------------------
 Exchange:     0.1500 Hartree-Fock + 1.0000 wB97M-V + LR-HF
 Correlation:  1.0000 wB97M-V
 Using SG-2 standard quadrature grid
 Nonlocal Correlation:  VV10 with C = 0.0100 and b = 6.00 and scale = 1.00000
 Grid used for NLC:  SG-1 standard quadrature
 
 Citation of the SMD model:
 Marenich, A.V.; Cramer, C.J.; Truhlar, D.G.
 J. Phys. Chem. B 2009, 113, 6378-6396.
 iSolventCode=           1
 Solvent: water                                                           
 
 vradii
            1           2           3           4           5           6
    1   1.8500000   1.5200000   1.2000000   1.8500000   1.5200000   1.5200000
            7           8
    1   1.5200000   1.2000000
 -------------------------------------------------------
 OpenMP BLAS3 based DFT computing Module                
 Release: version 1.0, May 2013, Q-Chem Inc. Pittsburgh 
 -------------------------------------------------------
 A unrestricted SCF calculation will be
 performed using Roothaan-Hall, DIIS, GDM
 SCF converges when RMS gradient is below 1.0e-07
 ---------------------------------------
  Cycle       Energy         DIIS error
 ---------------------------------------
    1    -378.3462652181      4.81e-04  Roothaan Step
 ---------------------------------------
  Cycle       Energy         DIIS error
 ---------------------------------------
    1    -378.4761107164      5.61e-04  
    2    -378.4836248522      5.62e-04  Done DIIS. Switching to GDM
 ---------------------------------------
  Cycle       Energy        RMS Gradient
 ---------------------------------------
    1    -378.4836248522      1.57e-02   Normal BFGS step
    2    -378.4825202923      3.13e-02  Line search: overstep
    3    -378.4886875530      8.27e-03   Normal BFGS step
    4    -378.4890083011      5.87e-03   Normal BFGS step
    5    -378.4890720824      1.97e-03   Normal BFGS step
    6    -378.4890887032      7.93e-04   Normal BFGS step
    7    -378.4890931561      7.46e-04   Normal BFGS step
    8    -378.4890941466      1.72e-04   Normal BFGS step
    9    -378.4890942857      4.38e-05   Normal BFGS step
   10    -378.4890943046      2.37e-05   Normal BFGS step
   11    -378.4890943095      1.06e-05   Normal BFGS step
   12    -378.4890943103      8.82e-06   Normal BFGS step
   13    -378.4890943105      4.38e-06   Normal BFGS step
   14    -378.4890943105      1.09e-06   Normal BFGS step
   15    -378.4890943106      5.26e-07   Normal BFGS step
   16    -378.4890943106      1.64e-07   Normal BFGS step
   17    -378.4890943105      6.22e-08  Convergence criterion met
 ---------------------------------------
 SCF time:   CPU 355.38s  wall 45.00s 
<S^2> =          0.752993163
(3)  G-ENP(liq) elect-nuc-pol free energy of system     -378.489094311 a.u.
(4)  G-CDS(liq) cavity-dispersion-solvent structure 
     free energy                                                4.9934 kcal/mol
(6)  G-S(liq) free energy of system                     -378.481136885 a.u.
 SCF   energy in the final basis set =     -378.4811368855
 Total energy in the final basis set =     -378.4811368855
 
 --------------------------------------------------------------
 
                    Orbital Energies (a.u.)
 --------------------------------------------------------------
 
 Alpha MOs
 -- Occupied --
-19.3753 -19.3718 -19.2793 -19.2780 -10.4455 -10.4347  -1.2408  -1.1723
 -1.1527  -1.0669  -0.8210  -0.7057  -0.6683  -0.5850  -0.5816  -0.5300
 -0.5194  -0.5108  -0.4997  -0.4659  -0.3771  -0.3770  -0.3560  -0.2430
 -- Virtual --
  0.0350   0.0549   0.0742   0.0946   0.1045   0.1145   0.1183   0.1216
  0.1628   0.1722   0.1828   0.2122   0.2265   0.2379   0.2497   0.2692
  0.2860   0.2996   0.3050   0.3071   0.3239   0.3288   0.3383   0.3434
  0.3486   0.3621   0.3883   0.4037   0.4171   0.4290   0.4448   0.4639
  0.5676   0.6023   0.6106   0.6134   0.6950   0.6984   0.7132   0.7163
  0.7362   0.7515   0.7780   0.8401   0.8733   0.8752   0.8836   0.9186
  0.9197   0.9776   1.0504   1.1045   1.1081   1.1179   1.1285   1.1371
  1.1546   1.1668   1.1843   1.1853   1.2028   1.2639   1.2765   1.2781
  1.3113   1.4151   1.4436   1.4727   1.5151   1.5713   1.5952   1.6224
  1.6389   1.6611   1.7230   1.7526   1.8053   1.8116   1.8213   1.8375
  1.9528   1.9741   2.0094   2.0233   2.1534   2.1972   2.2884   2.3374
  2.4290   2.4442   2.4474   2.4957   2.5882   2.6154   2.6507   2.7337
  2.7560   2.8147   2.8290   2.8517   2.8887   2.9617   3.1324   3.1659
  3.2012   3.2367   3.2985   3.3137   3.3260   3.3910   3.4042   3.4460
  3.4894   3.5499   3.5694   3.6027   3.6177   3.6457   3.7214   3.7633
  3.7813   3.7896   3.8091   3.9376   4.0830   4.1295   4.1581   4.2159
  4.2750   4.2871   4.2973   4.3558   4.4803   4.9035   5.1161   5.1548
  5.1742   5.1806   5.1952   5.1982   5.2117   5.2192   5.2649   5.2777
  5.2887   5.3204   5.3521   5.3659   5.3734   5.4096   5.4615   5.5269
  5.5687   5.5717   5.6075   5.6138   5.6584   5.7046   5.8070   5.8859
  5.9015   5.9382   5.9541   6.0419   6.2882   6.3668   6.4813   6.5644
  6.8780   6.9305   6.9500   6.9866   7.0170   7.0214   7.0610   7.0871
  7.1963   7.2471   7.2565   7.2651   7.3079   7.3546   7.3677   7.4469
  7.4575   7.4984   7.5492   7.6558   7.7421   7.7761   7.8138   7.8355
  7.8707   7.9848  24.8758  25.2705  50.5694  50.5915  50.6974  50.7275
 
 Beta MOs
 -- Occupied --
-19.3721 -19.3686 -19.2768 -19.2753 -10.4357 -10.4341  -1.2321  -1.1653
 -1.1480  -1.0616  -0.8017  -0.6993  -0.6613  -0.5803  -0.5521  -0.5258
 -0.5151  -0.5067  -0.4822  -0.4399  -0.3711  -0.3561  -0.3527
 -- Virtual --
  0.0351   0.0369   0.0549   0.0744   0.0952   0.1047   0.1145   0.1183
  0.1224   0.1632   0.1725   0.2136   0.2238   0.2283   0.2397   0.2506
  0.2699   0.2864   0.3010   0.3068   0.3092   0.3250   0.3295   0.3450
  0.3482   0.3520   0.3648   0.3927   0.4081   0.4197   0.4312   0.4514
  0.4732   0.5708   0.6050   0.6151   0.6220   0.7015   0.7061   0.7219
  0.7250   0.7495   0.7580   0.7792   0.8444   0.8747   0.8844   0.8891
  0.9206   0.9297   0.9789   1.0544   1.1060   1.1170   1.1250   1.1291
  1.1383   1.1558   1.1757   1.1867   1.1930   1.2093   1.2685   1.2793
  1.2848   1.3140   1.4190   1.4501   1.4777   1.5182   1.5787   1.5991
  1.6259   1.6433   1.6655   1.7268   1.7595   1.8127   1.8223   1.8303
  1.8406   1.9587   1.9795   2.0207   2.0323   2.1591   2.2032   2.2951
  2.3423   2.4368   2.4524   2.4530   2.4992   2.5922   2.6221   2.6608
  2.7640   2.7685   2.8429   2.8640   2.8715   2.9197   2.9727   3.1545
  3.1751   3.2246   3.2603   3.3228   3.3301   3.3545   3.4103   3.4240
  3.4634   3.5074   3.5805   3.5909   3.6289   3.6323   3.6642   3.7363
  3.7772   3.7870   3.8048   3.8208   3.9457   4.0875   4.1330   4.1621
  4.2267   4.2814   4.3026   4.3403   4.3617   4.4907   4.9333   5.1252
  5.1705   5.1886   5.1892   5.2017   5.2074   5.2240   5.2275   5.2732
  5.2899   5.2957   5.3251   5.3579   5.3742   5.3823   5.4167   5.4650
  5.5304   5.5765   5.5790   5.6148   5.6208   5.6682   5.7103   5.8152
  5.8927   5.9162   5.9440   5.9667   6.0447   6.2970   6.3766   6.4867
  6.5722   6.8855   6.9429   6.9560   7.0009   7.0279   7.0341   7.0756
  7.0974   7.2014   7.2605   7.2697   7.2740   7.3138   7.3663   7.3740
  7.4553   7.4689   7.5066   7.5569   7.6602   7.7468   7.7801   7.8191
  7.8408   7.8756   7.9895  24.8820  25.2738  50.5721  50.5942  50.6995
 50.7297
 --------------------------------------------------------------
 
          Ground-State Mulliken Net Atomic Charges

     Atom                 Charge (a.u.)    Spin (a.u.)
  --------------------------------------------------------
      1 C                     0.150823       0.603234
      2 O                    -0.382266       0.078184
      3 H                     0.331860      -0.002377
      4 C                     0.408945       0.056461
      5 O                    -0.741191       0.093879
      6 O                    -0.741639       0.089624
      7 O                    -0.389898       0.081726
      8 H                     0.363364      -0.000731
  --------------------------------------------------------
  Sum of atomic charges =    -1.000000
  Sum of spin   charges =     1.000000

 -----------------------------------------------------------------
                    Cartesian Multipole Moments
 -----------------------------------------------------------------
    Charge (ESU x 10^10)
                -4.8032
    Dipole Moment (Debye)
         X       6.3604      Y       9.6511      Z       0.3483
       Tot      11.5637
    Quadrupole Moments (Debye-Ang)
        XX     -45.8946     XY      -5.5285     YY     -52.7916
        XZ      -2.4336     YZ       2.5574     ZZ     -38.2033
    Octopole Moments (Debye-Ang^2)
       XXX      75.1795    XXY      31.6647    XYY      25.7582
       YYY      68.6088    XXZ       6.9912    XYZ       7.6370
       YYZ      -8.4585    XZZ      18.2543    YZZ      16.8837
       ZZZ     -10.1841
    Hexadecapole Moments (Debye-Ang^3)
      XXXX    -324.4281   XXXY     -64.4994   XXYY    -103.1718
      XYYY     -73.4770   YYYY    -416.1228   XXXZ     -56.8552
      XXYZ       0.5441   XYYZ      -7.5430   YYYZ      21.2118
      XXZZ     -66.0100   XYZZ     -17.9842   YYZZ     -71.9220
      XZZZ     -47.2714   YZZZ      11.2149   ZZZZ     -97.3084
 -----------------------------------------------------------------
 Calculating analytic gradient of the SCF energy
 Gradient of CDS energy
            1           2           3           4           5           6
    1   0.0031775  -0.0038020  -0.0001842  -0.0022536  -0.0006898   0.0022640
    2   0.0045054   0.0003213   0.0002860  -0.0027666   0.0024625  -0.0007015
    3   0.0008489  -0.0021244  -0.0001575  -0.0007016  -0.0008440   0.0013682
            7           8
    1   0.0011452   0.0003429
    2  -0.0043345   0.0002274
    3   0.0014698   0.0001405
 Gradient of SCF Energy
            1           2           3           4           5           6
    1  -0.0181763   0.0024181   0.0270373   0.0066224  -0.0023718   0.0095975
    2  -0.0068698   0.0005138   0.0023698  -0.0033772   0.0182247  -0.0055173
    3  -0.0097264   0.0014001   0.0144191   0.0053806  -0.0048865   0.0061366
            7           8
    1  -0.0189903  -0.0061369
    2   0.0030780  -0.0084218
    3  -0.0109870  -0.0017364
 Max gradient component =       2.704E-02
 RMS gradient           =       1.047E-02
 Computing fast CPCM-SWIG gradient
 Updating gradient with PCM contributions...
 -- total gradient after adding PCM contribution --
---------------------------------------------------
  Atom         X              Y              Z     
---------------------------------------------------
   1       0.001094       0.000211       0.000554
   2      -0.000529      -0.000025      -0.000309
   3      -0.000021       0.000090      -0.000041
   4      -0.000164      -0.000267       0.000034
   5      -0.000010       0.000072      -0.000013
   6      -0.000151       0.000005      -0.000093
   7      -0.000165      -0.000069      -0.000100
   8      -0.000055      -0.000018      -0.000032
---------------------------------------------------
 Number of fixed atoms: 0
 Gradient time:  CPU 50.76 s  wall 7.42 s
 ----------------------------------------------------------------
             Standard Nuclear Orientation (Angstroms)
    I     Atom           X                Y                Z
 ----------------------------------------------------------------
    1      C       0.0325825890     0.2156391192     0.2364698461
    2      O       1.2001413651     0.0826017418     0.8943481755
    3      H      -1.1277621868     1.3766541534    -0.6298194523
    4      C      -0.8393693190    -0.8929137460    -0.0274891381
    5      O      -0.5062190370    -2.0526716429     0.3744233366
    6      O      -1.9104150558    -0.6008046154    -0.6669935653
    7      O      -0.2722929998     1.4647120681    -0.1745756269
    8      H       1.6345905442     0.9437645218     0.9577898244
 ----------------------------------------------------------------
 Nuclear Repulsion Energy =         230.27041086 hartrees
 There are       24 alpha and       23 beta electrons
 Discretize the solute cavity surface with Lebedev spheres
	Using 110 Lebedev grid points for each H atom
	Using 194 Lebedev grid points for other atoms
	Atomic van der Waals radii will be scaled by 1.20
 Remove points where switching function is < 1.0e-08
 Keep 774 surface tesserae and discard 610 interior tesserae
 Molecular Surface Area = 94.677 Angst**2

                       Distance Matrix (Angstroms)
             C (  1)   O (  2)   H (  3)   C (  4)   O (  5)   O (  6)
   O (  2)  1.346735
   H (  3)  1.856021  3.068679
   C (  4)  1.434874  2.441520  2.365779
   O (  5)  2.335503  2.782334  3.626995  1.271834
   O (  6)  2.293047  3.546885  2.127033  1.281184  2.272495
   O (  7)  1.349848  2.284927  0.973051  2.429323  3.567648  2.681842
   H (  8)  1.901815  0.966629  3.215352  3.234909  3.728540  4.194363
             O (  7)
   H (  8)  2.278123
 
 Requested basis set is 6-311++G(2df,2p)
 There are 60 shells and 224 basis functions
 A cutoff of  1.0D-12 yielded   1725 shell pairs
 There are     24360 function pairs (     31327 Cartesian)
 Smallest overlap matrix eigenvalue = 4.59E-05
 Guess MOs from SCF MO coefficient file

 -----------------------------------------------------------------------
  General SCF calculation program by
  Eric Jon Sundstrom, Paul Horn, Yuezhi Mao, Dmitri Zuev, Alec White,
  David Stuck, Shaama M.S., Shane Yost, Joonho Lee, David Small,
  Daniel Levine, Susi Lehtola, Hugh Burton, Evgeny Epifanovsky,
  Bang C. Huynh
 -----------------------------------------------------------------------
 Exchange:     0.1500 Hartree-Fock + 1.0000 wB97M-V + LR-HF
 Correlation:  1.0000 wB97M-V
 Using SG-2 standard quadrature grid
 Nonlocal Correlation:  VV10 with C = 0.0100 and b = 6.00 and scale = 1.00000
 Grid used for NLC:  SG-1 standard quadrature
 
 Citation of the SMD model:
 Marenich, A.V.; Cramer, C.J.; Truhlar, D.G.
 J. Phys. Chem. B 2009, 113, 6378-6396.
 iSolventCode=           1
 Solvent: water                                                           
 
 vradii
            1           2           3           4           5           6
    1   1.8500000   1.5200000   1.2000000   1.8500000   1.5200000   1.5200000
            7           8
    1   1.5200000   1.2000000
 -------------------------------------------------------
 OpenMP BLAS3 based DFT computing Module                
 Release: version 1.0, May 2013, Q-Chem Inc. Pittsburgh 
 -------------------------------------------------------
 A unrestricted SCF calculation will be
 performed using Roothaan-Hall, DIIS, GDM
 SCF converges when RMS gradient is below 1.0e-07
 ---------------------------------------
  Cycle       Energy         DIIS error
 ---------------------------------------
    1    -378.3462525570      4.82e-04  Roothaan Step
 ---------------------------------------
  Cycle       Energy         DIIS error
 ---------------------------------------
    1    -378.4760764234      5.62e-04  
    2    -378.4835768809      5.64e-04  Done DIIS. Switching to GDM
 ---------------------------------------
  Cycle       Energy        RMS Gradient
 ---------------------------------------
    1    -378.4835768809      1.57e-02   Normal BFGS step
    2    -378.4824572531      3.13e-02  Line search: overstep
    3    -378.4886759343      8.29e-03   Normal BFGS step
    4    -378.4889965823      5.85e-03   Normal BFGS step
    5    -378.4890601786      1.97e-03   Normal BFGS step
    6    -378.4890766912      8.07e-04   Normal BFGS step
    7    -378.4890811441      7.40e-04   Normal BFGS step
    8    -378.4890821278      1.71e-04   Normal BFGS step
    9    -378.4890822668      4.46e-05   Normal BFGS step
   10    -378.4890822857      2.40e-05   Normal BFGS step
   11    -378.4890822906      1.07e-05   Normal BFGS step
   12    -378.4890822914      8.98e-06   Normal BFGS step
   13    -378.4890822916      4.43e-06   Normal BFGS step
   14    -378.4890822917      1.08e-06   Normal BFGS step
   15    -378.4890822917      5.15e-07   Normal BFGS step
   16    -378.4890822917      1.60e-07   Normal BFGS step
   17    -378.4890822917      6.20e-08  Convergence criterion met
 ---------------------------------------
 SCF time:   CPU 357.56s  wall 45.00s 
<S^2> =          0.752998970
(3)  G-ENP(liq) elect-nuc-pol free energy of system     -378.489082292 a.u.
(4)  G-CDS(liq) cavity-dispersion-solvent structure 
     free energy                                                4.9857 kcal/mol
(6)  G-S(liq) free energy of system                     -378.481137026 a.u.
 SCF   energy in the final basis set =     -378.4811370255
 Total energy in the final basis set =     -378.4811370255
 
 --------------------------------------------------------------
 
                    Orbital Energies (a.u.)
 --------------------------------------------------------------
 
 Alpha MOs
 -- Occupied --
-19.3751 -19.3720 -19.2793 -19.2780 -10.4456 -10.4346  -1.2406  -1.1721
 -1.1528  -1.0669  -0.8212  -0.7058  -0.6679  -0.5851  -0.5816  -0.5301
 -0.5191  -0.5110  -0.4996  -0.4658  -0.3772  -0.3771  -0.3561  -0.2433
 -- Virtual --
  0.0350   0.0549   0.0742   0.0946   0.1045   0.1145   0.1183   0.1216
  0.1628   0.1722   0.1829   0.2121   0.2265   0.2379   0.2497   0.2692
  0.2860   0.2996   0.3050   0.3071   0.3239   0.3288   0.3381   0.3433
  0.3485   0.3621   0.3883   0.4037   0.4170   0.4291   0.4446   0.4643
  0.5678   0.6023   0.6105   0.6135   0.6950   0.6983   0.7132   0.7163
  0.7361   0.7517   0.7781   0.8400   0.8732   0.8752   0.8836   0.9190
  0.9198   0.9777   1.0502   1.1045   1.1081   1.1182   1.1285   1.1370
  1.1546   1.1668   1.1842   1.1854   1.2028   1.2640   1.2765   1.2781
  1.3113   1.4149   1.4436   1.4730   1.5152   1.5713   1.5952   1.6224
  1.6388   1.6611   1.7233   1.7529   1.8052   1.8117   1.8213   1.8377
  1.9529   1.9739   2.0092   2.0231   2.1532   2.1973   2.2882   2.3371
  2.4287   2.4440   2.4474   2.4958   2.5881   2.6154   2.6508   2.7340
  2.7554   2.8144   2.8291   2.8521   2.8886   2.9612   3.1319   3.1658
  3.2012   3.2368   3.2985   3.3138   3.3251   3.3906   3.4040   3.4460
  3.4888   3.5505   3.5693   3.6033   3.6177   3.6454   3.7223   3.7631
  3.7811   3.7899   3.8093   3.9374   4.0835   4.1292   4.1582   4.2162
  4.2751   4.2873   4.3001   4.3557   4.4813   4.9048   5.1160   5.1547
  5.1740   5.1805   5.1952   5.1982   5.2117   5.2192   5.2648   5.2776
  5.2889   5.3205   5.3519   5.3658   5.3735   5.4095   5.4611   5.5271
  5.5686   5.5716   5.6080   5.6141   5.6584   5.7043   5.8075   5.8853
  5.8985   5.9386   5.9535   6.0417   6.2884   6.3668   6.4808   6.5621
  6.8771   6.9305   6.9512   6.9866   7.0169   7.0214   7.0609   7.0874
  7.1963   7.2469   7.2563   7.2655   7.3079   7.3546   7.3669   7.4471
  7.4574   7.4980   7.5495   7.6555   7.7418   7.7761   7.8135   7.8352
  7.8705   7.9850  24.8736  25.2723  50.5689  50.5914  50.6974  50.7275
 
 Beta MOs
 -- Occupied --
-19.3719 -19.3688 -19.2768 -19.2753 -10.4357 -10.4341  -1.2319  -1.1651
 -1.1481  -1.0616  -0.8019  -0.6994  -0.6610  -0.5804  -0.5521  -0.5259
 -0.5148  -0.5069  -0.4821  -0.4398  -0.3712  -0.3561  -0.3527
 -- Virtual --
  0.0351   0.0366   0.0549   0.0744   0.0952   0.1047   0.1145   0.1183
  0.1224   0.1632   0.1726   0.2135   0.2239   0.2283   0.2397   0.2506
  0.2699   0.2864   0.3010   0.3068   0.3092   0.3250   0.3295   0.3449
  0.3481   0.3519   0.3648   0.3926   0.4081   0.4196   0.4312   0.4511
  0.4736   0.5709   0.6051   0.6152   0.6220   0.7015   0.7060   0.7219
  0.7249   0.7493   0.7582   0.7793   0.8444   0.8746   0.8844   0.8891
  0.9210   0.9297   0.9789   1.0542   1.1060   1.1171   1.1252   1.1292
  1.1382   1.1558   1.1757   1.1867   1.1929   1.2093   1.2685   1.2792
  1.2848   1.3141   1.4188   1.4500   1.4780   1.5183   1.5787   1.5991
  1.6260   1.6432   1.6655   1.7271   1.7598   1.8126   1.8223   1.8303
  1.8408   1.9588   1.9793   2.0205   2.0321   2.1589   2.2033   2.2950
  2.3419   2.4365   2.4523   2.4530   2.4992   2.5922   2.6221   2.6609
  2.7631   2.7693   2.8429   2.8643   2.8712   2.9197   2.9721   3.1539
  3.1750   3.2248   3.2603   3.3228   3.3301   3.3536   3.4104   3.4232
  3.4633   3.5068   3.5812   3.5908   3.6289   3.6328   3.6640   3.7372
  3.7769   3.7868   3.8052   3.8211   3.9455   4.0881   4.1327   4.1622
  4.2270   4.2813   4.3029   4.3430   4.3617   4.4917   4.9347   5.1251
  5.1704   5.1885   5.1891   5.2017   5.2075   5.2240   5.2275   5.2732
  5.2899   5.2959   5.3252   5.3577   5.3741   5.3824   5.4166   5.4647
  5.5307   5.5764   5.5790   5.6153   5.6210   5.6683   5.7100   5.8157
  5.8921   5.9132   5.9444   5.9661   6.0445   6.2973   6.3766   6.4861
  6.5699   6.8846   6.9429   6.9572   7.0009   7.0278   7.0341   7.0756
  7.0978   7.2015   7.2602   7.2695   7.2743   7.3138   7.3663   7.3732
  7.4555   7.4689   7.5062   7.5572   7.6600   7.7465   7.7801   7.8189
  7.8404   7.8754   7.9897  24.8798  25.2757  50.5716  50.5941  50.6995
 50.7297
 --------------------------------------------------------------
 
          Ground-State Mulliken Net Atomic Charges

     Atom                 Charge (a.u.)    Spin (a.u.)
  --------------------------------------------------------
      1 C                     0.151357       0.603048
      2 O                    -0.383405       0.077795
      3 H                     0.331839      -0.002383
      4 C                     0.409116       0.056256
      5 O                    -0.741271       0.094009
      6 O                    -0.741571       0.089961
      7 O                    -0.389316       0.082043
      8 H                     0.363251      -0.000728
  --------------------------------------------------------
  Sum of atomic charges =    -1.000000
  Sum of spin   charges =     1.000000

 -----------------------------------------------------------------
                    Cartesian Multipole Moments
 -----------------------------------------------------------------
    Charge (ESU x 10^10)
                -4.8032
    Dipole Moment (Debye)
         X       6.3483      Y       9.6541      Z       0.3413
       Tot      11.5594
    Quadrupole Moments (Debye-Ang)
        XX     -45.9046     XY      -5.5308     YY     -52.7782
        XZ      -2.4424     YZ       2.5546     ZZ     -38.2081
    Octopole Moments (Debye-Ang^2)
       XXX      75.1782    XXY      31.6635    XYY      25.7565
       YYY      68.6214    XXZ       6.9825    XYZ       7.6366
       YYZ      -8.4620    XZZ      18.2524    YZZ      16.8839
       ZZZ     -10.2053
    Hexadecapole Moments (Debye-Ang^3)
      XXXX    -324.4623   XXXY     -64.4961   XXYY    -103.1705
      XYYY     -73.4653   YYYY    -416.0168   XXXZ     -56.8723
      XXYZ       0.5402   XYYZ      -7.5513   YYYZ      21.1979
      XXZZ     -66.0240   XYZZ     -17.9834   YYZZ     -71.9154
      XZZZ     -47.2871   YZZZ      11.2082   ZZZZ     -97.3346
 -----------------------------------------------------------------
 Calculating analytic gradient of the SCF energy
 Gradient of CDS energy
            1           2           3           4           5           6
    1   0.0032567  -0.0038747  -0.0001840  -0.0022518  -0.0006888   0.0022640
    2   0.0044797   0.0003286   0.0002854  -0.0027660   0.0024629  -0.0007015
    3   0.0008911  -0.0021617  -0.0001575  -0.0007017  -0.0008435   0.0013683
            7           8
    1   0.0011335   0.0003449
    2  -0.0043158   0.0002266
    3   0.0014635   0.0001415
 Gradient of SCF Energy
            1           2           3           4           5           6
    1  -0.0200581   0.0032992   0.0270636   0.0071237  -0.0024000   0.0096823
    2  -0.0072558   0.0005810   0.0022325  -0.0029695   0.0182473  -0.0054497
    3  -0.0106373   0.0018342   0.0144724   0.0055250  -0.0048807   0.0062046
            7           8
    1  -0.0186688  -0.0060420
    2   0.0030503  -0.0084361
    3  -0.0108363  -0.0016818
 Max gradient component =       2.706E-02
 RMS gradient           =       1.067E-02
 Computing fast CPCM-SWIG gradient
 Updating gradient with PCM contributions...
 -- total gradient after adding PCM contribution --
---------------------------------------------------
  Atom         X              Y              Z     
---------------------------------------------------
   1      -0.001018      -0.000242      -0.000435
   2       0.000411       0.000064       0.000172
   3       0.000050      -0.000068       0.000029
   4       0.000410       0.000162       0.000159
   5      -0.000054       0.000033       0.000001
   6      -0.000004       0.000066       0.000009
   7       0.000143       0.000015       0.000034
   8       0.000063      -0.000030       0.000031
---------------------------------------------------
 Number of fixed atoms: 0
 Gradient time:  CPU 50.70 s  wall 7.54 s
 ----------------------------------------------------------------
             Standard Nuclear Orientation (Angstroms)
    I     Atom           X                Y                Z
 ----------------------------------------------------------------
    1      C       0.0335825890     0.2166391192     0.2364698461
    2      O       1.2001413651     0.0826017418     0.8943481755
    3      H      -1.1277621868     1.3766541534    -0.6298194523
    4      C      -0.8393693190    -0.8929137460    -0.0274891381
    5      O      -0.5062190370    -2.0526716429     0.3744233366
    6      O      -1.9104150558    -0.6008046154    -0.6669935653
    7      O      -0.2722929998     1.4647120681    -0.1745756269
    8      H       1.6345905442     0.9437645218     0.9577898244
 ----------------------------------------------------------------
 Nuclear Repulsion Energy =         230.26782694 hartrees
 There are       24 alpha and       23 beta electrons
 Discretize the solute cavity surface with Lebedev spheres
	Using 110 Lebedev grid points for each H atom
	Using 194 Lebedev grid points for other atoms
	Atomic van der Waals radii will be scaled by 1.20
 Remove points where switching function is < 1.0e-08
 Keep 773 surface tesserae and discard 611 interior tesserae
 Molecular Surface Area = 94.677 Angst**2

                       Distance Matrix (Angstroms)
             C (  1)   O (  2)   H (  3)   C (  4)   O (  5)   O (  6)
   O (  2)  1.345968
   H (  3)  1.856021  3.068679
   C (  4)  1.436254  2.441520  2.365779
   O (  5)  2.336705  2.782334  3.626995  1.271834
   O (  6)  2.294251  3.546885  2.127033  1.281184  2.272495
   O (  7)  1.349149  2.284927  0.973051  2.429323  3.567648  2.681842
   H (  8)  1.900589  0.966629  3.215352  3.234909  3.728540  4.194363
             O (  7)
   H (  8)  2.278123
 
 Requested basis set is 6-311++G(2df,2p)
 There are 60 shells and 224 basis functions
 A cutoff of  1.0D-12 yielded   1725 shell pairs
 There are     24360 function pairs (     31327 Cartesian)
 Smallest overlap matrix eigenvalue = 4.62E-05
 Guess MOs from SCF MO coefficient file

 -----------------------------------------------------------------------
  General SCF calculation program by
  Eric Jon Sundstrom, Paul Horn, Yuezhi Mao, Dmitri Zuev, Alec White,
  David Stuck, Shaama M.S., Shane Yost, Joonho Lee, David Small,
  Daniel Levine, Susi Lehtola, Hugh Burton, Evgeny Epifanovsky,
  Bang C. Huynh
 -----------------------------------------------------------------------
 Exchange:     0.1500 Hartree-Fock + 1.0000 wB97M-V + LR-HF
 Correlation:  1.0000 wB97M-V
 Using SG-2 standard quadrature grid
 Nonlocal Correlation:  VV10 with C = 0.0100 and b = 6.00 and scale = 1.00000
 Grid used for NLC:  SG-1 standard quadrature
 
 Citation of the SMD model:
 Marenich, A.V.; Cramer, C.J.; Truhlar, D.G.
 J. Phys. Chem. B 2009, 113, 6378-6396.
 iSolventCode=           1
 Solvent: water                                                           
 
 vradii
            1           2           3           4           5           6
    1   1.8500000   1.5200000   1.2000000   1.8500000   1.5200000   1.5200000
            7           8
    1   1.5200000   1.2000000
 -------------------------------------------------------
 OpenMP BLAS3 based DFT computing Module                
 Release: version 1.0, May 2013, Q-Chem Inc. Pittsburgh 
 -------------------------------------------------------
 A unrestricted SCF calculation will be
 performed using Roothaan-Hall, DIIS, GDM
 SCF converges when RMS gradient is below 1.0e-07
 ---------------------------------------
  Cycle       Energy         DIIS error
 ---------------------------------------
    1    -378.3462641100      4.81e-04  Roothaan Step
 ---------------------------------------
  Cycle       Energy         DIIS error
 ---------------------------------------
    1    -378.4761020313      5.61e-04  
    2    -378.4836238489      5.62e-04  Done DIIS. Switching to GDM
 ---------------------------------------
  Cycle       Energy        RMS Gradient
 ---------------------------------------
    1    -378.4836238489      1.56e-02   Normal BFGS step
    2    -378.4825225135      3.13e-02  Line search: overstep
    3    -378.4886896052      8.27e-03   Normal BFGS step
    4    -378.4890105639      5.87e-03   Normal BFGS step
    5    -378.4890744451      1.96e-03   Normal BFGS step
    6    -378.4890910324      6.74e-04   Normal BFGS step
    7    -378.4890954852      7.46e-04   Normal BFGS step
    8    -378.4890964775      1.72e-04   Normal BFGS step
    9    -378.4890966168      4.39e-05   Normal BFGS step
   10    -378.4890966359      2.38e-05   Normal BFGS step
   11    -378.4890966408      1.06e-05   Normal BFGS step
   12    -378.4890966416      8.83e-06   Normal BFGS step
   13    -378.4890966418      4.38e-06   Normal BFGS step
   14    -378.4890966419      1.09e-06   Normal BFGS step
   15    -378.4890966419      5.24e-07   Normal BFGS step
   16    -378.4890966419      1.65e-07   Normal BFGS step
   17    -378.4890966419      6.20e-08  Convergence criterion met
 ---------------------------------------
 SCF time:   CPU 355.47s  wall 45.00s 
<S^2> =          0.752992053
(3)  G-ENP(liq) elect-nuc-pol free energy of system     -378.489096642 a.u.
(4)  G-CDS(liq) cavity-dispersion-solvent structure 
     free energy                                                4.9949 kcal/mol
(6)  G-S(liq) free energy of system                     -378.481136810 a.u.
 SCF   energy in the final basis set =     -378.4811368102
 Total energy in the final basis set =     -378.4811368102
 
 --------------------------------------------------------------
 
                    Orbital Energies (a.u.)
 --------------------------------------------------------------
 
 Alpha MOs
 -- Occupied --
-19.3751 -19.3720 -19.2793 -19.2780 -10.4454 -10.4347  -1.2408  -1.1723
 -1.1528  -1.0669  -0.8209  -0.7060  -0.6680  -0.5851  -0.5816  -0.5300
 -0.5193  -0.5110  -0.4997  -0.4659  -0.3771  -0.3770  -0.3560  -0.2430
 -- Virtual --
  0.0350   0.0548   0.0742   0.0946   0.1045   0.1145   0.1183   0.1216
  0.1628   0.1722   0.1827   0.2121   0.2265   0.2379   0.2497   0.2692
  0.2860   0.2997   0.3050   0.3071   0.3239   0.3288   0.3382   0.3434
  0.3486   0.3621   0.3883   0.4038   0.4171   0.4291   0.4448   0.4638
  0.5676   0.6022   0.6105   0.6135   0.6949   0.6984   0.7132   0.7163
  0.7363   0.7515   0.7781   0.8401   0.8732   0.8752   0.8836   0.9189
  0.9197   0.9777   1.0503   1.1045   1.1081   1.1180   1.1285   1.1371
  1.1545   1.1668   1.1841   1.1853   1.2028   1.2640   1.2765   1.2781
  1.3113   1.4151   1.4433   1.4729   1.5153   1.5713   1.5952   1.6224
  1.6388   1.6611   1.7229   1.7529   1.8053   1.8114   1.8212   1.8375
  1.9529   1.9739   2.0093   2.0234   2.1533   2.1971   2.2887   2.3374
  2.4289   2.4441   2.4472   2.4959   2.5882   2.6157   2.6507   2.7336
  2.7561   2.8148   2.8295   2.8518   2.8887   2.9611   3.1325   3.1661
  3.2016   3.2365   3.2986   3.3137   3.3262   3.3911   3.4041   3.4464
  3.4892   3.5498   3.5693   3.6026   3.6176   3.6457   3.7212   3.7631
  3.7811   3.7897   3.8091   3.9377   4.0829   4.1295   4.1580   4.2157
  4.2749   4.2870   4.2970   4.3556   4.4800   4.9035   5.1160   5.1548
  5.1742   5.1805   5.1952   5.1982   5.2117   5.2192   5.2650   5.2777
  5.2888   5.3204   5.3520   5.3658   5.3735   5.4096   5.4611   5.5272
  5.5686   5.5715   5.6078   5.6139   5.6586   5.7046   5.8072   5.8853
  5.9011   5.9383   5.9546   6.0422   6.2882   6.3668   6.4817   6.5646
  6.8783   6.9305   6.9499   6.9867   7.0170   7.0214   7.0610   7.0872
  7.1962   7.2470   7.2566   7.2654   7.3079   7.3546   7.3677   7.4468
  7.4575   7.4981   7.5495   7.6557   7.7422   7.7761   7.8139   7.8353
  7.8707   7.9848  24.8760  25.2702  50.5692  50.5918  50.6974  50.7275
 
 Beta MOs
 -- Occupied --
-19.3720 -19.3688 -19.2768 -19.2753 -10.4356 -10.4341  -1.2322  -1.1653
 -1.1480  -1.0616  -0.8016  -0.6996  -0.6610  -0.5804  -0.5521  -0.5258
 -0.5150  -0.5069  -0.4822  -0.4399  -0.3711  -0.3561  -0.3527
 -- Virtual --
  0.0351   0.0369   0.0549   0.0744   0.0952   0.1047   0.1145   0.1183
  0.1224   0.1632   0.1725   0.2135   0.2238   0.2283   0.2398   0.2506
  0.2699   0.2864   0.3010   0.3068   0.3092   0.3250   0.3295   0.3450
  0.3482   0.3520   0.3648   0.3927   0.4082   0.4197   0.4313   0.4514
  0.4731   0.5707   0.6050   0.6151   0.6220   0.7014   0.7061   0.7219
  0.7250   0.7495   0.7580   0.7793   0.8445   0.8746   0.8845   0.8892
  0.9209   0.9297   0.9789   1.0543   1.1059   1.1171   1.1250   1.1291
  1.1383   1.1558   1.1757   1.1866   1.1928   1.2092   1.2686   1.2793
  1.2848   1.3140   1.4190   1.4498   1.4779   1.5183   1.5788   1.5990
  1.6259   1.6433   1.6654   1.7267   1.7598   1.8126   1.8221   1.8303
  1.8406   1.9588   1.9793   2.0206   2.0323   2.1590   2.2032   2.2954
  2.3422   2.4368   2.4523   2.4528   2.4994   2.5922   2.6225   2.6608
  2.7637   2.7688   2.8434   2.8640   2.8716   2.9198   2.9721   3.1546
  3.1753   3.2251   3.2601   3.3228   3.3302   3.3547   3.4104   3.4238
  3.4637   3.5072   3.5805   3.5908   3.6289   3.6322   3.6641   3.7362
  3.7771   3.7869   3.8049   3.8208   3.9457   4.0875   4.1330   4.1620
  4.2265   4.2813   4.3025   4.3400   4.3615   4.4904   4.9333   5.1252
  5.1706   5.1886   5.1892   5.2017   5.2075   5.2240   5.2275   5.2733
  5.2899   5.2958   5.3251   5.3578   5.3741   5.3824   5.4167   5.4646
  5.5308   5.5764   5.5789   5.6151   5.6209   5.6684   5.7103   5.8154
  5.8921   5.9158   5.9441   5.9673   6.0450   6.2970   6.3766   6.4870
  6.5724   6.8859   6.9429   6.9559   7.0009   7.0278   7.0341   7.0757
  7.0976   7.2013   7.2604   7.2698   7.2742   7.3139   7.3663   7.3740
  7.4552   7.4689   7.5063   7.5571   7.6601   7.7469   7.7801   7.8192
  7.8406   7.8756   7.9895  24.8822  25.2736  50.5719  50.5945  50.6995
 50.7297
 --------------------------------------------------------------
 
          Ground-State Mulliken Net Atomic Charges

     Atom                 Charge (a.u.)    Spin (a.u.)
  --------------------------------------------------------
      1 C                     0.150541       0.603229
      2 O                    -0.382752       0.077847
      3 H                     0.331946      -0.002381
      4 C                     0.408993       0.056506
      5 O                    -0.741267       0.093750
      6 O                    -0.741571       0.089688
      7 O                    -0.389065       0.082090
      8 H                     0.363174      -0.000728
  --------------------------------------------------------
  Sum of atomic charges =    -1.000000
  Sum of spin   charges =     1.000000

 -----------------------------------------------------------------
                    Cartesian Multipole Moments
 -----------------------------------------------------------------
    Charge (ESU x 10^10)
                -4.8032
    Dipole Moment (Debye)
         X       6.3527      Y       9.6581      Z       0.3428
       Tot      11.5652
    Quadrupole Moments (Debye-Ang)
        XX     -45.9026     XY      -5.5321     YY     -52.7783
        XZ      -2.4392     YZ       2.5547     ZZ     -38.2072
    Octopole Moments (Debye-Ang^2)
       XXX      75.1768    XXY      31.6620    XYY      25.7535
       YYY      68.6148    XXZ       6.9850    XYZ       7.6360
       YYZ      -8.4613    XZZ      18.2528    YZZ      16.8828
       ZZZ     -10.1995
    Hexadecapole Moments (Debye-Ang^3)
      XXXX    -324.4688   XXXY     -64.5105   XXYY    -103.1708
      XYYY     -73.4769   YYYY    -416.0530   XXXZ     -56.8709
      XXYZ       0.5357   XYYZ      -7.5491   YYYZ      21.1983
      XXZZ     -66.0228   XYZZ     -17.9881   YYZZ     -71.9172
      XZZZ     -47.2820   YZZZ      11.2039   ZZZZ     -97.3294
 -----------------------------------------------------------------
 Calculating analytic gradient of the SCF energy
 Gradient of CDS energy
            1           2           3           4           5           6
    1   0.0032299  -0.0038421  -0.0001839  -0.0022530  -0.0006892   0.0022640
    2   0.0044491   0.0003288   0.0002844  -0.0027673   0.0024628  -0.0007014
    3   0.0008844  -0.0021452  -0.0001572  -0.0007018  -0.0008437   0.0013682
            7           8
    1   0.0011299   0.0003444
    2  -0.0042826   0.0002263
    3   0.0014539   0.0001414
 Gradient of SCF Energy
            1           2           3           4           5           6
    1  -0.0189518   0.0029062   0.0270585   0.0066560  -0.0024102   0.0096241
    2  -0.0060119   0.0003845   0.0022958  -0.0035351   0.0181886  -0.0054840
    3  -0.0102860   0.0016699   0.0144535   0.0053909  -0.0048832   0.0061681
            7           8
    1  -0.0187270  -0.0061559
    2   0.0025724  -0.0084104
    3  -0.0107648  -0.0017485
 Max gradient component =       2.706E-02
 RMS gradient           =       1.051E-02
 Computing fast CPCM-SWIG gradient
 Updating gradient with PCM contributions...
 -- total gradient after adding PCM contribution --
---------------------------------------------------
  Atom         X              Y              Z     
---------------------------------------------------
   1       0.000262       0.001225      -0.000048
   2      -0.000069      -0.000186      -0.000035
   3       0.000033       0.000008       0.000005
   4      -0.000091      -0.000458       0.000039
   5      -0.000054      -0.000038       0.000004
   6      -0.000074       0.000044      -0.000036
   7       0.000059      -0.000586       0.000113
   8      -0.000066      -0.000009      -0.000043
---------------------------------------------------
 Number of fixed atoms: 0
 Gradient time:  CPU 50.73 s  wall 7.58 s
 ----------------------------------------------------------------
             Standard Nuclear Orientation (Angstroms)
    I     Atom           X                Y                Z
 ----------------------------------------------------------------
    1      C       0.0335825890     0.2146391192     0.2364698461
    2      O       1.2001413651     0.0826017418     0.8943481755
    3      H      -1.1277621868     1.3766541534    -0.6298194523
    4      C      -0.8393693190    -0.8929137460    -0.0274891381
    5      O      -0.5062190370    -2.0526716429     0.3744233366
    6      O      -1.9104150558    -0.6008046154    -0.6669935653
    7      O      -0.2722929998     1.4647120681    -0.1745756269
    8      H       1.6345905442     0.9437645218     0.9577898244
 ----------------------------------------------------------------
 Nuclear Repulsion Energy =         230.26974604 hartrees
 There are       24 alpha and       23 beta electrons
 Discretize the solute cavity surface with Lebedev spheres
	Using 110 Lebedev grid points for each H atom
	Using 194 Lebedev grid points for other atoms
	Atomic van der Waals radii will be scaled by 1.20
 Remove points where switching function is < 1.0e-08
 Keep 775 surface tesserae and discard 609 interior tesserae
 Molecular Surface Area = 94.678 Angst**2

                       Distance Matrix (Angstroms)
             C (  1)   O (  2)   H (  3)   C (  4)   O (  5)   O (  6)
   O (  2)  1.345770
   H (  3)  1.857272  3.068679
   C (  4)  1.434710  2.441520  2.365779
   O (  5)  2.334762  2.782334  3.626995  1.271834
   O (  6)  2.293539  3.546885  2.127033  1.281184  2.272495
   O (  7)  1.351000  2.284927  0.973051  2.429323  3.567648  2.681842
   H (  8)  1.901356  0.966629  3.215352  3.234909  3.728540  4.194363
             O (  7)
   H (  8)  2.278123
 
 Requested basis set is 6-311++G(2df,2p)
 There are 60 shells and 224 basis functions
 A cutoff of  1.0D-12 yielded   1725 shell pairs
 There are     24360 function pairs (     31327 Cartesian)
 Smallest overlap matrix eigenvalue = 4.58E-05
 Guess MOs from SCF MO coefficient file

 -----------------------------------------------------------------------
  General SCF calculation program by
  Eric Jon Sundstrom, Paul Horn, Yuezhi Mao, Dmitri Zuev, Alec White,
  David Stuck, Shaama M.S., Shane Yost, Joonho Lee, David Small,
  Daniel Levine, Susi Lehtola, Hugh Burton, Evgeny Epifanovsky,
  Bang C. Huynh
 -----------------------------------------------------------------------
 Exchange:     0.1500 Hartree-Fock + 1.0000 wB97M-V + LR-HF
 Correlation:  1.0000 wB97M-V
 Using SG-2 standard quadrature grid
 Nonlocal Correlation:  VV10 with C = 0.0100 and b = 6.00 and scale = 1.00000
 Grid used for NLC:  SG-1 standard quadrature
 
 Citation of the SMD model:
 Marenich, A.V.; Cramer, C.J.; Truhlar, D.G.
 J. Phys. Chem. B 2009, 113, 6378-6396.
 iSolventCode=           1
 Solvent: water                                                           
 
 vradii
            1           2           3           4           5           6
    1   1.8500000   1.5200000   1.2000000   1.8500000   1.5200000   1.5200000
            7           8
    1   1.5200000   1.2000000
 -------------------------------------------------------
 OpenMP BLAS3 based DFT computing Module                
 Release: version 1.0, May 2013, Q-Chem Inc. Pittsburgh 
 -------------------------------------------------------
 A unrestricted SCF calculation will be
 performed using Roothaan-Hall, DIIS, GDM
 SCF converges when RMS gradient is below 1.0e-07
 ---------------------------------------
  Cycle       Energy         DIIS error
 ---------------------------------------
    1    -378.3462638713      4.82e-04  Roothaan Step
 ---------------------------------------
  Cycle       Energy         DIIS error
 ---------------------------------------
    1    -378.4760928156      5.62e-04  
    2    -378.4835899000      5.63e-04  Done DIIS. Switching to GDM
 ---------------------------------------
  Cycle       Energy        RMS Gradient
 ---------------------------------------
    1    -378.4835899000      1.58e-02   Normal BFGS step
    2    -378.4824675764      3.13e-02  Line search: overstep
    3    -378.4886732774      8.29e-03   Normal BFGS step
    4    -378.4889938171      5.85e-03   Normal BFGS step
    5    -378.4890573047      1.98e-03   Normal BFGS step
    6    -378.4890740156      8.00e-04   Normal BFGS step
    7    -378.4890784615      7.43e-04   Normal BFGS step
    8    -378.4890794455      1.72e-04   Normal BFGS step
    9    -378.4890795846      4.42e-05   Normal BFGS step
   10    -378.4890796032      2.38e-05   Normal BFGS step
   11    -378.4890796081      1.06e-05   Normal BFGS step
   12    -378.4890796089      8.91e-06   Normal BFGS step
   13    -378.4890796091      4.41e-06   Normal BFGS step
   14    -378.4890796091      1.08e-06   Normal BFGS step
   15    -378.4890796092      5.21e-07   Normal BFGS step
   16    -378.4890796092      1.60e-07   Normal BFGS step
   17    -378.4890796091      6.21e-08  Convergence criterion met
 ---------------------------------------
 SCF time:   CPU 360.08s  wall 46.00s 
<S^2> =          0.753000083
(3)  G-ENP(liq) elect-nuc-pol free energy of system     -378.489079609 a.u.
(4)  G-CDS(liq) cavity-dispersion-solvent structure 
     free energy                                                4.9842 kcal/mol
(6)  G-S(liq) free energy of system                     -378.481136757 a.u.
 SCF   energy in the final basis set =     -378.4811367569
 Total energy in the final basis set =     -378.4811367569
 
 --------------------------------------------------------------
 
                    Orbital Energies (a.u.)
 --------------------------------------------------------------
 
 Alpha MOs
 -- Occupied --
-19.3752 -19.3718 -19.2793 -19.2780 -10.4456 -10.4346  -1.2405  -1.1721
 -1.1528  -1.0669  -0.8213  -0.7056  -0.6683  -0.5850  -0.5816  -0.5301
 -0.5192  -0.5108  -0.4997  -0.4658  -0.3772  -0.3771  -0.3561  -0.2434
 -- Virtual --
  0.0350   0.0549   0.0742   0.0946   0.1045   0.1145   0.1182   0.1216
  0.1628   0.1722   0.1829   0.2122   0.2266   0.2378   0.2497   0.2692
  0.2860   0.2996   0.3050   0.3071   0.3239   0.3288   0.3381   0.3433
  0.3485   0.3621   0.3883   0.4036   0.4170   0.4290   0.4446   0.4644
  0.5678   0.6024   0.6105   0.6135   0.6952   0.6983   0.7132   0.7163
  0.7360   0.7517   0.7780   0.8400   0.8733   0.8751   0.8836   0.9187
  0.9198   0.9776   1.0503   1.1046   1.1080   1.1182   1.1285   1.1370
  1.1546   1.1668   1.1844   1.1854   1.2028   1.2639   1.2765   1.2781
  1.3114   1.4149   1.4439   1.4728   1.5151   1.5712   1.5953   1.6224
  1.6388   1.6612   1.7234   1.7526   1.8052   1.8119   1.8213   1.8377
  1.9528   1.9741   2.0093   2.0230   2.1533   2.1973   2.2879   2.3371
  2.4288   2.4441   2.4477   2.4956   2.5881   2.6150   2.6508   2.7341
  2.7553   2.8143   2.8286   2.8520   2.8886   2.9618   3.1318   3.1656
  3.2008   3.2370   3.2984   3.3138   3.3249   3.3905   3.4041   3.4456
  3.4889   3.5506   3.5694   3.6034   3.6177   3.6455   3.7225   3.7632
  3.7812   3.7898   3.8093   3.9373   4.0835   4.1292   4.1583   4.2164
  4.2752   4.2874   4.3004   4.3559   4.4816   4.9048   5.1161   5.1547
  5.1740   5.1805   5.1952   5.1982   5.2117   5.2192   5.2647   5.2776
  5.2888   5.3205   5.3519   5.3659   5.3733   5.4095   5.4615   5.5268
  5.5686   5.5718   5.6078   5.6140   5.6582   5.7043   5.8073   5.8858
  5.8989   5.9385   5.9530   6.0414   6.2884   6.3668   6.4804   6.5619
  6.8767   6.9305   6.9513   6.9866   7.0170   7.0214   7.0609   7.0873
  7.1964   7.2469   7.2562   7.2652   7.3078   7.3546   7.3669   7.4472
  7.4575   7.4984   7.5493   7.6557   7.7417   7.7762   7.8134   7.8354
  7.8705   7.9850  24.8734  25.2726  50.5692  50.5910  50.6975  50.7275
 
 Beta MOs
 -- Occupied --
-19.3721 -19.3686 -19.2768 -19.2753 -10.4358 -10.4341  -1.2319  -1.1651
 -1.1480  -1.0616  -0.8020  -0.6992  -0.6613  -0.5803  -0.5521  -0.5259
 -0.5149  -0.5067  -0.4821  -0.4398  -0.3712  -0.3561  -0.3527
 -- Virtual --
  0.0351   0.0366   0.0549   0.0744   0.0952   0.1047   0.1145   0.1183
  0.1224   0.1632   0.1726   0.2136   0.2239   0.2283   0.2397   0.2506
  0.2699   0.2864   0.3009   0.3068   0.3092   0.3250   0.3295   0.3449
  0.3482   0.3519   0.3648   0.3927   0.4079   0.4196   0.4311   0.4511
  0.4736   0.5710   0.6051   0.6152   0.6220   0.7016   0.7059   0.7219
  0.7250   0.7493   0.7582   0.7792   0.8444   0.8747   0.8844   0.8891
  0.9207   0.9297   0.9789   1.0543   1.1060   1.1170   1.1252   1.1292
  1.1382   1.1558   1.1757   1.1868   1.1931   1.2093   1.2684   1.2792
  1.2848   1.3141   1.4188   1.4504   1.4778   1.5181   1.5787   1.5991
  1.6259   1.6433   1.6656   1.7273   1.7595   1.8126   1.8226   1.8303
  1.8408   1.9586   1.9795   2.0206   2.0320   2.1590   2.2034   2.2947
  2.3419   2.4366   2.4523   2.4532   2.4990   2.5921   2.6218   2.6609
  2.7634   2.7690   2.8425   2.8642   2.8711   2.9197   2.9727   3.1539
  3.1749   3.2242   3.2605   3.3228   3.3301   3.3534   3.4103   3.4234
  3.4630   3.5070   3.5812   3.5910   3.6290   3.6329   3.6640   3.7374
  3.7770   3.7870   3.8051   3.8211   3.9454   4.0881   4.1327   4.1623
  4.2272   4.2813   4.3030   4.3433   4.3619   4.4920   4.9346   5.1252
  5.1703   5.1885   5.1891   5.2017   5.2074   5.2240   5.2275   5.2731
  5.2899   5.2958   5.3252   5.3578   5.3742   5.3823   5.4166   5.4650
  5.5303   5.5765   5.5791   5.6150   5.6209   5.6681   5.7100   5.8156
  5.8927   5.9136   5.9443   5.9656   6.0443   6.2973   6.3766   6.4857
  6.5697   6.8843   6.9429   6.9573   7.0009   7.0278   7.0341   7.0755
  7.0976   7.2016   7.2603   7.2694   7.2741   7.3138   7.3663   7.3732
  7.4556   7.4689   7.5066   7.5570   7.6601   7.7464   7.7802   7.8188
  7.8407   7.8754   7.9897  24.8796  25.2759  50.5718  50.5937  50.6995
 50.7297
 --------------------------------------------------------------
 
          Ground-State Mulliken Net Atomic Charges

     Atom                 Charge (a.u.)    Spin (a.u.)
  --------------------------------------------------------
      1 C                     0.151639       0.603051
      2 O                    -0.382920       0.078132
      3 H                     0.331753      -0.002379
      4 C                     0.409069       0.056213
      5 O                    -0.741194       0.094140
      6 O                    -0.741640       0.089896
      7 O                    -0.390148       0.081679
      8 H                     0.363441      -0.000731
  --------------------------------------------------------
  Sum of atomic charges =    -1.000000
  Sum of spin   charges =     1.000000

 -----------------------------------------------------------------
                    Cartesian Multipole Moments
 -----------------------------------------------------------------
    Charge (ESU x 10^10)
                -4.8032
    Dipole Moment (Debye)
         X       6.3560      Y       9.6471      Z       0.3468
       Tot      11.5579
    Quadrupole Moments (Debye-Ang)
        XX     -45.8966     XY      -5.5273     YY     -52.7916
        XZ      -2.4367     YZ       2.5573     ZZ     -38.2042
    Octopole Moments (Debye-Ang^2)
       XXX      75.1809    XXY      31.6662    XYY      25.7612
       YYY      68.6154    XXZ       6.9887    XYZ       7.6377
       YYZ      -8.4591    XZZ      18.2539    YZZ      16.8847
       ZZZ     -10.1898
    Hexadecapole Moments (Debye-Ang^3)
      XXXX    -324.4217   XXXY     -64.4850   XXYY    -103.1715
      XYYY     -73.4655   YYYY    -416.0865   XXXZ     -56.8566
      XXYZ       0.5486   XYYZ      -7.5452   YYYZ      21.2115
      XXZZ     -66.0112   XYZZ     -17.9795   YYZZ     -71.9202
      XZZZ     -47.2764   YZZZ      11.2191   ZZZZ     -97.3137
 -----------------------------------------------------------------
 Calculating analytic gradient of the SCF energy
 Gradient of CDS energy
            1           2           3           4           5           6
    1   0.0032042  -0.0038344  -0.0001843  -0.0022524  -0.0006894   0.0022640
    2   0.0045360   0.0003211   0.0002870  -0.0027653   0.0024627  -0.0007015
    3   0.0008555  -0.0021408  -0.0001578  -0.0007015  -0.0008438   0.0013682
            7           8
    1   0.0011488   0.0003435
    2  -0.0043678   0.0002278
    3   0.0014795   0.0001407
 Gradient of SCF Energy
            1           2           3           4           5           6
    1  -0.0192879   0.0028143   0.0270424   0.0070913  -0.0023616   0.0096556
    2  -0.0081103   0.0007101   0.0023066  -0.0028117   0.0182835  -0.0054831
    3  -0.0100812   0.0015666   0.0144380   0.0055146  -0.0048840   0.0061729
            7           8
    1  -0.0189312  -0.0060229
    2   0.0035524  -0.0084475
    3  -0.0110572  -0.0016696
 Max gradient component =       2.704E-02
 RMS gradient           =       1.063E-02
 Computing fast CPCM-SWIG gradient
 Updating gradient with PCM contributions...
 -- total gradient after adding PCM contribution --
---------------------------------------------------
  Atom         X              Y              Z     
---------------------------------------------------
   1      -0.000191      -0.001252       0.000162
   2      -0.000046       0.000225      -0.000100
   3      -0.000003       0.000015      -0.000017
   4       0.000338       0.000352       0.000155
   5      -0.000010       0.000144      -0.000017
   6      -0.000081       0.000027      -0.000048
   7      -0.000081       0.000527      -0.000176
   8       0.000074      -0.000039       0.000042
---------------------------------------------------
 Number of fixed atoms: 0
 Gradient time:  CPU 50.78 s  wall 7.49 s
 ----------------------------------------------------------------
             Standard Nuclear Orientation (Angstroms)
    I     Atom           X                Y                Z
 ----------------------------------------------------------------
    1      C       0.0335825890     0.2156391192     0.2374698461
    2      O       1.2001413651     0.0826017418     0.8943481755
    3      H      -1.1277621868     1.3766541534    -0.6298194523
    4      C      -0.8393693190    -0.8929137460    -0.0274891381
    5      O      -0.5062190370    -2.0526716429     0.3744233366
    6      O      -1.9104150558    -0.6008046154    -0.6669935653
    7      O      -0.2722929998     1.4647120681    -0.1745756269
    8      H       1.6345905442     0.9437645218     0.9577898244
 ----------------------------------------------------------------
 Nuclear Repulsion Energy =         230.26795907 hartrees
 There are       24 alpha and       23 beta electrons
 Discretize the solute cavity surface with Lebedev spheres
	Using 110 Lebedev grid points for each H atom
	Using 194 Lebedev grid points for other atoms
	Atomic van der Waals radii will be scaled by 1.20
 Remove points where switching function is < 1.0e-08
 Keep 774 surface tesserae and discard 610 interior tesserae
 Molecular Surface Area = 94.677 Angst**2

                       Distance Matrix (Angstroms)
             C (  1)   O (  2)   H (  3)   C (  4)   O (  5)   O (  6)
   O (  2)  1.345380
   H (  3)  1.857113  3.068679
   C (  4)  1.435666  2.441520  2.365779
   O (  5)  2.335675  2.782334  3.626995  1.271834
   O (  6)  2.294289  3.546885  2.127033  1.281184  2.272495
   O (  7)  1.350379  2.284927  0.973051  2.429323  3.567648  2.681842
   H (  8)  1.900593  0.966629  3.215352  3.234909  3.728540  4.194363
             O (  7)
   H (  8)  2.278123
 
 Requested basis set is 6-311++G(2df,2p)
 There are 60 shells and 224 basis functions
 A cutoff of  1.0D-12 yielded   1725 shell pairs
 There are     24360 function pairs (     31327 Cartesian)
 Smallest overlap matrix eigenvalue = 4.60E-05
 Guess MOs from SCF MO coefficient file

 -----------------------------------------------------------------------
  General SCF calculation program by
  Eric Jon Sundstrom, Paul Horn, Yuezhi Mao, Dmitri Zuev, Alec White,
  David Stuck, Shaama M.S., Shane Yost, Joonho Lee, David Small,
  Daniel Levine, Susi Lehtola, Hugh Burton, Evgeny Epifanovsky,
  Bang C. Huynh
 -----------------------------------------------------------------------
 Exchange:     0.1500 Hartree-Fock + 1.0000 wB97M-V + LR-HF
 Correlation:  1.0000 wB97M-V
 Using SG-2 standard quadrature grid
 Nonlocal Correlation:  VV10 with C = 0.0100 and b = 6.00 and scale = 1.00000
 Grid used for NLC:  SG-1 standard quadrature
 
 Citation of the SMD model:
 Marenich, A.V.; Cramer, C.J.; Truhlar, D.G.
 J. Phys. Chem. B 2009, 113, 6378-6396.
 iSolventCode=           1
 Solvent: water                                                           
 
 vradii
            1           2           3           4           5           6
    1   1.8500000   1.5200000   1.2000000   1.8500000   1.5200000   1.5200000
            7           8
    1   1.5200000   1.2000000
 -------------------------------------------------------
 OpenMP BLAS3 based DFT computing Module                
[...]
     5    5.721737801555395e-02  -3.645208764132982e-01   8.840153450243465e-02
     6    3.206465543842962e-02  -1.024908838319069e-01   2.444781169885824e-02
     7   -1.759856401278804e-02   5.228552144764569e-03  -1.090255838421563e-02
     8    2.004912084841773e-03  -3.798558114966980e-03   1.890341377581543e-03

Order 1, Length 24
    Atom      X          Y          Z
     1   -3.304166506885739e-02  -3.068177656736745e-02  -6.297780796117568e-02
     2   -2.797957880069507e-03  -1.130297914447682e-02  -1.817219494777711e-03
     3    3.477374760224867e-03   4.865066714881125e-03   1.236430785040391e-03
     4    1.942270608437359e-01  -9.553797884485500e-02   3.078380630161756e-01
     5   -3.053023231425275e-02   8.760384598564755e-02  -9.900203675243131e-02
     6   -1.296784141251061e-01   2.492209882081366e-02  -1.410900022731157e-01
     7    2.290048533279386e-04   1.968579281280202e-02  -3.483221970497088e-03
     8   -1.885212621766930e-03   4.459498883633355e-04  -7.042416585085454e-04


     5 Order 1, Length 24
    Atom      X          Y          Z
     1    1.172297647910335e-02  -1.163950556646849e-02   6.039655873975640e-04
     2    2.959326767250085e-03  -3.114719112065814e-03   3.019555554812659e-03
     3   -1.407149106774538e-03  -1.232711947095342e-03  -3.607111843935887e-04
     4   -1.019304507024472e-01   5.721737801555395e-02  -3.053023231425275e-02
     5    1.085775493324348e-01  -1.009579251881854e-01   6.317478123193432e-02
     6   -2.042386907470294e-02   6.189415940921429e-02  -3.397595698281553e-02
     7    3.689456342638156e-05  -1.570978851206752e-03  -2.343914777124937e-03
     8    4.647409401407801e-04  -5.956821323051334e-04   4.125116038957751e-04

Order 1, Length 24
    Atom      X          Y          Z
     1    1.039431396485371e-02  -4.811456935946591e-02   1.705872051042127e-02
     2   -1.991340823700457e-02   1.454876350794200e-04  -1.088730284463542e-02
     3   -2.868315137381844e-03   3.072371546070165e-03  -2.218463403086035e-03
     4    5.576219987687123e-02  -3.645208764132982e-01   8.760384598564755e-02
     5   -1.009579251881854e-01   4.620612054692889e-01  -1.379551584620520e-01
     6    5.623370918042779e-02  -2.198138850810042e-02   3.866774609864795e-02
     7   -1.104550450459130e-04  -3.283310789901657e-02   7.372162401430484e-03
     8    1.459852264286020e-03   2.170962806578407e-03   3.584435784384044e-04

Order 1, Length 24
    Atom      X          Y          Z
     1   -3.656916964618723e-03   5.657076289901138e-03   1.200416942026716e-02
     2    6.152411631829861e-03  -1.979850346009029e-03   2.194867165179445e-03
     3   -6.404758497370608e-05  -1.301844628698413e-03  -7.306787626857748e-05
     4   -3.021812072619356e-02   8.840153450243465e-02  -9.900203675243131e-02
     5    6.317478123193432e-02  -1.379551584620520e-01   8.825935572551193e-02
     6   -3.279740725516000e-02   4.166645017204854e-02  -5.620318945841992e-03
     7   -2.622907909452340e-03   6.266997096049429e-03   2.189704334097034e-03
     8    3.221870704999855e-05  -7.552276222974456e-04   4.735967139726311e-05


     6 Order 1, Length 24
    Atom      X          Y          Z
     1   -3.888460201030298e-02   1.967603548576286e-03  -3.082247941139771e-02
     2   -2.471976435433433e-02  -1.000067218079009e-02  -1.326384796392726e-02
     3   -5.817530860210360e-03  -1.216670828206493e-03  -9.378953910446064e-04
     4   -2.924024787095014e-01   3.206465543842962e-02  -1.296784141251061e-01
     5   -2.042386907470294e-02   5.623370918042779e-02  -3.279740725516000e-02
     6    3.774588699443820e-01  -6.477968352002075e-02   2.021291673592502e-01
     7    5.125159760337013e-03  -1.670575066827758e-02   6.498575232307785e-03
     8   -3.357492192135565e-04   2.436813619025295e-03  -1.127707169843936e-03

Order 1, Length 24
    Atom      X          Y          Z
     1   -1.618885460876195e-02   4.538088508610651e-03  -6.487780122765647e-03
     2   -3.050502395682601e-03  -3.850233000320231e-03  -2.350446841646214e-04
     3    3.892877850947116e-03   9.252928583705803e-03  -2.033796434061386e-04
     4    3.288602661690967e-02  -1.024908838319069e-01   2.492209882081366e-02
     5    6.189415940921429e-02  -2.198138850810042e-02   4.166645017204854e-02
     6   -6.477968352002075e-02   1.152565020128506e-01  -5.180283437402791e-02
     7   -1.397923490792669e-02  -1.390303151970673e-03  -7.509405357219126e-03
     8   -6.747649691211646e-04   6.653242087815357e-04  -3.501077468708313e-04

Order 1, Length 24
    Atom      X          Y          Z
     1   -2.677138196347489e-02   3.303445639988978e-03   3.373304174700745e-04
     2   -1.489139187104813e-02  -4.070963566617051e-03  -3.612678901391738e-03
     3   -2.058344691185127e-03  -2.921301568089053e-03  -3.348646570496526e-03
     4   -1.297756076555166e-01   2.444781169885824e-02  -1.410900022731157e-01
     5   -3.397595698281553e-02   3.866774609864795e-02  -5.620318945841992e-03
     6    2.021291673592502e-01  -5.180283437402791e-02   1.486774620738605e-01
     7    5.876382488086727e-03  -8.996160122609153e-03   4.357006383951617e-03
     8   -5.328179132712736e-04   1.372252659184755e-03   2.998578421884890e-04


     7 Order 1, Length 24
    Atom      X          Y          Z
     1   -8.140813759207914e-02   3.705302523121587e-02  -4.683810869471333e-02
     2   -2.843889788509996e-02   4.744423951963984e-02  -2.269615096878754e-02
     3   -3.625412250054388e-01  -6.173535915937449e-02  -1.833987012473457e-01
     4   -5.587921395270241e-03  -1.759856401278804e-02   2.290048533279386e-04
     5    3.689456342638156e-05  -1.104550450459130e-04  -2.622907909452340e-03
     6    5.125159760337013e-03  -1.397923490792669e-02   5.876382488086727e-03
     7    4.677455686138986e-01   6.496064287053675e-03   2.474677158674881e-01
     8    5.068596954253789e-03   2.430277086255605e-03   1.982756495109582e-03

Order 1, Length 24
    Atom      X          Y          Z
     1   -2.217874106587310e-02  -2.944834902407339e-01   4.362789304149119e-02
     2    2.363770401674720e-02  -3.921890433208647e-03   1.288895885991755e-02
     3   -2.559246130829644e-02  -4.547097096987589e-02  -7.052138581954903e-03
     4    3.734435255744158e-02   5.228552144764569e-03   1.968579281280202e-02
     5   -1.570978851206752e-03  -3.283310789901657e-02   6.266997096049429e-03
     6   -1.670575066827758e-02  -1.390303151970673e-03  -8.996160122609153e-03
     7    6.496064287053675e-03   3.727251928283526e-01  -6.577741942409784e-02
     8   -1.430179371219922e-03   1.460222579626629e-04  -6.439430194144908e-04

Order 1, Length 24
    Atom      X          Y          Z
     1   -3.546046697798286e-02   7.650684095263434e-02  -4.275016352174552e-02
     2   -1.806624045675168e-02   2.585785325975994e-02  -1.866784551391545e-02
     3   -1.902800195804351e-01  -2.700085242687521e-02  -1.094549708616774e-01
     4   -1.068045596496410e-02  -1.090255838421563e-02  -3.483221970497088e-03
     5   -2.343914777124937e-03   7.372162401430484e-03   2.189704334097034e-03
     6    6.498575232307785e-03  -7.509405357219126e-03   4.357006383951617e-03
     7    2.474677158674881e-01  -6.577741942409784e-02   1.663687984457569e-01
     8    2.864831826038096e-03   1.453399903023631e-03   1.440711197396939e-03


     8 Order 1, Length 24
    Atom      X          Y          Z
     1   -3.103895058263373e-02  -3.718372673831486e-02  -8.782503321048241e-03
     2   -1.147384772396616e-01  -1.598019833226928e-01  -2.938121900596243e-02
     3   -4.097271700541712e-04  -6.420086010845151e-04   2.618605288139134e-04
     4   -2.377334081388387e-03   2.004912084841773e-03  -1.885212621766930e-03
     5    4.647409401407801e-04   1.459852264286020e-03   3.221870704999855e-05
     6   -3.357492192135565e-04  -6.747649691211646e-04  -5.328179132712736e-04
     7    5.068596954253789e-03  -1.430179371219922e-03   2.864831826038096e-03
     8    1.433669276099108e-01   1.962678798368043e-01   3.742286666242205e-02

Order 1, Length 24
    Atom      X          Y          Z
     1    3.337106368255232e-03   7.835587555540469e-03  -3.222752972359201e-04
     2   -2.032892258833644e-01  -4.166330545539539e-01  -2.706031777719558e-02
     3    1.117809741347403e-04  -8.981538133670849e-04   9.628352224347336e-05
     4   -6.989460382957861e-04  -3.798558114966980e-03   4.459498883633355e-04
     5   -5.956821323051334e-04   2.170962806578407e-03  -7.552276222974456e-04
     6    2.436813619025295e-03   6.653242087815357e-04   1.372252659184755e-03
     7    2.430277086255605e-03   1.460222579626629e-04   1.453399903023631e-03
     8    1.962678798368043e-01   4.105118475645143e-01   2.476993453672249e-02

Order 1, Length 24
    Atom      X          Y          Z
     1   -1.679045535469044e-02  -2.234755496085109e-02  -5.601526367164155e-03
     2   -2.058204750003768e-02  -3.378082806559722e-03  -1.203632113809977e-02
     3    1.468818670666373e-04  -2.990313493470950e-04  -5.704757056504997e-04
     4   -1.464806721259652e-03   1.890341377581543e-03  -7.042416585085454e-04
     5    4.125116038957751e-04   3.584435784384044e-04   4.735967139726311e-05
     6   -1.127707169843936e-03  -3.501077468708313e-04   2.998578421884890e-04
     7    1.982756495109582e-03  -6.439430194144908e-04   1.440711197396939e-03
     8    3.742286666242205e-02   2.476993453672249e-02   1.712461884696760e-02




 # Finishing finite difference calculation for IDERIV #
 ######################################################
 ######################################################
 Requested basis set is 6-311++G(2df,2p)
 There are 60 shells and 224 basis functions
 **********************************************************************
 **                                                                  **
 **                       VIBRATIONAL ANALYSIS                       **
 **                       --------------------                       **
 **                                                                  **
 **        VIBRATIONAL FREQUENCIES (CM**-1) AND NORMAL MODES         **
 **     FORCE CONSTANTS (mDYN/ANGSTROM) AND REDUCED MASSES (AMU)     **
 **                  INFRARED INTENSITIES (KM/MOL)                   **
 **                                                                  **
 **********************************************************************
 

 Mode:                 1                      2                      3
 Frequency:       153.76                 217.40                 230.52
 Force Cnst:      0.1814                 0.0430                 0.0972
 Red. Mass:      13.0246                 1.5447                 3.1036
 IR Active:          YES                    YES                    YES
 IR Intens:        6.482                198.755                 33.619
 Raman Active:       YES                    YES                    YES
               X      Y      Z        X      Y      Z        X      Y      Z
 C          0.054 -0.019 -0.096   -0.077  0.030  0.130   -0.144  0.039  0.332
 O         -0.218  0.081  0.407    0.034 -0.025 -0.077    0.060  0.051 -0.028
 H          0.201 -0.087 -0.378    0.003  0.022  0.007    0.049 -0.195 -0.188
 C          0.005 -0.001 -0.005   -0.018  0.008  0.027   -0.014 -0.002  0.070
 O          0.200 -0.074 -0.375    0.028  0.000 -0.031   -0.020 -0.054 -0.086
 O         -0.223  0.084  0.416   -0.011 -0.008  0.010    0.061  0.059 -0.037
 O          0.183 -0.070 -0.345    0.049 -0.007 -0.074   -0.011 -0.067 -0.090
 H          0.031 -0.011 -0.051   -0.457  0.155  0.851    0.391 -0.060 -0.769
 TransDip   0.039 -0.015 -0.070   -0.214  0.087  0.388    0.086 -0.088 -0.139

 Mode:                 4                      5                      6
 Frequency:       240.27                 400.88                 522.03
 Force Cnst:      0.1709                 0.5425                 0.1749
 Red. Mass:       5.0258                 5.7297                 1.0891
 IR Active:          YES                    YES                    YES
 IR Intens:       30.892                 34.564                148.235
 Raman Active:       YES                    YES                    YES
               X      Y      Z        X      Y      Z        X      Y      Z
 C          0.159 -0.090 -0.077   -0.004 -0.027  0.001   -0.006  0.001  0.013
 O          0.123  0.183  0.038    0.074  0.309 -0.019   -0.009  0.004  0.019
 H         -0.233 -0.495  0.089    0.256  0.547  0.069   -0.475  0.160  0.858
 C          0.074 -0.046  0.016   -0.071 -0.111 -0.018    0.004 -0.000 -0.009
 O         -0.191 -0.132 -0.039   -0.192 -0.173 -0.072    0.001  0.003  0.002
 O          0.112  0.225  0.045   -0.080 -0.189 -0.006    0.006 -0.001 -0.015
 O         -0.185 -0.165 -0.032    0.253  0.092  0.116    0.031 -0.015 -0.057
 H         -0.294  0.365  0.439   -0.223  0.474 -0.188    0.042 -0.015 -0.079
 TransDip  -0.028 -0.118  0.130   -0.071  0.164 -0.059   -0.185  0.061  0.338

 Mode:                 7                      8                      9
 Frequency:       560.75                 607.95                 718.33
 Force Cnst:      1.8663                 1.4586                 3.7547
 Red. Mass:      10.0742                 6.6983                12.3503
 IR Active:          YES                    YES                    YES
 IR Intens:        7.858                 29.980                 39.702
 Raman Active:       YES                    YES                    YES
               X      Y      Z        X      Y      Z        X      Y      Z
 C          0.132 -0.167  0.100   -0.169 -0.206 -0.054    0.126 -0.045 -0.231
 O          0.273  0.109  0.126   -0.224  0.116 -0.144    0.002  0.000 -0.003
 H          0.042 -0.507  0.048    0.184  0.257  0.025   -0.045  0.018  0.082
 C         -0.197  0.155 -0.140   -0.052 -0.093 -0.010   -0.422  0.151  0.777
 O          0.095  0.352 -0.014    0.229 -0.015  0.127    0.111 -0.038 -0.207
 O         -0.336 -0.105 -0.160    0.025  0.286 -0.040    0.113 -0.041 -0.209
 O          0.018 -0.335  0.080    0.159 -0.197  0.126   -0.001 -0.002  0.002
 H         -0.059  0.298 -0.069   -0.542  0.291 -0.345   -0.010  0.004  0.022
 TransDip  -0.006 -0.089  0.006   -0.144  0.044 -0.090   -0.092  0.038  0.176

 Mode:                10                     11                     12
 Frequency:       841.02                1095.54                1172.12
 Force Cnst:      5.3292                 1.9096                 1.2511
 Red. Mass:      12.7878                 2.7005                 1.5456
 IR Active:          YES                    YES                    YES
 IR Intens:      127.048                486.027                419.180
 Raman Active:       YES                    YES                    YES
               X      Y      Z        X      Y      Z        X      Y      Z
 C         -0.007 -0.017  0.000   -0.121 -0.152 -0.037   -0.077  0.092 -0.059
 O          0.314 -0.038  0.178    0.121 -0.064  0.078    0.045  0.028  0.019
 H         -0.103  0.172 -0.088   -0.030  0.648 -0.139    0.013  0.750 -0.140
 C         -0.297 -0.362 -0.088   -0.069 -0.049 -0.028    0.007  0.022 -0.001
 O          0.259 -0.281  0.193   -0.028  0.129 -0.040    0.003 -0.025  0.006
 O         -0.257  0.268 -0.192    0.144 -0.014  0.081   -0.001  0.011 -0.003
 O         -0.100  0.325 -0.118   -0.061  0.041 -0.042   -0.026 -0.133  0.012
 H          0.282 -0.015  0.160   -0.495  0.292 -0.324    0.484 -0.225  0.305
 TransDip  -0.210 -0.288 -0.058   -0.618 -0.148 -0.307   -0.030  0.640 -0.142

 Mode:                13                     14                     15
 Frequency:      1284.44                1364.57                1465.05
 Force Cnst:      2.2984                 3.7934                16.0566
 Red. Mass:       2.3645                 3.4577                12.6969
 IR Active:          YES                    YES                    YES
 IR Intens:      542.941                539.421               1089.797
 Raman Active:       YES                    YES                    YES
               X      Y      Z        X      Y      Z        X      Y      Z
 C         -0.006 -0.095  0.015   -0.239  0.267 -0.183   -0.174 -0.030 -0.088
 O         -0.042  0.086 -0.039    0.100 -0.035  0.061    0.042 -0.002  0.023
 H          0.016 -0.298  0.068    0.027 -0.832  0.177    0.004 -0.020  0.001
 C         -0.153 -0.170 -0.051   -0.081 -0.063 -0.032    0.556 -0.513  0.401
 O         -0.012  0.124 -0.030   -0.002 -0.001 -0.001   -0.103  0.302 -0.114
 O          0.105 -0.009  0.059    0.066 -0.006  0.037   -0.257  0.076 -0.154
 O          0.024  0.038  0.005    0.086 -0.067  0.061    0.025  0.034  0.007
 H          0.692 -0.350  0.445   -0.184  0.129 -0.127    0.096 -0.039  0.059
 TransDip  -0.107 -0.734  0.083   -0.649  0.039 -0.361    0.603 -0.731  0.468

 Mode:                16                     17                     18
 Frequency:      1614.19                3678.79                3792.92
 Force Cnst:      8.1660                 8.4837                 9.0326
 Red. Mass:       5.3192                 1.0640                 1.0656
 IR Active:          YES                    YES                    YES
 IR Intens:       14.586                234.300                257.905
 Raman Active:       YES                    YES                    YES
               X      Y      Z        X      Y      Z        X      Y      Z
 C          0.323  0.333  0.110   -0.003  0.001 -0.002   -0.001 -0.001 -0.000
 O         -0.088 -0.058 -0.036    0.001 -0.001  0.001   -0.029 -0.054 -0.005
 H          0.015  0.477 -0.083    0.876  0.034  0.477   -0.008 -0.002 -0.004
 C         -0.149 -0.305 -0.023    0.002  0.001  0.001   -0.000 -0.001  0.000
 O         -0.009  0.092 -0.023   -0.000 -0.001 -0.000   -0.000  0.000 -0.000
 O          0.029  0.015  0.013   -0.001  0.001 -0.001    0.000  0.000  0.000
 O         -0.031 -0.112  0.005   -0.054 -0.003 -0.029    0.001 -0.000  0.000
 H         -0.504  0.189 -0.311    0.004  0.009  0.000    0.464  0.881  0.075
 TransDip  -0.009 -0.121  0.015    0.429 -0.006  0.237    0.328  0.383  0.102

 STANDARD THERMODYNAMIC QUANTITIES AT   298.15 K  AND     1.00 ATM

   This Molecule has  0 Imaginary Frequencies
   Zero point vibrational energy:       28.535 kcal/mol

   Atom    1 Element C  Has Mass   12.00000
   Atom    2 Element O  Has Mass   15.99491
   Atom    3 Element H  Has Mass    1.00783
   Atom    4 Element C  Has Mass   12.00000
   Atom    5 Element O  Has Mass   15.99491
   Atom    6 Element O  Has Mass   15.99491
   Atom    7 Element O  Has Mass   15.99491
   Atom    8 Element H  Has Mass    1.00783
   Molecular Mass:    89.995300 amu
   Principal axes and moments of inertia in amu*Bohr^2:
                             1           2           3
    Eigenvalues --      311.68749   492.03378   803.71965
          X               0.61616     0.63101    -0.47136
          Y               0.76480    -0.62235     0.16661
          Z               0.18822     0.46316     0.86606
   Rotational Symmetry Number is   1
   The Molecule is an Asymmetric Top
   Translational Enthalpy:        0.889 kcal/mol
   Rotational Enthalpy:           0.889 kcal/mol
   Vibrational Enthalpy:         30.598 kcal/mol
   gas constant (RT):             0.592 kcal/mol
   Translational Entropy:        39.404  cal/mol.K
   Rotational Entropy:           26.313  cal/mol.K
   Vibrational Entropy:          11.447  cal/mol.K

   Total Enthalpy:               32.968 kcal/mol
   Total Entropy:                77.164  cal/mol.K
 Total job time:  2590.01s(wall), 20085.90s(cpu) 
 Tue Jun 20 06:24:44 2023

        *************************************************************
        *                                                           *
        *  Thank you very much for using Q-Chem.  Have a nice day.  *
        *                                                           *
        *************************************************************


