
Running Job 1 of 1 Q_in.in
qchem Q_in.in_116931.0 /scratch/ari.fischer/qChem1853785.hpc-mn1/qchem116931/ 0
/usr/local/qchem-5.4.1/exe/qcprog.exe_s Q_in.in_116931.0 /scratch/ari.fischer/qChem1853785.hpc-mn1/qchem116931/
                  Welcome to Q-Chem
     A Quantum Leap Into The Future Of Chemistry


 Q-Chem 5.4, Q-Chem, Inc., Pleasanton, CA (2021)

 License issued to: Nanyang Technological University (site)

 E. Epifanovsky,  A. T. B. Gilbert,  Xintian Feng,  Joonho Lee,  Yuezhi Mao,  
 N. Mardirossian,  P. Pokhilko,  A. White,  M. Wormit,  M. P. Coons,  
 A. L. Dempwolff,  Zhengting Gan,  D. Hait,  P. R. Horn,  L. D. Jacobson,  
 I. Kaliman,  J. Kussmann,  A. W. Lange,  Ka Un Lao,  D. S. Levine,  Jie Liu,  
 S. C. McKenzie,  A. F. Morrison,  K. Nanda,  F. Plasser,  D. R. Rehn,  
 M. L. Vidal,  Zhi-Qiang You,  Ying Zhu,  B. Alam,  B. Albrecht,  
 A. Aldossary,  E. Alguire,  J. H. Andersen,  D. Barton,  K. Begam,  A. Behn,  
 Y. A. Bernard,  E. J. Berquist,  H. Burton,  A. Carreras,  K. Carter-Fenk,  
 R. Chakraborty,  A. D. Chien,  K. D. Closser,  V. Cofer-Shabica,  
 S. Dasgupta,  Jia Deng,  M. de Wergifosse,  M. Diedenhofen,  Hainam Do,  
 S. Ehlert,  Po-Tung Fang,  S. Fatehi,  Qingguo Feng,  T. Friedhoff,  
 J. Gayvert,  Qinghui Ge,  G. Gidofalvi,  M. Goldey,  J. Gomes,  
 C. Gonzalez-Espinoza,  S. Gulania,  A. Gunina,  M. W. D. Hanson-Heine,  
 P. H. P. Harbach,  A. W. Hauser,  M. F. Herbst,  M. Hernandez Vera,  
 M. Hodecker,  Z. C. Holden,  S. Houck,  Xunkun Huang,  Kerwin Hui,  
 B. C. Huynh,  M. Ivanov,  Hyunjun Ji,  Hanjie Jiang,  B. Kaduk,  S. Kaehler,  
 K. Khistyaev,  Jaehoon Kim,  P. Klunzinger,  Z. Koczor-Benda,  
 Joong Hoon Koh,  D. Kosenkov,  L. Koulias,  T. Kowalczyk,  C. M. Krauter,  
 K. Kue,  A. Kunitsa,  T. Kus,  A. Landau,  K. V. Lawler,  D. Lefrancois,  
 S. Lehtola,  Rain Li,  Yi-Pei Li,  Jiashu Liang,  M. Liebenthal,  
 Hung-Hsuan Lin,  You-Sheng Lin,  Fenglai Liu,  Kuan-Yu Liu,  
 M. Loipersberger,  A. Luenser,  A. Manjanath,  P. Manohar,  E. Mansoor,  
 S. F. Manzer,  Shan-Ping Mao,  A. V. Marenich,  T. Markovich,  S. Mason,  
 S. A. Maurer,  P. F. McLaughlin,  M. F. S. J. Menger,  J.-M. Mewes,  
 S. A. Mewes,  P. Morgante,  J. W. Mullinax,  K. J. Oosterbaan,  G. Paran,  
 Alexander C. Paul,  Suranjan K. Paul,  F. Pavosevic,  Zheng Pei,  S. Prager,  
 E. I. Proynov,  E. Ramos,  B. Rana,  A. E. Rask,  A. Rettig,  R. M. Richard,  
 F. Rob,  E. Rossomme,  T. Scheele,  M. Scheurer,  M. Schneider,  
 N. Sergueev,  S. M. Sharada,  W. Skomorowski,  D. W. Small,  C. J. Stein,  
 Yu-Chuan Su,  E. J. Sundstrom,  Zhen Tao,  J. Thirman,  T. Tsuchimochi,  
 N. M. Tubman,  S. P. Veccham,  O. Vydrov,  J. Wenzel,  J. Witte,  A. Yamada,  
 Kun Yao,  S. Yeganeh,  S. R. Yost,  A. Zech,  Igor Ying Zhang,  Xing Zhang,  
 Yu Zhang,  D. Zuev,  A. Aspuru-Guzik,  A. T. Bell,  N. A. Besley,  
 K. B. Bravaya,  B. R. Brooks,  D. Casanova,  Jeng-Da Chai,  S. Coriani,  
 C. J. Cramer,  A. E. DePrince, III,  R. A. DiStasio Jr.,  A. Dreuw,  
 B. D. Dunietz,  T. R. Furlani,  W. A. Goddard III,  S. Grimme,  
 S. Hammes-Schiffer,  T. Head-Gordon,  W. J. Hehre,  Chao-Ping Hsu,  
 T.-C. Jagau,  Yousung Jung,  A. Klamt,  Jing Kong,  D. S. Lambrecht,  
 WanZhen Liang,  N. J. Mayhall,  C. W. McCurdy,  J. B. Neaton,  
 C. Ochsenfeld,  J. A. Parkhill,  R. Peverati,  V. A. Rassolov,  Yihan Shao,  
 L. V. Slipchenko,  T. Stauch,  R. P. Steele,  J. E. Subotnik,  
 A. J. W. Thom,  A. Tkatchenko,  D. G. Truhlar,  T. Van Voorhis,  
 T. A. Wesolowski,  K. B. Whaley,  H. L. Woodcock III,  P. M. Zimmerman,  
 S. Faraji,  P. M. W. Gill,  M. Head-Gordon,  J. M. Herbert,  A. I. Krylov

 Additional authors for Version 5.4.1: 
 S. Kotaru,  Shaozhi Li,  Xiangyuan Li,  F. Matz,  A. Molle,  Haisheng Ren,  
 Yingli Su,  Hung-Yi Tsai,  C. Utku,  Fang Wang

 Contributors to earlier versions of Q-Chem not listed above: 
 R. D. Adamson,  B. Austin,  R. Baer,  J. Baker,  G. J. O. Beran,  
 K. Brandhorst,  S. T. Brown,  E. F. C. Byrd,  A. K. Chakraborty,  
 G. K. L. Chan,  Chun-Min Chang,  Yunqing Chen,  C.-L. Cheng,  
 Siu Hung Chien,  D. M. Chipman,  D. L. Crittenden,  H. Dachsel,  
 R. J. Doerksen,  A. D. Dutoi,  R. G. Edgar,  J. Fosso-Tande,  
 L. Fusti-Molnar,  D. Ghosh,  A. Ghysels,  A. Golubeva-Zadorozhnaya,  
 J. Gonthier,  M. S. Gordon,  S. R. Gwaltney,  G. Hawkins,  J. E. Herr,  
 A. Heyden,  S. Hirata,  E. G. Hohenstein,  G. Kedziora,  F. J. Keil,  
 C. Kelley,  Jihan Kim,  R. A. King,  R. Z. Khaliullin,  P. P. Korambath,  
 W. Kurlancheek,  A. Laurent,  A. M. Lee,  M. S. Lee,  S. V. Levchenko,  
 Ching Yeh Lin,  D. Liotard,  E. Livshits,  R. C. Lochan,  I. Lotan,  
 L. A. Martinez-Martinez,  P. E. Maslen,  N. Nair,  D. P. O'Neill,  
 D. Neuhauser,  E. Neuscamman,  C. M. Oana,  R. Olivares-Amaya,  R. Olson,  
 T. M. Perrine,  B. Peters,  P. A. Pieniazek,  A. Prociuk,  Y. M. Rhee,  
 J. Ritchie,  M. A. Rohrdanz,  E. Rosta,  N. J. Russ,  H. F. Schaefer III,  
 M. W. Schmidt,  N. E. Schultz,  S. Sharma,  N. Shenvi,  C. D. Sherrill,  
 A. C. Simmonett,  A. Sodt,  T. Stein,  D. Stuck,  K. S. Thanthiriwatte,  
 V. Vanovschi,  L. Vogt,  Tao Wang,  A. Warshel,  M. A. Watson,  
 C. F. Williams,  Q. Wu,  X. Xu,  Jun Yang,  W. Zhang,  Yan Zhao

 Please cite Q-Chem as follows:
 Y. Shao et al., Mol. Phys. 113, 184-215 (2015)
 DOI: 10.1080/00268976.2014.952696

 Q-Chem 5.4.1 for Intel X86 EM64T Linux

 Parts of Q-Chem use Armadillo 9.800.1 (Horizon Scraper).
 http://arma.sourceforge.net/

 Q-Chem begins on Wed Dec  6 10:56:30 2023  

 Host: 
0

     Scratch files written to /scratch/ari.fischer/qChem1853785.hpc-mn1/qchem116931//
 Aug1521 |scratch|qcdevops|jenkins|workspace|build_RNUM 8249   
 Processing $rem in /usr/local/qchem-5.4.1/config/preferences:
 Processing $rem in /home/ari.fischer/.qchemrc:
 Symmetry turned off for PCM/SM12/SMD calculation

 Checking the input file for inconsistencies... 	...done.

--------------------------------------------------------------
User input:
--------------------------------------------------------------
$molecule
-1 1
O        -0.7700752962    1.0095248173   -0.0901959350
C        -0.3608196099   -0.2115914739    0.4922317158
O        -1.0496930004   -1.3042071768   -0.0673185286
C         1.1546408297   -0.3521732406    0.2396058149
O         1.8571576590    0.5647537115    0.7328913092
O         1.5662840877   -1.3426908188   -0.4048193267
H        -1.6025330528    1.2738191661    0.3164522571
H        -1.9354580049   -1.3186989432    0.3121775248
H        -0.5354792121   -0.1788818416    1.5697029686
$end

$rem
BASIS = def2-TZVPD
JOB_TYPE = SP
METHOD = wB97M-V
SCF_ALGORITHM = DIIS_GDM
MAX_SCF_CYCLES = 400
SCF_CONVERGENCE = 7
THRESH = 12
Solvent_method = SMD
$end
--------------------------------------------------------------
 ----------------------------------------------------------------
             Standard Nuclear Orientation (Angstroms)
    I     Atom           X                Y                Z
 ----------------------------------------------------------------
    1      O      -0.7700752962     1.0095248173    -0.0901959350
    2      C      -0.3608196099    -0.2115914739     0.4922317158
    3      O      -1.0496930004    -1.3042071768    -0.0673185286
    4      C       1.1546408297    -0.3521732406     0.2396058149
    5      O       1.8571576590     0.5647537115     0.7328913092
    6      O       1.5662840877    -1.3426908188    -0.4048193267
    7      H      -1.6025330528     1.2738191661     0.3164522571
    8      H      -1.9354580049    -1.3186989432     0.3121775248
    9      H      -0.5354792121    -0.1788818416     1.5697029686
 ----------------------------------------------------------------
 Nuclear Repulsion Energy =         239.46429984 hartrees
 There are       24 alpha and       24 beta electrons
 Requested basis set is def2-TZVPD
 There are 97 shells and 261 basis functions

 Total QAlloc Memory Limit 288000 MB
 Mega-Array Size       188 MB
 MEM_STATIC part       192 MB
 
 Citation of the SMD model:
 Marenich, A.V.; Cramer, C.J.; Truhlar, D.G.
 J. Phys. Chem. B 2009, 113, 6378-6396.
 iSolventCode=           1
 Solvent: water                                                           
 
 vradii
            1           2           3           4           5           6
    1   1.5200000   1.8500000   1.5200000   1.8500000   1.5200000   1.5200000
            7           8           9
    1   1.2000000   1.2000000   1.2000000
 Changing PCM_VDW_RADII to SMD_RADIUS
 Discretize the solute cavity surface with Lebedev spheres
	Using 110 Lebedev grid points for each H atom
	Using 194 Lebedev grid points for other atoms
	Atomic van der Waals radii will be scaled by 1.20
 Remove points where switching function is < 1.0e-08
 Keep 826 surface tesserae and discard 668 interior tesserae
 Molecular Surface Area = 99.736 Angst**2

                       Distance Matrix (Angstroms)
             O (  1)   C (  2)   O (  3)   C (  4)   O (  5)   O (  6)
   C (  2)  1.413449
   O (  3)  2.330679  1.407641
   C (  4)  2.380656  1.542791  2.420673
   O (  5)  2.788843  2.362213  3.547271  1.256032
   O (  6)  3.330237  2.407865  2.637939  1.251343  2.239941
   H (  7)  0.963431  1.944015  2.664420  3.201838  3.556073  4.172261
   H (  8)  2.634511  1.933285  0.963746  3.238541  4.255388  3.574473
   H (  9)  2.054899  1.092026  2.051978  2.157706  2.641583  3.109759
             H (  7)   H (  8)
   H (  8)  2.613811
   H (  9)  2.195355  2.200112
 
 A cutoff of  1.0D-12 yielded   4574 shell pairs
 There are     33630 function pairs (     43594 Cartesian)
 Smallest overlap matrix eigenvalue = 1.32E-05

 Scale SEOQF with 1.000000e-01/1.000000e-01/1.000000e-01

 Standard Electronic Orientation quadrupole field applied
 Nucleus-field energy     =     0.0000000047 hartrees
 Guess from superposition of atomic densities
 Warning:  Energy on first SCF cycle will be non-variational
 SAD guess density has 47.000000 electrons

 -----------------------------------------------------------------------
  General SCF calculation program by
  Eric Jon Sundstrom, Paul Horn, Yuezhi Mao, Dmitri Zuev, Alec White,
  David Stuck, Shaama M.S., Shane Yost, Joonho Lee, David Small,
  Daniel Levine, Susi Lehtola, Hugh Burton, Evgeny Epifanovsky,
  Bang C. Huynh
 -----------------------------------------------------------------------
 Exchange:     0.1500 Hartree-Fock + 1.0000 wB97M-V + LR-HF
 Correlation:  1.0000 wB97M-V
 Using SG-2 standard quadrature grid
 Nonlocal Correlation:  VV10 with C = 0.0100 and b = 6.00 and scale = 1.00000
 Grid used for NLC:  SG-1 standard quadrature
 
 Citation of the SMD model:
 Marenich, A.V.; Cramer, C.J.; Truhlar, D.G.
 J. Phys. Chem. B 2009, 113, 6378-6396.
 iSolventCode=           1
 Solvent: water                                                           
 
 vradii
            1           2           3           4           5           6
    1   1.5200000   1.8500000   1.5200000   1.8500000   1.5200000   1.5200000
            7           8           9
    1   1.2000000   1.2000000   1.2000000
 using 4 threads for integral computing
 -------------------------------------------------------
 OpenMP Integral computing Module                
 Release: version 1.0, May 2013, Q-Chem Inc. Pittsburgh 
 -------------------------------------------------------
 -------------------------------------------------------
 OpenMP BLAS3 based DFT computing Module                
 Release: version 1.0, May 2013, Q-Chem Inc. Pittsburgh 
 -------------------------------------------------------
 A restricted SCF calculation will be
 performed using DIIS, GDM
 SCF converges when RMS gradient is below 1.0e-07
 ---------------------------------------
  Cycle       Energy         DIIS error
 ---------------------------------------
    1    -379.8817555217      2.97e-02  
    2    -378.9247198744      5.92e-03  Done DIIS. Switching to GDM
 ---------------------------------------
  Cycle       Energy        RMS Gradient
 ---------------------------------------
    1    -378.9247198744      1.46e-01   Descent step
    2    -379.1389397224      1.34e-02   Normal BFGS step
    3    -379.1488390704      6.15e-03   Normal BFGS step
    4    -379.1495492705      2.59e-03   Normal BFGS step
    5    -379.1497617400      6.31e-04   Normal BFGS step
    6    -379.1497753221      2.69e-04   Normal BFGS step
    7    -379.1497785309      7.30e-05   Normal BFGS step
    8    -379.1497786158      6.89e-05   Normal BFGS step
    9    -379.1497786363      3.53e-05   Normal BFGS step
   10    -379.1497786433      2.59e-06   Normal BFGS step
   11    -379.1497786436      1.57e-06   Normal BFGS step
   12    -379.1497786436      5.66e-07   Normal BFGS step
   13    -379.1497786436      2.54e-07   Normal BFGS step
   14    -379.1497786436      7.34e-08  Convergence criterion met
 ---------------------------------------
 SCF time:   CPU 525.15s  wall 155.00s 
(3)  G-ENP(liq) elect-nuc-pol free energy of system     -379.149778644 a.u.
(4)  G-CDS(liq) cavity-dispersion-solvent structure 
     free energy                                                4.1889 kcal/mol
(6)  G-S(liq) free energy of system                     -379.143103268 a.u.
 SCF   energy in the final basis set =     -379.1431032685
 Total energy in the final basis set =     -379.1431032685
 
 --------------------------------------------------------------
 
                    Orbital Energies (a.u.)
 --------------------------------------------------------------
 
 Alpha MOs
 -- Occupied --
-19.3395 -19.3382 -19.2844 -19.2819 -10.4379 -10.4367  -1.1986  -1.1606
 -1.1286  -1.0764  -0.8121  -0.6455  -0.6367  -0.6320  -0.5749  -0.5282
 -0.5090  -0.4970  -0.4876  -0.4123  -0.4080  -0.3694  -0.3591  -0.3565
 -- Virtual --
  0.0411   0.0627   0.0664   0.0748   0.0934   0.1098   0.1108   0.1156
  0.1176   0.1267   0.1491   0.1522   0.1569   0.1636   0.1797   0.1999
  0.2111   0.2335   0.2473   0.2577   0.2618   0.2769   0.2835   0.2949
  0.3037   0.3194   0.3301   0.3385   0.3398   0.3416   0.3667   0.3738
  0.3838   0.3892   0.3924   0.4080   0.4126   0.4194   0.4291   0.4381
  0.4499   0.4643   0.4745   0.4833   0.4971   0.5067   0.5136   0.5261
  0.5387   0.5501   0.5604   0.5744   0.5832   0.5939   0.6067   0.6195
  0.6264   0.6415   0.6473   0.6508   0.6704   0.6842   0.6936   0.7085
  0.7177   0.7222   0.7401   0.7529   0.7606   0.7831   0.7909   0.8078
  0.8227   0.8302   0.8580   0.9075   0.9161   0.9308   0.9368   0.9559
  0.9655   1.0016   1.0120   1.0393   1.0589   1.0721   1.0849   1.1167
  1.1567   1.1820   1.2001   1.2265   1.2362   1.2669   1.2705   1.3034
  1.3255   1.3418   1.3711   1.3922   1.4524   1.5794   1.6239   1.7332
  1.7385   1.7939   1.8370   1.8426   1.8544   1.8615   1.8801   1.9031
  1.9150   1.9301   1.9618   1.9959   2.0773   2.0886   2.1496   2.1754
  2.1870   2.2145   2.2449   2.2600   2.2691   2.3015   2.3667   2.3905
  2.4236   2.4348   2.4397   2.4814   2.5273   2.5957   2.6083   2.6824
  2.7141   2.7648   2.8121   2.8350   2.8692   2.9546   2.9801   2.9982
  3.0526   3.0635   3.0979   3.1281   3.1766   3.2328   3.2466   3.3034
  3.3151   3.3187   3.3577   3.4003   3.4486   3.4610   3.5016   3.5034
  3.5433   3.5601   3.5834   3.6295   3.6501   3.6730   3.6849   3.6964
  3.7847   3.8274   3.9042   3.9851   4.0412   4.0867   4.1647   4.2652
  4.3336   4.4503   4.6878   4.7887   4.8213   4.9129   5.0142   5.2955
  5.3173   5.3320   5.3370   5.3502   5.4140   5.4712   5.4807   5.4866
  5.5629   5.5851   5.6843   5.7057   5.7271   5.7435   5.8623   5.9024
  5.9683   6.0569   6.1048   6.2067   6.2655   6.3158   6.3190   6.4479
  6.4890   6.6001   6.6128   6.6370   6.6617   6.7035   6.7231   6.7509
  6.8176   6.8342   6.9259   6.9378   6.9561   7.0156   7.0976   7.1557
  7.2506   7.3139   7.3446   7.3746   7.4081   7.4275   7.4666  23.0296
 23.9382  44.5276  44.5974  44.6111  44.8025
 --------------------------------------------------------------
 
          Ground-State Mulliken Net Atomic Charges

     Atom                 Charge (a.u.)
  ----------------------------------------
      1 O                    -0.590583
      2 C                     0.283898
      3 O                    -0.589439
      4 C                     0.540421
      5 O                    -0.829827
      6 O                    -0.823521
      7 H                     0.366503
      8 H                     0.377138
      9 H                     0.265411
  ----------------------------------------
  Sum of atomic charges =    -1.000000

 -----------------------------------------------------------------
                    Cartesian Multipole Moments
 -----------------------------------------------------------------
    Charge (ESU x 10^10)
                -4.8032
    Dipole Moment (Debye)
         X     -12.0717      Y       2.2635      Z       2.6083
       Tot      12.5560
    Quadrupole Moments (Debye-Ang)
        XX     -47.3205     XY       1.7402     YY     -47.4117
        XZ      -6.0341     YZ      -4.5839     ZZ     -37.9949
    Octopole Moments (Debye-Ang^2)
       XXX     -99.8023    XXY      12.8044    XYY     -30.7691
       YYY      42.2369    XXZ      -4.8650    XYZ      -6.4639
       YYZ      -1.1007    XZZ     -19.2239    YZZ       8.8949
       ZZZ     -16.7576
    Hexadecapole Moments (Debye-Ang^3)
      XXXX    -431.3215   XXXY      25.8366   XXYY    -109.8365
      XYYY      22.6333   YYYY    -256.7432   XXXZ     -36.5907
      XXYZ     -18.0220   XYYZ      -7.0505   YYYZ     -21.1580
      XXZZ     -87.3021   XYZZ       3.2002   YYZZ     -55.8437
      XZZZ     -20.6179   YZZZ     -18.7711   ZZZZ     -84.4876
 -----------------------------------------------------------------
 Total job time:  156.32s(wall), 527.32s(cpu) 
 Wed Dec  6 10:59:06 2023

        *************************************************************
        *                                                           *
        *  Thank you very much for using Q-Chem.  Have a nice day.  *
        *                                                           *
        *************************************************************


