
Running Job 1 of 1 Q_in.in
qchem Q_in.in_97777.0 /scratch/ari.fischer/qChem1912888.hpc-mn1/qchem97777/ 0
/usr/local/qchem-5.4.1/exe/qcprog.exe_s Q_in.in_97777.0 /scratch/ari.fischer/qChem1912888.hpc-mn1/qchem97777/
                  Welcome to Q-Chem
     A Quantum Leap Into The Future Of Chemistry


 Q-Chem 5.4, Q-Chem, Inc., Pleasanton, CA (2021)

 License issued to: Nanyang Technological University (site)

 E. Epifanovsky,  A. T. B. Gilbert,  Xintian Feng,  Joonho Lee,  Yuezhi Mao,  
 N. Mardirossian,  P. Pokhilko,  A. White,  M. Wormit,  M. P. Coons,  
 A. L. Dempwolff,  Zhengting Gan,  D. Hait,  P. R. Horn,  L. D. Jacobson,  
 I. Kaliman,  J. Kussmann,  A. W. Lange,  Ka Un Lao,  D. S. Levine,  Jie Liu,  
 S. C. McKenzie,  A. F. Morrison,  K. Nanda,  F. Plasser,  D. R. Rehn,  
 M. L. Vidal,  Zhi-Qiang You,  Ying Zhu,  B. Alam,  B. Albrecht,  
 A. Aldossary,  E. Alguire,  J. H. Andersen,  D. Barton,  K. Begam,  A. Behn,  
 Y. A. Bernard,  E. J. Berquist,  H. Burton,  A. Carreras,  K. Carter-Fenk,  
 R. Chakraborty,  A. D. Chien,  K. D. Closser,  V. Cofer-Shabica,  
 S. Dasgupta,  Jia Deng,  M. de Wergifosse,  M. Diedenhofen,  Hainam Do,  
 S. Ehlert,  Po-Tung Fang,  S. Fatehi,  Qingguo Feng,  T. Friedhoff,  
 J. Gayvert,  Qinghui Ge,  G. Gidofalvi,  M. Goldey,  J. Gomes,  
 C. Gonzalez-Espinoza,  S. Gulania,  A. Gunina,  M. W. D. Hanson-Heine,  
 P. H. P. Harbach,  A. W. Hauser,  M. F. Herbst,  M. Hernandez Vera,  
 M. Hodecker,  Z. C. Holden,  S. Houck,  Xunkun Huang,  Kerwin Hui,  
 B. C. Huynh,  M. Ivanov,  Hyunjun Ji,  Hanjie Jiang,  B. Kaduk,  S. Kaehler,  
 K. Khistyaev,  Jaehoon Kim,  P. Klunzinger,  Z. Koczor-Benda,  
 Joong Hoon Koh,  D. Kosenkov,  L. Koulias,  T. Kowalczyk,  C. M. Krauter,  
 K. Kue,  A. Kunitsa,  T. Kus,  A. Landau,  K. V. Lawler,  D. Lefrancois,  
 S. Lehtola,  Rain Li,  Yi-Pei Li,  Jiashu Liang,  M. Liebenthal,  
 Hung-Hsuan Lin,  You-Sheng Lin,  Fenglai Liu,  Kuan-Yu Liu,  
 M. Loipersberger,  A. Luenser,  A. Manjanath,  P. Manohar,  E. Mansoor,  
 S. F. Manzer,  Shan-Ping Mao,  A. V. Marenich,  T. Markovich,  S. Mason,  
 S. A. Maurer,  P. F. McLaughlin,  M. F. S. J. Menger,  J.-M. Mewes,  
 S. A. Mewes,  P. Morgante,  J. W. Mullinax,  K. J. Oosterbaan,  G. Paran,  
 Alexander C. Paul,  Suranjan K. Paul,  F. Pavosevic,  Zheng Pei,  S. Prager,  
 E. I. Proynov,  E. Ramos,  B. Rana,  A. E. Rask,  A. Rettig,  R. M. Richard,  
 F. Rob,  E. Rossomme,  T. Scheele,  M. Scheurer,  M. Schneider,  
 N. Sergueev,  S. M. Sharada,  W. Skomorowski,  D. W. Small,  C. J. Stein,  
 Yu-Chuan Su,  E. J. Sundstrom,  Zhen Tao,  J. Thirman,  T. Tsuchimochi,  
 N. M. Tubman,  S. P. Veccham,  O. Vydrov,  J. Wenzel,  J. Witte,  A. Yamada,  
 Kun Yao,  S. Yeganeh,  S. R. Yost,  A. Zech,  Igor Ying Zhang,  Xing Zhang,  
 Yu Zhang,  D. Zuev,  A. Aspuru-Guzik,  A. T. Bell,  N. A. Besley,  
 K. B. Bravaya,  B. R. Brooks,  D. Casanova,  Jeng-Da Chai,  S. Coriani,  
 C. J. Cramer,  A. E. DePrince, III,  R. A. DiStasio Jr.,  A. Dreuw,  
 B. D. Dunietz,  T. R. Furlani,  W. A. Goddard III,  S. Grimme,  
 S. Hammes-Schiffer,  T. Head-Gordon,  W. J. Hehre,  Chao-Ping Hsu,  
 T.-C. Jagau,  Yousung Jung,  A. Klamt,  Jing Kong,  D. S. Lambrecht,  
 WanZhen Liang,  N. J. Mayhall,  C. W. McCurdy,  J. B. Neaton,  
 C. Ochsenfeld,  J. A. Parkhill,  R. Peverati,  V. A. Rassolov,  Yihan Shao,  
 L. V. Slipchenko,  T. Stauch,  R. P. Steele,  J. E. Subotnik,  
 A. J. W. Thom,  A. Tkatchenko,  D. G. Truhlar,  T. Van Voorhis,  
 T. A. Wesolowski,  K. B. Whaley,  H. L. Woodcock III,  P. M. Zimmerman,  
 S. Faraji,  P. M. W. Gill,  M. Head-Gordon,  J. M. Herbert,  A. I. Krylov

 Additional authors for Version 5.4.1: 
 S. Kotaru,  Shaozhi Li,  Xiangyuan Li,  F. Matz,  A. Molle,  Haisheng Ren,  
 Yingli Su,  Hung-Yi Tsai,  C. Utku,  Fang Wang

 Contributors to earlier versions of Q-Chem not listed above: 
 R. D. Adamson,  B. Austin,  R. Baer,  J. Baker,  G. J. O. Beran,  
 K. Brandhorst,  S. T. Brown,  E. F. C. Byrd,  A. K. Chakraborty,  
 G. K. L. Chan,  Chun-Min Chang,  Yunqing Chen,  C.-L. Cheng,  
 Siu Hung Chien,  D. M. Chipman,  D. L. Crittenden,  H. Dachsel,  
 R. J. Doerksen,  A. D. Dutoi,  R. G. Edgar,  J. Fosso-Tande,  
 L. Fusti-Molnar,  D. Ghosh,  A. Ghysels,  A. Golubeva-Zadorozhnaya,  
 J. Gonthier,  M. S. Gordon,  S. R. Gwaltney,  G. Hawkins,  J. E. Herr,  
 A. Heyden,  S. Hirata,  E. G. Hohenstein,  G. Kedziora,  F. J. Keil,  
 C. Kelley,  Jihan Kim,  R. A. King,  R. Z. Khaliullin,  P. P. Korambath,  
 W. Kurlancheek,  A. Laurent,  A. M. Lee,  M. S. Lee,  S. V. Levchenko,  
 Ching Yeh Lin,  D. Liotard,  E. Livshits,  R. C. Lochan,  I. Lotan,  
 L. A. Martinez-Martinez,  P. E. Maslen,  N. Nair,  D. P. O'Neill,  
 D. Neuhauser,  E. Neuscamman,  C. M. Oana,  R. Olivares-Amaya,  R. Olson,  
 T. M. Perrine,  B. Peters,  P. A. Pieniazek,  A. Prociuk,  Y. M. Rhee,  
 J. Ritchie,  M. A. Rohrdanz,  E. Rosta,  N. J. Russ,  H. F. Schaefer III,  
 M. W. Schmidt,  N. E. Schultz,  S. Sharma,  N. Shenvi,  C. D. Sherrill,  
 A. C. Simmonett,  A. Sodt,  T. Stein,  D. Stuck,  K. S. Thanthiriwatte,  
 V. Vanovschi,  L. Vogt,  Tao Wang,  A. Warshel,  M. A. Watson,  
 C. F. Williams,  Q. Wu,  X. Xu,  Jun Yang,  W. Zhang,  Yan Zhao

 Please cite Q-Chem as follows:
 Y. Shao et al., Mol. Phys. 113, 184-215 (2015)
 DOI: 10.1080/00268976.2014.952696

 Q-Chem 5.4.1 for Intel X86 EM64T Linux

 Parts of Q-Chem use Armadillo 9.800.1 (Horizon Scraper).
 http://arma.sourceforge.net/

 Q-Chem begins on Mon Feb  5 12:38:32 2024  

 Host: 
0

     Scratch files written to /scratch/ari.fischer/qChem1912888.hpc-mn1/qchem97777//
 Aug1521 |scratch|qcdevops|jenkins|workspace|build_RNUM 8249   
 Processing $rem in /usr/local/qchem-5.4.1/config/preferences:
 Processing $rem in /home/ari.fischer/.qchemrc:
 Symmetry turned off for PCM/SM12/SMD calculation

 Checking the input file for inconsistencies... 	...done.

--------------------------------------------------------------
User input:
--------------------------------------------------------------
$molecule
0 2
O        -0.4628443119    1.4062765168   -0.3338263962
C         0.0001780212    0.4576397441    0.5699888494
O        -0.9991184032   -0.4100108625    0.9945623619
C         1.1585387697   -0.3123762542   -0.0500006829
O         2.0694287861    0.4823349227   -0.5845675524
O         1.2217330546   -1.5180777080   -0.0011624366
H        -1.0496509914    2.0161099922    0.1307241003
H        -0.6649513630   -1.3165348992    0.9062656099
H         2.7994759286   -0.0533732966   -0.9357000371
H         0.4330768658    0.9910550084    1.4857371922
O         1.2872704652    1.6529693057    2.5904387587
H         2.0679795783    1.7852775305    2.0246481329
$end

$rem
BASIS = 6-31G(d)
JOB_TYPE = SP
METHOD = wB97M-V
SCF_ALGORITHM = DIIS_GDM
MAX_SCF_CYCLES = 400
SCF_CONVERGENCE = 7
THRESH = 12
Solvent_method = SMD
$end
--------------------------------------------------------------
 ----------------------------------------------------------------
             Standard Nuclear Orientation (Angstroms)
    I     Atom           X                Y                Z
 ----------------------------------------------------------------
    1      O      -0.4628443119     1.4062765168    -0.3338263962
    2      C       0.0001780212     0.4576397441     0.5699888494
    3      O      -0.9991184032    -0.4100108625     0.9945623619
    4      C       1.1585387697    -0.3123762542    -0.0500006829
    5      O       2.0694287861     0.4823349227    -0.5845675524
    6      O       1.2217330546    -1.5180777080    -0.0011624366
    7      H      -1.0496509914     2.0161099922     0.1307241003
    8      H      -0.6649513630    -1.3165348992     0.9062656099
    9      H       2.7994759286    -0.0533732966    -0.9357000371
   10      H       0.4330768658     0.9910550084     1.4857371922
   11      O       1.2872704652     1.6529693057     2.5904387587
   12      H       2.0679795783     1.7852775305     2.0246481329
 ----------------------------------------------------------------
 Nuclear Repulsion Energy =         325.39385223 hartrees
 There are       29 alpha and       28 beta electrons
 Requested basis set is 6-31G(d)
 There are 38 shells and 115 basis functions

 Total QAlloc Memory Limit 288000 MB
 Mega-Array Size       188 MB
 MEM_STATIC part       192 MB
 
 Citation of the SMD model:
 Marenich, A.V.; Cramer, C.J.; Truhlar, D.G.
 J. Phys. Chem. B 2009, 113, 6378-6396.
 iSolventCode=           1
 Solvent: water                                                           
 
 vradii
            1           2           3           4           5           6
    1   1.5200000   1.8500000   1.5200000   1.8500000   1.5200000   1.5200000
            7           8           9          10          11          12
    1   1.2000000   1.2000000   1.2000000   1.2000000   1.5200000   1.2000000
 Changing PCM_VDW_RADII to SMD_RADIUS
 Discretize the solute cavity surface with Lebedev spheres
	Using 110 Lebedev grid points for each H atom
	Using 194 Lebedev grid points for other atoms
	Atomic van der Waals radii will be scaled by 1.20
 Remove points where switching function is < 1.0e-08
 Keep 1055 surface tesserae and discard 853 interior tesserae
 Molecular Surface Area = 123.845 Angst**2

                       Distance Matrix (Angstroms)
             O (  1)   C (  2)   O (  3)   C (  4)   O (  5)   O (  6)
   C (  2)  1.389670
   O (  3)  2.313246  1.389847
   C (  4)  2.379749  1.522863  2.399193
   O (  5)  2.707203  2.369685  3.564536  1.321760
   O (  6)  3.391211  2.392043  2.674222  1.208344  2.249578
   H (  7)  0.965425  1.929747  2.575817  3.214127  3.548629  4.203220
   H (  8)  2.998729  1.924363  0.970180  2.290829  3.596575  2.103241
   H (  9)  3.624302  3.219364  4.275795  1.882610  0.971209  2.346911
   H ( 10)  2.070240  1.144783  2.062867  2.140962  2.687491  3.021357
   O ( 11)  3.416882  2.677244  3.468470  3.294097  3.473157  4.095880
   H ( 12)  3.480103  2.855601  3.909918  3.087297  2.916448  3.966383
             H (  7)   H (  8)   H (  9)   H ( 10)   O ( 11)
   H (  8)  3.443251
   H (  9)  4.498422  4.121974
   H ( 10)  2.255057  2.620386  3.543167
   O ( 11)  3.412224  3.932628  4.199051  1.545362
   H ( 12)  3.655113  4.282631  3.560812  1.895817  0.973207
 
 A cutoff of  1.0D-12 yielded    692 shell pairs
 There are      6696 function pairs
 Smallest overlap matrix eigenvalue = 2.24E-03

 Scale SEOQF with 1.000000e-01/1.000000e-01/1.000000e-01

 Standard Electronic Orientation quadrupole field applied
 Nucleus-field energy     =     0.0000000003 hartrees
 Guess from superposition of atomic densities
 Warning:  Energy on first SCF cycle will be non-variational
 SAD guess density has 57.000000 electrons

 -----------------------------------------------------------------------
  General SCF calculation program by
  Eric Jon Sundstrom, Paul Horn, Yuezhi Mao, Dmitri Zuev, Alec White,
  David Stuck, Shaama M.S., Shane Yost, Joonho Lee, David Small,
  Daniel Levine, Susi Lehtola, Hugh Burton, Evgeny Epifanovsky,
  Bang C. Huynh
 -----------------------------------------------------------------------
 Exchange:     0.1500 Hartree-Fock + 1.0000 wB97M-V + LR-HF
 Correlation:  1.0000 wB97M-V
 Using SG-2 standard quadrature grid
 Nonlocal Correlation:  VV10 with C = 0.0100 and b = 6.00 and scale = 1.00000
 Grid used for NLC:  SG-1 standard quadrature
 
 Citation of the SMD model:
 Marenich, A.V.; Cramer, C.J.; Truhlar, D.G.
 J. Phys. Chem. B 2009, 113, 6378-6396.
 iSolventCode=           1
 Solvent: water                                                           
 
 vradii
            1           2           3           4           5           6
    1   1.5200000   1.8500000   1.5200000   1.8500000   1.5200000   1.5200000
            7           8           9          10          11          12
    1   1.2000000   1.2000000   1.2000000   1.2000000   1.5200000   1.2000000
 using 4 threads for integral computing
 -------------------------------------------------------
 OpenMP Integral computing Module                
 Release: version 1.0, May 2013, Q-Chem Inc. Pittsburgh 
 -------------------------------------------------------
 -------------------------------------------------------
 OpenMP BLAS3 based DFT computing Module                
 Release: version 1.0, May 2013, Q-Chem Inc. Pittsburgh 
 -------------------------------------------------------
 A unrestricted SCF calculation will be
 performed using DIIS, GDM
 SCF converges when RMS gradient is below 1.0e-07
 ---------------------------------------
  Cycle       Energy         DIIS error
 ---------------------------------------
    1    -456.2243216448      3.59e-02  
    2    -454.8250905420      6.88e-03  Done DIIS. Switching to GDM
 ---------------------------------------
  Cycle       Energy        RMS Gradient
 ---------------------------------------
    1    -454.8250905420      3.75e-01   Descent step
    2    -455.0619929200      9.23e-02   Normal BFGS step
    3    -455.1066997620      5.41e-02   Normal BFGS step
    4    -455.1128716970      1.89e-02   Normal BFGS step
    5    -455.1156239640      1.15e-02   Normal BFGS step
    6    -455.1162000562      6.08e-03   Normal BFGS step
    7    -455.1163262734      2.44e-03   Normal BFGS step
    8    -455.1163441101      7.70e-04   Normal BFGS step
    9    -455.1163500353      4.08e-04   Normal BFGS step
   10    -455.1163507019      2.35e-04   Normal BFGS step
   11    -455.1163509098      1.47e-04   Normal BFGS step
   12    -455.1163509836      1.35e-04   Normal BFGS step
   13    -455.1163510329      1.22e-04   Normal BFGS step
   14    -455.1163510755      9.69e-05   Normal BFGS step
   15    -455.1163511197      7.28e-05   Normal BFGS step
   16    -455.1163511492      3.51e-05   Normal BFGS step
   17    -455.1163511623      1.84e-05   Normal BFGS step
   18    -455.1163511640      3.81e-06   Normal BFGS step
   19    -455.1163511641      1.15e-06   Normal BFGS step
   20    -455.1163511641      4.03e-07   Normal BFGS step
   21    -455.1163511641      9.73e-08  Convergence criterion met
 ---------------------------------------
 SCF time:   CPU 169.65s  wall 46.00s 
<S^2> =          0.755635268
(3)  G-ENP(liq) elect-nuc-pol free energy of system     -455.116351164 a.u.
(4)  G-CDS(liq) cavity-dispersion-solvent structure 
     free energy                                                4.7172 kcal/mol
(6)  G-S(liq) free energy of system                     -455.108833835 a.u.
 SCF   energy in the final basis set =     -455.1088338353
 Total energy in the final basis set =     -455.1088338353
 
 --------------------------------------------------------------
 
                    Orbital Energies (a.u.)
 --------------------------------------------------------------
 
 Alpha MOs
 -- Occupied --
-19.4124 -19.3919 -19.3736 -19.3687 -19.3662 -10.5089 -10.4790  -1.2597
 -1.2071  -1.1703  -1.1400  -1.1172  -0.8545  -0.7388  -0.6757  -0.6588
 -0.6324  -0.6024  -0.5716  -0.5533  -0.5331  -0.5145  -0.4895  -0.4735
 -0.4388  -0.4333  -0.4225  -0.4072  -0.3672
 -- Virtual --
  0.0861   0.1700   0.1977   0.2042   0.2122   0.2956   0.3324   0.3616
  0.3771   0.4162   0.4799   0.6167   0.6394   0.6632   0.7114   0.7501
  0.7646   0.8131   0.8577   0.8784   0.9003   0.9104   0.9284   0.9445
  0.9893   1.0060   1.0186   1.0346   1.0676   1.0852   1.0934   1.1296
  1.1378   1.1435   1.2007   1.2184   1.2910   1.3004   1.3803   1.4288
  1.4618   1.5019   1.5660   1.6133   1.6355   1.7203   1.7556   1.8012
  1.8295   1.8381   1.8489   1.8593   1.8800   1.8915   1.9275   1.9405
  1.9649   1.9938   2.0293   2.1004   2.1573   2.1735   2.2635   2.2995
  2.3230   2.4438   2.5046   2.5420   2.5483   2.6259   2.6458   2.6950
  2.8009   2.8197   2.8869   2.9487   3.0167   3.1124   3.2145   3.7139
  3.8555   3.8748   4.0384   4.2615   4.4465   4.6920
 
 Beta MOs
 -- Occupied --
-19.4124 -19.3728 -19.3714 -19.3676 -19.3659 -10.5089 -10.4752  -1.2592
 -1.2046  -1.1697  -1.1378  -1.0628  -0.8499  -0.7348  -0.6711  -0.6530
 -0.6268  -0.5969  -0.5606  -0.5365  -0.5320  -0.5071  -0.4721  -0.4387
 -0.4195  -0.4134  -0.4052  -0.3883
 -- Virtual --
 -0.0563   0.0901   0.1728   0.1987   0.2098   0.2158   0.3014   0.3353
  0.3661   0.3975   0.4214   0.4822   0.6197   0.6444   0.6651   0.7138
  0.7550   0.7657   0.8150   0.8624   0.8803   0.9022   0.9297   0.9347
  0.9496   0.9966   1.0140   1.0250   1.0388   1.0691   1.0872   1.0953
  1.1323   1.1431   1.1627   1.2145   1.2204   1.2970   1.3053   1.3820
  1.4339   1.4742   1.5030   1.5727   1.6181   1.6396   1.7305   1.7648
  1.8095   1.8395   1.8486   1.8654   1.8788   1.8945   1.9037   1.9491
  1.9582   1.9691   1.9985   2.0361   2.1077   2.1631   2.1767   2.2661
  2.3070   2.3312   2.4474   2.5089   2.5474   2.5687   2.6290   2.6510
  2.6983   2.8034   2.8220   2.8893   2.9515   3.0180   3.1147   3.2172
  3.7558   3.8576   3.8776   4.0397   4.2636   4.4479   4.7005
 --------------------------------------------------------------
 
          Ground-State Mulliken Net Atomic Charges

     Atom                 Charge (a.u.)    Spin (a.u.)
  --------------------------------------------------------
      1 O                    -0.641286       0.026663
      2 C                     0.275532       0.183127
      3 O                    -0.663022       0.034753
      4 C                     0.583579      -0.000521
      5 O                    -0.570429       0.000516
      6 O                    -0.508540       0.008786
      7 H                     0.471207       0.000459
      8 H                     0.457338       0.001628
      9 H                     0.484131      -0.000007
     10 H                     0.220429      -0.063255
     11 O                    -0.562598       0.831877
     12 H                     0.453658      -0.024027
  --------------------------------------------------------
  Sum of atomic charges =     0.000000
  Sum of spin   charges =     1.000000

 -----------------------------------------------------------------
                    Cartesian Multipole Moments
 -----------------------------------------------------------------
    Charge (ESU x 10^10)
                -0.0000
    Dipole Moment (Debye)
         X       2.9097      Y       1.0170      Z      -1.5493
       Tot       3.4497
    Quadrupole Moments (Debye-Ang)
        XX     -28.1298     XY       0.7217     YY     -39.8161
        XZ      -1.8596     YZ      -0.2435     ZZ     -47.3972
    Octopole Moments (Debye-Ang^2)
       XXX     -29.1404    XXY       0.3715    XYY     -36.6271
       YYY     -22.8574    XXZ     -24.6394    XYZ       3.6034
       YYZ     -16.8657    XZZ     -20.9850    YZZ     -24.3549
       ZZZ     -87.0585
    Hexadecapole Moments (Debye-Ang^3)
      XXXX    -257.5485   XXXY      -4.6436   XXYY     -99.2019
      XYYY     -10.5057   YYYY    -301.0279   XXXZ     -33.5010
      XXYZ       0.7500   XYYZ      -4.0761   YYYZ     -70.0747
      XXZZ    -100.5361   XYZZ      -6.7587   YYZZ    -123.8230
      XZZZ     -43.4580   YZZZ     -97.3887   ZZZZ    -415.0077
 -----------------------------------------------------------------
 Total job time:  46.03s(wall), 171.46s(cpu) 
 Mon Feb  5 12:39:18 2024

        *************************************************************
        *                                                           *
        *  Thank you very much for using Q-Chem.  Have a nice day.  *
        *                                                           *
        *************************************************************


