
Running Job 1 of 1 Q_in.in
qchem Q_in.in_257574.0 /scratch/ari.fischer/qChem1851774.hpc-mn1/qchem257574/ 0
/usr/local/qchem-5.4.1/exe/qcprog.exe_s Q_in.in_257574.0 /scratch/ari.fischer/qChem1851774.hpc-mn1/qchem257574/
                  Welcome to Q-Chem
     A Quantum Leap Into The Future Of Chemistry


 Q-Chem 5.4, Q-Chem, Inc., Pleasanton, CA (2021)

 License issued to: Nanyang Technological University (site)

 E. Epifanovsky,  A. T. B. Gilbert,  Xintian Feng,  Joonho Lee,  Yuezhi Mao,  
 N. Mardirossian,  P. Pokhilko,  A. White,  M. Wormit,  M. P. Coons,  
 A. L. Dempwolff,  Zhengting Gan,  D. Hait,  P. R. Horn,  L. D. Jacobson,  
 I. Kaliman,  J. Kussmann,  A. W. Lange,  Ka Un Lao,  D. S. Levine,  Jie Liu,  
 S. C. McKenzie,  A. F. Morrison,  K. Nanda,  F. Plasser,  D. R. Rehn,  
 M. L. Vidal,  Zhi-Qiang You,  Ying Zhu,  B. Alam,  B. Albrecht,  
 A. Aldossary,  E. Alguire,  J. H. Andersen,  D. Barton,  K. Begam,  A. Behn,  
 Y. A. Bernard,  E. J. Berquist,  H. Burton,  A. Carreras,  K. Carter-Fenk,  
 R. Chakraborty,  A. D. Chien,  K. D. Closser,  V. Cofer-Shabica,  
 S. Dasgupta,  Jia Deng,  M. de Wergifosse,  M. Diedenhofen,  Hainam Do,  
 S. Ehlert,  Po-Tung Fang,  S. Fatehi,  Qingguo Feng,  T. Friedhoff,  
 J. Gayvert,  Qinghui Ge,  G. Gidofalvi,  M. Goldey,  J. Gomes,  
 C. Gonzalez-Espinoza,  S. Gulania,  A. Gunina,  M. W. D. Hanson-Heine,  
 P. H. P. Harbach,  A. W. Hauser,  M. F. Herbst,  M. Hernandez Vera,  
 M. Hodecker,  Z. C. Holden,  S. Houck,  Xunkun Huang,  Kerwin Hui,  
 B. C. Huynh,  M. Ivanov,  Hyunjun Ji,  Hanjie Jiang,  B. Kaduk,  S. Kaehler,  
 K. Khistyaev,  Jaehoon Kim,  P. Klunzinger,  Z. Koczor-Benda,  
 Joong Hoon Koh,  D. Kosenkov,  L. Koulias,  T. Kowalczyk,  C. M. Krauter,  
 K. Kue,  A. Kunitsa,  T. Kus,  A. Landau,  K. V. Lawler,  D. Lefrancois,  
 S. Lehtola,  Rain Li,  Yi-Pei Li,  Jiashu Liang,  M. Liebenthal,  
 Hung-Hsuan Lin,  You-Sheng Lin,  Fenglai Liu,  Kuan-Yu Liu,  
 M. Loipersberger,  A. Luenser,  A. Manjanath,  P. Manohar,  E. Mansoor,  
 S. F. Manzer,  Shan-Ping Mao,  A. V. Marenich,  T. Markovich,  S. Mason,  
 S. A. Maurer,  P. F. McLaughlin,  M. F. S. J. Menger,  J.-M. Mewes,  
 S. A. Mewes,  P. Morgante,  J. W. Mullinax,  K. J. Oosterbaan,  G. Paran,  
 Alexander C. Paul,  Suranjan K. Paul,  F. Pavosevic,  Zheng Pei,  S. Prager,  
 E. I. Proynov,  E. Ramos,  B. Rana,  A. E. Rask,  A. Rettig,  R. M. Richard,  
 F. Rob,  E. Rossomme,  T. Scheele,  M. Scheurer,  M. Schneider,  
 N. Sergueev,  S. M. Sharada,  W. Skomorowski,  D. W. Small,  C. J. Stein,  
 Yu-Chuan Su,  E. J. Sundstrom,  Zhen Tao,  J. Thirman,  T. Tsuchimochi,  
 N. M. Tubman,  S. P. Veccham,  O. Vydrov,  J. Wenzel,  J. Witte,  A. Yamada,  
 Kun Yao,  S. Yeganeh,  S. R. Yost,  A. Zech,  Igor Ying Zhang,  Xing Zhang,  
 Yu Zhang,  D. Zuev,  A. Aspuru-Guzik,  A. T. Bell,  N. A. Besley,  
 K. B. Bravaya,  B. R. Brooks,  D. Casanova,  Jeng-Da Chai,  S. Coriani,  
 C. J. Cramer,  A. E. DePrince, III,  R. A. DiStasio Jr.,  A. Dreuw,  
 B. D. Dunietz,  T. R. Furlani,  W. A. Goddard III,  S. Grimme,  
 S. Hammes-Schiffer,  T. Head-Gordon,  W. J. Hehre,  Chao-Ping Hsu,  
 T.-C. Jagau,  Yousung Jung,  A. Klamt,  Jing Kong,  D. S. Lambrecht,  
 WanZhen Liang,  N. J. Mayhall,  C. W. McCurdy,  J. B. Neaton,  
 C. Ochsenfeld,  J. A. Parkhill,  R. Peverati,  V. A. Rassolov,  Yihan Shao,  
 L. V. Slipchenko,  T. Stauch,  R. P. Steele,  J. E. Subotnik,  
 A. J. W. Thom,  A. Tkatchenko,  D. G. Truhlar,  T. Van Voorhis,  
 T. A. Wesolowski,  K. B. Whaley,  H. L. Woodcock III,  P. M. Zimmerman,  
 S. Faraji,  P. M. W. Gill,  M. Head-Gordon,  J. M. Herbert,  A. I. Krylov

 Additional authors for Version 5.4.1: 
 S. Kotaru,  Shaozhi Li,  Xiangyuan Li,  F. Matz,  A. Molle,  Haisheng Ren,  
 Yingli Su,  Hung-Yi Tsai,  C. Utku,  Fang Wang

 Contributors to earlier versions of Q-Chem not listed above: 
 R. D. Adamson,  B. Austin,  R. Baer,  J. Baker,  G. J. O. Beran,  
 K. Brandhorst,  S. T. Brown,  E. F. C. Byrd,  A. K. Chakraborty,  
 G. K. L. Chan,  Chun-Min Chang,  Yunqing Chen,  C.-L. Cheng,  
 Siu Hung Chien,  D. M. Chipman,  D. L. Crittenden,  H. Dachsel,  
 R. J. Doerksen,  A. D. Dutoi,  R. G. Edgar,  J. Fosso-Tande,  
 L. Fusti-Molnar,  D. Ghosh,  A. Ghysels,  A. Golubeva-Zadorozhnaya,  
 J. Gonthier,  M. S. Gordon,  S. R. Gwaltney,  G. Hawkins,  J. E. Herr,  
 A. Heyden,  S. Hirata,  E. G. Hohenstein,  G. Kedziora,  F. J. Keil,  
 C. Kelley,  Jihan Kim,  R. A. King,  R. Z. Khaliullin,  P. P. Korambath,  
 W. Kurlancheek,  A. Laurent,  A. M. Lee,  M. S. Lee,  S. V. Levchenko,  
 Ching Yeh Lin,  D. Liotard,  E. Livshits,  R. C. Lochan,  I. Lotan,  
 L. A. Martinez-Martinez,  P. E. Maslen,  N. Nair,  D. P. O'Neill,  
 D. Neuhauser,  E. Neuscamman,  C. M. Oana,  R. Olivares-Amaya,  R. Olson,  
 T. M. Perrine,  B. Peters,  P. A. Pieniazek,  A. Prociuk,  Y. M. Rhee,  
 J. Ritchie,  M. A. Rohrdanz,  E. Rosta,  N. J. Russ,  H. F. Schaefer III,  
 M. W. Schmidt,  N. E. Schultz,  S. Sharma,  N. Shenvi,  C. D. Sherrill,  
 A. C. Simmonett,  A. Sodt,  T. Stein,  D. Stuck,  K. S. Thanthiriwatte,  
 V. Vanovschi,  L. Vogt,  Tao Wang,  A. Warshel,  M. A. Watson,  
 C. F. Williams,  Q. Wu,  X. Xu,  Jun Yang,  W. Zhang,  Yan Zhao

 Please cite Q-Chem as follows:
 Y. Shao et al., Mol. Phys. 113, 184-215 (2015)
 DOI: 10.1080/00268976.2014.952696

 Q-Chem 5.4.1 for Intel X86 EM64T Linux

 Parts of Q-Chem use Armadillo 9.800.1 (Horizon Scraper).
 http://arma.sourceforge.net/

 Q-Chem begins on Fri Dec  1 08:39:29 2023  

 Host: 
0

     Scratch files written to /scratch/ari.fischer/qChem1851774.hpc-mn1/qchem257574//
 Aug1521 |scratch|qcdevops|jenkins|workspace|build_RNUM 8249   
 Processing $rem in /usr/local/qchem-5.4.1/config/preferences:
 Processing $rem in /home/ari.fischer/.qchemrc:
 Symmetry turned off for PCM/SM12/SMD calculation


!!********************************************.
!!******************Warning*******************.
!!Desired Analytical derivatives not available.
!!Finite difference job might take a long time.
!!********************************************.
!!********************************************.


 2-order derivative to be evaluated numerically with 1-order analytical derivatives

 Checking the input file for inconsistencies... 	...done.

--------------------------------------------------------------
User input:
--------------------------------------------------------------
$molecule
0 2
C         1.4155218182    1.2207064175   -0.8395260283
C         0.4538738068    0.3638934363   -1.6653587071
O         1.1730366860   -0.7473798209   -2.1338998113
O        -0.0097419999    1.1759955838   -2.7271785857
O         2.5869459834    1.4793773284   -1.4998920379
H         0.5410689347   -1.4267734546   -2.3945171338
H        -0.8275530933    0.8013212562   -3.0742687963
H         1.7236183052    0.6119237354    0.0307964258
H        -0.3868585346    0.0343213710   -1.0560372975
C         1.7000788382    3.1481268939    0.7772168526
O         1.2115961980    4.4166373460    1.1601160918
C         0.7828935720    2.5212664617   -0.2837232505
O         0.6389437156    3.4803080228   -1.2982494328
O        -0.4391550478    2.2439511411    0.3575543109
O         1.7767584015    2.3485140153    1.9194443724
H         2.7096900751    3.2277790481    0.3756278141
H         1.0429110183    4.9310480893    0.3603786010
H         0.2528082254    3.0388861224   -2.0712515511
H        -1.1207458859    2.0756229281   -0.3048612629
H         0.8760090829    2.1550653783    2.2133688265
$end

$rem
BASIS = 6-311++G(2df,2p)
GUI = 2
JOB_TYPE = Frequency
METHOD = wB97M-V
SOLVENT_METHOD = SMD
SCF_ALGORITHM = DIIS_GDM
MAX_SCF_CYCLES = 400
SCF_CONVERGENCE = 7
THRESH = 12
$end
--------------------------------------------------------------
 ----------------------------------------------------------------
             Standard Nuclear Orientation (Angstroms)
    I     Atom           X                Y                Z
 ----------------------------------------------------------------
    1      C       1.4155218182     1.2207064175    -0.8395260283
    2      C       0.4538738068     0.3638934363    -1.6653587071
    3      O       1.1730366860    -0.7473798209    -2.1338998113
    4      O      -0.0097419999     1.1759955838    -2.7271785857
    5      O       2.5869459834     1.4793773284    -1.4998920379
    6      H       0.5410689347    -1.4267734546    -2.3945171338
    7      H      -0.8275530933     0.8013212562    -3.0742687963
    8      H       1.7236183052     0.6119237354     0.0307964258
    9      H      -0.3868585346     0.0343213710    -1.0560372975
   10      C       1.7000788382     3.1481268939     0.7772168526
   11      O       1.2115961980     4.4166373460     1.1601160918
   12      C       0.7828935720     2.5212664617    -0.2837232505
   13      O       0.6389437156     3.4803080228    -1.2982494328
   14      O      -0.4391550478     2.2439511411     0.3575543109
   15      O       1.7767584015     2.3485140153     1.9194443724
   16      H       2.7096900751     3.2277790481     0.3756278141
   17      H       1.0429110183     4.9310480893     0.3603786010
   18      H       0.2528082254     3.0388861224    -2.0712515511
   19      H      -1.1207458859     2.0756229281    -0.3048612629
   20      H       0.8760090829     2.1550653783     2.2133688265
 ----------------------------------------------------------------
 Nuclear Repulsion Energy =         737.04858357 hartrees
 There are       45 alpha and       44 beta electrons
 Requested basis set is 6-311++G(2df,2p)
 There are 142 shells and 464 basis functions

 Total QAlloc Memory Limit 288000 MB
 Mega-Array Size       188 MB
 MEM_STATIC part       192 MB
 
 Citation of the SMD model:
 Marenich, A.V.; Cramer, C.J.; Truhlar, D.G.
 J. Phys. Chem. B 2009, 113, 6378-6396.
 iSolventCode=           1
 Solvent: water                                                           
 
 vradii
            1           2           3           4           5           6
    1   1.8500000   1.8500000   1.5200000   1.5200000   1.5200000   1.2000000
            7           8           9          10          11          12
    1   1.2000000   1.2000000   1.2000000   1.8500000   1.5200000   1.8500000
           13          14          15          16          17          18
    1   1.5200000   1.5200000   1.5200000   1.2000000   1.2000000   1.2000000
           19          20
    1   1.2000000   1.2000000
 Changing PCM_VDW_RADII to SMD_RADIUS
 Discretize the solute cavity surface with Lebedev spheres
	Using 110 Lebedev grid points for each H atom
	Using 194 Lebedev grid points for other atoms
	Atomic van der Waals radii will be scaled by 1.20
 Remove points where switching function is < 1.0e-08
 Keep 1546 surface tesserae and discard 1578 interior tesserae
 Molecular Surface Area = 167.427 Angst**2
 A cutoff of  1.0D-12 yielded   8886 shell pairs
 There are     94228 function pairs (    117111 Cartesian)
 Smallest overlap matrix eigenvalue = 6.98E-06
 Guess from superposition of atomic densities
 Warning:  Energy on first SCF cycle will be non-variational
 SAD guess density has 89.000000 electrons

 -----------------------------------------------------------------------
  General SCF calculation program by
  Eric Jon Sundstrom, Paul Horn, Yuezhi Mao, Dmitri Zuev, Alec White,
  David Stuck, Shaama M.S., Shane Yost, Joonho Lee, David Small,
  Daniel Levine, Susi Lehtola, Hugh Burton, Evgeny Epifanovsky,
  Bang C. Huynh
 -----------------------------------------------------------------------
 Exchange:     0.1500 Hartree-Fock + 1.0000 wB97M-V + LR-HF
 Correlation:  1.0000 wB97M-V
 Using SG-2 standard quadrature grid
 Nonlocal Correlation:  VV10 with C = 0.0100 and b = 6.00 and scale = 1.00000
 Grid used for NLC:  SG-1 standard quadrature
 using 32 threads for integral computing
 -------------------------------------------------------
 OpenMP Integral computing Module                
 Release: version 1.0, May 2013, Q-Chem Inc. Pittsburgh 
 -------------------------------------------------------
 
 Citation of the SMD model:
 Marenich, A.V.; Cramer, C.J.; Truhlar, D.G.
 J. Phys. Chem. B 2009, 113, 6378-6396.
 iSolventCode=           1
 Solvent: water                                                           
 
 vradii
            1           2           3           4           5           6
    1   1.8500000   1.8500000   1.5200000   1.5200000   1.5200000   1.2000000
            7           8           9          10          11          12
    1   1.2000000   1.2000000   1.2000000   1.8500000   1.5200000   1.8500000
           13          14          15          16          17          18
    1   1.5200000   1.5200000   1.5200000   1.2000000   1.2000000   1.2000000
           19          20
    1   1.2000000   1.2000000
 -------------------------------------------------------
 OpenMP BLAS3 based DFT computing Module                
 Release: version 1.0, May 2013, Q-Chem Inc. Pittsburgh 
 -------------------------------------------------------
 A unrestricted SCF calculation will be
 performed using DIIS, GDM
 SCF converges when RMS gradient is below 1.0e-07
 ---------------------------------------
  Cycle       Energy         DIIS error
 ---------------------------------------
    1    -686.6082925283      1.17e-02  
    2    -684.0668687507      1.89e-03  Done DIIS. Switching to GDM
 ---------------------------------------
  Cycle       Energy        RMS Gradient
 ---------------------------------------
    1    -684.0668687507      4.37e-01   Descent step
    2    -684.3288799296      8.50e-02   Descent step
    3    -684.3825641317      5.87e-02   Normal BFGS step
    4    -684.4035491708      3.28e-02   Normal BFGS step
    5    -684.4100086625      2.67e-02   Normal BFGS step
    6    -684.4119353579      4.80e-03   Normal BFGS step
    7    -684.4123796333      4.09e-03   Normal BFGS step
    8    -684.4124505573      4.61e-03   Normal BFGS step
    9    -684.4125101874      5.03e-03   Normal BFGS step
   10    -684.4126644114      6.63e-03   Normal BFGS step
   11    -684.4130312582      9.82e-03   Dog-leg BFGS step
   12    -684.4141585534      1.35e-02   Normal BFGS step
   13    -684.4154357788      2.01e-02   Normal BFGS step
   14    -684.4186144007      5.91e-03   Normal BFGS step
   15    -684.4193914723      3.69e-03   Normal BFGS step
   16    -684.4198202491      2.25e-03   Normal BFGS step
   17    -684.4199482218      1.68e-03   Normal BFGS step
   18    -684.4199986588      1.12e-03   Normal BFGS step
   19    -684.4200101053      6.52e-04   Normal BFGS step
   20    -684.4200120147      2.30e-04   Normal BFGS step
   21    -684.4200123674      7.52e-05   Normal BFGS step
   22    -684.4200124227      2.73e-05   Normal BFGS step
   23    -684.4200124348      1.07e-05   Normal BFGS step
   24    -684.4200124370      5.29e-06   Normal BFGS step
   25    -684.4200124374      2.56e-06   Normal BFGS step
   26    -684.4200124375      1.15e-06   Normal BFGS step
   27    -684.4200124375      6.48e-07   Normal BFGS step
   28    -684.4200124374      3.32e-07   Normal BFGS step
   29    -684.4200124374      1.83e-07   Normal BFGS step
   30    -684.4200124374      1.06e-07   Normal BFGS step
   31    -684.4200124376      3.13e-08  Convergence criterion met
 ---------------------------------------
 SCF time:   CPU 6186.06s  wall 245.00s 
<S^2> =          0.753894185
(3)  G-ENP(liq) elect-nuc-pol free energy of system     -684.420012438 a.u.
(4)  G-CDS(liq) cavity-dispersion-solvent structure 
     free energy                                                3.9720 kcal/mol
(6)  G-S(liq) free energy of system                     -684.413682668 a.u.
 SCF   energy in the final basis set =     -684.4136826685
 Total energy in the final basis set =     -684.4136826685
 
 --------------------------------------------------------------
 
                    Orbital Energies (a.u.)
 --------------------------------------------------------------
 
 Alpha MOs
 -- Occupied --
-19.3992 -19.3551 -19.3546 -19.3525 -19.3520 -19.3497 -19.3450 -10.4669
-10.4554 -10.4499 -10.4129  -1.2336  -1.2118  -1.1932  -1.1737  -1.1493
 -1.1426  -1.1342  -0.8900  -0.8465  -0.7623  -0.7299  -0.6814  -0.6771
 -0.6641  -0.6491  -0.6314  -0.6091  -0.5896  -0.5769  -0.5665  -0.5412
 -0.5195  -0.5096  -0.4939  -0.4858  -0.4795  -0.4685  -0.4425  -0.4273
 -0.4261  -0.4189  -0.4159  -0.4056  -0.3780
 -- Virtual --
  0.0226   0.0367   0.0421   0.0447   0.0619   0.0650   0.0696   0.0812
  0.0836   0.1016   0.1151   0.1181   0.1295   0.1357   0.1381   0.1457
  0.1513   0.1596   0.1626   0.1685   0.1740   0.1750   0.1863   0.1962
  0.2173   0.2178   0.2235   0.2351   0.2452   0.2553   0.2590   0.2637
  0.2696   0.2773   0.2837   0.2908   0.2921   0.3008   0.3036   0.3103
  0.3185   0.3249   0.3255   0.3298   0.3378   0.3480   0.3529   0.3558
  0.3573   0.3659   0.3702   0.3732   0.3781   0.3884   0.3900   0.3951
  0.3978   0.4084   0.4134   0.4210   0.4245   0.4293   0.4373   0.4413
  0.4523   0.4573   0.4657   0.4719   0.4842   0.4976   0.5074   0.5261
  0.5720   0.5878   0.5944   0.6072   0.6178   0.6313   0.6389   0.6556
  0.6589   0.6706   0.6781   0.6833   0.6976   0.7142   0.7169   0.7274
  0.7419   0.7520   0.7587   0.7844   0.7850   0.8121   0.8205   0.8345
  0.8626   0.8789   0.8915   0.9078   0.9118   0.9381   0.9481   0.9848
  0.9858   1.0110   1.0330   1.0445   1.0576   1.0792   1.0904   1.1015
  1.1081   1.1342   1.1421   1.1465   1.1505   1.1655   1.1734   1.1746
  1.1883   1.1934   1.1978   1.2050   1.2109   1.2200   1.2255   1.2417
  1.2537   1.2626   1.2705   1.2794   1.2862   1.2997   1.3052   1.3126
  1.3368   1.3479   1.3548   1.3557   1.3967   1.4002   1.4159   1.4191
  1.4443   1.4601   1.4732   1.4815   1.4846   1.5015   1.5183   1.5428
  1.5594   1.5677   1.5790   1.5886   1.6111   1.6146   1.6281   1.6369
  1.6518   1.6786   1.7050   1.7079   1.7317   1.7411   1.7591   1.7831
  1.7990   1.8176   1.8450   1.8624   1.8869   1.9057   1.9226   1.9434
  1.9557   2.0145   2.0196   2.0530   2.0628   2.0829   2.1112   2.1488
  2.1559   2.2021   2.2333   2.2347   2.2433   2.2797   2.3335   2.3534
  2.3657   2.3819   2.3979   2.4053   2.4191   2.4331   2.4415   2.4473
  2.4801   2.5094   2.5223   2.5551   2.5688   2.5957   2.6331   2.6964
  2.7224   2.7607   2.7702   2.8564   2.8669   2.8754   2.8874   2.9256
  2.9650   2.9946   3.0241   3.0583   3.0932   3.1195   3.1482   3.1766
  3.2232   3.2546   3.2955   3.3092   3.3203   3.3487   3.3566   3.3768
  3.4018   3.4153   3.4429   3.4692   3.4863   3.5097   3.5288   3.5714
  3.5790   3.5939   3.6400   3.6590   3.6712   3.6831   3.6928   3.6952
  3.7164   3.7341   3.7677   3.7840   3.7953   3.8090   3.8181   3.8400
  3.8457   3.8620   3.8700   3.8871   3.9063   3.9128   3.9237   3.9324
  3.9502   3.9685   3.9707   4.0024   4.0389   4.0737   4.0984   4.1204
  4.1331   4.1715   4.1877   4.1981   4.2186   4.2431   4.2628   4.2979
  4.3042   4.3195   4.3336   4.3499   4.3661   4.3916   4.4007   4.4225
  4.4464   4.4492   4.4597   4.5102   4.5216   4.5389   4.5774   4.6205
  4.6481   4.7479   4.8682   5.0773   5.1103   5.1380   5.1871   5.1962
  5.2123   5.2297   5.2420   5.2444   5.2643   5.2781   5.2838   5.2907
  5.2968   5.3120   5.3183   5.3261   5.3367   5.3445   5.3584   5.3639
  5.3738   5.3938   5.4000   5.4212   5.4284   5.4336   5.4666   5.4740
  5.4851   5.5222   5.5249   5.5347   5.5513   5.5561   5.5861   5.6251
  5.6281   5.6389   5.6569   5.6681   5.6741   5.6805   5.7017   5.7060
  5.7590   5.7789   5.8426   5.8512   5.9110   5.9183   5.9606   5.9997
  6.0173   6.0514   6.0563   6.0996   6.1163   6.1605   6.1691   6.2112
  6.5019   6.5351   6.5972   6.7419   6.7618   6.7902   6.8233   6.9375
  6.9377   7.0634   7.0723   7.1139   7.1320   7.1455   7.1604   7.2293
  7.2557   7.2598   7.2694   7.2863   7.3048   7.3150   7.3305   7.3515
  7.3540   7.3617   7.3821   7.3913   7.4106   7.4437   7.4578   7.4802
  7.5003   7.5539   7.5888   7.6320   7.6842   7.7042   7.7175   7.7344
  7.7570   7.8033   7.8317   7.8586   7.8771   7.8909   7.9060   7.9583
 24.6993  24.7862  24.8379  24.8754  50.5509  50.6091  50.6160  50.6232
 50.6368  50.6893  50.6962
 
 Beta MOs
 -- Occupied --
-19.3767 -19.3549 -19.3545 -19.3524 -19.3520 -19.3497 -19.3449 -10.4664
-10.4550 -10.4499 -10.4132  -1.2317  -1.2096  -1.1930  -1.1496  -1.1429
 -1.1367  -1.1242  -0.8805  -0.8442  -0.7610  -0.7241  -0.6784  -0.6712
 -0.6603  -0.6486  -0.6295  -0.6009  -0.5835  -0.5659  -0.5424  -0.5354
 -0.5163  -0.5024  -0.4904  -0.4828  -0.4722  -0.4507  -0.4302  -0.4251
 -0.4209  -0.4155  -0.4046  -0.3701
 -- Virtual --
 -0.0680   0.0228   0.0368   0.0420   0.0449   0.0621   0.0651   0.0696
  0.0814   0.0841   0.1022   0.1153   0.1187   0.1296   0.1365   0.1389
  0.1461   0.1517   0.1598   0.1633   0.1686   0.1748   0.1756   0.1867
  0.1968   0.2179   0.2191   0.2253   0.2353   0.2458   0.2561   0.2592
  0.2665   0.2696   0.2777   0.2851   0.2920   0.2930   0.3017   0.3048
  0.3105   0.3190   0.3257   0.3277   0.3301   0.3394   0.3499   0.3537
  0.3570   0.3579   0.3666   0.3704   0.3750   0.3787   0.3895   0.3910
  0.3956   0.3982   0.4102   0.4173   0.4215   0.4257   0.4300   0.4381
  0.4419   0.4525   0.4581   0.4665   0.4740   0.4860   0.4982   0.5081
  0.5267   0.5732   0.5884   0.5953   0.6098   0.6185   0.6323   0.6394
  0.6559   0.6605   0.6725   0.6789   0.6846   0.6981   0.7147   0.7180
  0.7286   0.7428   0.7528   0.7597   0.7853   0.7869   0.8131   0.8210
  0.8355   0.8629   0.8796   0.8927   0.9091   0.9118   0.9388   0.9485
  0.9851   0.9870   1.0134   1.0355   1.0449   1.0588   1.0798   1.0925
  1.1020   1.1088   1.1351   1.1435   1.1477   1.1551   1.1674   1.1744
  1.1756   1.1899   1.1985   1.2034   1.2066   1.2157   1.2217   1.2281
  1.2434   1.2556   1.2634   1.2730   1.2844   1.2954   1.3017   1.3097
  1.3146   1.3386   1.3504   1.3564   1.3576   1.4004   1.4038   1.4187
  1.4216   1.4456   1.4612   1.4763   1.4837   1.4862   1.5029   1.5217
  1.5451   1.5606   1.5690   1.5806   1.5905   1.6146   1.6219   1.6319
  1.6379   1.6546   1.6807   1.7079   1.7114   1.7370   1.7437   1.7602
  1.7874   1.8030   1.8262   1.8585   1.8699   1.8904   1.9112   1.9253
  1.9448   1.9621   2.0216   2.0264   2.0563   2.0647   2.0860   2.1132
  2.1506   2.1582   2.2042   2.2364   2.2412   2.2454   2.2850   2.3339
  2.3570   2.3668   2.3833   2.4010   2.4086   2.4198   2.4369   2.4430
  2.4484   2.4838   2.5108   2.5236   2.5561   2.5749   2.5994   2.6342
  2.6970   2.7232   2.7641   2.7715   2.8577   2.8683   2.8775   2.8916
  2.9274   2.9699   2.9959   3.0261   3.0611   3.0957   3.1210   3.1495
  3.1770   3.2258   3.2566   3.2963   3.3107   3.3229   3.3499   3.3582
  3.3781   3.4040   3.4161   3.4454   3.4711   3.4868   3.5128   3.5305
  3.5728   3.5804   3.5955   3.6415   3.6602   3.6719   3.6840   3.6943
  3.6972   3.7174   3.7353   3.7682   3.7862   3.7953   3.8101   3.8197
  3.8405   3.8470   3.8633   3.8704   3.8888   3.9076   3.9140   3.9254
  3.9344   3.9508   3.9702   3.9714   4.0041   4.0425   4.0757   4.1005
  4.1215   4.1340   4.1743   4.1897   4.1994   4.2193   4.2471   4.2641
  4.2984   4.3058   4.3230   4.3355   4.3506   4.3702   4.3932   4.4040
  4.4250   4.4488   4.4568   4.4643   4.5132   4.5228   4.5426   4.5791
  4.6259   4.6543   4.7553   4.8709   5.0945   5.1787   5.1865   5.1981
  5.2141   5.2306   5.2416   5.2461   5.2534   5.2766   5.2847   5.2972
  5.3023   5.3095   5.3176   5.3211   5.3349   5.3423   5.3501   5.3658
  5.3703   5.3863   5.3978   5.4138   5.4244   5.4378   5.4516   5.4728
  5.4830   5.4952   5.5274   5.5330   5.5388   5.5544   5.5643   5.5924
  5.6262   5.6304   5.6454   5.6577   5.6698   5.6745   5.6856   5.7030
  5.7072   5.7612   5.7811   5.8444   5.8532   5.9129   5.9424   5.9690
  6.0051   6.0229   6.0569   6.0594   6.1041   6.1210   6.1647   6.1726
  6.2119   6.5048   6.5368   6.5983   6.7425   6.7780   6.7931   6.8400
  7.0298   7.0335   7.0654   7.0737   7.1152   7.1328   7.1471   7.1619
  7.2309   7.2567   7.2609   7.2712   7.2904   7.3076   7.3159   7.3313
  7.3537   7.3570   7.3824   7.3847   7.3993   7.4340   7.4581   7.4771
  7.4917   7.5068   7.5596   7.5900   7.6328   7.6917   7.7142   7.7232
  7.7438   7.7689   7.8087   7.8348   7.8591   7.8777   7.8912   7.9071
  7.9602  24.6994  24.7865  24.8379  24.8756  50.5620  50.6091  50.6163
 50.6239  50.6382  50.6916  50.6965
 --------------------------------------------------------------
 
          Ground-State Mulliken Net Atomic Charges

     Atom                 Charge (a.u.)    Spin (a.u.)
  --------------------------------------------------------
      1 C                    -0.027289       0.029022
      2 C                    -0.137774       0.002117
      3 O                    -0.451366       0.000209
      4 O                    -0.419937       0.004797
      5 O                    -0.190306       0.862213
      6 H                     0.339807       0.000239
      7 H                     0.356865      -0.000944
      8 H                     0.320906       0.088308
      9 H                     0.267946      -0.001285
     10 C                     0.035809       0.003578
     11 O                    -0.469083       0.000076
     12 C                    -0.121706       0.004061
     13 O                    -0.413439       0.002978
     14 O                    -0.406529       0.003777
     15 O                    -0.381045       0.001813
     16 H                     0.300061      -0.000377
     17 H                     0.327934      -0.000060
     18 H                     0.362635      -0.000404
     19 H                     0.370214       0.000206
     20 H                     0.336295      -0.000323
  --------------------------------------------------------
  Sum of atomic charges =     0.000000
  Sum of spin   charges =     1.000000

 -----------------------------------------------------------------
                    Cartesian Multipole Moments
 -----------------------------------------------------------------
    Charge (ESU x 10^10)
                 0.0000
    Dipole Moment (Debye)
         X      -7.8590      Y      -4.8799      Z      -3.5705
       Tot       9.9159
    Quadrupole Moments (Debye-Ang)
        XX     -75.9097     XY      -9.0511     YY     -79.2879
        XZ      10.7181     YZ      -7.7455     ZZ     -69.5193
    Octopole Moments (Debye-Ang^2)
       XXX    -233.0979    XXY    -140.4992    XYY     -89.9655
       YYY    -443.6368    XXZ      41.9049    XYZ      -5.9743
       YYZ     -13.2810    XZZ    -119.3784    YZZ    -162.1200
       ZZZ      95.9770
    Hexadecapole Moments (Debye-Ang^3)
      XXXX    -818.9830   XXXY    -448.3489   XXYY    -562.5165
      XYYY    -471.4574   YYYY   -2530.4340   XXXZ      87.4826
      XXYZ     -40.0678   XYYZ     -24.3167   YYYZ    -221.8318
      XXZZ    -361.8363   XYZZ    -209.0932   YYZZ    -654.6151
      XZZZ     115.5097   YZZZ     -62.7978   ZZZZ    -972.2445
 -----------------------------------------------------------------
 Calculating analytic gradient of the SCF energy
 Gradient of CDS energy
            1           2           3           4           5           6
    1   0.0054107   0.0014349  -0.0014731   0.0004238  -0.0053032   0.0000304
    2   0.0012448  -0.0024401   0.0026916  -0.0004136  -0.0011852  -0.0005069
    3  -0.0031317  -0.0011480   0.0009547   0.0005257   0.0029771  -0.0001363
            7           8           9          10          11          12
    1  -0.0003759   0.0001061  -0.0000925   0.0003705   0.0002366  -0.0017479
    2   0.0001594  -0.0000343   0.0001376  -0.0010573  -0.0013468   0.0013905
    3  -0.0003386   0.0001464   0.0000600   0.0040822  -0.0002635  -0.0010904
           13          14          15          16          17          18
    1   0.0003370   0.0017333  -0.0002716   0.0000537  -0.0001102  -0.0000993
    2  -0.0019497   0.0003787   0.0025192  -0.0001974   0.0004915   0.0002620
    3   0.0020468  -0.0008900  -0.0036998  -0.0001654  -0.0000558  -0.0003734
           19          20
    1  -0.0004827  -0.0001806
    2   0.0000545  -0.0001986
    3   0.0000907   0.0004092
 Gradient of SCF Energy
            1           2           3           4           5           6
    1  -0.0129906   0.0217649   0.0218610   0.0312040   0.0016137  -0.0186370
    2  -0.0009172   0.0149644   0.0162206   0.0055241  -0.0012584  -0.0138505
    3  -0.0076934  -0.0103945   0.0031958   0.0083845  -0.0020386  -0.0043388
            7           8           9          10          11          12
    1  -0.0253895  -0.0007335  -0.0189214   0.0019551  -0.0009215   0.0007752
    2  -0.0103251  -0.0041980  -0.0072806  -0.0008401   0.0008493  -0.0032001
    3  -0.0058809   0.0045604   0.0099843  -0.0016699   0.0085729  -0.0028175
           13          14          15          16          17          18
    1   0.0068369   0.0140055   0.0084402  -0.0029791   0.0006224  -0.0083562
    2   0.0060599   0.0100064   0.0039314  -0.0001520   0.0013763  -0.0049434
    3   0.0064877   0.0162428   0.0031045   0.0002402  -0.0035000  -0.0066756
           19          20
    1  -0.0154617  -0.0046884
    2  -0.0081561  -0.0038110
    3  -0.0161942   0.0004304
 Max gradient component =       3.120E-02
 RMS gradient           =       1.034E-02
 Computing fast CPCM-SWIG gradient
 Updating gradient with PCM contributions...
 -- total gradient after adding PCM contribution --
---------------------------------------------------
  Atom         X              Y              Z     
---------------------------------------------------
   1      -0.000046      -0.000052       0.000000
   2       0.000040      -0.000034       0.000023
   3      -0.000013      -0.000002       0.000045
   4      -0.000024       0.000022      -0.000023
   5       0.000027       0.000000      -0.000004
   6      -0.000007       0.000013      -0.000024
   7       0.000014       0.000000      -0.000006
   8      -0.000008       0.000011       0.000007
   9      -0.000007       0.000011       0.000000
  10      -0.000014       0.000002      -0.000003
  11      -0.000015      -0.000011      -0.000009
  12       0.000038       0.000042      -0.000023
  13       0.000020      -0.000018       0.000004
  14      -0.000024      -0.000010       0.000006
  15      -0.000015      -0.000006       0.000002
  16      -0.000002      -0.000009       0.000003
  17       0.000023       0.000002       0.000007
  18       0.000016       0.000012      -0.000003
  19       0.000002       0.000015      -0.000009
  20      -0.000005       0.000013       0.000005
---------------------------------------------------
 Number of fixed atoms: 0
 Gradient time:  CPU 526.37 s  wall 25.79 s
 ######################################################
 ######################################################
 # Starting finite difference calculation for IDERIV  #
 Finite diff step size:  1.88973e-03 a.u.
 ----------------------------------------------------------------
             Standard Nuclear Orientation (Angstroms)
    I     Atom           X                Y                Z
 ----------------------------------------------------------------
    1      C       1.4165218182     1.2207064175    -0.8395260283
    2      C       0.4538738068     0.3638934363    -1.6653587071
    3      O       1.1730366860    -0.7473798209    -2.1338998113
    4      O      -0.0097419999     1.1759955838    -2.7271785857
    5      O       2.5869459834     1.4793773284    -1.4998920379
    6      H       0.5410689347    -1.4267734546    -2.3945171338
    7      H      -0.8275530933     0.8013212562    -3.0742687963
    8      H       1.7236183052     0.6119237354     0.0307964258
    9      H      -0.3868585346     0.0343213710    -1.0560372975
   10      C       1.7000788382     3.1481268939     0.7772168526
   11      O       1.2115961980     4.4166373460     1.1601160918
   12      C       0.7828935720     2.5212664617    -0.2837232505
   13      O       0.6389437156     3.4803080228    -1.2982494328
   14      O      -0.4391550478     2.2439511411     0.3575543109
   15      O       1.7767584015     2.3485140153     1.9194443724
   16      H       2.7096900751     3.2277790481     0.3756278141
   17      H       1.0429110183     4.9310480893     0.3603786010
   18      H       0.2528082254     3.0388861224    -2.0712515511
   19      H      -1.1207458859     2.0756229281    -0.3048612629
   20      H       0.8760090829     2.1550653783     2.2133688265
 ----------------------------------------------------------------
 Nuclear Repulsion Energy =         737.04392106 hartrees
 There are       45 alpha and       44 beta electrons
 Discretize the solute cavity surface with Lebedev spheres
	Using 110 Lebedev grid points for each H atom
	Using 194 Lebedev grid points for other atoms
	Atomic van der Waals radii will be scaled by 1.20
 Remove points where switching function is < 1.0e-08
 Keep 1547 surface tesserae and discard 1577 interior tesserae
 Molecular Surface Area = 167.427 Angst**2
 Requested basis set is 6-311++G(2df,2p)
 There are 142 shells and 464 basis functions
 A cutoff of  1.0D-12 yielded   8886 shell pairs
 There are     94228 function pairs (    117111 Cartesian)
 Smallest overlap matrix eigenvalue = 7.00E-06
 Guess MOs from SCF MO coefficient file

 -----------------------------------------------------------------------
  General SCF calculation program by
  Eric Jon Sundstrom, Paul Horn, Yuezhi Mao, Dmitri Zuev, Alec White,
  David Stuck, Shaama M.S., Shane Yost, Joonho Lee, David Small,
  Daniel Levine, Susi Lehtola, Hugh Burton, Evgeny Epifanovsky,
  Bang C. Huynh
 -----------------------------------------------------------------------
 Exchange:     0.1500 Hartree-Fock + 1.0000 wB97M-V + LR-HF
 Correlation:  1.0000 wB97M-V
 Using SG-2 standard quadrature grid
 Nonlocal Correlation:  VV10 with C = 0.0100 and b = 6.00 and scale = 1.00000
 Grid used for NLC:  SG-1 standard quadrature
 
 Citation of the SMD model:
 Marenich, A.V.; Cramer, C.J.; Truhlar, D.G.
 J. Phys. Chem. B 2009, 113, 6378-6396.
 iSolventCode=           1
 Solvent: water                                                           
 
 vradii
            1           2           3           4           5           6
    1   1.8500000   1.8500000   1.5200000   1.5200000   1.5200000   1.2000000
            7           8           9          10          11          12
    1   1.2000000   1.2000000   1.2000000   1.8500000   1.5200000   1.8500000
           13          14          15          16          17          18
    1   1.5200000   1.5200000   1.5200000   1.2000000   1.2000000   1.2000000
           19          20
    1   1.2000000   1.2000000
 -------------------------------------------------------
 OpenMP BLAS3 based DFT computing Module                
 Release: version 1.0, May 2013, Q-Chem Inc. Pittsburgh 
 -------------------------------------------------------
 A unrestricted SCF calculation will be
 performed using Roothaan-Hall, DIIS, GDM
 SCF converges when RMS gradient is below 1.0e-07
 ---------------------------------------
  Cycle       Energy         DIIS error
 ---------------------------------------
    1    -684.3504972999      2.80e-04  Roothaan Step
 ---------------------------------------
  Cycle       Energy         DIIS error
 ---------------------------------------
    1    -684.4047970054      3.07e-04  
    2    -684.4160125001      2.27e-04  Done DIIS. Switching to GDM
 ---------------------------------------
  Cycle       Energy        RMS Gradient
 ---------------------------------------
    1    -684.4160125001      5.38e-03   Normal BFGS step
    2    -684.4163601691      8.09e-03   Normal BFGS step
    3    -684.4199764312      9.34e-04   Normal BFGS step
    4    -684.4200124624      3.75e-04   Normal BFGS step
    5    -684.4200206883      2.04e-04   Normal BFGS step
    6    -684.4200214374      1.15e-04   Normal BFGS step
    7    -684.4200217383      8.78e-05   Normal BFGS step
    8    -684.4200217961      5.20e-05   Normal BFGS step
    9    -684.4200218121      4.20e-05   Normal BFGS step
   10    -684.4200218183      4.27e-05   Normal BFGS step
   11    -684.4200218295      4.33e-05   Normal BFGS step
   12    -684.4200218562      3.88e-05   Normal BFGS step
   13    -684.4200218809      3.59e-05   Normal BFGS step
   14    -684.4200218950      2.11e-05   Normal BFGS step
   15    -684.4200218988      1.69e-05   Normal BFGS step
   16    -684.4200218996      7.45e-06   Normal BFGS step
   17    -684.4200218999      3.58e-06   Normal BFGS step
   18    -684.4200218999      1.42e-06   Normal BFGS step
   19    -684.4200218999      4.91e-07   Normal BFGS step
   20    -684.4200219000      2.65e-07   Normal BFGS step
   21    -684.4200219000      1.17e-07   Normal BFGS step
   22    -684.4200219000      3.36e-08  Convergence criterion met
 ---------------------------------------
 SCF time:   CPU 4505.98s  wall 181.00s 
<S^2> =          0.753896248
(3)  G-ENP(liq) elect-nuc-pol free energy of system     -684.420021900 a.u.
(4)  G-CDS(liq) cavity-dispersion-solvent structure 
     free energy                                                3.9784 kcal/mol
(6)  G-S(liq) free energy of system                     -684.413681933 a.u.
 SCF   energy in the final basis set =     -684.4136819327
 Total energy in the final basis set =     -684.4136819327
 
 --------------------------------------------------------------
 
                    Orbital Energies (a.u.)
 --------------------------------------------------------------
 
 Alpha MOs
 -- Occupied --
-19.3992 -19.3551 -19.3546 -19.3525 -19.3520 -19.3497 -19.3449 -10.4669
-10.4554 -10.4499 -10.4129  -1.2336  -1.2118  -1.1932  -1.1739  -1.1493
 -1.1426  -1.1342  -0.8899  -0.8464  -0.7622  -0.7299  -0.6814  -0.6771
 -0.6641  -0.6491  -0.6314  -0.6092  -0.5896  -0.5769  -0.5665  -0.5412
 -0.5195  -0.5096  -0.4939  -0.4858  -0.4795  -0.4685  -0.4424  -0.4273
 -0.4261  -0.4188  -0.4159  -0.4055  -0.3779
 -- Virtual --
  0.0226   0.0367   0.0421   0.0447   0.0619   0.0650   0.0696   0.0812
  0.0836   0.1016   0.1151   0.1181   0.1295   0.1357   0.1381   0.1457
  0.1513   0.1596   0.1626   0.1685   0.1740   0.1750   0.1863   0.1962
  0.2173   0.2178   0.2236   0.2351   0.2452   0.2553   0.2590   0.2638
  0.2696   0.2773   0.2837   0.2909   0.2921   0.3008   0.3036   0.3103
  0.3185   0.3249   0.3255   0.3298   0.3378   0.3480   0.3529   0.3557
  0.3573   0.3659   0.3702   0.3732   0.3781   0.3884   0.3900   0.3951
  0.3978   0.4084   0.4134   0.4210   0.4245   0.4293   0.4373   0.4413
  0.4523   0.4573   0.4657   0.4719   0.4843   0.4976   0.5074   0.5261
  0.5719   0.5878   0.5944   0.6072   0.6178   0.6313   0.6390   0.6556
  0.6589   0.6706   0.6781   0.6833   0.6976   0.7142   0.7169   0.7274
  0.7419   0.7520   0.7587   0.7844   0.7851   0.8121   0.8205   0.8345
  0.8626   0.8789   0.8914   0.9078   0.9118   0.9380   0.9481   0.9848
  0.9858   1.0110   1.0329   1.0445   1.0575   1.0792   1.0904   1.1015
  1.1081   1.1342   1.1421   1.1465   1.1504   1.1656   1.1734   1.1747
  1.1883   1.1934   1.1978   1.2050   1.2110   1.2200   1.2255   1.2417
  1.2537   1.2627   1.2705   1.2794   1.2862   1.2997   1.3051   1.3126
  1.3369   1.3480   1.3548   1.3557   1.3967   1.4001   1.4159   1.4191
  1.4443   1.4602   1.4732   1.4815   1.4846   1.5015   1.5183   1.5428
  1.5593   1.5677   1.5790   1.5886   1.6110   1.6146   1.6281   1.6369
  1.6518   1.6786   1.7050   1.7079   1.7316   1.7410   1.7591   1.7832
  1.7990   1.8176   1.8451   1.8624   1.8869   1.9057   1.9226   1.9434
  1.9557   2.0145   2.0197   2.0530   2.0627   2.0829   2.1112   2.1489
  2.1559   2.2022   2.2335   2.2347   2.2433   2.2798   2.3334   2.3534
  2.3657   2.3819   2.3980   2.4053   2.4191   2.4332   2.4414   2.4472
  2.4802   2.5094   2.5223   2.5550   2.5689   2.5958   2.6330   2.6964
  2.7223   2.7606   2.7702   2.8561   2.8670   2.8753   2.8872   2.9256
  2.9649   2.9944   3.0241   3.0583   3.0930   3.1195   3.1481   3.1766
  3.2231   3.2547   3.2956   3.3093   3.3204   3.3488   3.3565   3.3767
  3.4017   3.4153   3.4429   3.4692   3.4861   3.5096   3.5287   3.5713
  3.5790   3.5938   3.6398   3.6591   3.6710   3.6831   3.6928   3.6952
  3.7164   3.7342   3.7677   3.7841   3.7953   3.8090   3.8183   3.8400
  3.8457   3.8621   3.8700   3.8870   3.9062   3.9128   3.9236   3.9324
  3.9502   3.9685   3.9706   4.0024   4.0390   4.0738   4.0981   4.1203
  4.1330   4.1715   4.1875   4.1980   4.2184   4.2428   4.2628   4.2978
  4.3041   4.3195   4.3334   4.3497   4.3660   4.3916   4.4007   4.4223
  4.4464   4.4492   4.4596   4.5100   4.5217   4.5389   4.5773   4.6206
  4.6477   4.7477   4.8681   5.0769   5.1103   5.1378   5.1872   5.1962
  5.2122   5.2297   5.2420   5.2444   5.2643   5.2781   5.2838   5.2907
  5.2967   5.3119   5.3183   5.3261   5.3367   5.3446   5.3584   5.3639
  5.3739   5.3938   5.4001   5.4211   5.4285   5.4336   5.4666   5.4740
  5.4853   5.5225   5.5248   5.5348   5.5514   5.5561   5.5861   5.6251
  5.6281   5.6389   5.6568   5.6680   5.6741   5.6805   5.7018   5.7060
  5.7590   5.7789   5.8428   5.8512   5.9113   5.9192   5.9609   6.0000
  6.0175   6.0516   6.0563   6.1001   6.1164   6.1605   6.1693   6.2112
  6.5017   6.5350   6.5972   6.7419   6.7631   6.7903   6.8241   6.9377
  6.9380   7.0634   7.0724   7.1139   7.1320   7.1455   7.1604   7.2293
  7.2557   7.2598   7.2694   7.2864   7.3049   7.3150   7.3306   7.3516
  7.3540   7.3619   7.3821   7.3914   7.4106   7.4438   7.4578   7.4803
  7.5003   7.5539   7.5888   7.6320   7.6842   7.7043   7.7175   7.7344
  7.7570   7.8033   7.8316   7.8585   7.8771   7.8909   7.9060   7.9583
 24.7001  24.7862  24.8379  24.8751  50.5513  50.6091  50.6160  50.6233
 50.6369  50.6893  50.6962
 
 Beta MOs
 -- Occupied --
-19.3767 -19.3549 -19.3545 -19.3524 -19.3520 -19.3497 -19.3449 -10.4664
-10.4550 -10.4499 -10.4132  -1.2317  -1.2096  -1.1930  -1.1496  -1.1428
 -1.1367  -1.1244  -0.8805  -0.8441  -0.7609  -0.7241  -0.6784  -0.6712
 -0.6602  -0.6485  -0.6295  -0.6008  -0.5835  -0.5659  -0.5425  -0.5354
 -0.5163  -0.5024  -0.4904  -0.4828  -0.4722  -0.4508  -0.4302  -0.4251
 -0.4209  -0.4155  -0.4046  -0.3700
 -- Virtual --
 -0.0681   0.0228   0.0368   0.0420   0.0449   0.0621   0.0651   0.0696
  0.0814   0.0841   0.1022   0.1153   0.1187   0.1296   0.1365   0.1389
  0.1461   0.1517   0.1598   0.1633   0.1686   0.1748   0.1756   0.1867
  0.1968   0.2179   0.2191   0.2253   0.2353   0.2458   0.2561   0.2592
  0.2666   0.2696   0.2777   0.2851   0.2920   0.2930   0.3017   0.3048
  0.3105   0.3190   0.3257   0.3276   0.3301   0.3394   0.3499   0.3537
  0.3570   0.3579   0.3666   0.3704   0.3750   0.3787   0.3895   0.3910
  0.3956   0.3982   0.4102   0.4173   0.4214   0.4257   0.4300   0.4381
  0.4419   0.4525   0.4581   0.4666   0.4740   0.4861   0.4982   0.5081
  0.5267   0.5732   0.5884   0.5953   0.6098   0.6185   0.6323   0.6394
  0.6559   0.6605   0.6725   0.6788   0.6846   0.6981   0.7147   0.7181
  0.7287   0.7427   0.7528   0.7597   0.7853   0.7870   0.8131   0.8210
  0.8355   0.8629   0.8796   0.8927   0.9091   0.9118   0.9388   0.9485
  0.9852   0.9870   1.0134   1.0354   1.0449   1.0587   1.0797   1.0925
  1.1020   1.1088   1.1351   1.1435   1.1477   1.1551   1.1675   1.1744
  1.1756   1.1899   1.1985   1.2034   1.2066   1.2157   1.2217   1.2281
  1.2434   1.2556   1.2634   1.2730   1.2843   1.2953   1.3017   1.3096
  1.3146   1.3386   1.3504   1.3564   1.3576   1.4004   1.4038   1.4187
  1.4216   1.4456   1.4612   1.4763   1.4837   1.4861   1.5029   1.5216
  1.5451   1.5606   1.5690   1.5806   1.5905   1.6146   1.6219   1.6318
  1.6379   1.6546   1.6807   1.7080   1.7114   1.7369   1.7437   1.7602
  1.7874   1.8030   1.8262   1.8586   1.8700   1.8904   1.9112   1.9253
  1.9448   1.9622   2.0216   2.0266   2.0563   2.0646   2.0860   2.1131
  2.1506   2.1582   2.2043   2.2365   2.2414   2.2454   2.2852   2.3338
  2.3570   2.3668   2.3833   2.4010   2.4087   2.4198   2.4370   2.4430
  2.4484   2.4839   2.5108   2.5237   2.5560   2.5750   2.5995   2.6342
  2.6970   2.7232   2.7640   2.7715   2.8574   2.8683   2.8775   2.8914
  2.9274   2.9698   2.9956   3.0261   3.0610   3.0956   3.1210   3.1494
  3.1770   3.2257   3.2567   3.2964   3.3108   3.3230   3.3499   3.3581
  3.3781   3.4039   3.4161   3.4454   3.4711   3.4866   3.5127   3.5304
  3.5728   3.5804   3.5954   3.6414   3.6602   3.6717   3.6840   3.6944
  3.6972   3.7174   3.7353   3.7682   3.7862   3.7954   3.8101   3.8199
  3.8404   3.8470   3.8634   3.8704   3.8888   3.9075   3.9140   3.9252
  3.9344   3.9508   3.9702   3.9713   4.0042   4.0426   4.0758   4.1002
  4.1215   4.1338   4.1743   4.1895   4.1992   4.2192   4.2469   4.2640
  4.2984   4.3058   4.3231   4.3353   4.3504   4.3701   4.3932   4.4039
  4.4249   4.4487   4.4570   4.4643   4.5130   4.5228   4.5426   4.5790
  4.6259   4.6539   4.7551   4.8709   5.0940   5.1787   5.1864   5.1981
  5.2141   5.2306   5.2416   5.2461   5.2534   5.2766   5.2847   5.2972
  5.3023   5.3095   5.3175   5.3211   5.3349   5.3423   5.3502   5.3658
  5.3704   5.3863   5.3978   5.4140   5.4243   5.4379   5.4517   5.4729
  5.4831   5.4954   5.5273   5.5333   5.5389   5.5544   5.5645   5.5924
  5.6262   5.6304   5.6455   5.6576   5.6698   5.6745   5.6857   5.7031
  5.7072   5.7613   5.7811   5.8445   5.8532   5.9129   5.9430   5.9696
  6.0053   6.0232   6.0571   6.0596   6.1045   6.1213   6.1648   6.1729
  6.2120   6.5047   6.5367   6.5983   6.7425   6.7787   6.7933   6.8414
  7.0298   7.0336   7.0654   7.0737   7.1152   7.1328   7.1471   7.1618
  7.2309   7.2566   7.2609   7.2712   7.2905   7.3076   7.3159   7.3313
  7.3537   7.3570   7.3825   7.3847   7.3993   7.4341   7.4581   7.4775
  7.4918   7.5068   7.5596   7.5900   7.6328   7.6917   7.7142   7.7232
  7.7439   7.7690   7.8086   7.8348   7.8591   7.8777   7.8913   7.9071
  7.9602  24.7002  24.7864  24.8380  24.8752  50.5624  50.6091  50.6163
 50.6240  50.6382  50.6916  50.6965
 --------------------------------------------------------------
 
          Ground-State Mulliken Net Atomic Charges

     Atom                 Charge (a.u.)    Spin (a.u.)
  --------------------------------------------------------
      1 C                    -0.028227       0.029011
      2 C                    -0.137288       0.002258
      3 O                    -0.451352       0.000209
      4 O                    -0.419887       0.004808
      5 O                    -0.190300       0.861721
      6 H                     0.339790       0.000241
      7 H                     0.356861      -0.000943
      8 H                     0.321078       0.088493
      9 H                     0.267964      -0.001278
     10 C                     0.035586       0.003578
     11 O                    -0.469113       0.000077
     12 C                    -0.121233       0.004164
     13 O                    -0.413449       0.002985
     14 O                    -0.406496       0.003810
     15 O                    -0.381048       0.001819
     16 H                     0.300061      -0.000375
     17 H                     0.327930      -0.000061
     18 H                     0.362648      -0.000401
     19 H                     0.370181       0.000204
     20 H                     0.336293      -0.000323
  --------------------------------------------------------
  Sum of atomic charges =     0.000000
  Sum of spin   charges =     1.000000

 -----------------------------------------------------------------
                    Cartesian Multipole Moments
 -----------------------------------------------------------------
    Charge (ESU x 10^10)
                 0.0000
    Dipole Moment (Debye)
         X      -7.8576      Y      -4.8805      Z      -3.5702
       Tot       9.9151
    Quadrupole Moments (Debye-Ang)
        XX     -75.9040     XY      -9.0510     YY     -79.2934
        XZ      10.7164     YZ      -7.7470     ZZ     -69.5210
    Octopole Moments (Debye-Ang^2)
       XXX    -233.0949    XXY    -140.4944    XYY     -89.9766
       YYY    -443.6611    XXZ      41.8991    XYZ      -5.9783
       YYZ     -13.2836    XZZ    -119.3834    YZZ    -162.1216
       ZZZ      95.9793
    Hexadecapole Moments (Debye-Ang^3)
      XXXX    -819.0075   XXXY    -448.3506   XXYY    -562.5324
      XYYY    -471.5077   YYYY   -2530.5623   XXXZ      87.4748
      XXYZ     -40.0758   XYYZ     -24.3214   YYYZ    -221.8575
      XXZZ    -361.8461   XYZZ    -209.1020   YYZZ    -654.6348
      XZZZ     115.5179   YZZZ     -62.8065   ZZZZ    -972.2611
 -----------------------------------------------------------------
 Calculating analytic gradient of the SCF energy
 Gradient of CDS energy
            1           2           3           4           5           6
    1   0.0053823   0.0014347  -0.0014738   0.0004234  -0.0052716   0.0000304
    2   0.0012393  -0.0024402   0.0026913  -0.0004137  -0.0011798  -0.0005069
    3  -0.0031179  -0.0011478   0.0009547   0.0005258   0.0029623  -0.0001363
            7           8           9          10          11          12
    1  -0.0003759   0.0001051  -0.0000926   0.0003705   0.0002366  -0.0017480
    2   0.0001594  -0.0000340   0.0001377  -0.0010573  -0.0013468   0.0013905
    3  -0.0003386   0.0001464   0.0000599   0.0040822  -0.0002635  -0.0010904
           13          14          15          16          17          18
    1   0.0003366   0.0017334  -0.0002715   0.0000532  -0.0001102  -0.0000994
    2  -0.0019496   0.0003786   0.0025192  -0.0001971   0.0004915   0.0002620
    3   0.0020470  -0.0008900  -0.0036998  -0.0001649  -0.0000558  -0.0003733
           19          20
    1  -0.0004827  -0.0001806
    2   0.0000545  -0.0001986
    3   0.0000907   0.0004092
 Gradient of SCF Energy
            1           2           3           4           5           6
    1  -0.0120898   0.0215415   0.0218798   0.0311729   0.0012746  -0.0186389
    2  -0.0009480   0.0149166   0.0162434   0.0055175  -0.0013112  -0.0138434
    3  -0.0075940  -0.0104649   0.0032153   0.0083545  -0.0018990  -0.0043325
            7           8           9          10          11          12
    1  -0.0253847  -0.0008457  -0.0189465   0.0019844  -0.0009276   0.0006138
    2  -0.0103226  -0.0041133  -0.0073034  -0.0008619   0.0008374  -0.0031855
    3  -0.0058869   0.0044358   0.0099600  -0.0016639   0.0085614  -0.0028684
           13          14          15          16          17          18
    1   0.0068387   0.0139503   0.0084399  -0.0029792   0.0006234  -0.0083570
    2   0.0060810   0.0100425   0.0039347  -0.0001541   0.0013769  -0.0049419
    3   0.0064878   0.0162869   0.0031029   0.0002397  -0.0034991  -0.0066745
           19          20
    1  -0.0154615  -0.0046886
    2  -0.0081529  -0.0038116
    3  -0.0161916   0.0004307
 Max gradient component =       3.117E-02
 RMS gradient           =       1.031E-02
 Computing fast CPCM-SWIG gradient
 Updating gradient with PCM contributions...
 -- total gradient after adding PCM contribution --
---------------------------------------------------
  Atom         X              Y              Z     
---------------------------------------------------
   1       0.000824      -0.000085       0.000092
   2      -0.000173      -0.000089      -0.000053
   3       0.000007       0.000022       0.000065
   4      -0.000051       0.000017      -0.000052
   5      -0.000311      -0.000053       0.000137
   6      -0.000011       0.000018      -0.000018
   7       0.000017       0.000001      -0.000011
   8      -0.000114       0.000099      -0.000121
   9      -0.000028      -0.000009      -0.000020
  10       0.000016      -0.000018       0.000002
  11      -0.000021      -0.000026      -0.000020
  12      -0.000115       0.000059      -0.000061
  13       0.000022       0.000002       0.000005
  14      -0.000075       0.000027       0.000049
  15      -0.000015      -0.000004      -0.000001
  16      -0.000005      -0.000009       0.000004
  17       0.000024       0.000004       0.000007
  18       0.000014       0.000014      -0.000004
  19       0.000001       0.000017      -0.000008
  20      -0.000006       0.000012       0.000006
---------------------------------------------------
 Number of fixed atoms: 0
 Gradient time:  CPU 527.31 s  wall 25.58 s
 ----------------------------------------------------------------
             Standard Nuclear Orientation (Angstroms)
    I     Atom           X                Y                Z
 ----------------------------------------------------------------
    1      C       1.4145218182     1.2207064175    -0.8395260283
    2      C       0.4538738068     0.3638934363    -1.6653587071
    3      O       1.1730366860    -0.7473798209    -2.1338998113
    4      O      -0.0097419999     1.1759955838    -2.7271785857
    5      O       2.5869459834     1.4793773284    -1.4998920379
    6      H       0.5410689347    -1.4267734546    -2.3945171338
    7      H      -0.8275530933     0.8013212562    -3.0742687963
    8      H       1.7236183052     0.6119237354     0.0307964258
    9      H      -0.3868585346     0.0343213710    -1.0560372975
   10      C       1.7000788382     3.1481268939     0.7772168526
   11      O       1.2115961980     4.4166373460     1.1601160918
   12      C       0.7828935720     2.5212664617    -0.2837232505
   13      O       0.6389437156     3.4803080228    -1.2982494328
   14      O      -0.4391550478     2.2439511411     0.3575543109
   15      O       1.7767584015     2.3485140153     1.9194443724
   16      H       2.7096900751     3.2277790481     0.3756278141
   17      H       1.0429110183     4.9310480893     0.3603786010
   18      H       0.2528082254     3.0388861224    -2.0712515511
   19      H      -1.1207458859     2.0756229281    -0.3048612629
   20      H       0.8760090829     2.1550653783     2.2133688265
 ----------------------------------------------------------------
 Nuclear Repulsion Energy =         737.05325073 hartrees
 There are       45 alpha and       44 beta electrons
 Discretize the solute cavity surface with Lebedev spheres
	Using 110 Lebedev grid points for each H atom
	Using 194 Lebedev grid points for other atoms
	Atomic van der Waals radii will be scaled by 1.20
 Remove points where switching function is < 1.0e-08
 Keep 1546 surface tesserae and discard 1578 interior tesserae
 Molecular Surface Area = 167.427 Angst**2
 Requested basis set is 6-311++G(2df,2p)
 There are 142 shells and 464 basis functions
 A cutoff of  1.0D-12 yielded   8886 shell pairs
 There are     94228 function pairs (    117111 Cartesian)
 Smallest overlap matrix eigenvalue = 6.97E-06
 Guess MOs from SCF MO coefficient file

 -----------------------------------------------------------------------
  General SCF calculation program by
  Eric Jon Sundstrom, Paul Horn, Yuezhi Mao, Dmitri Zuev, Alec White,
  David Stuck, Shaama M.S., Shane Yost, Joonho Lee, David Small,
  Daniel Levine, Susi Lehtola, Hugh Burton, Evgeny Epifanovsky,
  Bang C. Huynh
 -----------------------------------------------------------------------
 Exchange:     0.1500 Hartree-Fock + 1.0000 wB97M-V + LR-HF
 Correlation:  1.0000 wB97M-V
 Using SG-2 standard quadrature grid
 Nonlocal Correlation:  VV10 with C = 0.0100 and b = 6.00 and scale = 1.00000
 Grid used for NLC:  SG-1 standard quadrature
 
 Citation of the SMD model:
 Marenich, A.V.; Cramer, C.J.; Truhlar, D.G.
 J. Phys. Chem. B 2009, 113, 6378-6396.
 iSolventCode=           1
 Solvent: water                                                           
 
 vradii
            1           2           3           4           5           6
    1   1.8500000   1.8500000   1.5200000   1.5200000   1.5200000   1.2000000
            7           8           9          10          11          12
    1   1.2000000   1.2000000   1.2000000   1.8500000   1.5200000   1.8500000
           13          14          15          16          17          18
    1   1.5200000   1.5200000   1.5200000   1.2000000   1.2000000   1.2000000
           19          20
    1   1.2000000   1.2000000
 -------------------------------------------------------
 OpenMP BLAS3 based DFT computing Module                
 Release: version 1.0, May 2013, Q-Chem Inc. Pittsburgh 
 -------------------------------------------------------
 A unrestricted SCF calculation will be
 performed using Roothaan-Hall, DIIS, GDM
 SCF converges when RMS gradient is below 1.0e-07
 ---------------------------------------
  Cycle       Energy         DIIS error
 ---------------------------------------
    1    -684.3504536834      2.79e-04  Roothaan Step
 ---------------------------------------
  Cycle       Energy         DIIS error
 ---------------------------------------
    1    -684.4047479460      3.08e-04  
    2    -684.4159623862      2.28e-04  Done DIIS. Switching to GDM
 ---------------------------------------
  Cycle       Energy        RMS Gradient
 ---------------------------------------
    1    -684.4159623862      5.46e-03   Normal BFGS step
    2    -684.4163037886      8.18e-03   Normal BFGS step
    3    -684.4199562552      9.66e-04   Normal BFGS step
    4    -684.4199920269      3.53e-04   Normal BFGS step
    5    -684.4200001485      2.05e-04   Normal BFGS step
    6    -684.4200008616      9.60e-05   Normal BFGS step
    7    -684.4200011478      7.43e-05   Normal BFGS step
    8    -684.4200011989      4.46e-05   Normal BFGS step
    9    -684.4200012129      3.56e-05   Normal BFGS step
   10    -684.4200012174      3.61e-05   Normal BFGS step
   11    -684.4200012245      3.65e-05   Normal BFGS step
   12    -684.4200012446      3.33e-05   Normal BFGS step
   13    -684.4200012630      3.26e-05   Normal BFGS step
   14    -684.4200012739      2.13e-05   Normal BFGS step
   15    -684.4200012766      6.50e-06   Normal BFGS step
   16    -684.4200012769      2.02e-06   Normal BFGS step
   17    -684.4200012771      1.32e-06   Normal BFGS step
   18    -684.4200012770      7.63e-07   Normal BFGS step
   19    -684.4200012771      2.20e-07   Normal BFGS step
   20    -684.4200012770      1.07e-07   Normal BFGS step
  GDM::WARNING energy changes are now smaller than effective accuracy.
  GDM::        calculation will continue, but THRESH should be increased
  GDM::        or SCF_CONVERGENCE decreased. 
  GDM::        effective_thresh = 4.68e-09
   21    -684.4200012770      8.40e-08  Convergence criterion met
 ---------------------------------------
 SCF time:   CPU 4302.22s  wall 171.00s 
<S^2> =          0.753892162
(3)  G-ENP(liq) elect-nuc-pol free energy of system     -684.420001277 a.u.
(4)  G-CDS(liq) cavity-dispersion-solvent structure 
     free energy                                                3.9656 kcal/mol
(6)  G-S(liq) free energy of system                     -684.413681758 a.u.
 SCF   energy in the final basis set =     -684.4136817584
 Total energy in the final basis set =     -684.4136817584
 
 --------------------------------------------------------------
 
                    Orbital Energies (a.u.)
 --------------------------------------------------------------
 
 Alpha MOs
 -- Occupied --
-19.3992 -19.3551 -19.3546 -19.3525 -19.3520 -19.3497 -19.3450 -10.4669
-10.4554 -10.4499 -10.4129  -1.2336  -1.2118  -1.1932  -1.1735  -1.1493
 -1.1426  -1.1342  -0.8901  -0.8466  -0.7623  -0.7299  -0.6814  -0.6771
 -0.6641  -0.6491  -0.6314  -0.6091  -0.5896  -0.5768  -0.5664  -0.5412
 -0.5195  -0.5096  -0.4938  -0.4858  -0.4795  -0.4684  -0.4425  -0.4273
 -0.4261  -0.4189  -0.4159  -0.4056  -0.3781
 -- Virtual --
  0.0226   0.0367   0.0421   0.0447   0.0619   0.0650   0.0696   0.0812
  0.0836   0.1016   0.1151   0.1181   0.1295   0.1357   0.1382   0.1457
  0.1513   0.1596   0.1626   0.1685   0.1740   0.1750   0.1863   0.1962
  0.2173   0.2178   0.2235   0.2351   0.2451   0.2553   0.2590   0.2636
  0.2696   0.2773   0.2837   0.2908   0.2921   0.3008   0.3036   0.3102
  0.3185   0.3249   0.3255   0.3298   0.3377   0.3480   0.3529   0.3558
  0.3573   0.3658   0.3703   0.3732   0.3781   0.3884   0.3900   0.3951
  0.3978   0.4084   0.4134   0.4210   0.4246   0.4293   0.4373   0.4412
  0.4523   0.4573   0.4656   0.4718   0.4842   0.4976   0.5074   0.5261
  0.5720   0.5878   0.5944   0.6072   0.6178   0.6313   0.6389   0.6556
  0.6589   0.6706   0.6781   0.6833   0.6977   0.7141   0.7168   0.7273
  0.7420   0.7520   0.7587   0.7844   0.7850   0.8121   0.8205   0.8345
  0.8626   0.8789   0.8915   0.9078   0.9118   0.9381   0.9481   0.9848
  0.9858   1.0110   1.0330   1.0445   1.0576   1.0792   1.0904   1.1016
  1.1081   1.1342   1.1421   1.1465   1.1505   1.1654   1.1734   1.1746
  1.1883   1.1935   1.1978   1.2050   1.2109   1.2200   1.2255   1.2417
  1.2537   1.2626   1.2705   1.2794   1.2863   1.2997   1.3053   1.3126
  1.3368   1.3479   1.3548   1.3557   1.3966   1.4003   1.4159   1.4191
  1.4443   1.4601   1.4733   1.4816   1.4846   1.5015   1.5184   1.5429
  1.5594   1.5677   1.5790   1.5886   1.6112   1.6146   1.6281   1.6368
  1.6518   1.6786   1.7050   1.7078   1.7317   1.7412   1.7591   1.7831
  1.7989   1.8175   1.8449   1.8623   1.8869   1.9056   1.9226   1.9434
  1.9556   2.0145   2.0195   2.0530   2.0629   2.0828   2.1113   2.1488
  2.1558   2.2021   2.2330   2.2346   2.2433   2.2796   2.3335   2.3534
  2.3658   2.3819   2.3978   2.4053   2.4191   2.4329   2.4415   2.4473
  2.4800   2.5094   2.5223   2.5552   2.5688   2.5955   2.6331   2.6964
  2.7224   2.7607   2.7702   2.8566   2.8668   2.8755   2.8875   2.9256
  2.9650   2.9949   3.0241   3.0584   3.0933   3.1196   3.1483   3.1766
  3.2232   3.2544   3.2955   3.3091   3.3202   3.3487   3.3567   3.3768
  3.4020   3.4153   3.4430   3.4691   3.4865   3.5097   3.5289   3.5714
  3.5791   3.5939   3.6401   3.6590   3.6714   3.6831   3.6927   3.6951
  3.7164   3.7341   3.7677   3.7840   3.7953   3.8091   3.8180   3.8401
  3.8458   3.8619   3.8700   3.8872   3.9065   3.9129   3.9239   3.9323
  3.9502   3.9686   3.9708   4.0023   4.0388   4.0736   4.0986   4.1204
  4.1332   4.1715   4.1880   4.1983   4.2188   4.2434   4.2629   4.2979
  4.3042   4.3195   4.3338   4.3500   4.3662   4.3916   4.4008   4.4226
  4.4464   4.4492   4.4598   4.5105   4.5216   4.5389   4.5775   4.6205
  4.6485   4.7482   4.8682   5.0776   5.1102   5.1382   5.1870   5.1962
  5.2123   5.2297   5.2420   5.2444   5.2643   5.2781   5.2837   5.2908
  5.2968   5.3120   5.3183   5.3261   5.3366   5.3444   5.3583   5.3638
  5.3736   5.3938   5.3999   5.4212   5.4282   5.4336   5.4666   5.4739
  5.4848   5.5218   5.5250   5.5346   5.5513   5.5561   5.5861   5.6251
  5.6280   5.6389   5.6569   5.6681   5.6741   5.6804   5.7017   5.7060
  5.7589   5.7789   5.8425   5.8511   5.9107   5.9174   5.9603   5.9994
  6.0171   6.0512   6.0562   6.0991   6.1161   6.1605   6.1688   6.2111
  6.5020   6.5352   6.5972   6.7419   6.7604   6.7901   6.8226   6.9372
  6.9376   7.0634   7.0723   7.1139   7.1320   7.1455   7.1604   7.2293
  7.2558   7.2598   7.2694   7.2862   7.3048   7.3150   7.3305   7.3515
  7.3540   7.3615   7.3821   7.3913   7.4106   7.4435   7.4577   7.4801
  7.5003   7.5540   7.5888   7.6320   7.6843   7.7042   7.7175   7.7344
  7.7570   7.8034   7.8317   7.8587   7.8771   7.8909   7.9061   7.9583
 24.6986  24.7863  24.8378  24.8757  50.5506  50.6091  50.6160  50.6232
 50.6367  50.6894  50.6962
 
 Beta MOs
 -- Occupied --
-19.3767 -19.3549 -19.3545 -19.3524 -19.3520 -19.3497 -19.3450 -10.4664
-10.4550 -10.4500 -10.4132  -1.2317  -1.2096  -1.1930  -1.1496  -1.1429
 -1.1366  -1.1239  -0.8806  -0.8443  -0.7610  -0.7241  -0.6784  -0.6713
 -0.6603  -0.6486  -0.6295  -0.6009  -0.5835  -0.5659  -0.5422  -0.5354
 -0.5163  -0.5024  -0.4904  -0.4827  -0.4722  -0.4507  -0.4302  -0.4251
 -0.4209  -0.4155  -0.4046  -0.3702
 -- Virtual --
 -0.0680   0.0228   0.0368   0.0420   0.0449   0.0621   0.0651   0.0696
  0.0814   0.0841   0.1022   0.1153   0.1187   0.1296   0.1365   0.1389
  0.1461   0.1517   0.1598   0.1634   0.1686   0.1748   0.1756   0.1867
  0.1968   0.2179   0.2191   0.2252   0.2353   0.2458   0.2561   0.2592
  0.2664   0.2696   0.2777   0.2851   0.2919   0.2930   0.3017   0.3048
  0.3105   0.3190   0.3257   0.3277   0.3301   0.3394   0.3499   0.3537
  0.3571   0.3579   0.3666   0.3704   0.3750   0.3787   0.3895   0.3911
  0.3957   0.3982   0.4102   0.4173   0.4215   0.4257   0.4300   0.4381
  0.4419   0.4525   0.4581   0.4665   0.4740   0.4860   0.4982   0.5081
  0.5267   0.5733   0.5884   0.5953   0.6098   0.6185   0.6323   0.6393
  0.6559   0.6605   0.6725   0.6789   0.6845   0.6982   0.7147   0.7180
  0.7285   0.7429   0.7528   0.7597   0.7853   0.7868   0.8132   0.8210
  0.8355   0.8629   0.8796   0.8928   0.9091   0.9118   0.9389   0.9485
  0.9851   0.9870   1.0134   1.0355   1.0449   1.0588   1.0798   1.0925
  1.1020   1.1088   1.1351   1.1435   1.1477   1.1552   1.1673   1.1744
  1.1756   1.1899   1.1986   1.2034   1.2066   1.2157   1.2218   1.2281
  1.2434   1.2556   1.2634   1.2730   1.2844   1.2954   1.3017   1.3097
  1.3147   1.3386   1.3504   1.3564   1.3577   1.4004   1.4038   1.4187
  1.4217   1.4456   1.4612   1.4764   1.4837   1.4862   1.5030   1.5218
  1.5451   1.5607   1.5690   1.5806   1.5905   1.6147   1.6219   1.6319
  1.6379   1.6546   1.6807   1.7079   1.7114   1.7370   1.7438   1.7602
  1.7874   1.8029   1.8262   1.8584   1.8699   1.8904   1.9112   1.9253
  1.9447   1.9621   2.0216   2.0263   2.0563   2.0648   2.0860   2.1132
  2.1506   2.1581   2.2042   2.2364   2.2410   2.2454   2.2848   2.3339
  2.3569   2.3668   2.3833   2.4009   2.4085   2.4198   2.4368   2.4430
  2.4485   2.4837   2.5108   2.5236   2.5562   2.5749   2.5992   2.6342
  2.6970   2.7233   2.7641   2.7715   2.8579   2.8682   2.8775   2.8918
  2.9274   2.9699   2.9961   3.0260   3.0611   3.0958   3.1211   3.1496
  3.1770   3.2259   3.2565   3.2963   3.3106   3.3228   3.3498   3.3583
  3.3782   3.4041   3.4161   3.4455   3.4710   3.4870   3.5129   3.5305
  3.5728   3.5804   3.5955   3.6416   3.6601   3.6720   3.6840   3.6942
  3.6971   3.7174   3.7352   3.7682   3.7861   3.7953   3.8102   3.8195
  3.8405   3.8470   3.8632   3.8704   3.8889   3.9078   3.9141   3.9255
  3.9344   3.9509   3.9703   3.9715   4.0041   4.0423   4.0755   4.1008
  4.1216   4.1341   4.1743   4.1900   4.1996   4.2195   4.2474   4.2641
  4.2985   4.3058   4.3230   4.3357   4.3507   4.3703   4.3932   4.4040
  4.4252   4.4489   4.4566   4.4644   4.5135   4.5227   4.5426   4.5791
  4.6259   4.6546   4.7556   4.8710   5.0950   5.1787   5.1866   5.1982
  5.2142   5.2306   5.2416   5.2461   5.2534   5.2766   5.2847   5.2973
  5.3024   5.3095   5.3177   5.3211   5.3349   5.3423   5.3501   5.3658
  5.3703   5.3862   5.3978   5.4136   5.4244   5.4378   5.4515   5.4728
  5.4830   5.4950   5.5276   5.5327   5.5387   5.5543   5.5641   5.5924
  5.6262   5.6303   5.6454   5.6577   5.6698   5.6745   5.6855   5.7030
  5.7072   5.7612   5.7811   5.8443   5.8531   5.9129   5.9418   5.9684
  6.0049   6.0227   6.0567   6.0592   6.1037   6.1207   6.1647   6.1722
  6.2119   6.5050   6.5369   6.5984   6.7425   6.7773   6.7929   6.8386
  7.0297   7.0334   7.0654   7.0737   7.1152   7.1328   7.1471   7.1619
  7.2309   7.2567   7.2609   7.2712   7.2904   7.3076   7.3159   7.3312
  7.3536   7.3570   7.3824   7.3847   7.3992   7.4340   7.4581   7.4767
  7.4917   7.5067   7.5596   7.5900   7.6328   7.6918   7.7142   7.7232
  7.7438   7.7689   7.8088   7.8349   7.8592   7.8777   7.8912   7.9072
  7.9602  24.6986  24.7866  24.8379  24.8759  50.5617  50.6091  50.6163
 50.6239  50.6381  50.6916  50.6965
 --------------------------------------------------------------
 
          Ground-State Mulliken Net Atomic Charges

     Atom                 Charge (a.u.)    Spin (a.u.)
  --------------------------------------------------------
      1 C                    -0.026354       0.029033
      2 C                    -0.138259       0.001978
      3 O                    -0.451380       0.000209
      4 O                    -0.419987       0.004786
      5 O                    -0.190312       0.862702
      6 H                     0.339824       0.000236
      7 H                     0.356868      -0.000944
      8 H                     0.320735       0.088124
      9 H                     0.267928      -0.001292
     10 C                     0.036032       0.003577
     11 O                    -0.469052       0.000074
     12 C                    -0.122178       0.003958
     13 O                    -0.413428       0.002971
     14 O                    -0.406562       0.003744
     15 O                    -0.381042       0.001806
     16 H                     0.300062      -0.000378
     17 H                     0.327939      -0.000060
     18 H                     0.362621      -0.000407
     19 H                     0.370247       0.000208
     20 H                     0.336297      -0.000323
  --------------------------------------------------------
  Sum of atomic charges =     0.000000
  Sum of spin   charges =     1.000000

 -----------------------------------------------------------------
                    Cartesian Multipole Moments
 -----------------------------------------------------------------
    Charge (ESU x 10^10)
                 0.0000
    Dipole Moment (Debye)
         X      -7.8603      Y      -4.8794      Z      -3.5707
       Tot       9.9168
    Quadrupole Moments (Debye-Ang)
        XX     -75.9155     XY      -9.0513     YY     -79.2824
        XZ      10.7198     YZ      -7.7440     ZZ     -69.5177
    Octopole Moments (Debye-Ang^2)
       XXX    -233.1008    XXY    -140.5040    XYY     -89.9543
       YYY    -443.6125    XXZ      41.9107    XYZ      -5.9703
       YYZ     -13.2784    XZZ    -119.3734    YZZ    -162.1184
       ZZZ      95.9748
    Hexadecapole Moments (Debye-Ang^3)
      XXXX    -818.9586   XXXY    -448.3474   XXYY    -562.5006
      XYYY    -471.4072   YYYY   -2530.3058   XXXZ      87.4904
      XXYZ     -40.0599   XYYZ     -24.3118   YYYZ    -221.8059
      XXZZ    -361.8266   XYZZ    -209.0845   YYZZ    -654.5954
      XZZZ     115.5015   YZZZ     -62.7891   ZZZZ    -972.2278
 -----------------------------------------------------------------
 Calculating analytic gradient of the SCF energy
 Gradient of CDS energy
            1           2           3           4           5           6
    1   0.0054378   0.0014351  -0.0014724   0.0004242  -0.0053336   0.0000304
    2   0.0012501  -0.0024399   0.0026920  -0.0004135  -0.0011902  -0.0005069
    3  -0.0031447  -0.0011483   0.0009547   0.0005256   0.0029912  -0.0001363
            7           8           9          10          11          12
    1  -0.0003759   0.0001070  -0.0000924   0.0003706   0.0002366  -0.0017479
    2   0.0001593  -0.0000346   0.0001376  -0.0010573  -0.0013468   0.0013904
    3  -0.0003386   0.0001463   0.0000602   0.0040822  -0.0002635  -0.0010904
           13          14          15          16          17          18
    1   0.0003375   0.0017333  -0.0002716   0.0000541  -0.0001102  -0.0000992
    2  -0.0019498   0.0003787   0.0025192  -0.0001977   0.0004915   0.0002619
    3   0.0020466  -0.0008900  -0.0036998  -0.0001659  -0.0000558  -0.0003734
           19          20
    1  -0.0004827  -0.0001806
    2   0.0000545  -0.0001986
    3   0.0000907   0.0004092
 Gradient of SCF Energy
            1           2           3           4           5           6
    1  -0.0138921   0.0219889   0.0218422   0.0312350   0.0019522  -0.0186350
    2  -0.0008865   0.0150129   0.0161978   0.0055307  -0.0012057  -0.0138576
    3  -0.0077937  -0.0103234   0.0031763   0.0084146  -0.0021777  -0.0043452
            7           8           9          10          11          12
    1  -0.0253944  -0.0006210  -0.0188961   0.0019259  -0.0009154   0.0009367
    2  -0.0103277  -0.0042826  -0.0072578  -0.0008182   0.0008613  -0.0032152
    3  -0.0058749   0.0046850   0.0100087  -0.0016759   0.0085844  -0.0027668
           13          14          15          16          17          18
    1   0.0068351   0.0140608   0.0084404  -0.0029790   0.0006215  -0.0083555
    2   0.0060389   0.0099702   0.0039282  -0.0001500   0.0013757  -0.0049449
    3   0.0064876   0.0161985   0.0031061   0.0002407  -0.0035008  -0.0066766
           19          20
    1  -0.0154620  -0.0046881
    2  -0.0081593  -0.0038103
    3  -0.0161968   0.0004300
 Max gradient component =       3.124E-02
 RMS gradient           =       1.037E-02
 Computing fast CPCM-SWIG gradient
 Updating gradient with PCM contributions...
 -- total gradient after adding PCM contribution --
---------------------------------------------------
  Atom         X              Y              Z     
---------------------------------------------------
   1      -0.000917      -0.000019      -0.000092
   2       0.000254       0.000022       0.000099
   3      -0.000033      -0.000026       0.000024
   4       0.000004       0.000027       0.000007
   5       0.000365       0.000053      -0.000144
   6      -0.000003       0.000008      -0.000029
   7       0.000010      -0.000001      -0.000001
   8       0.000099      -0.000077       0.000135
   9       0.000015       0.000032       0.000020
  10      -0.000044       0.000022      -0.000007
  11      -0.000009       0.000003       0.000002
  12       0.000192       0.000024       0.000016
  13       0.000017      -0.000038       0.000003
  14       0.000027      -0.000047      -0.000038
  15      -0.000015      -0.000008       0.000004
  16       0.000001      -0.000009       0.000002
  17       0.000023      -0.000000       0.000008
  18       0.000017       0.000010      -0.000003
  19       0.000002       0.000013      -0.000010
  20      -0.000005       0.000013       0.000005
---------------------------------------------------
 Number of fixed atoms: 0
 Gradient time:  CPU 527.21 s  wall 25.54 s
 ----------------------------------------------------------------
             Standard Nuclear Orientation (Angstroms)
    I     Atom           X                Y                Z
 ----------------------------------------------------------------
    1      C       1.4155218182     1.2217064175    -0.8395260283
    2      C       0.4538738068     0.3638934363    -1.6653587071
    3      O       1.1730366860    -0.7473798209    -2.1338998113
    4      O      -0.0097419999     1.1759955838    -2.7271785857
    5      O       2.5869459834     1.4793773284    -1.4998920379
    6      H       0.5410689347    -1.4267734546    -2.3945171338
    7      H      -0.8275530933     0.8013212562    -3.0742687963
    8      H       1.7236183052     0.6119237354     0.0307964258
    9      H      -0.3868585346     0.0343213710    -1.0560372975
   10      C       1.7000788382     3.1481268939     0.7772168526
   11      O       1.2115961980     4.4166373460     1.1601160918
   12      C       0.7828935720     2.5212664617    -0.2837232505
   13      O       0.6389437156     3.4803080228    -1.2982494328
   14      O      -0.4391550478     2.2439511411     0.3575543109
   15      O       1.7767584015     2.3485140153     1.9194443724
   16      H       2.7096900751     3.2277790481     0.3756278141
   17      H       1.0429110183     4.9310480893     0.3603786010
   18      H       0.2528082254     3.0388861224    -2.0712515511
   19      H      -1.1207458859     2.0756229281    -0.3048612629
   20      H       0.8760090829     2.1550653783     2.2133688265
 ----------------------------------------------------------------
 Nuclear Repulsion Energy =         737.05904143 hartrees
 There are       45 alpha and       44 beta electrons
 Discretize the solute cavity surface with Lebedev spheres
	Using 110 Lebedev grid points for each H atom
	Using 194 Lebedev grid points for other atoms
	Atomic van der Waals radii will be scaled by 1.20
 Remove points where switching function is < 1.0e-08
 Keep 1546 surface tesserae and discard 1578 interior tesserae
 Molecular Surface Area = 167.425 Angst**2
 Requested basis set is 6-311++G(2df,2p)
 There are 142 shells and 464 basis functions
 A cutoff of  1.0D-12 yielded   8886 shell pairs
 There are     94228 function pairs (    117111 Cartesian)
 Smallest overlap matrix eigenvalue = 6.98E-06
 Guess MOs from SCF MO coefficient file

 -----------------------------------------------------------------------
  General SCF calculation program by
  Eric Jon Sundstrom, Paul Horn, Yuezhi Mao, Dmitri Zuev, Alec White,
  David Stuck, Shaama M.S., Shane Yost, Joonho Lee, David Small,
  Daniel Levine, Susi Lehtola, Hugh Burton, Evgeny Epifanovsky,
  Bang C. Huynh
 -----------------------------------------------------------------------
 Exchange:     0.1500 Hartree-Fock + 1.0000 wB97M-V + LR-HF
 Correlation:  1.0000 wB97M-V
 Using SG-2 standard quadrature grid
 Nonlocal Correlation:  VV10 with C = 0.0100 and b = 6.00 and scale = 1.00000
 Grid used for NLC:  SG-1 standard quadrature
 
 Citation of the SMD model:
 Marenich, A.V.; Cramer, C.J.; Truhlar, D.G.
 J. Phys. Chem. B 2009, 113, 6378-6396.
 iSolventCode=           1
 Solvent: water                                                           
 
 vradii
            1           2           3           4           5           6
    1   1.8500000   1.8500000   1.5200000   1.5200000   1.5200000   1.2000000
            7           8           9          10          11          12
    1   1.2000000   1.2000000   1.2000000   1.8500000   1.5200000   1.8500000
           13          14          15          16          17          18
    1   1.5200000   1.5200000   1.5200000   1.2000000   1.2000000   1.2000000
           19          20
    1   1.2000000   1.2000000
 -------------------------------------------------------
 OpenMP BLAS3 based DFT computing Module                
 Release: version 1.0, May 2013, Q-Chem Inc. Pittsburgh 
 -------------------------------------------------------
 A unrestricted SCF calculation will be
 performed using Roothaan-Hall, DIIS, GDM
 SCF converges when RMS gradient is below 1.0e-07
 ---------------------------------------
  Cycle       Energy         DIIS error
 ---------------------------------------
    1    -684.3504814406      2.80e-04  Roothaan Step
 ---------------------------------------
  Cycle       Energy         DIIS error
 ---------------------------------------
    1    -684.4047894353      3.07e-04  
    2    -684.4160083860      2.27e-04  Done DIIS. Switching to GDM
 ---------------------------------------
  Cycle       Energy        RMS Gradient
 ---------------------------------------
    1    -684.4160083860      5.30e-03   Normal BFGS step
    2    -684.4163574058      8.12e-03   Normal BFGS step
    3    -684.4199682816      9.61e-04   Normal BFGS step
    4    -684.4200043900      3.74e-04   Normal BFGS step
    5    -684.4200126563      2.21e-04   Normal BFGS step
    6    -684.4200134209      1.34e-04   Normal BFGS step
    7    -684.4200137366      1.06e-04   Normal BFGS step
    8    -684.4200138123      8.62e-05   Normal BFGS step
    9    -684.4200138493      8.56e-05   Normal BFGS step
   10    -684.4200138837      8.37e-05   Normal BFGS step
   11    -684.4200139524      7.70e-05   Normal BFGS step
   12    -684.4200140579      7.11e-05   Normal BFGS step
   13    -684.4200141471      6.32e-05   Normal BFGS step
   14    -684.4200141749      2.25e-05   Normal BFGS step
   15    -684.4200141794      1.43e-05   Normal BFGS step
   16    -684.4200141801      6.92e-06   Normal BFGS step
   17    -684.4200141803      3.74e-06   Normal BFGS step
   18    -684.4200141804      1.86e-06   Normal BFGS step
   19    -684.4200141804      4.40e-07   Normal BFGS step
   20    -684.4200141804      2.96e-07   Normal BFGS step
   21    -684.4200141804      1.21e-07   Normal BFGS step
   22    -684.4200141803      3.05e-08  Convergence criterion met
 ---------------------------------------
 SCF time:   CPU 4509.01s  wall 180.00s 
<S^2> =          0.753897201
[...]
 Force Cnst:      2.3631                 1.3079                 1.0071
 Red. Mass:       2.9137                 1.5955                 1.1542
 IR Active:          YES                    YES                    YES
 IR Intens:      145.039                140.701                236.146
 Raman Active:       YES                    YES                    YES
               X      Y      Z        X      Y      Z        X      Y      Z
 C         -0.140 -0.033 -0.015    0.042  0.047  0.011   -0.024  0.016 -0.006
 C          0.080 -0.116  0.264   -0.011 -0.003 -0.026    0.004 -0.020  0.053
 O          0.039 -0.015 -0.021   -0.008  0.002  0.002   -0.035 -0.012 -0.014
 O         -0.047  0.100 -0.162    0.002 -0.008  0.010    0.018  0.059 -0.032
 O          0.046  0.013 -0.018   -0.018  0.001  0.001    0.009  0.003 -0.007
 H         -0.246  0.204  0.073    0.051 -0.042 -0.025    0.491 -0.420 -0.206
 H         -0.070  0.212 -0.245   -0.002  0.033 -0.023    0.047 -0.463  0.441
 H         -0.121 -0.241 -0.180   -0.190  0.116  0.141   -0.132 -0.091 -0.047
 H          0.300 -0.098  0.583    0.003  0.008 -0.001   -0.093  0.251  0.067
 C          0.000 -0.017  0.003   -0.019  0.003 -0.025    0.002 -0.002 -0.000
 O         -0.002  0.011  0.000    0.013 -0.012 -0.022   -0.002  0.003  0.003
 C          0.013 -0.026  0.009    0.113 -0.075 -0.062   -0.012  0.002  0.008
 O         -0.000  0.029 -0.015   -0.007  0.002 -0.016   -0.001 -0.006 -0.002
 O          0.001 -0.003  0.016   -0.086 -0.007  0.091    0.009  0.000  0.002
 O         -0.006  0.010 -0.016   -0.017  0.015 -0.023   -0.000 -0.001  0.001
 H          0.031 -0.024  0.082    0.158 -0.016  0.411   -0.010 -0.003 -0.029
 H         -0.027  0.064  0.042   -0.097  0.277  0.198    0.007 -0.020 -0.015
 H         -0.008 -0.074  0.034   -0.027  0.221 -0.122    0.010  0.037 -0.029
 H          0.154  0.016 -0.152    0.352  0.054 -0.392    0.072 -0.000 -0.064
 H          0.043 -0.057  0.081    0.172 -0.241  0.354   -0.006  0.006 -0.011
 TransDip   0.110 -0.241  0.280    0.357  0.083 -0.099    0.219 -0.416  0.145

 Mode:                34                     35                     36
 Frequency:      1221.54                1248.41                1265.97
 Force Cnst:      1.0891                 2.7855                 2.9190
 Red. Mass:       1.2389                 3.0335                 3.0913
 IR Active:          YES                    YES                    YES
 IR Intens:      144.835                573.762                253.821
 Raman Active:       YES                    YES                    YES
               X      Y      Z        X      Y      Z        X      Y      Z
 C         -0.018 -0.021  0.002   -0.061 -0.052  0.005    0.019 -0.019 -0.040
 C         -0.001  0.008  0.009   -0.157  0.266  0.068   -0.016 -0.023  0.051
 O          0.003 -0.005 -0.003    0.124 -0.159 -0.086    0.020 -0.004 -0.003
 O          0.002  0.005 -0.001    0.007 -0.035  0.022    0.005  0.027 -0.020
 O          0.002  0.000  0.004    0.013 -0.007  0.003   -0.004  0.007  0.004
 H          0.018 -0.018 -0.007    0.069 -0.135 -0.046   -0.178  0.148  0.071
 H          0.011 -0.081  0.067   -0.010  0.180 -0.160    0.011 -0.160  0.157
 H          0.136 -0.112 -0.117    0.349  0.106 -0.038   -0.138 -0.129 -0.062
 H         -0.038  0.033 -0.031    0.012  0.478  0.425   -0.108 -0.152 -0.146
 C          0.016  0.002  0.017    0.003  0.042 -0.002   -0.125  0.278 -0.016
 O          0.004 -0.025 -0.040    0.008 -0.026 -0.012    0.102 -0.181 -0.064
 C          0.005  0.083 -0.035   -0.047  0.019  0.032    0.046  0.063 -0.040
 O          0.007 -0.012  0.042   -0.007 -0.034 -0.006    0.002 -0.036  0.030
 O         -0.007 -0.008 -0.043    0.024  0.001 -0.005   -0.025 -0.005  0.007
 O         -0.010  0.021 -0.039   -0.008 -0.004  0.005   -0.005 -0.056  0.076
 H          0.182 -0.153  0.396    0.013  0.008  0.021   -0.167  0.742 -0.025
 H         -0.136  0.345  0.243   -0.012  0.030  0.030    0.047 -0.133 -0.016
 H          0.032 -0.248  0.155   -0.007  0.357 -0.208    0.019  0.107 -0.053
 H         -0.385 -0.083  0.376    0.111 -0.016 -0.091   -0.080 -0.023  0.069
 H          0.145 -0.182  0.275    0.035 -0.069  0.086   -0.023 -0.018  0.050
 TransDip  -0.127  0.059  0.359   -0.265  0.720  0.025   -0.120  0.493 -0.053

 Mode:                37                     38                     39
 Frequency:      1273.69                1292.52                1309.38
 Force Cnst:      1.9219                 1.9933                 4.7473
 Red. Mass:       2.0108                 2.0251                 4.6997
 IR Active:          YES                    YES                    YES
 IR Intens:       72.399                 73.590                462.721
 Raman Active:       YES                    YES                    YES
               X      Y      Z        X      Y      Z        X      Y      Z
 C         -0.085 -0.029  0.049    0.095 -0.016 -0.028    0.067  0.053 -0.028
 C          0.115 -0.061 -0.114   -0.017 -0.031  0.037   -0.002 -0.022  0.012
 O         -0.091  0.074  0.041    0.010  0.010  0.006   -0.007  0.010  0.006
 O         -0.011 -0.032  0.019    0.003  0.016 -0.012    0.001  0.006 -0.002
 O          0.013 -0.009 -0.007   -0.010  0.003  0.004    0.004 -0.007 -0.014
 H          0.356 -0.260 -0.133   -0.168  0.147  0.077   -0.032  0.029  0.019
 H         -0.031  0.313 -0.290   -0.003 -0.055  0.074   -0.005  0.006  0.016
 H          0.340  0.087 -0.026   -0.209 -0.276 -0.097   -0.358  0.104  0.172
 H          0.369  0.147  0.350   -0.103 -0.243 -0.192   -0.068 -0.156 -0.149
 C         -0.001  0.076 -0.005    0.057 -0.016 -0.026    0.059  0.134  0.079
 O          0.019 -0.045 -0.015   -0.028  0.019  0.017    0.023 -0.075 -0.058
 C         -0.095  0.054 -0.008   -0.157  0.157 -0.029   -0.228 -0.275  0.300
 O          0.007 -0.040  0.023    0.006 -0.110  0.046   -0.010  0.087 -0.113
 O          0.043 -0.000 -0.008    0.047  0.001  0.002    0.131  0.035 -0.091
 O         -0.009 -0.008  0.010   -0.009  0.007 -0.002   -0.033  0.007 -0.048
 H          0.040  0.109  0.103    0.128 -0.276  0.090    0.109 -0.061  0.163
 H          0.007 -0.023  0.002    0.027 -0.063 -0.053   -0.133  0.349  0.266
 H         -0.003  0.181 -0.090   -0.002  0.549 -0.297   -0.016  0.198 -0.158
 H          0.132  0.025 -0.107    0.210  0.039 -0.178   -0.095  0.029  0.153
 H          0.046 -0.084  0.118    0.072 -0.112  0.149    0.117 -0.199  0.246
 TransDip   0.060  0.099 -0.247   -0.091  0.241 -0.096   -0.318 -0.024  0.611

 Mode:                40                     41                     42
 Frequency:      1372.74                1394.83                1425.77
 Force Cnst:      1.7715                 1.5750                 1.4575
 Red. Mass:       1.5956                 1.3740                 1.2169
 IR Active:          YES                    YES                    YES
 IR Intens:      148.594                 38.905                  8.243
 Raman Active:       YES                    YES                    YES
               X      Y      Z        X      Y      Z        X      Y      Z
 C          0.003  0.006  0.003    0.024  0.003  0.004   -0.010  0.002 -0.006
 C         -0.003  0.006  0.005    0.005  0.009  0.019    0.071 -0.068  0.040
 O          0.007 -0.006 -0.005    0.011 -0.006 -0.008    0.017  0.012 -0.015
 O         -0.003 -0.004  0.003   -0.008 -0.010  0.006   -0.030 -0.021  0.019
 O          0.000 -0.001 -0.000   -0.002 -0.002 -0.000    0.001  0.001 -0.000
 H         -0.011  0.006  0.004   -0.012  0.006  0.009   -0.062  0.058  0.041
 H          0.003 -0.005 -0.010   -0.004  0.038 -0.054   -0.021  0.164 -0.185
 H          0.002  0.003  0.001   -0.011 -0.053 -0.023   -0.025 -0.035 -0.023
 H         -0.063  0.084 -0.037   -0.155  0.156 -0.121   -0.473  0.723 -0.291
 C          0.079  0.031 -0.168   -0.033 -0.092 -0.035   -0.000  0.051  0.029
 O         -0.018  0.036  0.061    0.019  0.015 -0.005   -0.003 -0.014 -0.003
 C         -0.028 -0.032  0.003   -0.126 -0.006 -0.022    0.004 -0.006 -0.022
 O          0.010  0.030  0.006    0.016  0.017  0.013    0.001 -0.001  0.004
 O          0.003  0.000 -0.007    0.033  0.005  0.006   -0.001 -0.000  0.006
 O         -0.063 -0.013  0.036    0.026  0.003  0.004    0.002 -0.002 -0.003
 H          0.102  0.175 -0.107    0.121  0.586  0.543   -0.020 -0.253 -0.099
 H          0.139 -0.390 -0.268   -0.013  0.036  0.019    0.002 -0.001  0.004
 H          0.017 -0.293  0.172    0.007 -0.265  0.163   -0.006  0.004  0.000
 H         -0.028 -0.013  0.028    0.193  0.032 -0.172    0.043 -0.011 -0.037
 H          0.212 -0.381  0.579   -0.085  0.159 -0.212   -0.002  0.001 -0.016
 TransDip   0.083 -0.381 -0.020   -0.122 -0.145 -0.064    0.089  0.000 -0.024

 Mode:                43                     44                     45
 Frequency:      1448.54                1473.08                1494.63
 Force Cnst:      1.7574                 2.0797                 2.8782
 Red. Mass:       1.4216                 1.6267                 2.1868
 IR Active:          YES                    YES                    YES
 IR Intens:       74.757                 45.309                  2.501
 Raman Active:       YES                    YES                    YES
               X      Y      Z        X      Y      Z        X      Y      Z
 C         -0.004 -0.001 -0.005    0.017  0.013  0.031   -0.035 -0.006 -0.021
 C          0.033 -0.007  0.020   -0.106 -0.140 -0.124    0.046 -0.031  0.015
 O         -0.008  0.004 -0.001    0.050  0.024  0.005   -0.010  0.009  0.000
 O         -0.009 -0.007  0.003    0.027  0.034  0.003   -0.009 -0.002  0.003
 O          0.000 -0.000 -0.000    0.002  0.001 -0.003    0.007  0.001 -0.004
 H          0.036 -0.030 -0.012   -0.345  0.317  0.153    0.030 -0.022 -0.011
 H         -0.013  0.078 -0.072    0.044 -0.268  0.265   -0.014  0.078 -0.061
 H         -0.013 -0.022 -0.015    0.021  0.069  0.074   -0.035  0.057  0.024
 H         -0.090  0.064 -0.118    0.097  0.489  0.528   -0.077  0.116 -0.082
 C          0.068 -0.130  0.072    0.008 -0.027  0.001   -0.072 -0.061 -0.165
 O          0.007  0.017 -0.026    0.001  0.003 -0.004   -0.003  0.029  0.031
 C          0.033  0.037  0.023   -0.010  0.013  0.022    0.131  0.044  0.188
 O         -0.010 -0.021 -0.009   -0.001 -0.008 -0.003   -0.025 -0.023 -0.039
 O         -0.008 -0.003 -0.008    0.007 -0.001 -0.008   -0.021 -0.007 -0.040
 O         -0.044  0.018 -0.022   -0.004  0.003 -0.003    0.024 -0.009  0.029
 H         -0.200  0.669 -0.430   -0.003  0.116  0.003    0.158  0.082  0.484
 H         -0.098  0.214  0.135   -0.012  0.031  0.019    0.066 -0.139 -0.105
 H         -0.013  0.231 -0.140    0.001  0.054 -0.030   -0.016  0.491 -0.309
 H         -0.087 -0.018  0.082   -0.014 -0.018  0.021   -0.317 -0.065  0.294
 H          0.085 -0.140  0.252    0.007 -0.009  0.022   -0.051  0.085 -0.123
 TransDip   0.117 -0.056  0.245   -0.130 -0.167  0.041   -0.025  0.008 -0.043

 Mode:                46                     47                     48
 Frequency:      2933.29                3102.54                3108.47
 Force Cnst:      5.4518                 6.1690                 6.1915
 Red. Mass:       1.0754                 1.0878                 1.0876
 IR Active:          YES                    YES                    YES
 IR Intens:       41.251                 33.953                 30.395
 Raman Active:       YES                    YES                    YES
               X      Y      Z        X      Y      Z        X      Y      Z
 C         -0.029  0.042 -0.059    0.000 -0.001  0.001   -0.001 -0.001 -0.001
 C         -0.001  0.002  0.000   -0.067 -0.026  0.046    0.004  0.002 -0.002
 O          0.000 -0.000  0.000    0.001  0.000  0.000   -0.000 -0.000 -0.000
 O          0.000 -0.000  0.000    0.001  0.000  0.000   -0.000 -0.000 -0.000
 O          0.005  0.002 -0.004    0.001  0.000  0.000    0.000  0.000  0.000
 H          0.001 -0.001  0.000   -0.008 -0.000 -0.003    0.000 -0.000 -0.000
 H         -0.000 -0.001 -0.001   -0.002 -0.007 -0.000   -0.000  0.000 -0.000
 H          0.258 -0.551  0.790   -0.005  0.009 -0.013    0.001 -0.001  0.004
 H          0.014  0.003 -0.010    0.772  0.305 -0.548   -0.041 -0.016  0.029
 C         -0.000  0.000 -0.000   -0.004 -0.001  0.002   -0.079 -0.009  0.030
 O          0.000  0.000  0.000    0.000 -0.000 -0.000    0.000  0.001 -0.000
 C          0.000  0.001 -0.001   -0.001  0.000  0.000   -0.000  0.000  0.001
 O          0.000 -0.000  0.000    0.000 -0.000  0.000   -0.000 -0.000 -0.000
 O          0.000 -0.000  0.000    0.000  0.001  0.000    0.001  0.000 -0.000
 O          0.000 -0.000 -0.000    0.000 -0.000 -0.000    0.002 -0.000 -0.000
 H         -0.003  0.000  0.002    0.049  0.005 -0.019    0.924  0.086 -0.358
 H         -0.000 -0.000 -0.000   -0.000  0.000  0.000   -0.001  0.005  0.000
 H          0.001 -0.002  0.000   -0.001  0.000 -0.001    0.000  0.001 -0.000
 H          0.001 -0.001 -0.000    0.001 -0.002 -0.002    0.001  0.000 -0.000
 H         -0.000  0.000  0.000   -0.001  0.000 -0.000   -0.019  0.002 -0.002
 TransDip  -0.118 -0.063  0.156   -0.125 -0.043  0.131   -0.155  0.009  0.084

 Mode:                49                     50                     51
 Frequency:      3693.61                3776.27                3799.97
 Force Cnst:      8.5743                 8.9530                 9.0673
 Red. Mass:       1.0667                 1.0656                 1.0658
 IR Active:          YES                    YES                    YES
 IR Intens:      364.183                132.728                135.687
 Raman Active:       YES                    YES                    YES
               X      Y      Z        X      Y      Z        X      Y      Z
 C         -0.000 -0.000  0.000   -0.000 -0.000 -0.000   -0.000  0.000 -0.000
 C          0.001 -0.000  0.001    0.000  0.000  0.000    0.000 -0.000 -0.000
 O         -0.000 -0.000 -0.000    0.000  0.000  0.000    0.000  0.000  0.000
 O         -0.002 -0.000 -0.001    0.000  0.000  0.000    0.000  0.000  0.000
 O         -0.000  0.000  0.000   -0.000  0.000  0.000   -0.000 -0.000 -0.000
 H          0.004  0.004  0.001   -0.001 -0.001 -0.000   -0.002 -0.002 -0.001
 H          0.020  0.013  0.007   -0.001 -0.000 -0.000   -0.004 -0.002 -0.002
 H          0.000 -0.001 -0.000   -0.000  0.000  0.001   -0.000  0.000  0.000
 H          0.000  0.001 -0.002   -0.000 -0.000  0.000   -0.000  0.000  0.000
 C          0.000 -0.000  0.000   -0.002 -0.001  0.001    0.000  0.000 -0.002
 O         -0.000  0.000 -0.000   -0.000  0.001 -0.001   -0.011  0.035 -0.050
 C         -0.000  0.000 -0.001    0.000  0.000 -0.000    0.000 -0.000  0.000
 O         -0.025 -0.027 -0.051   -0.000 -0.000 -0.000    0.000  0.000  0.000
 O          0.000 -0.000  0.001   -0.000 -0.000 -0.000    0.003  0.001  0.003
 O          0.000  0.000  0.000   -0.057 -0.013  0.020    0.000 -0.000  0.000
 H         -0.000 -0.000  0.000    0.014  0.003 -0.007    0.003 -0.003 -0.001
 H          0.001 -0.006  0.006    0.001 -0.003  0.006    0.178 -0.549  0.811
 H          0.398  0.425  0.810    0.002  0.003  0.004   -0.004 -0.003 -0.008
 H         -0.005 -0.000 -0.007    0.002  0.001  0.003   -0.054 -0.013 -0.050
 H         -0.005 -0.001  0.001    0.922  0.210 -0.319   -0.006 -0.001  0.002
 TransDip   0.218  0.280  0.498    0.316  0.119 -0.148    0.060 -0.264  0.257

 Mode:                52                     53                     54
 Frequency:      3803.97                3819.05                3825.82
 Force Cnst:      9.0974                 9.1686                 9.2016
 Red. Mass:       1.0671                 1.0670                 1.0670
 IR Active:          YES                    YES                    YES
 IR Intens:      169.636                153.119                172.696
 Raman Active:       YES                    YES                    YES
               X      Y      Z        X      Y      Z        X      Y      Z
 C          0.000 -0.000 -0.000    0.000  0.000  0.000    0.000  0.001  0.000
 C          0.000  0.000  0.000   -0.001 -0.001  0.000   -0.002 -0.001  0.000
 O          0.000  0.000  0.000    0.002  0.002  0.001   -0.040 -0.045 -0.017
 O         -0.000 -0.000 -0.000   -0.053 -0.023 -0.024   -0.003 -0.001 -0.001
 O          0.000  0.000 -0.000    0.000 -0.000  0.000    0.000  0.000 -0.000
 H         -0.006 -0.007 -0.003   -0.034 -0.036 -0.014    0.645  0.710  0.270
 H          0.001  0.000  0.000    0.847  0.378  0.364    0.044  0.019  0.019
 H         -0.000  0.001  0.001    0.000 -0.001  0.001   -0.000 -0.000 -0.000
 H          0.001 -0.001 -0.001    0.006 -0.000  0.001    0.004  0.006 -0.001
 C          0.000  0.000 -0.000   -0.000 -0.000 -0.000   -0.000 -0.000 -0.000
 O         -0.001  0.003 -0.004   -0.000  0.000 -0.000   -0.000  0.000 -0.000
 C         -0.000 -0.000 -0.001    0.000 -0.000 -0.000    0.000 -0.000 -0.000
 O          0.000  0.000 -0.001    0.001  0.001  0.001    0.000  0.000  0.000
 O         -0.045 -0.011 -0.042    0.000  0.000  0.000   -0.000 -0.000 -0.000
 O          0.000  0.000  0.000   -0.000 -0.000  0.000   -0.000 -0.000  0.000
 H          0.001  0.000  0.001    0.000 -0.000 -0.000    0.000  0.000 -0.000
 H          0.013 -0.042  0.061    0.001 -0.002  0.003    0.001 -0.002  0.003
 H          0.003  0.002  0.007   -0.010 -0.012 -0.019   -0.003 -0.004 -0.005
 H          0.712  0.176  0.673   -0.001 -0.001 -0.001    0.007  0.001  0.006
 H         -0.004 -0.001  0.001    0.001  0.000 -0.000    0.001  0.000 -0.000
 TransDip   0.364  0.039  0.201    0.342  0.077  0.186    0.200  0.346  0.132

 STANDARD THERMODYNAMIC QUANTITIES AT   298.15 K  AND     1.00 ATM

   This Molecule has  0 Imaginary Frequencies
   Zero point vibrational energy:       95.525 kcal/mol

   Atom    1 Element C  Has Mass   12.00000
   Atom    2 Element C  Has Mass   12.00000
   Atom    3 Element O  Has Mass   15.99491
   Atom    4 Element O  Has Mass   15.99491
   Atom    5 Element O  Has Mass   15.99491
   Atom    6 Element H  Has Mass    1.00783
   Atom    7 Element H  Has Mass    1.00783
   Atom    8 Element H  Has Mass    1.00783
   Atom    9 Element H  Has Mass    1.00783
   Atom   10 Element C  Has Mass   12.00000
   Atom   11 Element O  Has Mass   15.99491
   Atom   12 Element C  Has Mass   12.00000
   Atom   13 Element O  Has Mass   15.99491
   Atom   14 Element O  Has Mass   15.99491
   Atom   15 Element O  Has Mass   15.99491
   Atom   16 Element H  Has Mass    1.00783
   Atom   17 Element H  Has Mass    1.00783
   Atom   18 Element H  Has Mass    1.00783
   Atom   19 Element H  Has Mass    1.00783
   Atom   20 Element H  Has Mass    1.00783
   Molecular Mass:   169.034840 amu
   Principal axes and moments of inertia in amu*Bohr^2:
                             1           2           3
    Eigenvalues --      900.55642  2458.35461  2652.80508
          X               0.09836     0.68072     0.72591
          Y               0.69891    -0.56652     0.43654
          Z               0.70841     0.46441    -0.53149
   Rotational Symmetry Number is   1
   The Molecule is an Asymmetric Top
   Translational Enthalpy:        0.889 kcal/mol
   Rotational Enthalpy:           0.889 kcal/mol
   Vibrational Enthalpy:        101.736 kcal/mol
   gas constant (RT):             0.592 kcal/mol
   Translational Entropy:        41.283  cal/mol.K
   Rotational Entropy:           30.152  cal/mol.K
   Vibrational Entropy:          37.986  cal/mol.K

   Total Enthalpy:              104.106 kcal/mol
   Total Entropy:               109.421  cal/mol.K
 Total job time:  24957.35s(wall), 608727.23s(cpu) 
 Fri Dec  1 15:35:27 2023

        *************************************************************
        *                                                           *
        *  Thank you very much for using Q-Chem.  Have a nice day.  *
        *                                                           *
        *************************************************************


