
Running Job 1 of 1 Q_in.in
qchem Q_in.in_132700.0 /scratch/ari.fischer/qChem1851072.hpc-mn1/qchem132700/ 0
/usr/local/qchem-5.4.1/exe/qcprog.exe_s Q_in.in_132700.0 /scratch/ari.fischer/qChem1851072.hpc-mn1/qchem132700/
                  Welcome to Q-Chem
     A Quantum Leap Into The Future Of Chemistry


 Q-Chem 5.4, Q-Chem, Inc., Pleasanton, CA (2021)

 License issued to: Nanyang Technological University (site)

 E. Epifanovsky,  A. T. B. Gilbert,  Xintian Feng,  Joonho Lee,  Yuezhi Mao,  
 N. Mardirossian,  P. Pokhilko,  A. White,  M. Wormit,  M. P. Coons,  
 A. L. Dempwolff,  Zhengting Gan,  D. Hait,  P. R. Horn,  L. D. Jacobson,  
 I. Kaliman,  J. Kussmann,  A. W. Lange,  Ka Un Lao,  D. S. Levine,  Jie Liu,  
 S. C. McKenzie,  A. F. Morrison,  K. Nanda,  F. Plasser,  D. R. Rehn,  
 M. L. Vidal,  Zhi-Qiang You,  Ying Zhu,  B. Alam,  B. Albrecht,  
 A. Aldossary,  E. Alguire,  J. H. Andersen,  D. Barton,  K. Begam,  A. Behn,  
 Y. A. Bernard,  E. J. Berquist,  H. Burton,  A. Carreras,  K. Carter-Fenk,  
 R. Chakraborty,  A. D. Chien,  K. D. Closser,  V. Cofer-Shabica,  
 S. Dasgupta,  Jia Deng,  M. de Wergifosse,  M. Diedenhofen,  Hainam Do,  
 S. Ehlert,  Po-Tung Fang,  S. Fatehi,  Qingguo Feng,  T. Friedhoff,  
 J. Gayvert,  Qinghui Ge,  G. Gidofalvi,  M. Goldey,  J. Gomes,  
 C. Gonzalez-Espinoza,  S. Gulania,  A. Gunina,  M. W. D. Hanson-Heine,  
 P. H. P. Harbach,  A. W. Hauser,  M. F. Herbst,  M. Hernandez Vera,  
 M. Hodecker,  Z. C. Holden,  S. Houck,  Xunkun Huang,  Kerwin Hui,  
 B. C. Huynh,  M. Ivanov,  Hyunjun Ji,  Hanjie Jiang,  B. Kaduk,  S. Kaehler,  
 K. Khistyaev,  Jaehoon Kim,  P. Klunzinger,  Z. Koczor-Benda,  
 Joong Hoon Koh,  D. Kosenkov,  L. Koulias,  T. Kowalczyk,  C. M. Krauter,  
 K. Kue,  A. Kunitsa,  T. Kus,  A. Landau,  K. V. Lawler,  D. Lefrancois,  
 S. Lehtola,  Rain Li,  Yi-Pei Li,  Jiashu Liang,  M. Liebenthal,  
 Hung-Hsuan Lin,  You-Sheng Lin,  Fenglai Liu,  Kuan-Yu Liu,  
 M. Loipersberger,  A. Luenser,  A. Manjanath,  P. Manohar,  E. Mansoor,  
 S. F. Manzer,  Shan-Ping Mao,  A. V. Marenich,  T. Markovich,  S. Mason,  
 S. A. Maurer,  P. F. McLaughlin,  M. F. S. J. Menger,  J.-M. Mewes,  
 S. A. Mewes,  P. Morgante,  J. W. Mullinax,  K. J. Oosterbaan,  G. Paran,  
 Alexander C. Paul,  Suranjan K. Paul,  F. Pavosevic,  Zheng Pei,  S. Prager,  
 E. I. Proynov,  E. Ramos,  B. Rana,  A. E. Rask,  A. Rettig,  R. M. Richard,  
 F. Rob,  E. Rossomme,  T. Scheele,  M. Scheurer,  M. Schneider,  
 N. Sergueev,  S. M. Sharada,  W. Skomorowski,  D. W. Small,  C. J. Stein,  
 Yu-Chuan Su,  E. J. Sundstrom,  Zhen Tao,  J. Thirman,  T. Tsuchimochi,  
 N. M. Tubman,  S. P. Veccham,  O. Vydrov,  J. Wenzel,  J. Witte,  A. Yamada,  
 Kun Yao,  S. Yeganeh,  S. R. Yost,  A. Zech,  Igor Ying Zhang,  Xing Zhang,  
 Yu Zhang,  D. Zuev,  A. Aspuru-Guzik,  A. T. Bell,  N. A. Besley,  
 K. B. Bravaya,  B. R. Brooks,  D. Casanova,  Jeng-Da Chai,  S. Coriani,  
 C. J. Cramer,  A. E. DePrince, III,  R. A. DiStasio Jr.,  A. Dreuw,  
 B. D. Dunietz,  T. R. Furlani,  W. A. Goddard III,  S. Grimme,  
 S. Hammes-Schiffer,  T. Head-Gordon,  W. J. Hehre,  Chao-Ping Hsu,  
 T.-C. Jagau,  Yousung Jung,  A. Klamt,  Jing Kong,  D. S. Lambrecht,  
 WanZhen Liang,  N. J. Mayhall,  C. W. McCurdy,  J. B. Neaton,  
 C. Ochsenfeld,  J. A. Parkhill,  R. Peverati,  V. A. Rassolov,  Yihan Shao,  
 L. V. Slipchenko,  T. Stauch,  R. P. Steele,  J. E. Subotnik,  
 A. J. W. Thom,  A. Tkatchenko,  D. G. Truhlar,  T. Van Voorhis,  
 T. A. Wesolowski,  K. B. Whaley,  H. L. Woodcock III,  P. M. Zimmerman,  
 S. Faraji,  P. M. W. Gill,  M. Head-Gordon,  J. M. Herbert,  A. I. Krylov

 Additional authors for Version 5.4.1: 
 S. Kotaru,  Shaozhi Li,  Xiangyuan Li,  F. Matz,  A. Molle,  Haisheng Ren,  
 Yingli Su,  Hung-Yi Tsai,  C. Utku,  Fang Wang

 Contributors to earlier versions of Q-Chem not listed above: 
 R. D. Adamson,  B. Austin,  R. Baer,  J. Baker,  G. J. O. Beran,  
 K. Brandhorst,  S. T. Brown,  E. F. C. Byrd,  A. K. Chakraborty,  
 G. K. L. Chan,  Chun-Min Chang,  Yunqing Chen,  C.-L. Cheng,  
 Siu Hung Chien,  D. M. Chipman,  D. L. Crittenden,  H. Dachsel,  
 R. J. Doerksen,  A. D. Dutoi,  R. G. Edgar,  J. Fosso-Tande,  
 L. Fusti-Molnar,  D. Ghosh,  A. Ghysels,  A. Golubeva-Zadorozhnaya,  
 J. Gonthier,  M. S. Gordon,  S. R. Gwaltney,  G. Hawkins,  J. E. Herr,  
 A. Heyden,  S. Hirata,  E. G. Hohenstein,  G. Kedziora,  F. J. Keil,  
 C. Kelley,  Jihan Kim,  R. A. King,  R. Z. Khaliullin,  P. P. Korambath,  
 W. Kurlancheek,  A. Laurent,  A. M. Lee,  M. S. Lee,  S. V. Levchenko,  
 Ching Yeh Lin,  D. Liotard,  E. Livshits,  R. C. Lochan,  I. Lotan,  
 L. A. Martinez-Martinez,  P. E. Maslen,  N. Nair,  D. P. O'Neill,  
 D. Neuhauser,  E. Neuscamman,  C. M. Oana,  R. Olivares-Amaya,  R. Olson,  
 T. M. Perrine,  B. Peters,  P. A. Pieniazek,  A. Prociuk,  Y. M. Rhee,  
 J. Ritchie,  M. A. Rohrdanz,  E. Rosta,  N. J. Russ,  H. F. Schaefer III,  
 M. W. Schmidt,  N. E. Schultz,  S. Sharma,  N. Shenvi,  C. D. Sherrill,  
 A. C. Simmonett,  A. Sodt,  T. Stein,  D. Stuck,  K. S. Thanthiriwatte,  
 V. Vanovschi,  L. Vogt,  Tao Wang,  A. Warshel,  M. A. Watson,  
 C. F. Williams,  Q. Wu,  X. Xu,  Jun Yang,  W. Zhang,  Yan Zhao

 Please cite Q-Chem as follows:
 Y. Shao et al., Mol. Phys. 113, 184-215 (2015)
 DOI: 10.1080/00268976.2014.952696

 Q-Chem 5.4.1 for Intel X86 EM64T Linux

 Parts of Q-Chem use Armadillo 9.800.1 (Horizon Scraper).
 http://arma.sourceforge.net/

 Q-Chem begins on Thu Nov 30 08:08:27 2023  

 Host: 
0

     Scratch files written to /scratch/ari.fischer/qChem1851072.hpc-mn1/qchem132700//
 Aug1521 |scratch|qcdevops|jenkins|workspace|build_RNUM 8249   
 Processing $rem in /usr/local/qchem-5.4.1/config/preferences:
 Processing $rem in /home/ari.fischer/.qchemrc:
 Symmetry turned off for PCM/SM12/SMD calculation

 Checking the input file for inconsistencies... 	...done.

--------------------------------------------------------------
User input:
--------------------------------------------------------------
$molecule
0 2
C         1.4319825671    1.1855372157   -0.8222876810
C         0.4687705547    0.3656380379   -1.6831107597
O         1.1697660882   -0.7654449865   -2.1315611524
O         0.0835356362    1.2067412825   -2.7633169707
O         2.6117443264    1.4564480058   -1.4806384244
H         0.5135508060   -1.3924635228   -2.4777694798
H        -0.7597113212    0.8800833647   -3.1187434871
H         1.7300574209    0.5653470463    0.0462584360
H        -0.4131752521    0.0754489746   -1.1052248102
C         1.7242755419    3.1517627261    0.7689772665
O         1.2234469173    4.4322657760    1.0922866793
C         0.7969715422    2.4771144980   -0.2533711344
O         0.5601330066    3.4146605039   -1.2670157328
O        -0.3927916911    2.1321520910    0.4341920568
O         1.7978271166    2.3887496004    1.9407450389
H         2.7409026673    3.2128335377    0.3672717507
H         0.8702257789    4.8118423456    0.2678120990
H         0.2049582578    2.9133568709   -2.0337794481
H        -1.1356558848    2.3494878896   -0.1540977183
H         0.8748860210    2.2390300426    2.2191128716
$end

$rem
BASIS = 6-311++G(2df,2p)
GUI = 2
JOB_TYPE = Optimization
METHOD = wB97M-V
SCF_ALGORITHM = DIIS_GDM
MAX_SCF_CYCLES = 400
GEOM_OPT_MAX_CYCLES = 150
SCF_CONVERGENCE = 7
THRESH = 12
Solvent_method = SMD
$end
--------------------------------------------------------------
 ----------------------------------------------------------------
             Standard Nuclear Orientation (Angstroms)
    I     Atom           X                Y                Z
 ----------------------------------------------------------------
    1      C       1.4319825671     1.1855372157    -0.8222876810
    2      C       0.4687705547     0.3656380379    -1.6831107597
    3      O       1.1697660882    -0.7654449865    -2.1315611524
    4      O       0.0835356362     1.2067412825    -2.7633169707
    5      O       2.6117443264     1.4564480058    -1.4806384244
    6      H       0.5135508060    -1.3924635228    -2.4777694798
    7      H      -0.7597113212     0.8800833647    -3.1187434871
    8      H       1.7300574209     0.5653470463     0.0462584360
    9      H      -0.4131752521     0.0754489746    -1.1052248102
   10      C       1.7242755419     3.1517627261     0.7689772665
   11      O       1.2234469173     4.4322657760     1.0922866793
   12      C       0.7969715422     2.4771144980    -0.2533711344
   13      O       0.5601330066     3.4146605039    -1.2670157328
   14      O      -0.3927916911     2.1321520910     0.4341920568
   15      O       1.7978271166     2.3887496004     1.9407450389
   16      H       2.7409026673     3.2128335377     0.3672717507
   17      H       0.8702257789     4.8118423456     0.2678120990
   18      H       0.2049582578     2.9133568709    -2.0337794481
   19      H      -1.1356558848     2.3494878896    -0.1540977183
   20      H       0.8748860210     2.2390300426     2.2191128716
 ----------------------------------------------------------------
 Nuclear Repulsion Energy =         737.48631041 hartrees
 There are       45 alpha and       44 beta electrons
 Requested basis set is 6-311++G(2df,2p)
 There are 142 shells and 464 basis functions

 Total QAlloc Memory Limit 288000 MB
 Mega-Array Size       188 MB
 MEM_STATIC part       192 MB
 
 Citation of the SMD model:
 Marenich, A.V.; Cramer, C.J.; Truhlar, D.G.
 J. Phys. Chem. B 2009, 113, 6378-6396.
 iSolventCode=           1
 Solvent: water                                                           
 
 vradii
            1           2           3           4           5           6
    1   1.8500000   1.8500000   1.5200000   1.5200000   1.5200000   1.2000000
            7           8           9          10          11          12
    1   1.2000000   1.2000000   1.2000000   1.8500000   1.5200000   1.8500000
           13          14          15          16          17          18
    1   1.5200000   1.5200000   1.5200000   1.2000000   1.2000000   1.2000000
           19          20
    1   1.2000000   1.2000000
 Changing PCM_VDW_RADII to SMD_RADIUS
 Discretize the solute cavity surface with Lebedev spheres
	Using 110 Lebedev grid points for each H atom
	Using 194 Lebedev grid points for other atoms
	Atomic van der Waals radii will be scaled by 1.20
 Remove points where switching function is < 1.0e-08
 Keep 1527 surface tesserae and discard 1597 interior tesserae
 Molecular Surface Area = 167.152 Angst**2
 A cutoff of  1.0D-12 yielded   8898 shell pairs
 There are     94284 function pairs (    117184 Cartesian)
 Smallest overlap matrix eigenvalue = 6.44E-06

 Scale SEOQF with 1.000000e-01/1.000000e-01/1.000000e-01

 Standard Electronic Orientation quadrupole field applied
 Nucleus-field energy     =     0.0000000196 hartrees
 Guess from superposition of atomic densities
 Warning:  Energy on first SCF cycle will be non-variational
 SAD guess density has 89.000000 electrons

 -----------------------------------------------------------------------
  General SCF calculation program by
  Eric Jon Sundstrom, Paul Horn, Yuezhi Mao, Dmitri Zuev, Alec White,
  David Stuck, Shaama M.S., Shane Yost, Joonho Lee, David Small,
  Daniel Levine, Susi Lehtola, Hugh Burton, Evgeny Epifanovsky,
  Bang C. Huynh
 -----------------------------------------------------------------------
 Exchange:     0.1500 Hartree-Fock + 1.0000 wB97M-V + LR-HF
 Correlation:  1.0000 wB97M-V
 Using SG-2 standard quadrature grid
 Nonlocal Correlation:  VV10 with C = 0.0100 and b = 6.00 and scale = 1.00000
 Grid used for NLC:  SG-1 standard quadrature
 
 Citation of the SMD model:
 Marenich, A.V.; Cramer, C.J.; Truhlar, D.G.
 J. Phys. Chem. B 2009, 113, 6378-6396.
 iSolventCode=           1
 Solvent: water                                                           
 
 vradii
            1           2           3           4           5           6
    1   1.8500000   1.8500000   1.5200000   1.5200000   1.5200000   1.2000000
            7           8           9          10          11          12
    1   1.2000000   1.2000000   1.2000000   1.8500000   1.5200000   1.8500000
           13          14          15          16          17          18
    1   1.5200000   1.5200000   1.5200000   1.2000000   1.2000000   1.2000000
           19          20
    1   1.2000000   1.2000000
 using 8 threads for integral computing
 -------------------------------------------------------
 OpenMP Integral computing Module                
 Release: version 1.0, May 2013, Q-Chem Inc. Pittsburgh 
 -------------------------------------------------------
 -------------------------------------------------------
 OpenMP BLAS3 based DFT computing Module                
 Release: version 1.0, May 2013, Q-Chem Inc. Pittsburgh 
 -------------------------------------------------------
 A unrestricted SCF calculation will be
 performed using DIIS, GDM
 SCF converges when RMS gradient is below 1.0e-07
 ---------------------------------------
  Cycle       Energy         DIIS error
 ---------------------------------------
    1    -686.5630605538      1.16e-02  
    2    -684.0668199431      1.89e-03  Done DIIS. Switching to GDM
 ---------------------------------------
  Cycle       Energy        RMS Gradient
 ---------------------------------------
    1    -684.0668199431      4.57e-01   Descent step
    2    -684.3297533018      7.63e-02   Descent step
    3    -684.3826146021      6.07e-02   Normal BFGS step
    4    -684.4032365107      3.15e-02   Normal BFGS step
    5    -684.4097575096      2.82e-02   Normal BFGS step
    6    -684.4117396785      5.22e-03   Normal BFGS step
    7    -684.4121659619      4.20e-03   Normal BFGS step
    8    -684.4122432607      4.76e-03   Normal BFGS step
    9    -684.4123043790      5.03e-03   Normal BFGS step
   10    -684.4124747648      6.51e-03   Normal BFGS step
   11    -684.4128206928      9.08e-03   Dog-leg BFGS step
   12    -684.4137374363      1.19e-02   Normal BFGS step
   13    -684.4149099182      1.19e-02   Dog-leg BFGS step
   14    -684.4178888861      4.26e-03   Normal BFGS step
   15    -684.4183019858      2.13e-03   Normal BFGS step
   16    -684.4182324820      2.46e-03  Line search: overstep
   17    -684.4184045633      1.47e-03   Normal BFGS step
   18    -684.4183981203      2.24e-03  Line search: overstep
   19    -684.4184998204      1.06e-03   Normal BFGS step
   20    -684.4185343178      1.44e-03   Normal BFGS step
   21    -684.4185405553      4.42e-04   Normal BFGS step
   22    -684.4185415590      1.19e-04   Normal BFGS step
   23    -684.4185417407      5.16e-05   Normal BFGS step
   24    -684.4185417705      2.25e-05   Normal BFGS step
   25    -684.4185417801      1.26e-05   Normal BFGS step
   26    -684.4185417811      4.37e-06   Normal BFGS step
   27    -684.4185417813      1.87e-06   Normal BFGS step
   28    -684.4185417814      5.90e-07   Normal BFGS step
   29    -684.4185417813      2.50e-07   Normal BFGS step
   30    -684.4185417814      9.34e-08  Convergence criterion met
 ---------------------------------------
 SCF time:   CPU 5050.52s  wall 647.00s 
<S^2> =          0.753890049
(3)  G-ENP(liq) elect-nuc-pol free energy of system     -684.418541781 a.u.
(4)  G-CDS(liq) cavity-dispersion-solvent structure 
     free energy                                                3.8813 kcal/mol
(6)  G-S(liq) free energy of system                     -684.412356533 a.u.
 SCF   energy in the final basis set =     -684.4123565326
 Total energy in the final basis set =     -684.4123565326
 
 --------------------------------------------------------------
 
                    Orbital Energies (a.u.)
 --------------------------------------------------------------
 
 Alpha MOs
 -- Occupied --
-19.4002 -19.3579 -19.3555 -19.3534 -19.3515 -19.3511 -19.3454 -10.4676
-10.4557 -10.4485 -10.4134  -1.2341  -1.2110  -1.1912  -1.1712  -1.1487
 -1.1418  -1.1312  -0.8898  -0.8426  -0.7596  -0.7271  -0.6792  -0.6725
 -0.6641  -0.6461  -0.6297  -0.6070  -0.5875  -0.5772  -0.5618  -0.5482
 -0.5175  -0.5133  -0.4955  -0.4886  -0.4798  -0.4615  -0.4448  -0.4300
 -0.4276  -0.4203  -0.4162  -0.4065  -0.3749
 -- Virtual --
  0.0224   0.0368   0.0423   0.0447   0.0622   0.0653   0.0687   0.0795
  0.0850   0.1013   0.1149   0.1169   0.1295   0.1356   0.1406   0.1453
  0.1524   0.1612   0.1636   0.1692   0.1743   0.1784   0.1864   0.1922
  0.2170   0.2185   0.2253   0.2348   0.2420   0.2546   0.2566   0.2636
  0.2738   0.2789   0.2822   0.2869   0.2913   0.2977   0.3027   0.3121
  0.3172   0.3225   0.3282   0.3310   0.3341   0.3458   0.3500   0.3549
  0.3569   0.3608   0.3708   0.3710   0.3792   0.3856   0.3891   0.3927
  0.3945   0.4048   0.4160   0.4190   0.4232   0.4313   0.4403   0.4441
  0.4574   0.4589   0.4635   0.4731   0.4810   0.4966   0.5053   0.5221
  0.5751   0.5910   0.6019   0.6059   0.6227   0.6305   0.6408   0.6486
  0.6569   0.6650   0.6770   0.6869   0.7092   0.7139   0.7180   0.7377
  0.7434   0.7626   0.7663   0.7803   0.7883   0.7908   0.8126   0.8383
  0.8623   0.8722   0.9001   0.9045   0.9106   0.9409   0.9514   0.9776
  0.9915   1.0177   1.0329   1.0363   1.0636   1.0793   1.0845   1.1030
  1.1081   1.1330   1.1373   1.1509   1.1584   1.1655   1.1751   1.1783
  1.1817   1.1859   1.1994   1.2098   1.2197   1.2250   1.2276   1.2534
  1.2562   1.2620   1.2708   1.2778   1.2844   1.2933   1.3067   1.3252
  1.3271   1.3487   1.3716   1.3854   1.3878   1.4005   1.4064   1.4225
  1.4465   1.4588   1.4722   1.4768   1.4882   1.4989   1.5205   1.5360
  1.5506   1.5654   1.5706   1.5781   1.5900   1.6142   1.6208   1.6338
  1.6495   1.6748   1.7019   1.7173   1.7210   1.7439   1.7837   1.7891
  1.8098   1.8277   1.8354   1.8764   1.8947   1.9078   1.9279   1.9346
  1.9521   1.9823   2.0291   2.0510   2.0787   2.0830   2.1153   2.1375
  2.1729   2.2062   2.2319   2.2449   2.2676   2.2812   2.3278   2.3493
  2.3695   2.3861   2.4006   2.4150   2.4286   2.4360   2.4400   2.4566
  2.4864   2.4986   2.5276   2.5482   2.5637   2.5793   2.6236   2.6948
  2.7410   2.7765   2.7927   2.8382   2.8674   2.8810   2.8847   2.9331
  2.9552   3.0006   3.0268   3.0743   3.1029   3.1342   3.1609   3.1683
  3.2245   3.2548   3.2691   3.3074   3.3234   3.3470   3.3513   3.3738
  3.4096   3.4321   3.4440   3.4647   3.4798   3.5259   3.5330   3.5650
  3.5894   3.6195   3.6488   3.6497   3.6683   3.6812   3.6875   3.6963
  3.7192   3.7302   3.7691   3.7819   3.7944   3.8024   3.8140   3.8332
  3.8512   3.8568   3.8712   3.8891   3.8938   3.9129   3.9254   3.9420
  3.9488   3.9652   3.9812   3.9955   4.0450   4.0675   4.0872   4.1105
  4.1323   4.1692   4.1895   4.1953   4.2097   4.2307   4.2666   4.2789
  4.2997   4.3067   4.3167   4.3407   4.3522   4.3680   4.4090   4.4304
  4.4433   4.4504   4.4641   4.5114   4.5213   4.5565   4.5643   4.6179
  4.6419   4.7412   4.8741   5.0722   5.1083   5.1261   5.1803   5.2036
  5.2225   5.2274   5.2358   5.2400   5.2586   5.2823   5.2917   5.2974
  5.3019   5.3083   5.3178   5.3208   5.3395   5.3470   5.3563   5.3658
  5.3695   5.3931   5.4100   5.4198   5.4282   5.4487   5.4696   5.4844
  5.5001   5.5078   5.5287   5.5406   5.5572   5.5599   5.5890   5.6013
  5.6200   5.6325   5.6413   5.6562   5.6642   5.6771   5.6826   5.6922
  5.7346   5.7694   5.8121   5.8362   5.8843   5.8891   5.9301   5.9885
  5.9990   6.0257   6.0351   6.0768   6.1099   6.1378   6.1557   6.2232
  6.4984   6.5259   6.5839   6.7330   6.7507   6.7782   6.8022   6.9274
  6.9388   7.0567   7.0792   7.0945   7.1183   7.1460   7.1851   7.2154
  7.2326   7.2413   7.2471   7.2678   7.2855   7.3022   7.3098   7.3344
  7.3357   7.3710   7.3791   7.4043   7.4268   7.4301   7.4775   7.4882
  7.5360   7.5534   7.6027   7.6074   7.6758   7.6983   7.7070   7.7338
  7.7402   7.8031   7.8101   7.8236   7.8846   7.8895   7.9065   7.9595
 24.6874  24.7716  24.8211  24.8653  50.5435  50.6024  50.6150  50.6241
 50.6300  50.6848  50.7058
 
 Beta MOs
 -- Occupied --
-19.3776 -19.3577 -19.3554 -19.3533 -19.3514 -19.3511 -19.3454 -10.4670
-10.4554 -10.4486 -10.4138  -1.2324  -1.2089  -1.1910  -1.1486  -1.1419
 -1.1333  -1.1217  -0.8800  -0.8407  -0.7583  -0.7219  -0.6720  -0.6699
 -0.6605  -0.6457  -0.6275  -0.5986  -0.5817  -0.5676  -0.5436  -0.5385
 -0.5149  -0.5033  -0.4916  -0.4819  -0.4729  -0.4482  -0.4318  -0.4271
 -0.4226  -0.4160  -0.4037  -0.3684
 -- Virtual --
 -0.0687   0.0227   0.0368   0.0423   0.0449   0.0623   0.0653   0.0687
  0.0800   0.0854   0.1019   0.1152   0.1175   0.1297   0.1369   0.1413
  0.1454   0.1526   0.1613   0.1644   0.1693   0.1753   0.1790   0.1867
  0.1930   0.2172   0.2200   0.2273   0.2349   0.2426   0.2552   0.2569
  0.2651   0.2745   0.2794   0.2842   0.2879   0.2918   0.2983   0.3031
  0.3131   0.3176   0.3241   0.3286   0.3323   0.3355   0.3483   0.3508
  0.3558   0.3579   0.3616   0.3710   0.3726   0.3802   0.3876   0.3898
  0.3927   0.3958   0.4068   0.4171   0.4199   0.4251   0.4318   0.4411
  0.4451   0.4582   0.4594   0.4654   0.4739   0.4822   0.4968   0.5060
  0.5233   0.5763   0.5917   0.6026   0.6092   0.6229   0.6319   0.6410
  0.6498   0.6586   0.6657   0.6773   0.6879   0.7096   0.7162   0.7188
  0.7383   0.7442   0.7630   0.7669   0.7811   0.7906   0.7916   0.8133
  0.8385   0.8630   0.8731   0.9007   0.9051   0.9115   0.9416   0.9517
  0.9790   0.9918   1.0192   1.0343   1.0387   1.0637   1.0806   1.0869
  1.1048   1.1083   1.1339   1.1401   1.1532   1.1597   1.1669   1.1768
  1.1808   1.1834   1.1930   1.2024   1.2118   1.2213   1.2270   1.2304
  1.2562   1.2598   1.2648   1.2739   1.2798   1.2916   1.2985   1.3120
  1.3265   1.3291   1.3509   1.3753   1.3864   1.3922   1.4013   1.4079
  1.4254   1.4484   1.4608   1.4731   1.4796   1.4900   1.5006   1.5222
  1.5382   1.5526   1.5675   1.5730   1.5791   1.5913   1.6177   1.6276
  1.6344   1.6557   1.6770   1.7066   1.7215   1.7240   1.7476   1.7853
  1.7934   1.8150   1.8351   1.8538   1.8793   1.8954   1.9107   1.9323
  1.9378   1.9605   1.9870   2.0345   2.0542   2.0807   2.0887   2.1194
  2.1392   2.1742   2.2088   2.2361   2.2497   2.2716   2.2845   2.3283
  2.3510   2.3706   2.3866   2.4010   2.4182   2.4296   2.4396   2.4445
  2.4587   2.4907   2.5011   2.5288   2.5531   2.5653   2.5821   2.6252
  2.6954   2.7415   2.7773   2.7954   2.8388   2.8687   2.8843   2.8923
  2.9342   2.9592   3.0021   3.0273   3.0762   3.1051   3.1353   3.1617
  3.1694   3.2277   3.2569   3.2695   3.3090   3.3243   3.3492   3.3527
  3.3752   3.4113   3.4330   3.4466   3.4658   3.4813   3.5266   3.5358
  3.5683   3.5901   3.6203   3.6498   3.6510   3.6690   3.6822   3.6894
  3.6980   3.7202   3.7306   3.7700   3.7840   3.7957   3.8025   3.8144
  3.8338   3.8524   3.8573   3.8733   3.8902   3.8942   3.9144   3.9266
  3.9444   3.9506   3.9662   3.9821   3.9972   4.0479   4.0696   4.0881
  4.1125   4.1335   4.1719   4.1912   4.1964   4.2106   4.2331   4.2678
  4.2803   4.3018   4.3088   4.3181   4.3435   4.3530   4.3697   4.4130
  4.4340   4.4448   4.4598   4.4690   4.5136   4.5228   4.5588   4.5684
  4.6194   4.6489   4.7481   4.8772   5.0848   5.1782   5.1793   5.2043
  5.2236   5.2281   5.2363   5.2421   5.2495   5.2815   5.2881   5.3015
  5.3038   5.3079   5.3200   5.3214   5.3341   5.3431   5.3593   5.3621
  5.3749   5.3785   5.4059   5.4129   5.4282   5.4472   5.4540   5.4735
  5.4920   5.5096   5.5161   5.5330   5.5502   5.5588   5.5628   5.5959
  5.6038   5.6217   5.6352   5.6426   5.6581   5.6656   5.6780   5.6868
  5.6940   5.7353   5.7717   5.8135   5.8381   5.8881   5.9059   5.9435
  5.9975   6.0012   6.0300   6.0424   6.0809   6.1122   6.1424   6.1599
  6.2238   6.5010   6.5274   6.5849   6.7338   6.7771   6.7791   6.8105
  7.0222   7.0312   7.0608   7.0803   7.0961   7.1201   7.1470   7.1876
  7.2162   7.2337   7.2417   7.2489   7.2694   7.2865   7.3094   7.3129
  7.3349   7.3426   7.3809   7.4031   7.4118   7.4388   7.4628   7.4841
  7.4921   7.5379   7.5603   7.6034   7.6098   7.6805   7.7025   7.7217
  7.7351   7.7615   7.8047   7.8154   7.8250   7.8853   7.8900   7.9075
  7.9612  24.6874  24.7719  24.8211  24.8654  50.5546  50.6025  50.6155
 50.6243  50.6315  50.6874  50.7059
 --------------------------------------------------------------
 
          Ground-State Mulliken Net Atomic Charges

     Atom                 Charge (a.u.)    Spin (a.u.)
  --------------------------------------------------------
      1 C                    -0.015719       0.022205
      2 C                    -0.151331       0.002177
      3 O                    -0.454121       0.000271
      4 O                    -0.415654       0.004099
      5 O                    -0.195656       0.868899
      6 H                     0.336408       0.000164
      7 H                     0.356317      -0.000943
      8 H                     0.315457       0.084584
      9 H                     0.271873      -0.001175
     10 C                    -0.002171       0.002701
     11 O                    -0.462598       0.000114
     12 C                    -0.070806       0.009597
     13 O                    -0.424431       0.002515
     14 O                    -0.412289       0.004404
     15 O                    -0.371907       0.001149
     16 H                     0.290504      -0.000386
     17 H                     0.327091      -0.000090
     18 H                     0.371984      -0.000086
     19 H                     0.373156      -0.000038
     20 H                     0.333890      -0.000162
  --------------------------------------------------------
  Sum of atomic charges =     0.000000
  Sum of spin   charges =     1.000000

 -----------------------------------------------------------------
                    Cartesian Multipole Moments
 -----------------------------------------------------------------
    Charge (ESU x 10^10)
                 0.0000
    Dipole Moment (Debye)
         X      -8.4987      Y      -4.2358      Z      -3.9055
       Tot      10.2676
    Quadrupole Moments (Debye-Ang)
        XX     -76.4944     XY     -12.6649     YY     -79.2758
        XZ      10.3465     YZ      -8.0809     ZZ     -68.6441
    Octopole Moments (Debye-Ang^2)
       XXX    -237.2468    XXY    -141.4425    XYY    -108.5043
       YYY    -450.5257    XXZ      41.6911    XYZ      -7.4882
       YYZ     -14.2235    XZZ    -121.1410    YZZ    -160.9435
       ZZZ      90.4187
    Hexadecapole Moments (Debye-Ang^3)
      XXXX    -830.0139   XXXY    -457.2483   XXYY    -572.5561
      XYYY    -554.5669   YYYY   -2611.4336   XXXZ      86.9156
      XXYZ     -44.3425   XYYZ     -30.1004   YYYZ    -236.4788
      XXZZ    -365.9025   XYZZ    -210.5649   YYZZ    -647.1845
      XZZZ     120.4624   YZZZ     -61.3655   ZZZZ    -962.1751
 -----------------------------------------------------------------
 Calculating analytic gradient of the SCF energy
 Gradient of CDS energy
            1           2           3           4           5           6
    1   0.0056344   0.0014455  -0.0014049   0.0003250  -0.0055411   0.0000214
    2   0.0013477  -0.0027204   0.0027431  -0.0002205  -0.0012751  -0.0005004
    3  -0.0032261  -0.0008022   0.0009084   0.0002258   0.0030608  -0.0001562
            7           8           9          10          11          12
    1  -0.0003624   0.0000953  -0.0000947   0.0004118   0.0002139  -0.0006845
    2   0.0001851  -0.0000465   0.0001346  -0.0005847  -0.0013227   0.0018186
    3  -0.0003387   0.0001652   0.0000831   0.0036530  -0.0001455  -0.0019704
           13          14          15          16          17          18
    1   0.0005708   0.0004591  -0.0002401   0.0000645  -0.0001507  -0.0000952
    2  -0.0021187   0.0000279   0.0021365  -0.0002710   0.0004655   0.0002470
    3   0.0022373  -0.0002754  -0.0034049  -0.0001309  -0.0000835  -0.0003660
           19          20
    1  -0.0004817  -0.0001864
    2   0.0001275  -0.0001735
    3   0.0001468   0.0004194
 Gradient of SCF Energy
            1           2           3           4           5           6
    1  -0.0176254   0.0197450   0.0300791   0.0397014   0.0050449  -0.0244459
    2  -0.0017009   0.0091972   0.0181303   0.0103492  -0.0001003  -0.0153855
    3  -0.0076024  -0.0092795   0.0077636   0.0096208  -0.0046594  -0.0084341
            7           8           9          10          11          12
    1  -0.0323142  -0.0002771  -0.0208457  -0.0027134   0.0033588   0.0003477
    2  -0.0113652  -0.0044564  -0.0061314   0.0031676   0.0008224  -0.0022725
    3  -0.0080303   0.0058953   0.0103680  -0.0008656   0.0159743  -0.0043719
           13          14          15          16          17          18
    1   0.0128687   0.0195778   0.0163180  -0.0001889  -0.0040168  -0.0128438
    2   0.0137591  -0.0042541   0.0016466  -0.0011410   0.0010080  -0.0115229
    3   0.0106746   0.0245689   0.0033257  -0.0008182  -0.0106436  -0.0119564
           19          20
    1  -0.0201141  -0.0116562
    2   0.0026093  -0.0023594
    3  -0.0211116  -0.0004181
 Max gradient component =       3.970E-02
 RMS gradient           =       1.320E-02
 Computing fast CPCM-SWIG gradient
 Updating gradient with PCM contributions...
 -- total gradient after adding PCM contribution --
---------------------------------------------------
  Atom         X              Y              Z     
---------------------------------------------------
   1      -0.003831      -0.001269       0.000852
   2      -0.000647      -0.002858      -0.001917
   3       0.008097       0.003892       0.002760
   4       0.006891       0.006357       0.001085
   5       0.003338       0.001156      -0.002568
   6      -0.005756      -0.003276      -0.002353
   7      -0.006202      -0.002998      -0.001748
   8       0.000381      -0.000783       0.002113
   9      -0.002726      -0.000353       0.002437
  10      -0.004563       0.002576       0.000264
  11       0.001334      -0.001093       0.007298
  12       0.000049       0.000496      -0.002269
  13       0.003510       0.006240       0.004333
  14       0.004002      -0.003577       0.008146
  15       0.008869      -0.001673      -0.000028
  16       0.003363      -0.000769      -0.001182
  17      -0.002173       0.000435      -0.006755
  18      -0.002460      -0.005314      -0.004689
  19      -0.003942       0.002340      -0.005301
  20      -0.007533       0.000471      -0.000479
---------------------------------------------------
 Number of fixed atoms: 0
 Gradient time:  CPU 478.90 s  wall 71.54 s
 Geometry Optimization Parameters
   NAtoms,    NIC,     NZ,  NCons,   NDum,   NFix, NCnnct, MaxDiis
       20     134       0       0       0       0       0       0


** GEOMETRY OPTIMIZATION IN DELOCALIZED INTERNAL COORDINATES **
   Searching for a Minimum

   Optimization Cycle:   1

                       Coordinates (Angstroms)
     ATOM                X               Y               Z
      1  C         1.4319825671    1.1855372157   -0.8222876810
      2  C         0.4687705547    0.3656380379   -1.6831107597
      3  O         1.1697660882   -0.7654449865   -2.1315611524
      4  O         0.0835356362    1.2067412825   -2.7633169707
      5  O         2.6117443264    1.4564480058   -1.4806384244
      6  H         0.5135508060   -1.3924635228   -2.4777694798
      7  H        -0.7597113212    0.8800833647   -3.1187434871
      8  H         1.7300574209    0.5653470463    0.0462584360
      9  H        -0.4131752521    0.0754489746   -1.1052248102
     10  C         1.7242755419    3.1517627261    0.7689772665
     11  O         1.2234469173    4.4322657760    1.0922866793
     12  C         0.7969715422    2.4771144980   -0.2533711344
     13  O         0.5601330066    3.4146605039   -1.2670157328
     14  O        -0.3927916911    2.1321520910    0.4341920568
     15  O         1.7978271166    2.3887496004    1.9407450389
     16  H         2.7409026673    3.2128335377    0.3672717507
     17  H         0.8702257789    4.8118423456    0.2678120990
     18  H         0.2049582578    2.9133568709   -2.0337794481
     19  H        -1.1356558848    2.3494878896   -0.1540977183
     20  H         0.8748860210    2.2390300426    2.2191128716
   Point Group: c1    Number of degrees of freedom:    54


   Energy is   -684.412356533


 Attempting to generate delocalized internal coordinates
 Initial Hessian constructed with Jon Baker's OPTIMIZE code

 54 Hessian modes will be used to form the next step
  Hessian Eigenvalues:
     0.002882    0.004376    0.005205    0.012706    0.013425    0.013997
     0.015086    0.015524    0.015615    0.041002    0.048862    0.055340
     0.056249    0.058889    0.061702    0.064420    0.068878    0.084931
     0.089106    0.093425    0.095374    0.160000    0.160000    0.160000
     0.160000    0.160000    0.160000    0.171753    0.176084    0.177145
     0.184378    0.188083    0.203923    0.204558    0.234797    0.278559
     0.288486    0.294195    0.328034    0.342617    0.343984    0.421280
     0.429483    0.436162    0.449273    0.454694    0.455828    0.494850
     0.508950    0.522561    0.525756    0.529306    0.530417    0.530906

 Minimum search - taking simple RFO step
 Searching for Lamda that Minimizes Along All modes
 Value Taken    Lamda =  -0.00175570
 Step Taken.  Stepsize is  0.171323

                             Maximum     Tolerance    Cnvgd?
         Gradient           0.007512      0.000300      NO
         Displacement       0.052207      0.001200      NO
         Energy change     *********      0.000001      NO


 New Cartesian Coordinates Obtained by Inverse Iteration

 Displacement from previous Coordinates is:  0.418754
 ----------------------------------------------------------------
             Standard Nuclear Orientation (Angstroms)
    I     Atom           X                Y                Z
 ----------------------------------------------------------------
    1      C       1.4275274265     1.2096796774    -0.8490931394
    2      C       0.4672345083     0.3629119506    -1.6880061376
    3      O       1.1607642284    -0.7881683140    -2.0930428643
    4      O       0.0767436632     1.1490414246    -2.8033777151
    5      O       2.5994604634     1.4828208149    -1.5108690903
    6      H       0.5169551941    -1.4344368090    -2.4066384318
    7      H      -0.7547261477     0.8067878823    -3.1527529733
    8      H       1.7383616896     0.5950160059     0.0144283396
    9      H      -0.4112868838     0.0887009872    -1.1074266435
   10      C       1.7195548110     3.1425885394     0.7738591783
   11      O       1.2381707640     4.4216090349     1.1316008151
   12      C       0.7895064247     2.4939222801    -0.2655025004
   13      O       0.5613235296     3.4531446962    -1.2595530114
   14      O      -0.4087087261     2.1448972343     0.4008207908
   15      O       1.8007078262     2.3609014629     1.9323157654
   16      H       2.7297429756     3.2122344269     0.3719852356
   17      H       0.8938387512     4.8502124680     0.3357704828
   18      H       0.2097302346     2.9916322680    -2.0431623229
   19      H      -1.1510938335     2.3628597939    -0.1767105946
   20      H       0.8978932005     2.1942354758     2.2410942169
 ----------------------------------------------------------------
 Nuclear Repulsion Energy =         735.54566097 hartrees
 There are       45 alpha and       44 beta electrons
 Discretize the solute cavity surface with Lebedev spheres
	Using 110 Lebedev grid points for each H atom
	Using 194 Lebedev grid points for other atoms
	Atomic van der Waals radii will be scaled by 1.20
 Remove points where switching function is < 1.0e-08
 Keep 1544 surface tesserae and discard 1580 interior tesserae
 Molecular Surface Area = 168.014 Angst**2
 Applying Cartesian multipole field
    Component          Value
    ---------          -----
     (2,0,0)        1.00000E-11
     (0,2,0)        2.00000E-11
     (0,0,2)       -3.00000E-11
 Nucleus-field energy     =     0.0000000195 hartrees
 Requested basis set is 6-311++G(2df,2p)
 There are 142 shells and 464 basis functions
 A cutoff of  1.0D-12 yielded   8875 shell pairs
 There are     94084 function pairs (    116954 Cartesian)
 Smallest overlap matrix eigenvalue = 6.77E-06
 Guess MOs from SCF MO coefficient file

 -----------------------------------------------------------------------
  General SCF calculation program by
  Eric Jon Sundstrom, Paul Horn, Yuezhi Mao, Dmitri Zuev, Alec White,
  David Stuck, Shaama M.S., Shane Yost, Joonho Lee, David Small,
  Daniel Levine, Susi Lehtola, Hugh Burton, Evgeny Epifanovsky,
  Bang C. Huynh
 -----------------------------------------------------------------------
 Exchange:     0.1500 Hartree-Fock + 1.0000 wB97M-V + LR-HF
 Correlation:  1.0000 wB97M-V
 Using SG-2 standard quadrature grid
 Nonlocal Correlation:  VV10 with C = 0.0100 and b = 6.00 and scale = 1.00000
 Grid used for NLC:  SG-1 standard quadrature
 
 Citation of the SMD model:
 Marenich, A.V.; Cramer, C.J.; Truhlar, D.G.
 J. Phys. Chem. B 2009, 113, 6378-6396.
 iSolventCode=           1
 Solvent: water                                                           
 
 vradii
            1           2           3           4           5           6
    1   1.8500000   1.8500000   1.5200000   1.5200000   1.5200000   1.2000000
            7           8           9          10          11          12
    1   1.2000000   1.2000000   1.2000000   1.8500000   1.5200000   1.8500000
           13          14          15          16          17          18
    1   1.5200000   1.5200000   1.5200000   1.2000000   1.2000000   1.2000000
           19          20
    1   1.2000000   1.2000000
 -------------------------------------------------------
 OpenMP BLAS3 based DFT computing Module                
 Release: version 1.0, May 2013, Q-Chem Inc. Pittsburgh 
 -------------------------------------------------------
 A unrestricted SCF calculation will be
 performed using Roothaan-Hall, DIIS, GDM
 SCF converges when RMS gradient is below 1.0e-07
 ---------------------------------------
  Cycle       Energy         DIIS error
 ---------------------------------------
    1    -684.3497969020      3.16e-04  Roothaan Step
 ---------------------------------------
  Cycle       Energy         DIIS error
 ---------------------------------------
    1    -684.4050766253      2.96e-04  
    2    -684.4158868856      2.12e-04  Done DIIS. Switching to GDM
 ---------------------------------------
  Cycle       Energy        RMS Gradient
 ---------------------------------------
    1    -684.4158868856      5.53e-03   Normal BFGS step
    2    -684.4163214715      9.04e-03   Normal BFGS step
    3    -684.4193953678      8.25e-04   Normal BFGS step
    4    -684.4194308470      4.60e-04   Normal BFGS step
    5    -684.4194384807      2.78e-04   Normal BFGS step
    6    -684.4194393036      2.03e-04   Normal BFGS step
    7    -684.4194396973      1.88e-04   Normal BFGS step
    8    -684.4194399279      1.98e-04   Normal BFGS step
    9    -684.4194401515      2.09e-04   Normal BFGS step
   10    -684.4194405461      2.01e-04   Normal BFGS step
   11    -684.4194411157      1.93e-04   Normal BFGS step
   12    -684.4194416454      1.60e-04   Normal BFGS step
   13    -684.4194418785      7.20e-05   Normal BFGS step
   14    -684.4194419230      5.58e-05   Normal BFGS step
   15    -684.4194419306      3.40e-05   Normal BFGS step
   16    -684.4194419329      1.42e-05   Normal BFGS step
   17    -684.4194419338      2.47e-06   Normal BFGS step
   18    -684.4194419339      1.18e-06   Normal BFGS step
   19    -684.4194419339      5.65e-07   Normal BFGS step
   20    -684.4194419339      1.95e-07   Normal BFGS step
   21    -684.4194419339      8.86e-08  Convergence criterion met
 ---------------------------------------
 SCF time:   CPU 3604.35s  wall 462.00s 
<S^2> =          0.753897816
(3)  G-ENP(liq) elect-nuc-pol free energy of system     -684.419441934 a.u.
(4)  G-CDS(liq) cavity-dispersion-solvent structure 
     free energy                                                3.9751 kcal/mol
(6)  G-S(liq) free energy of system                     -684.413107219 a.u.
 SCF   energy in the final basis set =     -684.4131072194
 Total energy in the final basis set =     -684.4131072194
 
 --------------------------------------------------------------
 
                    Orbital Energies (a.u.)
 --------------------------------------------------------------
 
 Alpha MOs
 -- Occupied --
-19.3999 -19.3573 -19.3544 -19.3522 -19.3513 -19.3491 -19.3449 -10.4688
-10.4544 -10.4494 -10.4133  -1.2339  -1.2106  -1.1929  -1.1725  -1.1488
 -1.1412  -1.1328  -0.8911  -0.8445  -0.7630  -0.7284  -0.6789  -0.6747
 -0.6638  -0.6488  -0.6312  -0.6090  -0.5876  -0.5788  -0.5630  -0.5469
 -0.5151  -0.5107  -0.4954  -0.4885  -0.4798  -0.4611  -0.4451  -0.4303
 -0.4259  -0.4200  -0.4144  -0.4071  -0.3751
 -- Virtual --
  0.0225   0.0366   0.0421   0.0448   0.0619   0.0652   0.0688   0.0798
  0.0844   0.1005   0.1152   0.1172   0.1301   0.1357   0.1408   0.1450
  0.1528   0.1607   0.1638   0.1688   0.1744   0.1783   0.1865   0.1926
  0.2159   0.2169   0.2254   0.2351   0.2420   0.2537   0.2577   0.2637
  0.2730   0.2798   0.2844   0.2866   0.2923   0.2989   0.3026   0.3124
  0.3163   0.3218   0.3251   0.3306   0.3355   0.3474   0.3512   0.3557
  0.3559   0.3611   0.3705   0.3712   0.3791   0.3865   0.3895   0.3935
  0.3957   0.4048   0.4157   0.4206   0.4254   0.4312   0.4411   0.4452
  0.4563   0.4580   0.4638   0.4744   0.4807   0.4965   0.5056   0.5220
  0.5732   0.5896   0.6016   0.6085   0.6259   0.6301   0.6448   0.6502
  0.6579   0.6638   0.6802   0.6881   0.7102   0.7162   0.7196   0.7388
  0.7444   0.7596   0.7605   0.7769   0.7883   0.7943   0.8151   0.8401
  0.8600   0.8726   0.8975   0.9060   0.9085   0.9371   0.9456   0.9746
  0.9857   1.0162   1.0318   1.0351   1.0587   1.0778   1.0824   1.1017
  1.1069   1.1323   1.1407   1.1475   1.1583   1.1649   1.1737   1.1768
  1.1797   1.1846   1.1995   1.2083   1.2089   1.2180   1.2254   1.2516
  1.2554   1.2613   1.2725   1.2758   1.2824   1.2923   1.3064   1.3215
  1.3262   1.3482   1.3650   1.3797   1.3834   1.4029   1.4084   1.4203
  1.4428   1.4567   1.4736   1.4774   1.4864   1.4967   1.5203   1.5366
  1.5460   1.5657   1.5743   1.5816   1.5952   1.6192   1.6236   1.6422
  1.6524   1.6705   1.6985   1.7163   1.7205   1.7439   1.7684   1.7949
  1.8014   1.8261   1.8329   1.8787   1.8950   1.9057   1.9222   1.9294
  1.9487   1.9819   2.0273   2.0444   2.0674   2.0750   2.1140   2.1433
  2.1680   2.2027   2.2255   2.2338   2.2581   2.2816   2.3273   2.3422
  2.3641   2.3806   2.3947   2.4079   2.4187   2.4322   2.4401   2.4496
  2.4794   2.4919   2.5258   2.5426   2.5612   2.5746   2.6128   2.6994
  2.7370   2.7745   2.7939   2.8372   2.8643   2.8765   2.8843   2.9302
  2.9475   3.0010   3.0251   3.0740   3.0955   3.1359   3.1549   3.1696
  3.2240   3.2592   3.2678   3.3120   3.3289   3.3458   3.3504   3.3730
  3.4065   3.4334   3.4409   3.4624   3.4785   3.5222   3.5336   3.5580
  3.5880   3.6176   3.6502   3.6508   3.6622   3.6822   3.6861   3.6946
  3.7164   3.7302   3.7675   3.7815   3.7985   3.8033   3.8150   3.8304
  3.8479   3.8589   3.8700   3.8858   3.8879   3.9130   3.9239   3.9411
  3.9510   3.9675   3.9768   3.9936   4.0486   4.0719   4.0853   4.1130
  4.1281   4.1729   4.1925   4.1996   4.2116   4.2349   4.2745   4.2803
  4.3089   4.3152   4.3225   4.3502   4.3514   4.3726   4.4086   4.4349
  4.4420   4.4541   4.4654   4.5079   4.5269   4.5602   4.5675   4.6166
  4.6462   4.7486   4.8699   5.0717   5.1086   5.1277   5.1822   5.1991
  5.2198   5.2234   5.2321   5.2423   5.2574   5.2820   5.2900   5.2921
  5.3004   5.3035   5.3179   5.3185   5.3356   5.3466   5.3565   5.3630
  5.3641   5.3948   5.4086   5.4210   5.4278   5.4426   5.4710   5.4831
  5.5016   5.5102   5.5291   5.5426   5.5532   5.5605   5.5910   5.6064
  5.6290   5.6376   5.6513   5.6632   5.6661   5.6841   5.6882   5.7018
  5.7431   5.7684   5.8225   5.8447   5.8905   5.9013   5.9477   5.9971
  6.0021   6.0411   6.0477   6.0924   6.1182   6.1446   6.1628   6.2283
  6.4979   6.5294   6.5843   6.7359   6.7619   6.7811   6.8075   6.9285
  6.9412   7.0571   7.0760   7.0926   7.1152   7.1413   7.1771   7.2263
  7.2459   7.2601   7.2712   7.2746   7.3004   7.3124   7.3298   7.3361
  7.3577   7.3665   7.3802   7.4056   7.4293   7.4347   7.4666   7.4842
  7.5308   7.5513   7.6058   7.6237   7.6831   7.7101   7.7125   7.7304
  7.7465   7.8066   7.8118   7.8332   7.8768   7.8846   7.9016   7.9579
 24.6981  24.7780  24.8283  24.8676  50.5451  50.6019  50.6194  50.6226
 50.6331  50.6835  50.7020
 
 Beta MOs
 -- Occupied --
-19.3773 -19.3572 -19.3543 -19.3521 -19.3513 -19.3491 -19.3449 -10.4682
-10.4540 -10.4494 -10.4137  -1.2322  -1.2083  -1.1927  -1.1488  -1.1411
 -1.1348  -1.1237  -0.8814  -0.8424  -0.7618  -0.7229  -0.6736  -0.6702
 -0.6603  -0.6485  -0.6293  -0.6010  -0.5816  -0.5673  -0.5430  -0.5397
 -0.5118  -0.5020  -0.4910  -0.4826  -0.4726  -0.4481  -0.4325  -0.4266
 -0.4209  -0.4149  -0.4047  -0.3684
 -- Virtual --
 -0.0685   0.0227   0.0367   0.0420   0.0450   0.0620   0.0653   0.0688
  0.0803   0.0848   0.1011   0.1154   0.1178   0.1303   0.1370   0.1413
  0.1452   0.1531   0.1608   0.1646   0.1689   0.1753   0.1789   0.1868
  0.1935   0.2161   0.2186   0.2272   0.2353   0.2426   0.2542   0.2581
  0.2655   0.2737   0.2802   0.2863   0.2876   0.2928   0.2997   0.3029
  0.3133   0.3166   0.3233   0.3257   0.3321   0.3368   0.3503   0.3519
  0.3560   0.3572   0.3622   0.3709   0.3723   0.3803   0.3883   0.3902
  0.3944   0.3960   0.4067   0.4171   0.4220   0.4269   0.4317   0.4418
  0.4461   0.4569   0.4588   0.4657   0.4754   0.4818   0.4968   0.5064
  0.5232   0.5742   0.5904   0.6025   0.6117   0.6263   0.6313   0.6451
  0.6517   0.6597   0.6644   0.6804   0.6892   0.7108   0.7170   0.7216
  0.7394   0.7454   0.7601   0.7609   0.7776   0.7906   0.7956   0.8156
  0.8404   0.8608   0.8734   0.8983   0.9069   0.9094   0.9377   0.9459
  0.9759   0.9859   1.0176   1.0338   1.0372   1.0588   1.0791   1.0843
  1.1038   1.1072   1.1332   1.1435   1.1496   1.1592   1.1661   1.1762
  1.1773   1.1837   1.1910   1.2017   1.2098   1.2107   1.2210   1.2278
  1.2543   1.2594   1.2628   1.2758   1.2790   1.2918   1.2962   1.3111
  1.3219   1.3288   1.3511   1.3675   1.3808   1.3875   1.4038   1.4096
  1.4238   1.4446   1.4592   1.4744   1.4796   1.4884   1.4986   1.5226
  1.5384   1.5478   1.5678   1.5768   1.5826   1.5962   1.6231   1.6308
  1.6428   1.6582   1.6725   1.7034   1.7197   1.7236   1.7471   1.7701
  1.7975   1.8093   1.8336   1.8511   1.8820   1.8959   1.9087   1.9251
  1.9346   1.9568   1.9859   2.0323   2.0480   2.0716   2.0789   2.1167
  2.1447   2.1696   2.2056   2.2290   2.2369   2.2626   2.2866   2.3278
  2.3449   2.3650   2.3814   2.3953   2.4114   2.4199   2.4357   2.4426
  2.4514   2.4816   2.4974   2.5269   2.5473   2.5633   2.5780   2.6143
  2.7001   2.7375   2.7752   2.7967   2.8377   2.8653   2.8836   2.8884
  2.9322   2.9509   3.0028   3.0256   3.0761   3.0977   3.1371   3.1558
  3.1705   3.2271   3.2613   3.2685   3.3138   3.3299   3.3482   3.3514
  3.3744   3.4083   3.4344   3.4437   3.4639   3.4797   3.5232   3.5362
  3.5612   3.5889   3.6184   3.6512   3.6522   3.6628   3.6834   3.6877
  3.6964   3.7174   3.7308   3.7682   3.7839   3.7987   3.8044   3.8155
  3.8310   3.8493   3.8593   3.8719   3.8866   3.8889   3.9144   3.9250
  3.9440   3.9523   3.9685   3.9777   3.9953   4.0523   4.0739   4.0861
  4.1149   4.1291   4.1756   4.1938   4.2011   4.2124   4.2379   4.2757
  4.2824   4.3107   4.3173   4.3244   4.3520   4.3543   4.3731   4.4122
  4.4376   4.4448   4.4638   4.4695   4.5107   4.5279   4.5642   4.5701
  4.6179   4.6537   4.7560   4.8729   5.0847   5.1782   5.1795   5.1997
  5.2208   5.2251   5.2342   5.2423   5.2477   5.2839   5.2860   5.2940
  5.2984   5.3106   5.3131   5.3199   5.3343   5.3391   5.3570   5.3596
  5.3713   5.3769   5.4061   5.4146   5.4308   5.4437   5.4513   5.4749
  5.4914   5.5132   5.5181   5.5323   5.5486   5.5599   5.5614   5.5975
  5.6111   5.6304   5.6409   5.6524   5.6654   5.6668   5.6859   5.6915
  5.7039   5.7439   5.7706   5.8237   5.8466   5.8918   5.9232   5.9601
  6.0009   6.0098   6.0437   6.0539   6.0961   6.1205   6.1503   6.1670
  6.2289   6.5004   6.5311   6.5854   6.7369   6.7820   6.7865   6.8188
  7.0222   7.0336   7.0605   7.0769   7.0938   7.1170   7.1422   7.1796
  7.2280   7.2477   7.2608   7.2721   7.2775   7.3010   7.3223   7.3308
  7.3389   7.3590   7.3778   7.3998   7.4209   7.4429   7.4485   7.4819
  7.4912   7.5358   7.5569   7.6081   7.6245   7.6878   7.7164   7.7290
  7.7326   7.7622   7.8086   7.8160   7.8350   7.8776   7.8851   7.9028
  7.9597  24.6982  24.7782  24.8283  24.8677  50.5560  50.6021  50.6199
 50.6227  50.6346  50.6864  50.7021
 --------------------------------------------------------------
 
          Ground-State Mulliken Net Atomic Charges

     Atom                 Charge (a.u.)    Spin (a.u.)
  --------------------------------------------------------
      1 C                    -0.048553       0.025914
      2 C                    -0.139925       0.002261
      3 O                    -0.454841       0.000227
      4 O                    -0.423313       0.003851
      5 O                    -0.197295       0.865007
      6 H                     0.336032       0.000195
      7 H                     0.353232      -0.000936
      8 H                     0.316255       0.086292
      9 H                     0.271820      -0.001101
     10 C                    -0.012793       0.002870
     11 O                    -0.463935       0.000080
     12 C                    -0.028240       0.007799
     13 O                    -0.414558       0.002487
     14 O                    -0.414671       0.004515
     15 O                    -0.372862       0.001387
     16 H                     0.294599      -0.000384
     17 H                     0.326875      -0.000060
     18 H                     0.364967      -0.000168
     19 H                     0.372548      -0.000045
     20 H                     0.334657      -0.000190
  --------------------------------------------------------
  Sum of atomic charges =     0.000000
  Sum of spin   charges =     1.000000

 -----------------------------------------------------------------
                    Cartesian Multipole Moments
 -----------------------------------------------------------------
    Charge (ESU x 10^10)
                 0.0000
    Dipole Moment (Debye)
         X      -8.3815      Y      -3.9472      Z      -3.6306
       Tot       9.9504
    Quadrupole Moments (Debye-Ang)
        XX     -76.4164     XY     -12.1451     YY     -77.2484
        XZ      10.3773     YZ      -7.9565     ZZ     -69.1342
    Octopole Moments (Debye-Ang^2)
       XXX    -236.6066    XXY    -141.0748    XYY    -106.5025
       YYY    -440.1429    XXZ      41.8882    XYZ      -7.5635
       YYZ     -14.1444    XZZ    -120.8722    YZZ    -160.4177
       ZZZ      94.9640
    Hexadecapole Moments (Debye-Ang^3)
      XXXX    -827.4147   XXXY    -457.9015   XXYY    -572.2180
      XYYY    -545.2445   YYYY   -2557.4382   XXXZ      85.4717
      XXYZ     -43.7877   XYYZ     -29.8758   YYYZ    -233.5912
      XXZZ    -367.1739   XYZZ    -209.6769   YYZZ    -648.3088
      XZZZ     121.4571   YZZZ     -62.2903   ZZZZ    -977.0427
 -----------------------------------------------------------------
 Calculating analytic gradient of the SCF energy
 Gradient of CDS energy
            1           2           3           4           5           6
    1   0.0055610   0.0014862  -0.0014680   0.0003323  -0.0054551   0.0000215
    2   0.0013551  -0.0028110   0.0028850  -0.0002327  -0.0012819  -0.0005081
    3  -0.0032247  -0.0007848   0.0008551   0.0002603   0.0030621  -0.0001334
            7           8           9          10          11          12
    1  -0.0003624   0.0000941  -0.0000860   0.0004079   0.0002258  -0.0008669
    2   0.0001685  -0.0000469   0.0001215  -0.0007720  -0.0012702   0.0018855
    3  -0.0003499   0.0001531   0.0000750   0.0036473  -0.0001826  -0.0019083
           13          14          15          16          17          18
    1   0.0005670   0.0006414  -0.0002617   0.0000646  -0.0001449  -0.0000925
    2  -0.0022417   0.0000848   0.0021985  -0.0002025   0.0004720   0.0002558
    3   0.0022722  -0.0003729  -0.0033745  -0.0001322  -0.0000673  -0.0003670
           19          20
    1  -0.0004852  -0.0001792
    2   0.0001257  -0.0001854
    3   0.0001524   0.0004201
 Gradient of SCF Energy
            1           2           3           4           5           6
    1  -0.0148967   0.0219705   0.0202081   0.0298849   0.0036217  -0.0185014
    2  -0.0012959   0.0100872   0.0156277   0.0030139  -0.0008338  -0.0129019
    3  -0.0056975  -0.0050969   0.0043012   0.0050191  -0.0031551  -0.0058709
            7           8           9          10          11          12
    1  -0.0254884  -0.0007410  -0.0175214   0.0010554   0.0030621   0.0029058
    2  -0.0084454  -0.0026715  -0.0058514   0.0010212   0.0017450  -0.0019335
    3  -0.0065293   0.0034409   0.0070870  -0.0023593   0.0101760  -0.0033123
           13          14          15          16          17          18
    1   0.0099419   0.0141699   0.0093359  -0.0031070  -0.0025620  -0.0108274
    2   0.0101714  -0.0018634   0.0024567  -0.0000975   0.0013189  -0.0074241
    3   0.0105897   0.0165225   0.0044271   0.0004569  -0.0052229  -0.0100211
           19          20
    1  -0.0167542  -0.0057568
    2   0.0010709  -0.0031944
    3  -0.0155921   0.0008371
 Max gradient component =       2.988E-02
 RMS gradient           =       1.012E-02
 Computing fast CPCM-SWIG gradient
 Updating gradient with PCM contributions...
 -- total gradient after adding PCM contribution --
---------------------------------------------------
  Atom         X              Y              Z     
---------------------------------------------------
   1      -0.001940      -0.000838       0.002075
   2       0.002082      -0.001372       0.001774
   3      -0.000937       0.001014       0.000133
   4      -0.000874      -0.000882      -0.002559
   5       0.001931       0.000446      -0.000996
   6      -0.000378      -0.000563      -0.000518
   7      -0.000619       0.000039      -0.000499
   8      -0.000106       0.000708      -0.000256
   9      -0.000056      -0.000341      -0.000379
  10      -0.000203       0.000630      -0.001097
  11       0.000971       0.000497       0.001017
  12       0.002746       0.000806      -0.001334
  13       0.000767       0.002987       0.003341
  14      -0.001204      -0.001220       0.000568
  15       0.001203      -0.000918       0.001401
  16       0.000143       0.000282       0.000290
  17      -0.000742       0.000207      -0.000898
  18      -0.001061      -0.001869      -0.002301
  19      -0.000613       0.000587      -0.000203
  20      -0.001111      -0.000202       0.000441
---------------------------------------------------
 Number of fixed atoms: 0
 Gradient time:  CPU 477.33 s  wall 71.05 s
 Geometry Optimization Parameters
   NAtoms,    NIC,     NZ,  NCons,   NDum,   NFix, NCnnct, MaxDiis
       20     134       0       0       0       0       0       0

 Cartesian Hessian Update
 Hessian updated using BFGS update


** GEOMETRY OPTIMIZATION IN DELOCALIZED INTERNAL COORDINATES **
   Searching for a Minimum

   Optimization Cycle:   2

                       Coordinates (Angstroms)
     ATOM                X               Y               Z
      1  C         1.4275274265    1.2096796774   -0.8490931394
      2  C         0.4672345083    0.3629119506   -1.6880061376
      3  O         1.1607642284   -0.7881683140   -2.0930428643
      4  O         0.0767436632    1.1490414246   -2.8033777151
      5  O         2.5994604634    1.4828208149   -1.5108690903
      6  H         0.5169551941   -1.4344368090   -2.4066384318
      7  H        -0.7547261477    0.8067878823   -3.1527529733
      8  H         1.7383616896    0.5950160059    0.0144283396
      9  H        -0.4112868838    0.0887009872   -1.1074266435
     10  C         1.7195548110    3.1425885394    0.7738591783
     11  O         1.2381707640    4.4216090349    1.1316008151
     12  C         0.7895064247    2.4939222801   -0.2655025004
     13  O         0.5613235296    3.4531446962   -1.2595530114
     14  O        -0.4087087261    2.1448972343    0.4008207908
     15  O         1.8007078262    2.3609014629    1.9323157654
     16  H         2.7297429756    3.2122344269    0.3719852356
     17  H         0.8938387512    4.8502124680    0.3357704828
     18  H         0.2097302346    2.9916322680   -2.0431623229
     19  H        -1.1510938335    2.3628597939   -0.1767105946
     20  H         0.8978932005    2.1942354758    2.2410942169
   Point Group: c1    Number of degrees of freedom:    54


   Energy is   -684.413107219

 Hessian updated using BFGS update

 50 Hessian modes will be used to form the next step
  Hessian Eigenvalues:
     0.003086    0.004365    0.005547    0.012686    0.013267    0.013837
     0.015026    0.015524    0.015619    0.043040    0.049285    0.054964
     0.056430    0.059498    0.061906    0.064461    0.069275    0.084925
     0.091334    0.092920    0.096105    0.138395    0.160806    0.172662
     0.176068    0.182524    0.186596    0.189567    0.203844    0.209906
     0.254148    0.280231    0.289479    0.301246    0.330589    0.342622
     0.344789    0.405192    0.426713    0.436233    0.447409    0.450399
     0.454934    0.471045    0.499716    0.522050    0.525275    0.529624
     0.530701    0.532476

 Minimum search - taking simple RFO step
 Searching for Lamda that Minimizes Along All modes
 Value Taken    Lamda =  -0.00052047
 Step Taken.  Stepsize is  0.191712

                             Maximum     Tolerance    Cnvgd?
         Gradient           0.004286      0.000300      NO
         Displacement       0.092292      0.001200      NO
         Energy change     -0.000751      0.000001      NO


 New Cartesian Coordinates Obtained by Inverse Iteration

 Displacement from previous Coordinates is:  0.416108
 ----------------------------------------------------------------
             Standard Nuclear Orientation (Angstroms)
    I     Atom           X                Y                Z
 ----------------------------------------------------------------
    1      C       1.4176652068     1.1873828628    -0.8192413464
    2      C       0.4673252119     0.3733411685    -1.6932862052
    3      O       1.1560288840    -0.7786421370    -2.1065474703
    4      O       0.1187986278     1.1973545873    -2.7905920041
    5      O       2.6087599424     1.4465290983    -1.4440311186
    6      H       0.5152466590    -1.4135154769    -2.4403590114
    7      H      -0.7055843921     0.8796529486    -3.1708811794
    8      H       1.6929173749     0.5581880486     0.0456765560
    9      H      -0.4267195969     0.1020298368    -1.1385918863
   10      C       1.7196856785     3.1509711814     0.7544979397
   11      O       1.2351103722     4.4308583906     1.1023738994
   12      C       0.7774115909     2.4760086415    -0.2547088244
   13      O       0.5346081319     3.4069167360    -1.2714988261
   14      O      -0.4093951783     2.1381397339     0.4317370323
   15      O       1.8322843666     2.3923351823     1.9227682476
   16      H       2.7190507969     3.2226429908     0.3311849566
   17      H       0.8862826264     4.8578497914     0.3113586454
   18      H       0.1774250982     2.9351595779    -2.0398298166
   19      H      -1.1596808145     2.3193805993    -0.1437588398
   20      H       0.9444795132     2.2180075379     2.2594686517
 ----------------------------------------------------------------
 Nuclear Repulsion Energy =         737.62008232 hartrees
 There are       45 alpha and       44 beta electrons
 Discretize the solute cavity surface with Lebedev spheres
	Using 110 Lebedev grid points for each H atom
	Using 194 Lebedev grid points for other atoms
	Atomic van der Waals radii will be scaled by 1.20
 Remove points where switching function is < 1.0e-08
 Keep 1524 surface tesserae and discard 1600 interior tesserae
 Molecular Surface Area = 167.285 Angst**2
 Applying Cartesian multipole field
    Component          Value
    ---------          -----
     (2,0,0)        1.00000E-11
     (0,2,0)        2.00000E-11
     (0,0,2)       -3.00000E-11
 Nucleus-field energy     =     0.0000000197 hartrees
 Requested basis set is 6-311++G(2df,2p)
 There are 142 shells and 464 basis functions
 A cutoff of  1.0D-12 yielded   8888 shell pairs
 There are     94240 function pairs (    117125 Cartesian)
 Smallest overlap matrix eigenvalue = 6.37E-06
 Guess MOs from SCF MO coefficient file

 -----------------------------------------------------------------------
  General SCF calculation program by
  Eric Jon Sundstrom, Paul Horn, Yuezhi Mao, Dmitri Zuev, Alec White,
  David Stuck, Shaama M.S., Shane Yost, Joonho Lee, David Small,
  Daniel Levine, Susi Lehtola, Hugh Burton, Evgeny Epifanovsky,
  Bang C. Huynh
 -----------------------------------------------------------------------
 Exchange:     0.1500 Hartree-Fock + 1.0000 wB97M-V + LR-HF
 Correlation:  1.0000 wB97M-V
 Using SG-2 standard quadrature grid
 Nonlocal Correlation:  VV10 with C = 0.0100 and b = 6.00 and scale = 1.00000
 Grid used for NLC:  SG-1 standard quadrature
 
 Citation of the SMD model:
 Marenich, A.V.; Cramer, C.J.; Truhlar, D.G.
 J. Phys. Chem. B 2009, 113, 6378-6396.
 iSolventCode=           1
 Solvent: water                                                           
 
 vradii
            1           2           3           4           5           6
    1   1.8500000   1.8500000   1.5200000   1.5200000   1.5200000   1.2000000
            7           8           9          10          11          12
    1   1.2000000   1.2000000   1.2000000   1.8500000   1.5200000   1.8500000
           13          14          15          16          17          18
    1   1.5200000   1.5200000   1.5200000   1.2000000   1.2000000   1.2000000
           19          20
    1   1.2000000   1.2000000
 -------------------------------------------------------
 OpenMP BLAS3 based DFT computing Module                
 Release: version 1.0, May 2013, Q-Chem Inc. Pittsburgh 
 -------------------------------------------------------
 A unrestricted SCF calculation will be
 performed using Roothaan-Hall, DIIS, GDM
 SCF converges when RMS gradient is below 1.0e-07
 ---------------------------------------
  Cycle       Energy         DIIS error
 ---------------------------------------
    1    -684.3493624257      3.12e-04  Roothaan Step
 ---------------------------------------
  Cycle       Energy         DIIS error
 ---------------------------------------
    1    -684.4045874499      3.03e-04  
    2    -684.4156948288      2.20e-04  Done DIIS. Switching to GDM
 ---------------------------------------
  Cycle       Energy        RMS Gradient
 ---------------------------------------
    1    -684.4156948288      5.63e-03   Normal BFGS step
    2    -684.4160899861      1.03e-02   Normal BFGS step
    3    -684.4194695751      2.13e-03   Normal BFGS step
    4    -684.4195072856      1.16e-03   Normal BFGS step
    5    -684.4195166350      6.63e-04   Normal BFGS step
    6    -684.4195178526      3.71e-04   Normal BFGS step
    7    -684.4195184248      2.17e-04   Normal BFGS step
    8    -684.4195185924      4.81e-05   Normal BFGS step
    9    -684.4195186138      3.73e-05   Normal BFGS step
   10    -684.4195186226      3.73e-05   Normal BFGS step
   11    -684.4195186300      3.49e-05   Normal BFGS step
   12    -684.4195186403      3.17e-05   Normal BFGS step
   13    -684.4195186544      4.02e-05   Normal BFGS step
   14    -684.4195186743      3.91e-05   Normal BFGS step
   15    -684.4195186917      2.69e-05   Normal BFGS step
   16    -684.4195186980      1.14e-05   Normal BFGS step
   17    -684.4195186993      3.06e-06   Normal BFGS step
   18    -684.4195186995      1.33e-06   Normal BFGS step
   19    -684.4195186995      5.41e-07   Normal BFGS step
   20    -684.4195186995      2.37e-07   Normal BFGS step
   21    -684.4195186996      9.95e-08  Convergence criterion met
 ---------------------------------------
 SCF time:   CPU 3581.79s  wall 459.00s 
<S^2> =          0.753886461
(3)  G-ENP(liq) elect-nuc-pol free energy of system     -684.419518700 a.u.
(4)  G-CDS(liq) cavity-dispersion-solvent structure 
     free energy                                                4.0018 kcal/mol
(6)  G-S(liq) free energy of system                     -684.413141487 a.u.
 SCF   energy in the final basis set =     -684.4131414870
 Total energy in the final basis set =     -684.4131414870
 
 --------------------------------------------------------------
 
                    Orbital Energies (a.u.)
 --------------------------------------------------------------
 
 Alpha MOs
 -- Occupied --
-19.3993 -19.3558 -19.3534 -19.3517 -19.3508 -19.3492 -19.3442 -10.4674
-10.4542 -10.4485 -10.4120  -1.2343  -1.2122  -1.1931  -1.1738  -1.1492
 -1.1429  -1.1329  -0.8916  -0.8458  -0.7640  -0.7294  -0.6804  -0.6759
 -0.6652  -0.6500  -0.6316  -0.6094  -0.5883  -0.5793  -0.5633  -0.5469
 -0.5162  -0.5115  -0.4942  -0.4876  -0.4789  -0.4612  -0.4446  -0.4293
 -0.4263  -0.4198  -0.4161  -0.4068  -0.3739
 -- Virtual --
  0.0226   0.0367   0.0423   0.0450   0.0621   0.0652   0.0682   0.0799
  0.0855   0.1010   0.1153   0.1164   0.1304   0.1362   0.1405   0.1455
  0.1530   0.1611   0.1638   0.1692   0.1755   0.1788   0.1871   0.1922
  0.2164   0.2188   0.2266   0.2359   0.2427   0.2548   0.2576   0.2652
  0.2747   0.2787   0.2836   0.2889   0.2930   0.2995   0.3047   0.3133
  0.3166   0.3246   0.3293   0.3325   0.3357   0.3472   0.3506   0.3554
  0.3568   0.3617   0.3710   0.3717   0.3796   0.3870   0.3908   0.3956
  0.3968   0.4059   0.4157   0.4224   0.4263   0.4297   0.4413   0.4450
  0.4547   0.4593   0.4650   0.4733   0.4832   0.4980   0.5051   0.5233
  0.5742   0.5927   0.6042   0.6088   0.6276   0.6350   0.6454   0.6525
  0.6601   0.6670   0.6797   0.6900   0.7117   0.7159   0.7223   0.7412
  0.7453   0.7592   0.7628   0.7804   0.7904   0.7941   0.8164   0.8418
  0.8607   0.8730   0.8973   0.9037   0.9088   0.9384   0.9498   0.9760
  0.9887   1.0166   1.0331   1.0364   1.0584   1.0777   1.0855   1.0998
  1.1064   1.1313   1.1396   1.1497   1.1582   1.1666   1.1710   1.1800
  1.1821   1.1870   1.1986   1.2099   1.2171   1.2249   1.2324   1.2516
  1.2560   1.2644   1.2726   1.2787   1.2868   1.2942   1.3108   1.3215
  1.3254   1.3493   1.3731   1.3808   1.3869   1.4043   1.4119   1.4259
  1.4442   1.4585   1.4708   1.4788   1.4856   1.4976   1.5207   1.5384
  1.5498   1.5665   1.5773   1.5841   1.5982   1.6203   1.6261   1.6373
  1.6526   1.6748   1.7023   1.7176   1.7221   1.7465   1.7760   1.7911
  1.8074   1.8252   1.8421   1.8850   1.8961   1.9110   1.9275   1.9324
  1.9561   1.9863   2.0286   2.0510   2.0782   2.0818   2.1243   2.1443
  2.1756   2.2030   2.2387   2.2474   2.2619   2.2855   2.3296   2.3454
  2.3664   2.3890   2.4049   2.4140   2.4283   2.4339   2.4386   2.4482
  2.4878   2.4920   2.5280   2.5469   2.5604   2.5784   2.6242   2.7003
  2.7434   2.7859   2.7987   2.8446   2.8704   2.8803   2.8898   2.9353
  2.9505   3.0049   3.0283   3.0806   3.1034   3.1321   3.1585   3.1742
  3.2308   3.2600   3.2747   3.3117   3.3322   3.3512   3.3539   3.3747
  3.4111   3.4352   3.4465   3.4666   3.4897   3.5277   3.5358   3.5647
  3.5939   3.6157   3.6453   3.6542   3.6640   3.6796   3.6807   3.6979
  3.7213   3.7297   3.7688   3.7853   3.8029   3.8040   3.8149   3.8306
  3.8555   3.8622   3.8776   3.8864   3.8957   3.9133   3.9288   3.9454
  3.9523   3.9711   3.9804   4.0004   4.0488   4.0781   4.0882   4.1188
  4.1323   4.1778   4.1977   4.2017   4.2170   4.2372   4.2830   4.2863
  4.3139   4.3209   4.3359   4.3578   4.3662   4.3840   4.4158   4.4367
  4.4520   4.4585   4.4800   4.5166   4.5344   4.5647   4.5667   4.6232
  4.6467   4.7490   4.8732   5.0753   5.1104   5.1298   5.1820   5.1997
  5.2233   5.2240   5.2341   5.2424   5.2580   5.2822   5.2921   5.2943
  5.3039   5.3108   5.3183   5.3207   5.3375   5.3500   5.3592   5.3662
  5.3696   5.3981   5.4106   5.4235   5.4327   5.4454   5.4731   5.4871
  5.5047   5.5153   5.5341   5.5492   5.5559   5.5621   5.5943   5.6082
  5.6356   5.6429   5.6595   5.6712   5.6791   5.6897   5.6919   5.7095
  5.7491   5.7716   5.8275   5.8478   5.8955   5.9107   5.9543   6.0046
  6.0154   6.0496   6.0558   6.1009   6.1242   6.1577   6.1740   6.2381
  6.5050   6.5407   6.5901   6.7419   6.7711   6.7892   6.8171   6.9308
  6.9448   7.0580   7.0802   7.0991   7.1186   7.1461   7.1929   7.2311
  7.2519   7.2667   7.2814   7.2879   7.3055   7.3228   7.3358   7.3464
  7.3691   7.3731   7.3870   7.4146   7.4333   7.4412   7.4822   7.4884
  7.5421   7.5632   7.6075   7.6326   7.6867   7.7163   7.7180   7.7316
  7.7520   7.8091   7.8192   7.8391   7.8837   7.8866   7.9062   7.9612
 24.7030  24.7911  24.8419  24.8826  50.5487  50.6042  50.6215  50.6315
 50.6392  50.6904  50.7086
 
 Beta MOs
 -- Occupied --
-19.3768 -19.3556 -19.3533 -19.3516 -19.3508 -19.3492 -19.3442 -10.4668
-10.4538 -10.4485 -10.4124  -1.2324  -1.2101  -1.1929  -1.1491  -1.1431
 -1.1353  -1.1247  -0.8818  -0.8438  -0.7628  -0.7238  -0.6746  -0.6721
 -0.6615  -0.6496  -0.6296  -0.6005  -0.5827  -0.5688  -0.5422  -0.5398
 -0.5134  -0.5018  -0.4905  -0.4810  -0.4722  -0.4485  -0.4318  -0.4263
 -0.4215  -0.4161  -0.4044  -0.3671
 -- Virtual --
 -0.0685   0.0228   0.0368   0.0422   0.0452   0.0622   0.0652   0.0682
  0.0803   0.0860   0.1016   0.1156   0.1171   0.1306   0.1375   0.1410
  0.1456   0.1532   0.1611   0.1645   0.1693   0.1764   0.1795   0.1874
  0.1930   0.2168   0.2203   0.2285   0.2359   0.2433   0.2553   0.2581
  0.2667   0.2754   0.2795   0.2855   0.2898   0.2935   0.3002   0.3049
  0.3144   0.3172   0.3259   0.3297   0.3345   0.3367   0.3497   0.3512
  0.3567   0.3575   0.3625   0.3713   0.3731   0.3809   0.3885   0.3911
  0.3957   0.3981   0.4081   0.4171   0.4239   0.4273   0.4304   0.4420
  0.4458   0.4553   0.4600   0.4667   0.4743   0.4845   0.4982   0.5059
  0.5246   0.5754   0.5934   0.6050   0.6124   0.6278   0.6363   0.6460
  0.6533   0.6619   0.6675   0.6799   0.6911   0.7124   0.7168   0.7242
  0.7418   0.7463   0.7597   0.7631   0.7813   0.7931   0.7948   0.8170
  0.8420   0.8615   0.8740   0.8986   0.9040   0.9096   0.9390   0.9501
  0.9771   0.9893   1.0181   1.0354   1.0380   1.0585   1.0795   1.0874
  1.1013   1.1065   1.1327   1.1415   1.1524   1.1602   1.1677   1.1739
  1.1810   1.1845   1.1948   1.2002   1.2125   1.2188   1.2265   1.2344
  1.2549   1.2597   1.2659   1.2763   1.2805   1.2950   1.2982   1.3151
  1.3226   1.3284   1.3518   1.3763   1.3823   1.3912   1.4051   1.4141
  1.4286   1.4458   1.4608   1.4720   1.4816   1.4875   1.4992   1.5231
  1.5401   1.5517   1.5686   1.5798   1.5852   1.5990   1.6243   1.6328
  1.6380   1.6585   1.6770   1.7073   1.7213   1.7249   1.7500   1.7783
  1.7936   1.8135   1.8424   1.8505   1.8882   1.8970   1.9140   1.9304
  1.9367   1.9650   1.9910   2.0336   2.0540   2.0816   2.0867   2.1272
  2.1466   2.1772   2.2051   2.2408   2.2530   2.2662   2.2897   2.3301
  2.3476   2.3673   2.3897   2.4055   2.4173   2.4298   2.4385   2.4398
  2.4506   2.4883   2.4988   2.5291   2.5520   2.5621   2.5819   2.6260
  2.7010   2.7440   2.7865   2.8013   2.8452   2.8722   2.8842   2.8951
  2.9376   2.9551   3.0065   3.0288   3.0826   3.1055   3.1335   3.1593
  3.1751   3.2337   3.2621   3.2753   3.3136   3.3330   3.3532   3.3552
  3.3765   3.4127   3.4363   3.4495   3.4674   3.4914   3.5287   3.5385
  3.5679   3.5949   3.6166   3.6459   3.6560   3.6647   3.6806   3.6820
  3.7001   3.7224   3.7301   3.7697   3.7877   3.8029   3.8053   3.8153
  3.8314   3.8570   3.8627   3.8798   3.8869   3.8969   3.9150   3.9299
  3.9480   3.9536   3.9723   3.9814   4.0021   4.0521   4.0802   4.0893
  4.1207   4.1333   4.1806   4.1991   4.2033   4.2178   4.2402   4.2842
  4.2883   4.3156   4.3233   4.3375   4.3596   4.3698   4.3845   4.4196
  4.4407   4.4540   4.4685   4.4831   4.5196   4.5358   4.5669   4.5710
  4.6244   4.6543   4.7562   4.8762   5.0888   5.1792   5.1812   5.2000
  5.2247   5.2253   5.2361   5.2425   5.2468   5.2848   5.2876   5.2964
  5.3019   5.3116   5.3188   5.3240   5.3347   5.3411   5.3594   5.3637
  5.3741   5.3834   5.4072   5.4165   5.4340   5.4460   5.4573   5.4771
  5.4949   5.5156   5.5237   5.5368   5.5528   5.5627   5.5661   5.6001
  5.6138   5.6374   5.6459   5.6607   5.6729   5.6801   5.6917   5.6952
  5.7112   5.7498   5.7738   5.8287   5.8499   5.8961   5.9341   5.9652
  6.0074   6.0250   6.0514   6.0624   6.1049   6.1267   6.1639   6.1777
  6.2387   6.5075   6.5423   6.5911   6.7427   6.7903   6.7949   6.8299
  7.0252   7.0350   7.0617   7.0810   7.1009   7.1203   7.1469   7.1955
  7.2329   7.2534   7.2675   7.2841   7.2899   7.3062   7.3344   7.3368
  7.3511   7.3716   7.3776   7.4066   7.4312   7.4449   7.4654   7.4901
  7.4927   7.5451   7.5715   7.6095   7.6332   7.6937   7.7221   7.7304
  7.7394   7.7645   7.8143   7.8213   7.8404   7.8845   7.8869   7.9072
  7.9630  24.7032  24.7913  24.8420  24.8827  50.5597  50.6044  50.6221
 50.6316  50.6405  50.6931  50.7087
 --------------------------------------------------------------
 
          Ground-State Mulliken Net Atomic Charges

     Atom                 Charge (a.u.)    Spin (a.u.)
  --------------------------------------------------------
      1 C                    -0.013539       0.025899
      2 C                    -0.150661       0.001998
      3 O                    -0.458254       0.000222
      4 O                    -0.414599       0.004083
      5 O                    -0.198008       0.863843
      6 H                     0.335127       0.000186
      7 H                     0.353345      -0.000939
      8 H                     0.319490       0.087242
      9 H                     0.272913      -0.001127
     10 C                    -0.001014       0.002778
     11 O                    -0.465559       0.000103
     12 C                    -0.062418       0.008340
     13 O                    -0.426357       0.002480
     14 O                    -0.416048       0.004205
     15 O                    -0.373318       0.001117
     16 H                     0.296961      -0.000391
     17 H                     0.326738      -0.000063
     18 H                     0.369216       0.000234
     19 H                     0.371395      -0.000019
     20 H                     0.334590      -0.000193
  --------------------------------------------------------
  Sum of atomic charges =     0.000000
  Sum of spin   charges =     1.000000

 -----------------------------------------------------------------
                    Cartesian Multipole Moments
 -----------------------------------------------------------------
    Charge (ESU x 10^10)
                 0.0000
    Dipole Moment (Debye)
         X      -8.5133      Y      -4.0963      Z      -3.7947
       Tot      10.1811
    Quadrupole Moments (Debye-Ang)
        XX     -76.9135     XY     -12.4626     YY     -78.1944
        XZ      10.3859     YZ      -8.0279     ZZ     -67.7289
    Octopole Moments (Debye-Ang^2)
       XXX    -238.5888    XXY    -141.7272    XYY    -106.8345
       YYY    -442.7149    XXZ      41.1051    XYZ      -7.5699
       YYZ     -13.8322    XZZ    -120.1162    YZZ    -159.0371
       ZZZ      90.7792
    Hexadecapole Moments (Debye-Ang^3)
      XXXX    -834.9488   XXXY    -459.0850   XXYY    -572.5803
      XYYY    -543.8613   YYYY   -2558.8256   XXXZ      80.0841
      XXYZ     -47.0534   XYYZ     -31.8472   YYYZ    -232.5348
      XXZZ    -365.4696   XYZZ    -209.6580   YYZZ    -644.6741
      XZZZ     121.4866   YZZZ     -62.0206   ZZZZ    -946.2557
 -----------------------------------------------------------------
 Calculating analytic gradient of the SCF energy
 Gradient of CDS energy
            1           2           3           4           5           6
    1   0.0055272   0.0013223  -0.0013690   0.0003832  -0.0054108   0.0000174
    2   0.0012637  -0.0025495   0.0027523  -0.0003846  -0.0011875  -0.0005065
    3  -0.0029843  -0.0009371   0.0008310   0.0004519   0.0028066  -0.0001441
            7           8           9          10          11          12
    1  -0.0003496   0.0000911  -0.0000786   0.0004692   0.0002782  -0.0012476
    2   0.0001815  -0.0000472   0.0001259  -0.0007718  -0.0013959   0.0017744
    3  -0.0003568   0.0001612   0.0000729   0.0039847  -0.0002042  -0.0017958
           13          14          15          16          17          18
    1   0.0006102   0.0009776  -0.0003811   0.0000572  -0.0001476  -0.0000958
    2  -0.0022155   0.0001804   0.0023293  -0.0002113   0.0004720   0.0002513
    3   0.0023743  -0.0005745  -0.0036907  -0.0001318  -0.0000705  -0.0003695
           19          20
    1  -0.0004855  -0.0001680
    2   0.0001199  -0.0001808
    3   0.0001523   0.0004243
 Gradient of SCF Energy
            1           2           3           4           5           6
    1  -0.0140862   0.0204856   0.0199498   0.0308314   0.0014441  -0.0166185
    2  -0.0009506   0.0125182   0.0131298   0.0034359  -0.0011397  -0.0111433
    3  -0.0079876  -0.0062329   0.0046213   0.0101012  -0.0016411  -0.0055560
            7           8           9          10          11          12
    1  -0.0237609  -0.0010539  -0.0173056   0.0030698   0.0023987   0.0014069
    2  -0.0067347  -0.0033488  -0.0050562   0.0001084   0.0020478  -0.0031714
    3  -0.0059130   0.0030848   0.0066722  -0.0021265   0.0069788  -0.0016608
           13          14          15          16          17          18
    1   0.0074960   0.0138767   0.0060291  -0.0044303  -0.0015568  -0.0101317
    2   0.0031716   0.0004967   0.0035346  -0.0002300   0.0007804  -0.0037862
    3   0.0033820   0.0139605   0.0033535   0.0010567  -0.0022549  -0.0063264
           19          20
    1  -0.0152972  -0.0027468
    2  -0.0005794  -0.0030830
    3  -0.0140247   0.0005129
 Max gradient component =       3.083E-02
 RMS gradient           =       9.359E-03
 Computing fast CPCM-SWIG gradient
 Updating gradient with PCM contributions...
 -- total gradient after adding PCM contribution --
---------------------------------------------------
  Atom         X              Y              Z     
---------------------------------------------------
   1      -0.000973      -0.000417       0.000440
   2      -0.000136       0.000590       0.000488
   3      -0.001647      -0.001391      -0.000282
   4      -0.001271       0.000119       0.000664
   5      -0.000255       0.000281       0.000451
   6       0.001627       0.001152       0.000414
   7       0.001764       0.000926       0.001113
   8      -0.000095       0.000235      -0.000646
   9       0.001042       0.000413      -0.000698
  10       0.000979      -0.000334      -0.000540
  11       0.000457       0.000552      -0.002035
  12       0.001450      -0.000340       0.000266
  13      -0.001599      -0.003947      -0.003347
  14      -0.001774       0.000144      -0.002145
  15      -0.002265       0.000086       0.000532
  16      -0.000636       0.000066       0.000568
  17       0.000089      -0.000228       0.001845
  18       0.000282       0.002256       0.001369
  19       0.001121      -0.000102       0.001532
  20       0.001840      -0.000063       0.000013
---------------------------------------------------
 Number of fixed atoms: 0
 Gradient time:  CPU 483.54 s  wall 72.00 s
 Geometry Optimization Parameters
   NAtoms,    NIC,     NZ,  NCons,   NDum,   NFix, NCnnct, MaxDiis
[...]
    1   0.0003370   0.0017333  -0.0002716   0.0000537  -0.0001102  -0.0000993
    2  -0.0019497   0.0003787   0.0025192  -0.0001974   0.0004915   0.0002620
    3   0.0020468  -0.0008900  -0.0036998  -0.0001654  -0.0000558  -0.0003734
           19          20
    1  -0.0004827  -0.0001806
    2   0.0000545  -0.0001986
    3   0.0000907   0.0004092
 Gradient of SCF Energy
            1           2           3           4           5           6
    1  -0.0129906   0.0217649   0.0218610   0.0312040   0.0016137  -0.0186370
    2  -0.0009172   0.0149644   0.0162206   0.0055241  -0.0012584  -0.0138505
    3  -0.0076933  -0.0103945   0.0031958   0.0083845  -0.0020386  -0.0043388
            7           8           9          10          11          12
    1  -0.0253895  -0.0007335  -0.0189214   0.0019551  -0.0009215   0.0007752
    2  -0.0103251  -0.0041980  -0.0072806  -0.0008401   0.0008493  -0.0032001
    3  -0.0058809   0.0045604   0.0099843  -0.0016699   0.0085729  -0.0028175
           13          14          15          16          17          18
    1   0.0068369   0.0140055   0.0084402  -0.0029791   0.0006224  -0.0083562
    2   0.0060599   0.0100064   0.0039314  -0.0001520   0.0013763  -0.0049434
    3   0.0064877   0.0162427   0.0031045   0.0002402  -0.0035000  -0.0066756
           19          20
    1  -0.0154617  -0.0046884
    2  -0.0081561  -0.0038110
    3  -0.0161942   0.0004304
 Max gradient component =       3.120E-02
 RMS gradient           =       1.034E-02
 Computing fast CPCM-SWIG gradient
 Updating gradient with PCM contributions...
 -- total gradient after adding PCM contribution --
---------------------------------------------------
  Atom         X              Y              Z     
---------------------------------------------------
   1      -0.000046      -0.000052       0.000000
   2       0.000040      -0.000034       0.000023
   3      -0.000013      -0.000002       0.000045
   4      -0.000024       0.000022      -0.000023
   5       0.000027       0.000000      -0.000004
   6      -0.000007       0.000013      -0.000024
   7       0.000014       0.000000      -0.000006
   8      -0.000008       0.000011       0.000007
   9      -0.000007       0.000011       0.000000
  10      -0.000014       0.000002      -0.000003
  11      -0.000015      -0.000011      -0.000009
  12       0.000038       0.000042      -0.000023
  13       0.000020      -0.000018       0.000004
  14      -0.000024      -0.000010       0.000006
  15      -0.000015      -0.000006       0.000002
  16      -0.000002      -0.000009       0.000003
  17       0.000023       0.000002       0.000007
  18       0.000016       0.000012      -0.000003
  19       0.000002       0.000015      -0.000009
  20      -0.000005       0.000013       0.000005
---------------------------------------------------
 Number of fixed atoms: 0
 Gradient time:  CPU 501.80 s  wall 76.21 s
 Geometry Optimization Parameters
   NAtoms,    NIC,     NZ,  NCons,   NDum,   NFix, NCnnct, MaxDiis
       20     134       0       0       0       0       0       0

 Cartesian Hessian Update
 Hessian updated using BFGS update


** GEOMETRY OPTIMIZATION IN DELOCALIZED INTERNAL COORDINATES **
   Searching for a Minimum

   Optimization Cycle:  20

                       Coordinates (Angstroms)
     ATOM                X               Y               Z
      1  C         1.4155218182    1.2207064175   -0.8395260283
      2  C         0.4538738068    0.3638934363   -1.6653587071
      3  O         1.1730366860   -0.7473798209   -2.1338998113
      4  O        -0.0097419999    1.1759955838   -2.7271785857
      5  O         2.5869459834    1.4793773284   -1.4998920379
      6  H         0.5410689347   -1.4267734546   -2.3945171338
      7  H        -0.8275530933    0.8013212562   -3.0742687963
      8  H         1.7236183052    0.6119237354    0.0307964258
      9  H        -0.3868585346    0.0343213710   -1.0560372975
     10  C         1.7000788382    3.1481268939    0.7772168526
     11  O         1.2115961980    4.4166373460    1.1601160918
     12  C         0.7828935720    2.5212664617   -0.2837232505
     13  O         0.6389437156    3.4803080228   -1.2982494328
     14  O        -0.4391550478    2.2439511411    0.3575543109
     15  O         1.7767584015    2.3485140153    1.9194443724
     16  H         2.7096900751    3.2277790481    0.3756278141
     17  H         1.0429110183    4.9310480893    0.3603786010
     18  H         0.2528082254    3.0388861224   -2.0712515511
     19  H        -1.1207458859    2.0756229281   -0.3048612629
     20  H         0.8760090829    2.1550653783    2.2133688265
   Point Group: c1    Number of degrees of freedom:    54


   Energy is   -684.413682668

 Hessian updated using BFGS update

 54 Hessian modes will be used to form the next step
  Hessian Eigenvalues:
     0.001059    0.001722    0.002881    0.004920    0.006399    0.008502
     0.009926    0.014909    0.016184    0.043481    0.049981    0.055988
     0.059792    0.061613    0.063606    0.069251    0.072305    0.092068
     0.092812    0.096468    0.100806    0.157544    0.159955    0.160498
     0.161800    0.163969    0.168943    0.174684    0.176103    0.188347
     0.190990    0.198622    0.206421    0.228232    0.254583    0.290727
     0.313996    0.325188    0.344454    0.346291    0.366645    0.424733
     0.432405    0.438609    0.452115    0.465795    0.471485    0.484005
     0.507255    0.522858    0.524846    0.530576    0.530876    0.558266

 Minimum search - taking simple RFO step
 Searching for Lamda that Minimizes Along All modes
 Value Taken    Lamda =  -0.00000038
 Step Taken.  Stepsize is  0.010809

                             Maximum     Tolerance    Cnvgd?
         Gradient           0.000027      0.000300     YES
         Displacement       0.005285      0.001200      NO
         Energy change     -0.000001      0.000001     YES

 Final energy is   -684.413682668370     


 ******************************
 **  OPTIMIZATION CONVERGED  **
 ******************************

                       Coordinates (Angstroms)
     ATOM                X               Y               Z
      1  C         1.4155218182    1.2207064175   -0.8395260283
      2  C         0.4538738068    0.3638934363   -1.6653587071
      3  O         1.1730366860   -0.7473798209   -2.1338998113
      4  O        -0.0097419999    1.1759955838   -2.7271785857
      5  O         2.5869459834    1.4793773284   -1.4998920379
      6  H         0.5410689347   -1.4267734546   -2.3945171338
      7  H        -0.8275530933    0.8013212562   -3.0742687963
      8  H         1.7236183052    0.6119237354    0.0307964258
      9  H        -0.3868585346    0.0343213710   -1.0560372975
     10  C         1.7000788382    3.1481268939    0.7772168526
     11  O         1.2115961980    4.4166373460    1.1601160918
     12  C         0.7828935720    2.5212664617   -0.2837232505
     13  O         0.6389437156    3.4803080228   -1.2982494328
     14  O        -0.4391550478    2.2439511411    0.3575543109
     15  O         1.7767584015    2.3485140153    1.9194443724
     16  H         2.7096900751    3.2277790481    0.3756278141
     17  H         1.0429110183    4.9310480893    0.3603786010
     18  H         0.2528082254    3.0388861224   -2.0712515511
     19  H        -1.1207458859    2.0756229281   -0.3048612629
     20  H         0.8760090829    2.1550653783    2.2133688265

Z-matrix Print:
$molecule
0 2
O 
H  1 0.970302
C  1 1.403476 2 107.807886
O  3 1.407673 1 112.017201 2 -77.780243 0
H  4 0.965243 3 109.556633 1 48.851929 0
C  3 1.536156 1 106.357851 2 166.239545 0
H  6 1.089465 3 109.181227 1 -69.734419 0
O  6 1.396404 3 111.349038 1 172.330268 0
H  8 0.967038 6 108.180969 3 -52.274400 0
O  6 1.412213 3 110.321057 1 52.232690 0
H  10 0.965740 6 108.321413 3 -50.352187 0
C  3 1.549384 1 110.864637 2 46.349537 0
H  12 1.105894 3 107.069098 1 166.638633 0
O  12 1.369390 3 111.328352 1 53.359012 0
C  12 1.529998 3 114.020622 1 -75.274580 0
H  15 1.089367 12 110.645823 3 -61.690749 0
O  15 1.404156 12 107.541534 3 178.114964 0
H  17 0.963784 15 108.196887 12 161.446303 0
O  15 1.414889 12 106.833497 3 57.925124 0
H  19 0.964193 15 108.967808 12 -160.056685 0
$end

 
 --------------------------------------------------------------
 
                    Orbital Energies (a.u.)
 --------------------------------------------------------------
 
 Alpha MOs
 -- Occupied --
-19.3992 -19.3551 -19.3546 -19.3525 -19.3520 -19.3497 -19.3450 -10.4669
-10.4554 -10.4499 -10.4129  -1.2336  -1.2118  -1.1932  -1.1737  -1.1493
 -1.1426  -1.1342  -0.8900  -0.8465  -0.7623  -0.7299  -0.6814  -0.6771
 -0.6641  -0.6491  -0.6314  -0.6091  -0.5896  -0.5769  -0.5665  -0.5412
 -0.5195  -0.5096  -0.4939  -0.4858  -0.4795  -0.4685  -0.4425  -0.4273
 -0.4261  -0.4189  -0.4159  -0.4056  -0.3780
 -- Virtual --
  0.0226   0.0367   0.0421   0.0447   0.0619   0.0650   0.0696   0.0812
  0.0836   0.1016   0.1151   0.1181   0.1295   0.1357   0.1381   0.1457
  0.1513   0.1596   0.1626   0.1685   0.1740   0.1750   0.1863   0.1962
  0.2173   0.2178   0.2235   0.2351   0.2452   0.2553   0.2590   0.2637
  0.2696   0.2773   0.2837   0.2908   0.2921   0.3008   0.3036   0.3103
  0.3185   0.3249   0.3255   0.3298   0.3378   0.3480   0.3529   0.3558
  0.3573   0.3659   0.3702   0.3732   0.3781   0.3884   0.3900   0.3951
  0.3978   0.4084   0.4134   0.4210   0.4245   0.4293   0.4373   0.4413
  0.4523   0.4573   0.4657   0.4719   0.4842   0.4976   0.5074   0.5261
  0.5720   0.5878   0.5944   0.6072   0.6178   0.6313   0.6389   0.6556
  0.6589   0.6706   0.6781   0.6833   0.6976   0.7142   0.7169   0.7274
  0.7419   0.7520   0.7587   0.7844   0.7850   0.8121   0.8205   0.8345
  0.8626   0.8789   0.8915   0.9078   0.9118   0.9381   0.9481   0.9848
  0.9858   1.0110   1.0330   1.0445   1.0576   1.0792   1.0904   1.1015
  1.1081   1.1342   1.1421   1.1465   1.1505   1.1655   1.1734   1.1746
  1.1883   1.1934   1.1978   1.2050   1.2109   1.2200   1.2255   1.2417
  1.2537   1.2626   1.2705   1.2794   1.2862   1.2997   1.3052   1.3126
  1.3368   1.3479   1.3548   1.3557   1.3967   1.4002   1.4159   1.4191
  1.4443   1.4601   1.4732   1.4815   1.4846   1.5015   1.5183   1.5428
  1.5594   1.5677   1.5790   1.5886   1.6111   1.6146   1.6281   1.6369
  1.6518   1.6786   1.7050   1.7079   1.7317   1.7411   1.7591   1.7831
  1.7990   1.8176   1.8450   1.8624   1.8869   1.9057   1.9226   1.9434
  1.9557   2.0145   2.0196   2.0530   2.0628   2.0829   2.1112   2.1488
  2.1559   2.2021   2.2333   2.2347   2.2433   2.2797   2.3335   2.3534
  2.3657   2.3819   2.3979   2.4053   2.4191   2.4331   2.4415   2.4473
  2.4801   2.5094   2.5223   2.5551   2.5688   2.5957   2.6331   2.6964
  2.7224   2.7607   2.7702   2.8564   2.8669   2.8754   2.8874   2.9256
  2.9650   2.9946   3.0241   3.0583   3.0932   3.1195   3.1482   3.1766
  3.2232   3.2546   3.2955   3.3092   3.3203   3.3487   3.3566   3.3768
  3.4018   3.4153   3.4429   3.4692   3.4863   3.5097   3.5288   3.5714
  3.5790   3.5939   3.6400   3.6590   3.6712   3.6831   3.6928   3.6952
  3.7164   3.7341   3.7677   3.7840   3.7953   3.8090   3.8181   3.8400
  3.8457   3.8620   3.8700   3.8871   3.9063   3.9128   3.9237   3.9324
  3.9502   3.9685   3.9707   4.0024   4.0389   4.0737   4.0984   4.1204
  4.1331   4.1715   4.1877   4.1981   4.2186   4.2431   4.2628   4.2979
  4.3042   4.3195   4.3336   4.3499   4.3661   4.3916   4.4007   4.4225
  4.4464   4.4492   4.4597   4.5102   4.5216   4.5389   4.5774   4.6205
  4.6481   4.7479   4.8682   5.0773   5.1103   5.1380   5.1871   5.1962
  5.2123   5.2297   5.2420   5.2444   5.2643   5.2781   5.2838   5.2907
  5.2968   5.3120   5.3183   5.3261   5.3367   5.3445   5.3584   5.3639
  5.3738   5.3938   5.4000   5.4212   5.4284   5.4336   5.4666   5.4740
  5.4851   5.5222   5.5249   5.5347   5.5513   5.5561   5.5861   5.6251
  5.6281   5.6389   5.6569   5.6681   5.6741   5.6805   5.7017   5.7060
  5.7590   5.7789   5.8426   5.8512   5.9110   5.9183   5.9606   5.9997
  6.0173   6.0514   6.0563   6.0996   6.1163   6.1605   6.1691   6.2112
  6.5019   6.5351   6.5972   6.7419   6.7618   6.7902   6.8233   6.9375
  6.9377   7.0634   7.0723   7.1139   7.1320   7.1455   7.1604   7.2293
  7.2557   7.2598   7.2694   7.2863   7.3048   7.3150   7.3305   7.3515
  7.3540   7.3617   7.3821   7.3913   7.4106   7.4437   7.4578   7.4802
  7.5003   7.5539   7.5888   7.6320   7.6842   7.7042   7.7175   7.7344
  7.7570   7.8033   7.8317   7.8586   7.8771   7.8909   7.9060   7.9583
 24.6993  24.7862  24.8379  24.8754  50.5509  50.6091  50.6160  50.6232
 50.6368  50.6893  50.6962
 
 Beta MOs
 -- Occupied --
-19.3767 -19.3549 -19.3545 -19.3524 -19.3520 -19.3497 -19.3449 -10.4664
-10.4550 -10.4499 -10.4132  -1.2317  -1.2096  -1.1930  -1.1496  -1.1429
 -1.1367  -1.1242  -0.8805  -0.8442  -0.7610  -0.7241  -0.6784  -0.6712
 -0.6603  -0.6486  -0.6295  -0.6009  -0.5835  -0.5659  -0.5424  -0.5354
 -0.5163  -0.5024  -0.4904  -0.4828  -0.4722  -0.4507  -0.4302  -0.4251
 -0.4209  -0.4155  -0.4046  -0.3701
 -- Virtual --
 -0.0680   0.0228   0.0368   0.0420   0.0449   0.0621   0.0651   0.0696
  0.0814   0.0841   0.1022   0.1153   0.1187   0.1296   0.1365   0.1389
  0.1461   0.1517   0.1598   0.1633   0.1686   0.1748   0.1756   0.1867
  0.1968   0.2179   0.2191   0.2253   0.2353   0.2458   0.2561   0.2592
  0.2665   0.2696   0.2777   0.2851   0.2920   0.2930   0.3017   0.3048
  0.3105   0.3190   0.3257   0.3277   0.3301   0.3394   0.3499   0.3537
  0.3570   0.3579   0.3666   0.3704   0.3750   0.3787   0.3895   0.3910
  0.3956   0.3982   0.4102   0.4173   0.4215   0.4257   0.4300   0.4381
  0.4419   0.4525   0.4581   0.4665   0.4740   0.4860   0.4982   0.5081
  0.5267   0.5732   0.5884   0.5953   0.6098   0.6185   0.6323   0.6394
  0.6559   0.6605   0.6725   0.6789   0.6846   0.6981   0.7147   0.7180
  0.7286   0.7428   0.7528   0.7597   0.7853   0.7869   0.8131   0.8210
  0.8355   0.8629   0.8796   0.8927   0.9091   0.9118   0.9388   0.9485
  0.9851   0.9870   1.0134   1.0355   1.0449   1.0588   1.0798   1.0925
  1.1020   1.1088   1.1351   1.1435   1.1477   1.1551   1.1674   1.1744
  1.1756   1.1899   1.1985   1.2034   1.2066   1.2157   1.2217   1.2281
  1.2434   1.2556   1.2634   1.2730   1.2844   1.2954   1.3017   1.3097
  1.3146   1.3386   1.3504   1.3564   1.3576   1.4004   1.4038   1.4187
  1.4216   1.4456   1.4612   1.4763   1.4837   1.4862   1.5029   1.5217
  1.5451   1.5606   1.5690   1.5806   1.5905   1.6146   1.6219   1.6319
  1.6379   1.6546   1.6807   1.7079   1.7114   1.7370   1.7437   1.7602
  1.7874   1.8030   1.8262   1.8585   1.8699   1.8904   1.9112   1.9253
  1.9448   1.9621   2.0216   2.0264   2.0563   2.0647   2.0860   2.1132
  2.1506   2.1582   2.2042   2.2364   2.2412   2.2454   2.2850   2.3339
  2.3570   2.3668   2.3833   2.4010   2.4086   2.4198   2.4369   2.4430
  2.4484   2.4838   2.5108   2.5236   2.5561   2.5749   2.5994   2.6342
  2.6970   2.7232   2.7641   2.7715   2.8577   2.8683   2.8775   2.8916
  2.9274   2.9699   2.9959   3.0261   3.0611   3.0957   3.1210   3.1495
  3.1770   3.2258   3.2566   3.2963   3.3107   3.3229   3.3499   3.3582
  3.3781   3.4040   3.4161   3.4454   3.4711   3.4868   3.5128   3.5305
  3.5728   3.5804   3.5955   3.6415   3.6602   3.6719   3.6840   3.6943
  3.6972   3.7174   3.7353   3.7682   3.7862   3.7953   3.8101   3.8197
  3.8405   3.8470   3.8633   3.8704   3.8888   3.9076   3.9140   3.9254
  3.9344   3.9508   3.9702   3.9714   4.0041   4.0425   4.0757   4.1005
  4.1215   4.1340   4.1743   4.1897   4.1994   4.2193   4.2471   4.2641
  4.2984   4.3058   4.3230   4.3355   4.3506   4.3702   4.3932   4.4040
  4.4250   4.4488   4.4568   4.4643   4.5132   4.5228   4.5426   4.5791
  4.6259   4.6543   4.7553   4.8709   5.0945   5.1787   5.1865   5.1981
  5.2141   5.2306   5.2416   5.2461   5.2534   5.2766   5.2847   5.2972
  5.3023   5.3095   5.3176   5.3211   5.3349   5.3423   5.3501   5.3658
  5.3703   5.3863   5.3978   5.4138   5.4244   5.4378   5.4516   5.4728
  5.4830   5.4952   5.5274   5.5330   5.5388   5.5544   5.5643   5.5924
  5.6262   5.6304   5.6454   5.6577   5.6698   5.6745   5.6856   5.7030
  5.7072   5.7612   5.7811   5.8444   5.8532   5.9129   5.9424   5.9690
  6.0051   6.0229   6.0569   6.0594   6.1041   6.1210   6.1647   6.1726
  6.2119   6.5048   6.5368   6.5983   6.7425   6.7780   6.7931   6.8400
  7.0298   7.0335   7.0654   7.0737   7.1152   7.1328   7.1471   7.1619
  7.2309   7.2567   7.2609   7.2712   7.2904   7.3076   7.3159   7.3313
  7.3537   7.3570   7.3824   7.3847   7.3993   7.4340   7.4581   7.4771
  7.4917   7.5068   7.5596   7.5900   7.6328   7.6917   7.7142   7.7232
  7.7438   7.7689   7.8087   7.8348   7.8591   7.8777   7.8912   7.9071
  7.9602  24.6994  24.7865  24.8379  24.8756  50.5620  50.6091  50.6163
 50.6239  50.6382  50.6916  50.6965
 --------------------------------------------------------------
 
          Ground-State Mulliken Net Atomic Charges

     Atom                 Charge (a.u.)    Spin (a.u.)
  --------------------------------------------------------
      1 C                    -0.027290       0.029022
      2 C                    -0.137774       0.002117
      3 O                    -0.451366       0.000209
      4 O                    -0.419937       0.004797
      5 O                    -0.190306       0.862213
      6 H                     0.339807       0.000239
      7 H                     0.356865      -0.000944
      8 H                     0.320906       0.088308
      9 H                     0.267946      -0.001285
     10 C                     0.035809       0.003578
     11 O                    -0.469082       0.000076
     12 C                    -0.121706       0.004061
     13 O                    -0.413439       0.002978
     14 O                    -0.406529       0.003777
     15 O                    -0.381045       0.001813
     16 H                     0.300061      -0.000377
     17 H                     0.327934      -0.000060
     18 H                     0.362635      -0.000404
     19 H                     0.370214       0.000206
     20 H                     0.336295      -0.000323
  --------------------------------------------------------
  Sum of atomic charges =     0.000000
  Sum of spin   charges =     1.000000

 -----------------------------------------------------------------
                    Cartesian Multipole Moments
 -----------------------------------------------------------------
    Charge (ESU x 10^10)
                 0.0000
    Dipole Moment (Debye)
         X      -7.8590      Y      -4.8799      Z      -3.5705
       Tot       9.9159
    Quadrupole Moments (Debye-Ang)
        XX     -75.9097     XY      -9.0511     YY     -79.2879
        XZ      10.7181     YZ      -7.7455     ZZ     -69.5193
    Octopole Moments (Debye-Ang^2)
       XXX    -233.0979    XXY    -140.4992    XYY     -89.9655
       YYY    -443.6368    XXZ      41.9049    XYZ      -5.9743
       YYZ     -13.2810    XZZ    -119.3784    YZZ    -162.1200
       ZZZ      95.9770
    Hexadecapole Moments (Debye-Ang^3)
      XXXX    -818.9830   XXXY    -448.3489   XXYY    -562.5165
      XYYY    -471.4574   YYYY   -2530.4340   XXXZ      87.4825
      XXYZ     -40.0678   XYYZ     -24.3167   YYYZ    -221.8317
      XXZZ    -361.8363   XYZZ    -209.0932   YYZZ    -654.6151
      XZZZ     115.5097   YZZZ     -62.7978   ZZZZ    -972.2445
 -----------------------------------------------------------------
 Total job time:  11140.17s(wall), 84597.96s(cpu) 
 Thu Nov 30 11:14:07 2023

        *************************************************************
        *                                                           *
        *  Thank you very much for using Q-Chem.  Have a nice day.  *
        *                                                           *
        *************************************************************


