
Running Job 1 of 1 Q_in.in
qchem Q_in.in_9955.0 /scratch/ari.fischer/qChem1912874.hpc-mn1/qchem9955/ 0
/usr/local/qchem-5.4.1/exe/qcprog.exe_s Q_in.in_9955.0 /scratch/ari.fischer/qChem1912874.hpc-mn1/qchem9955/
                  Welcome to Q-Chem
     A Quantum Leap Into The Future Of Chemistry


 Q-Chem 5.4, Q-Chem, Inc., Pleasanton, CA (2021)

 License issued to: Nanyang Technological University (site)

 E. Epifanovsky,  A. T. B. Gilbert,  Xintian Feng,  Joonho Lee,  Yuezhi Mao,  
 N. Mardirossian,  P. Pokhilko,  A. White,  M. Wormit,  M. P. Coons,  
 A. L. Dempwolff,  Zhengting Gan,  D. Hait,  P. R. Horn,  L. D. Jacobson,  
 I. Kaliman,  J. Kussmann,  A. W. Lange,  Ka Un Lao,  D. S. Levine,  Jie Liu,  
 S. C. McKenzie,  A. F. Morrison,  K. Nanda,  F. Plasser,  D. R. Rehn,  
 M. L. Vidal,  Zhi-Qiang You,  Ying Zhu,  B. Alam,  B. Albrecht,  
 A. Aldossary,  E. Alguire,  J. H. Andersen,  D. Barton,  K. Begam,  A. Behn,  
 Y. A. Bernard,  E. J. Berquist,  H. Burton,  A. Carreras,  K. Carter-Fenk,  
 R. Chakraborty,  A. D. Chien,  K. D. Closser,  V. Cofer-Shabica,  
 S. Dasgupta,  Jia Deng,  M. de Wergifosse,  M. Diedenhofen,  Hainam Do,  
 S. Ehlert,  Po-Tung Fang,  S. Fatehi,  Qingguo Feng,  T. Friedhoff,  
 J. Gayvert,  Qinghui Ge,  G. Gidofalvi,  M. Goldey,  J. Gomes,  
 C. Gonzalez-Espinoza,  S. Gulania,  A. Gunina,  M. W. D. Hanson-Heine,  
 P. H. P. Harbach,  A. W. Hauser,  M. F. Herbst,  M. Hernandez Vera,  
 M. Hodecker,  Z. C. Holden,  S. Houck,  Xunkun Huang,  Kerwin Hui,  
 B. C. Huynh,  M. Ivanov,  Hyunjun Ji,  Hanjie Jiang,  B. Kaduk,  S. Kaehler,  
 K. Khistyaev,  Jaehoon Kim,  P. Klunzinger,  Z. Koczor-Benda,  
 Joong Hoon Koh,  D. Kosenkov,  L. Koulias,  T. Kowalczyk,  C. M. Krauter,  
 K. Kue,  A. Kunitsa,  T. Kus,  A. Landau,  K. V. Lawler,  D. Lefrancois,  
 S. Lehtola,  Rain Li,  Yi-Pei Li,  Jiashu Liang,  M. Liebenthal,  
 Hung-Hsuan Lin,  You-Sheng Lin,  Fenglai Liu,  Kuan-Yu Liu,  
 M. Loipersberger,  A. Luenser,  A. Manjanath,  P. Manohar,  E. Mansoor,  
 S. F. Manzer,  Shan-Ping Mao,  A. V. Marenich,  T. Markovich,  S. Mason,  
 S. A. Maurer,  P. F. McLaughlin,  M. F. S. J. Menger,  J.-M. Mewes,  
 S. A. Mewes,  P. Morgante,  J. W. Mullinax,  K. J. Oosterbaan,  G. Paran,  
 Alexander C. Paul,  Suranjan K. Paul,  F. Pavosevic,  Zheng Pei,  S. Prager,  
 E. I. Proynov,  E. Ramos,  B. Rana,  A. E. Rask,  A. Rettig,  R. M. Richard,  
 F. Rob,  E. Rossomme,  T. Scheele,  M. Scheurer,  M. Schneider,  
 N. Sergueev,  S. M. Sharada,  W. Skomorowski,  D. W. Small,  C. J. Stein,  
 Yu-Chuan Su,  E. J. Sundstrom,  Zhen Tao,  J. Thirman,  T. Tsuchimochi,  
 N. M. Tubman,  S. P. Veccham,  O. Vydrov,  J. Wenzel,  J. Witte,  A. Yamada,  
 Kun Yao,  S. Yeganeh,  S. R. Yost,  A. Zech,  Igor Ying Zhang,  Xing Zhang,  
 Yu Zhang,  D. Zuev,  A. Aspuru-Guzik,  A. T. Bell,  N. A. Besley,  
 K. B. Bravaya,  B. R. Brooks,  D. Casanova,  Jeng-Da Chai,  S. Coriani,  
 C. J. Cramer,  A. E. DePrince, III,  R. A. DiStasio Jr.,  A. Dreuw,  
 B. D. Dunietz,  T. R. Furlani,  W. A. Goddard III,  S. Grimme,  
 S. Hammes-Schiffer,  T. Head-Gordon,  W. J. Hehre,  Chao-Ping Hsu,  
 T.-C. Jagau,  Yousung Jung,  A. Klamt,  Jing Kong,  D. S. Lambrecht,  
 WanZhen Liang,  N. J. Mayhall,  C. W. McCurdy,  J. B. Neaton,  
 C. Ochsenfeld,  J. A. Parkhill,  R. Peverati,  V. A. Rassolov,  Yihan Shao,  
 L. V. Slipchenko,  T. Stauch,  R. P. Steele,  J. E. Subotnik,  
 A. J. W. Thom,  A. Tkatchenko,  D. G. Truhlar,  T. Van Voorhis,  
 T. A. Wesolowski,  K. B. Whaley,  H. L. Woodcock III,  P. M. Zimmerman,  
 S. Faraji,  P. M. W. Gill,  M. Head-Gordon,  J. M. Herbert,  A. I. Krylov

 Additional authors for Version 5.4.1: 
 S. Kotaru,  Shaozhi Li,  Xiangyuan Li,  F. Matz,  A. Molle,  Haisheng Ren,  
 Yingli Su,  Hung-Yi Tsai,  C. Utku,  Fang Wang

 Contributors to earlier versions of Q-Chem not listed above: 
 R. D. Adamson,  B. Austin,  R. Baer,  J. Baker,  G. J. O. Beran,  
 K. Brandhorst,  S. T. Brown,  E. F. C. Byrd,  A. K. Chakraborty,  
 G. K. L. Chan,  Chun-Min Chang,  Yunqing Chen,  C.-L. Cheng,  
 Siu Hung Chien,  D. M. Chipman,  D. L. Crittenden,  H. Dachsel,  
 R. J. Doerksen,  A. D. Dutoi,  R. G. Edgar,  J. Fosso-Tande,  
 L. Fusti-Molnar,  D. Ghosh,  A. Ghysels,  A. Golubeva-Zadorozhnaya,  
 J. Gonthier,  M. S. Gordon,  S. R. Gwaltney,  G. Hawkins,  J. E. Herr,  
 A. Heyden,  S. Hirata,  E. G. Hohenstein,  G. Kedziora,  F. J. Keil,  
 C. Kelley,  Jihan Kim,  R. A. King,  R. Z. Khaliullin,  P. P. Korambath,  
 W. Kurlancheek,  A. Laurent,  A. M. Lee,  M. S. Lee,  S. V. Levchenko,  
 Ching Yeh Lin,  D. Liotard,  E. Livshits,  R. C. Lochan,  I. Lotan,  
 L. A. Martinez-Martinez,  P. E. Maslen,  N. Nair,  D. P. O'Neill,  
 D. Neuhauser,  E. Neuscamman,  C. M. Oana,  R. Olivares-Amaya,  R. Olson,  
 T. M. Perrine,  B. Peters,  P. A. Pieniazek,  A. Prociuk,  Y. M. Rhee,  
 J. Ritchie,  M. A. Rohrdanz,  E. Rosta,  N. J. Russ,  H. F. Schaefer III,  
 M. W. Schmidt,  N. E. Schultz,  S. Sharma,  N. Shenvi,  C. D. Sherrill,  
 A. C. Simmonett,  A. Sodt,  T. Stein,  D. Stuck,  K. S. Thanthiriwatte,  
 V. Vanovschi,  L. Vogt,  Tao Wang,  A. Warshel,  M. A. Watson,  
 C. F. Williams,  Q. Wu,  X. Xu,  Jun Yang,  W. Zhang,  Yan Zhao

 Please cite Q-Chem as follows:
 Y. Shao et al., Mol. Phys. 113, 184-215 (2015)
 DOI: 10.1080/00268976.2014.952696

 Q-Chem 5.4.1 for Intel X86 EM64T Linux

 Parts of Q-Chem use Armadillo 9.800.1 (Horizon Scraper).
 http://arma.sourceforge.net/

 Q-Chem begins on Mon Feb  5 12:38:30 2024  

 Host: 
0

     Scratch files written to /scratch/ari.fischer/qChem1912874.hpc-mn1/qchem9955//
 Aug1521 |scratch|qcdevops|jenkins|workspace|build_RNUM 8249   
 Processing $rem in /usr/local/qchem-5.4.1/config/preferences:
 Processing $rem in /home/ari.fischer/.qchemrc:
 Symmetry turned off for PCM/SM12/SMD calculation

 Checking the input file for inconsistencies... 	...done.

--------------------------------------------------------------
User input:
--------------------------------------------------------------
$molecule
0 2
C         0.5259361465    0.2043921395    0.4740676009
O         1.2874533448   -0.5711169147    0.9869908096
H        -2.5875831013    0.7760436896   -0.2342908893
C        -0.9933530291   -0.0778802264    0.4538855820
O        -1.1924198531   -1.3245821325   -0.0584423260
O        -1.6382660789    0.9534424243   -0.1592693111
O         0.9252740252    1.3236119123   -0.1025326688
H         0.1686586019    1.8175050908   -0.4603742573
O        -1.4339563021   -0.1633635542    1.8680049276
O        -1.1076507085    0.9154251556    2.5200574009
H        -2.1404694451   -1.4927940843   -0.1674083686
$end

$rem
BASIS = 6-31G(d)
JOB_TYPE = SP
METHOD = wB97M-V
SCF_ALGORITHM = DIIS_GDM
MAX_SCF_CYCLES = 400
SCF_CONVERGENCE = 7
THRESH = 12
Solvent_method = SMD
$end
--------------------------------------------------------------
 ----------------------------------------------------------------
             Standard Nuclear Orientation (Angstroms)
    I     Atom           X                Y                Z
 ----------------------------------------------------------------
    1      C       0.5259361465     0.2043921395     0.4740676009
    2      O       1.2874533448    -0.5711169147     0.9869908096
    3      H      -2.5875831013     0.7760436896    -0.2342908893
    4      C      -0.9933530291    -0.0778802264     0.4538855820
    5      O      -1.1924198531    -1.3245821325    -0.0584423260
    6      O      -1.6382660789     0.9534424243    -0.1592693111
    7      O       0.9252740252     1.3236119123    -0.1025326688
    8      H       0.1686586019     1.8175050908    -0.4603742573
    9      O      -1.4339563021    -0.1633635542     1.8680049276
   10      O      -1.1076507085     0.9154251556     2.5200574009
   11      H      -2.1404694451    -1.4927940843    -0.1674083686
 ----------------------------------------------------------------
 Nuclear Repulsion Energy =         417.95628510 hartrees
 There are       32 alpha and       31 beta electrons
 Requested basis set is 6-31G(d)
 There are 38 shells and 126 basis functions

 Total QAlloc Memory Limit 288000 MB
 Mega-Array Size       188 MB
 MEM_STATIC part       192 MB
 
 Citation of the SMD model:
 Marenich, A.V.; Cramer, C.J.; Truhlar, D.G.
 J. Phys. Chem. B 2009, 113, 6378-6396.
 iSolventCode=           1
 Solvent: water                                                           
 
 vradii
            1           2           3           4           5           6
    1   1.8500000   1.5200000   1.2000000   1.8500000   1.5200000   1.5200000
            7           8           9          10          11
    1   1.5200000   1.2000000   1.5200000   1.5200000   1.2000000
 Changing PCM_VDW_RADII to SMD_RADIUS
 Discretize the solute cavity surface with Lebedev spheres
	Using 110 Lebedev grid points for each H atom
	Using 194 Lebedev grid points for other atoms
	Atomic van der Waals radii will be scaled by 1.20
 Remove points where switching function is < 1.0e-08
 Keep 1006 surface tesserae and discard 876 interior tesserae
 Molecular Surface Area = 117.604 Angst**2

                       Distance Matrix (Angstroms)
             C (  1)   O (  2)   H (  3)   C (  4)   O (  5)   O (  6)
   O (  2)  1.201837
   H (  3)  3.243849  4.280453
   C (  4)  1.545421  2.393650  1.935030
   O (  5)  2.360948  2.794711  2.527851  1.362488
   O (  6)  2.376124  3.492567  0.968660  1.362167  2.323433
   O (  7)  1.320830  2.215453  3.557718  2.440269  3.391092  2.590749
   H (  8)  1.898147  3.008668  2.955101  2.403878  3.447723  2.025400
   O (  9)  2.432999  2.889380  2.575459  1.483635  2.262293  2.323540
   O ( 10)  2.712978  3.208835  3.129866  2.295384  3.416647  2.731628
   H ( 11)  3.225159  3.732664  2.313441  1.924542  0.969003  2.497268
             O (  7)   H (  8)   O (  9)   O ( 10)
   H (  8)  0.971827
   O (  9)  3.414686  3.451603
   O ( 10)  3.343259  3.365366  1.302088
   H ( 11)  4.163548  4.046725  2.531690  3.753493
 
 A cutoff of  1.0D-12 yielded    694 shell pairs
 There are      8084 function pairs
 Smallest overlap matrix eigenvalue = 1.67E-03

 Scale SEOQF with 1.000000e-01/1.000000e-01/1.000000e-01

 Standard Electronic Orientation quadrupole field applied
 Nucleus-field energy     =    -0.0000000024 hartrees
 Guess from superposition of atomic densities
 Warning:  Energy on first SCF cycle will be non-variational
 SAD guess density has 63.000000 electrons

 -----------------------------------------------------------------------
  General SCF calculation program by
  Eric Jon Sundstrom, Paul Horn, Yuezhi Mao, Dmitri Zuev, Alec White,
  David Stuck, Shaama M.S., Shane Yost, Joonho Lee, David Small,
  Daniel Levine, Susi Lehtola, Hugh Burton, Evgeny Epifanovsky,
  Bang C. Huynh
 -----------------------------------------------------------------------
 Exchange:     0.1500 Hartree-Fock + 1.0000 wB97M-V + LR-HF
 Correlation:  1.0000 wB97M-V
 Using SG-2 standard quadrature grid
 Nonlocal Correlation:  VV10 with C = 0.0100 and b = 6.00 and scale = 1.00000
 Grid used for NLC:  SG-1 standard quadrature
 
 Citation of the SMD model:
 Marenich, A.V.; Cramer, C.J.; Truhlar, D.G.
 J. Phys. Chem. B 2009, 113, 6378-6396.
 iSolventCode=           1
 Solvent: water                                                           
 
 vradii
            1           2           3           4           5           6
    1   1.8500000   1.5200000   1.2000000   1.8500000   1.5200000   1.5200000
            7           8           9          10          11
    1   1.5200000   1.2000000   1.5200000   1.5200000   1.2000000
 using 4 threads for integral computing
 -------------------------------------------------------
 OpenMP Integral computing Module                
 Release: version 1.0, May 2013, Q-Chem Inc. Pittsburgh 
 -------------------------------------------------------
 -------------------------------------------------------
 OpenMP BLAS3 based DFT computing Module                
 Release: version 1.0, May 2013, Q-Chem Inc. Pittsburgh 
 -------------------------------------------------------
 A unrestricted SCF calculation will be
 performed using DIIS, GDM
 SCF converges when RMS gradient is below 1.0e-07
 ---------------------------------------
  Cycle       Energy         DIIS error
 ---------------------------------------
    1    -530.6004796625      3.48e-02  
    2    -528.8585153142      6.08e-03  Done DIIS. Switching to GDM
 ---------------------------------------
  Cycle       Energy        RMS Gradient
 ---------------------------------------
    1    -528.8585153142      1.75e-01   Descent step
    2    -529.0650089949      5.18e-02   Normal BFGS step
    3    -529.0957507396      3.01e-02   Normal BFGS step
    4    -529.0977982587      1.43e-02   Normal BFGS step
    5    -529.0996002732      6.95e-03   Normal BFGS step
    6    -529.0997650379      3.56e-03   Normal BFGS step
    7    -529.0998608707      2.45e-03   Normal BFGS step
    8    -529.0998800959      1.31e-03   Normal BFGS step
    9    -529.0998861878      1.17e-03   Normal BFGS step
   10    -529.0998909375      1.05e-03   Normal BFGS step
   11    -529.0998949293      7.29e-04   Normal BFGS step
   12    -529.0998973193      3.85e-04   Normal BFGS step
   13    -529.0998979581      1.64e-04   Normal BFGS step
   14    -529.0998980470      2.74e-05   Normal BFGS step
   15    -529.0998980650      1.00e-05   Normal BFGS step
   16    -529.0998980668      4.84e-06   Normal BFGS step
   17    -529.0998980671      1.52e-06   Normal BFGS step
   18    -529.0998980672      6.84e-07   Normal BFGS step
   19    -529.0998980672      3.78e-07   Normal BFGS step
   20    -529.0998980672      2.01e-07   Normal BFGS step
   21    -529.0998980672      8.61e-08  Convergence criterion met
 ---------------------------------------
 SCF time:   CPU 164.63s  wall 44.00s 
<S^2> =          0.752801762
(3)  G-ENP(liq) elect-nuc-pol free energy of system     -529.099898067 a.u.
(4)  G-CDS(liq) cavity-dispersion-solvent structure 
     free energy                                                4.2101 kcal/mol
(6)  G-S(liq) free energy of system                     -529.093188860 a.u.
 SCF   energy in the final basis set =     -529.0931888605
 Total energy in the final basis set =     -529.0931888605
 
 --------------------------------------------------------------
 
                    Orbital Energies (a.u.)
 --------------------------------------------------------------
 
 Alpha MOs
 -- Occupied --
-19.4821 -19.4435 -19.4130 -19.3994 -19.3938 -19.3624 -10.5466 -10.5148
 -1.3537  -1.2635  -1.2350  -1.1826  -1.1637  -0.9991  -0.8505  -0.7455
 -0.7089  -0.6979  -0.6784  -0.6115  -0.6022  -0.5842  -0.5638  -0.5616
 -0.5196  -0.4951  -0.4820  -0.4397  -0.4357  -0.4125  -0.3983  -0.3895
 -- Virtual --
  0.0765   0.1573   0.1947   0.2099   0.2377   0.2774   0.3053   0.3487
  0.3697   0.4247   0.5053   0.6187   0.6257   0.6729   0.7060   0.7155
  0.7416   0.7695   0.8219   0.8585   0.8778   0.8860   0.9089   0.9246
  0.9493   0.9896   0.9970   1.0290   1.0593   1.0795   1.1001   1.1059
  1.1479   1.1522   1.1641   1.1780   1.2372   1.2896   1.3149   1.3421
  1.3586   1.3987   1.5145   1.5478   1.5605   1.5883   1.6516   1.6710
  1.6984   1.7013   1.7510   1.8091   1.8330   1.8428   1.8764   1.9184
  1.9327   1.9512   1.9701   2.0294   2.0350   2.0733   2.1323   2.1672
  2.2054   2.2552   2.3317   2.3830   2.3945   2.4565   2.4977   2.5394
  2.5546   2.5992   2.6719   2.7343   2.7426   2.7860   2.8471   2.8812
  2.9588   3.0208   3.0368   3.0698   3.1397   3.2126   3.5430   3.8452
  3.9174   4.1397   4.2036   4.3433   4.5587   4.8047
 
 Beta MOs
 -- Occupied --
-19.4730 -19.4245 -19.4130 -19.3992 -19.3938 -19.3624 -10.5469 -10.5147
 -1.3309  -1.2609  -1.2328  -1.1825  -1.1636  -0.9651  -0.8454  -0.7450
 -0.7070  -0.6851  -0.6727  -0.5880  -0.5838  -0.5699  -0.5621  -0.5378
 -0.5170  -0.4846  -0.4750  -0.4371  -0.4352  -0.4059  -0.3767
 -- Virtual --
 -0.0225   0.0774   0.1579   0.1968   0.2154   0.2490   0.2832   0.3112
  0.3499   0.3708   0.4252   0.5060   0.6207   0.6261   0.6740   0.7104
  0.7171   0.7431   0.7703   0.8241   0.8647   0.8805   0.8944   0.9204
  0.9263   0.9564   0.9910   1.0142   1.0338   1.0631   1.0876   1.1078
  1.1147   1.1513   1.1573   1.1674   1.1922   1.2403   1.2930   1.3193
  1.3454   1.3638   1.4042   1.5152   1.5578   1.5630   1.6010   1.6577
  1.6807   1.7055   1.7072   1.7588   1.8102   1.8371   1.8449   1.8844
  1.9245   1.9349   1.9529   1.9896   2.0358   2.0452   2.0789   2.1378
  2.1729   2.2072   2.2595   2.3389   2.3859   2.4096   2.4592   2.5097
  2.5462   2.5569   2.6083   2.6819   2.7361   2.7467   2.7870   2.8520
  2.8829   2.9616   3.0235   3.0408   3.0743   3.1439   3.2129   3.5768
  3.8530   3.9178   4.1454   4.2061   4.3444   4.5588   4.8053
 --------------------------------------------------------------
 
          Ground-State Mulliken Net Atomic Charges

     Atom                 Charge (a.u.)    Spin (a.u.)
  --------------------------------------------------------
      1 C                     0.602413       0.005550
      2 O                    -0.497847      -0.001828
      3 H                     0.490019      -0.000502
      4 C                     0.643635      -0.008304
      5 O                    -0.627959      -0.000890
      6 O                    -0.632710       0.005696
      7 O                    -0.585704       0.001196
      8 H                     0.495714      -0.000053
      9 O                    -0.193913       0.289382
     10 O                    -0.177268       0.709824
     11 H                     0.483622      -0.000071
  --------------------------------------------------------
  Sum of atomic charges =     0.000000
  Sum of spin   charges =     1.000000

 -----------------------------------------------------------------
                    Cartesian Multipole Moments
 -----------------------------------------------------------------
    Charge (ESU x 10^10)
                 0.0000
    Dipole Moment (Debye)
         X      -7.2874      Y       1.3025      Z      -4.5016
       Tot       8.6641
    Quadrupole Moments (Debye-Ang)
        XX     -32.9730     XY       3.0010     YY     -43.1114
        XZ       2.1794     YZ      -1.2274     ZZ     -52.1092
    Octopole Moments (Debye-Ang^2)
       XXX       6.9539    XXY     -13.6147    XYY      13.3177
       YYY     -15.5680    XXZ     -42.4304    XYZ       2.8982
       YYZ     -38.1194    XZZ      28.4715    YZZ      -9.1312
       ZZZ    -114.4141
    Hexadecapole Moments (Debye-Ang^3)
      XXXX    -291.4935   XXXY       7.0683   XXYY     -94.2298
      XYYY       8.2032   YYYY    -215.1864   XXXZ      75.4131
      XXYZ      -3.6379   XYYZ      24.5834   YYYZ     -24.6661
      XXZZ    -150.2614   XYZZ       6.4953   YYZZ    -108.5231
      XZZZ      88.0959   YZZZ     -30.7944   ZZZZ    -445.2885
 -----------------------------------------------------------------
 Total job time:  44.46s(wall), 166.51s(cpu) 
 Mon Feb  5 12:39:14 2024

        *************************************************************
        *                                                           *
        *  Thank you very much for using Q-Chem.  Have a nice day.  *
        *                                                           *
        *************************************************************


