
Running Job 1 of 1 Q_in.in
qchem Q_in.in_233090.0 /scratch/ari.fischer/qChem1853805.hpc-mn1/qchem233090/ 0
/usr/local/qchem-5.4.1/exe/qcprog.exe_s Q_in.in_233090.0 /scratch/ari.fischer/qChem1853805.hpc-mn1/qchem233090/
                  Welcome to Q-Chem
     A Quantum Leap Into The Future Of Chemistry


 Q-Chem 5.4, Q-Chem, Inc., Pleasanton, CA (2021)

 License issued to: Nanyang Technological University (site)

 E. Epifanovsky,  A. T. B. Gilbert,  Xintian Feng,  Joonho Lee,  Yuezhi Mao,  
 N. Mardirossian,  P. Pokhilko,  A. White,  M. Wormit,  M. P. Coons,  
 A. L. Dempwolff,  Zhengting Gan,  D. Hait,  P. R. Horn,  L. D. Jacobson,  
 I. Kaliman,  J. Kussmann,  A. W. Lange,  Ka Un Lao,  D. S. Levine,  Jie Liu,  
 S. C. McKenzie,  A. F. Morrison,  K. Nanda,  F. Plasser,  D. R. Rehn,  
 M. L. Vidal,  Zhi-Qiang You,  Ying Zhu,  B. Alam,  B. Albrecht,  
 A. Aldossary,  E. Alguire,  J. H. Andersen,  D. Barton,  K. Begam,  A. Behn,  
 Y. A. Bernard,  E. J. Berquist,  H. Burton,  A. Carreras,  K. Carter-Fenk,  
 R. Chakraborty,  A. D. Chien,  K. D. Closser,  V. Cofer-Shabica,  
 S. Dasgupta,  Jia Deng,  M. de Wergifosse,  M. Diedenhofen,  Hainam Do,  
 S. Ehlert,  Po-Tung Fang,  S. Fatehi,  Qingguo Feng,  T. Friedhoff,  
 J. Gayvert,  Qinghui Ge,  G. Gidofalvi,  M. Goldey,  J. Gomes,  
 C. Gonzalez-Espinoza,  S. Gulania,  A. Gunina,  M. W. D. Hanson-Heine,  
 P. H. P. Harbach,  A. W. Hauser,  M. F. Herbst,  M. Hernandez Vera,  
 M. Hodecker,  Z. C. Holden,  S. Houck,  Xunkun Huang,  Kerwin Hui,  
 B. C. Huynh,  M. Ivanov,  Hyunjun Ji,  Hanjie Jiang,  B. Kaduk,  S. Kaehler,  
 K. Khistyaev,  Jaehoon Kim,  P. Klunzinger,  Z. Koczor-Benda,  
 Joong Hoon Koh,  D. Kosenkov,  L. Koulias,  T. Kowalczyk,  C. M. Krauter,  
 K. Kue,  A. Kunitsa,  T. Kus,  A. Landau,  K. V. Lawler,  D. Lefrancois,  
 S. Lehtola,  Rain Li,  Yi-Pei Li,  Jiashu Liang,  M. Liebenthal,  
 Hung-Hsuan Lin,  You-Sheng Lin,  Fenglai Liu,  Kuan-Yu Liu,  
 M. Loipersberger,  A. Luenser,  A. Manjanath,  P. Manohar,  E. Mansoor,  
 S. F. Manzer,  Shan-Ping Mao,  A. V. Marenich,  T. Markovich,  S. Mason,  
 S. A. Maurer,  P. F. McLaughlin,  M. F. S. J. Menger,  J.-M. Mewes,  
 S. A. Mewes,  P. Morgante,  J. W. Mullinax,  K. J. Oosterbaan,  G. Paran,  
 Alexander C. Paul,  Suranjan K. Paul,  F. Pavosevic,  Zheng Pei,  S. Prager,  
 E. I. Proynov,  E. Ramos,  B. Rana,  A. E. Rask,  A. Rettig,  R. M. Richard,  
 F. Rob,  E. Rossomme,  T. Scheele,  M. Scheurer,  M. Schneider,  
 N. Sergueev,  S. M. Sharada,  W. Skomorowski,  D. W. Small,  C. J. Stein,  
 Yu-Chuan Su,  E. J. Sundstrom,  Zhen Tao,  J. Thirman,  T. Tsuchimochi,  
 N. M. Tubman,  S. P. Veccham,  O. Vydrov,  J. Wenzel,  J. Witte,  A. Yamada,  
 Kun Yao,  S. Yeganeh,  S. R. Yost,  A. Zech,  Igor Ying Zhang,  Xing Zhang,  
 Yu Zhang,  D. Zuev,  A. Aspuru-Guzik,  A. T. Bell,  N. A. Besley,  
 K. B. Bravaya,  B. R. Brooks,  D. Casanova,  Jeng-Da Chai,  S. Coriani,  
 C. J. Cramer,  A. E. DePrince, III,  R. A. DiStasio Jr.,  A. Dreuw,  
 B. D. Dunietz,  T. R. Furlani,  W. A. Goddard III,  S. Grimme,  
 S. Hammes-Schiffer,  T. Head-Gordon,  W. J. Hehre,  Chao-Ping Hsu,  
 T.-C. Jagau,  Yousung Jung,  A. Klamt,  Jing Kong,  D. S. Lambrecht,  
 WanZhen Liang,  N. J. Mayhall,  C. W. McCurdy,  J. B. Neaton,  
 C. Ochsenfeld,  J. A. Parkhill,  R. Peverati,  V. A. Rassolov,  Yihan Shao,  
 L. V. Slipchenko,  T. Stauch,  R. P. Steele,  J. E. Subotnik,  
 A. J. W. Thom,  A. Tkatchenko,  D. G. Truhlar,  T. Van Voorhis,  
 T. A. Wesolowski,  K. B. Whaley,  H. L. Woodcock III,  P. M. Zimmerman,  
 S. Faraji,  P. M. W. Gill,  M. Head-Gordon,  J. M. Herbert,  A. I. Krylov

 Additional authors for Version 5.4.1: 
 S. Kotaru,  Shaozhi Li,  Xiangyuan Li,  F. Matz,  A. Molle,  Haisheng Ren,  
 Yingli Su,  Hung-Yi Tsai,  C. Utku,  Fang Wang

 Contributors to earlier versions of Q-Chem not listed above: 
 R. D. Adamson,  B. Austin,  R. Baer,  J. Baker,  G. J. O. Beran,  
 K. Brandhorst,  S. T. Brown,  E. F. C. Byrd,  A. K. Chakraborty,  
 G. K. L. Chan,  Chun-Min Chang,  Yunqing Chen,  C.-L. Cheng,  
 Siu Hung Chien,  D. M. Chipman,  D. L. Crittenden,  H. Dachsel,  
 R. J. Doerksen,  A. D. Dutoi,  R. G. Edgar,  J. Fosso-Tande,  
 L. Fusti-Molnar,  D. Ghosh,  A. Ghysels,  A. Golubeva-Zadorozhnaya,  
 J. Gonthier,  M. S. Gordon,  S. R. Gwaltney,  G. Hawkins,  J. E. Herr,  
 A. Heyden,  S. Hirata,  E. G. Hohenstein,  G. Kedziora,  F. J. Keil,  
 C. Kelley,  Jihan Kim,  R. A. King,  R. Z. Khaliullin,  P. P. Korambath,  
 W. Kurlancheek,  A. Laurent,  A. M. Lee,  M. S. Lee,  S. V. Levchenko,  
 Ching Yeh Lin,  D. Liotard,  E. Livshits,  R. C. Lochan,  I. Lotan,  
 L. A. Martinez-Martinez,  P. E. Maslen,  N. Nair,  D. P. O'Neill,  
 D. Neuhauser,  E. Neuscamman,  C. M. Oana,  R. Olivares-Amaya,  R. Olson,  
 T. M. Perrine,  B. Peters,  P. A. Pieniazek,  A. Prociuk,  Y. M. Rhee,  
 J. Ritchie,  M. A. Rohrdanz,  E. Rosta,  N. J. Russ,  H. F. Schaefer III,  
 M. W. Schmidt,  N. E. Schultz,  S. Sharma,  N. Shenvi,  C. D. Sherrill,  
 A. C. Simmonett,  A. Sodt,  T. Stein,  D. Stuck,  K. S. Thanthiriwatte,  
 V. Vanovschi,  L. Vogt,  Tao Wang,  A. Warshel,  M. A. Watson,  
 C. F. Williams,  Q. Wu,  X. Xu,  Jun Yang,  W. Zhang,  Yan Zhao

 Please cite Q-Chem as follows:
 Y. Shao et al., Mol. Phys. 113, 184-215 (2015)
 DOI: 10.1080/00268976.2014.952696

 Q-Chem 5.4.1 for Intel X86 EM64T Linux

 Parts of Q-Chem use Armadillo 9.800.1 (Horizon Scraper).
 http://arma.sourceforge.net/

 Q-Chem begins on Wed Dec  6 11:01:59 2023  

 Host: 
0

     Scratch files written to /scratch/ari.fischer/qChem1853805.hpc-mn1/qchem233090//
 Aug1521 |scratch|qcdevops|jenkins|workspace|build_RNUM 8249   
 Processing $rem in /usr/local/qchem-5.4.1/config/preferences:
 Processing $rem in /home/ari.fischer/.qchemrc:
 Symmetry turned off for PCM/SM12/SMD calculation

 Checking the input file for inconsistencies... 	...done.

--------------------------------------------------------------
User input:
--------------------------------------------------------------
$molecule
-1 2
C         0.6332016938    0.2492218888    0.7584201423
O         1.4025855345   -0.2466265649    1.5928966321
H        -1.9375709960   -1.0123331655   -0.8866207339
C        -0.5876356319   -0.6521105713    0.4044916578
O        -0.8569532521   -1.6133086963    1.1906387653
O        -1.1874161180   -0.4200235349   -0.6924266891
O         0.6788790895    1.3139223991    0.1285257991
O        -1.4798178908    1.1120009332    2.5219901422
O        -2.4778756125    0.8597842175    1.6870392901
H        -1.6207131163   -2.1609506057    0.9312915941
$end

$rem
BASIS = 6-311++G**
JOB_TYPE = SP
METHOD = wB97M-V
SCF_ALGORITHM = DIIS_GDM
MAX_SCF_CYCLES = 400
SCF_CONVERGENCE = 7
THRESH = 12
Solvent_method = SMD
$end
--------------------------------------------------------------
 ----------------------------------------------------------------
             Standard Nuclear Orientation (Angstroms)
    I     Atom           X                Y                Z
 ----------------------------------------------------------------
    1      C       0.6332016938     0.2492218888     0.7584201423
    2      O       1.4025855345    -0.2466265649     1.5928966321
    3      H      -1.9375709960    -1.0123331655    -0.8866207339
    4      C      -0.5876356319    -0.6521105713     0.4044916578
    5      O      -0.8569532521    -1.6133086963     1.1906387653
    6      O      -1.1874161180    -0.4200235349    -0.6924266891
    7      O       0.6788790895     1.3139223991     0.1285257991
    8      O      -1.4798178908     1.1120009332     2.5219901422
    9      O      -2.4778756125     0.8597842175     1.6870392901
   10      H      -1.6207131163    -2.1609506057     0.9312915941
 ----------------------------------------------------------------
 Nuclear Repulsion Energy =         379.23554331 hartrees
 There are       32 alpha and       31 beta electrons
 Requested basis set is 6-311++G(d,p)
 There are 58 shells and 190 basis functions

 Total QAlloc Memory Limit 288000 MB
 Mega-Array Size       188 MB
 MEM_STATIC part       192 MB
 
 Citation of the SMD model:
 Marenich, A.V.; Cramer, C.J.; Truhlar, D.G.
 J. Phys. Chem. B 2009, 113, 6378-6396.
 iSolventCode=           1
 Solvent: water                                                           
 
 vradii
            1           2           3           4           5           6
    1   1.8500000   1.5200000   1.2000000   1.8500000   1.5200000   1.5200000
            7           8           9          10
    1   1.5200000   1.5200000   1.5200000   1.2000000
 Changing PCM_VDW_RADII to SMD_RADIUS
 Discretize the solute cavity surface with Lebedev spheres
	Using 110 Lebedev grid points for each H atom
	Using 194 Lebedev grid points for other atoms
	Atomic van der Waals radii will be scaled by 1.20
 Remove points where switching function is < 1.0e-08
 Keep 1045 surface tesserae and discard 727 interior tesserae
 Molecular Surface Area = 126.290 Angst**2

                       Distance Matrix (Angstroms)
             C (  1)   O (  2)   H (  3)   C (  4)   O (  5)   O (  6)
   O (  2)  1.238615
   H (  3)  3.302507  4.229771
   C (  4)  1.558239  2.353233  1.902382
   O (  5)  2.424128  2.671170  2.417419  1.270614
   O (  6)  2.422291  3.458450  0.975333  1.271547  2.253679
   O (  7)  1.237918  2.259081  3.645243  2.354889  3.472110  2.676488
   O (  8)  2.884340  3.319237  4.042395  2.896874  3.096412  3.572824
   O (  9)  3.303623  4.036209  3.228077  2.739299  2.998331  2.994170
   H ( 10)  3.304383  3.639051  2.173598  1.902989  0.974937  2.419718
             O (  7)   O (  8)   O (  9)
   O (  8)  3.229461
   O (  9)  3.549691  1.325472
   H ( 10)  4.243501  3.641756  3.229663
 
 A cutoff of  1.0D-12 yielded   1542 shell pairs
 There are     17185 function pairs (     18665 Cartesian)
 Smallest overlap matrix eigenvalue = 6.20E-05

 Scale SEOQF with 1.000000e-01/1.000000e-01/1.000000e-01

 Standard Electronic Orientation quadrupole field applied
 Nucleus-field energy     =    -0.0000000039 hartrees
 Guess from superposition of atomic densities
 Warning:  Energy on first SCF cycle will be non-variational
 SAD guess density has 62.000000 electrons

 -----------------------------------------------------------------------
  General SCF calculation program by
  Eric Jon Sundstrom, Paul Horn, Yuezhi Mao, Dmitri Zuev, Alec White,
  David Stuck, Shaama M.S., Shane Yost, Joonho Lee, David Small,
  Daniel Levine, Susi Lehtola, Hugh Burton, Evgeny Epifanovsky,
  Bang C. Huynh
 -----------------------------------------------------------------------
 Exchange:     0.1500 Hartree-Fock + 1.0000 wB97M-V + LR-HF
 Correlation:  1.0000 wB97M-V
 Using SG-2 standard quadrature grid
 Nonlocal Correlation:  VV10 with C = 0.0100 and b = 6.00 and scale = 1.00000
 Grid used for NLC:  SG-1 standard quadrature
 
 Citation of the SMD model:
 Marenich, A.V.; Cramer, C.J.; Truhlar, D.G.
 J. Phys. Chem. B 2009, 113, 6378-6396.
 iSolventCode=           1
 Solvent: water                                                           
 
 vradii
            1           2           3           4           5           6
    1   1.8500000   1.5200000   1.2000000   1.8500000   1.5200000   1.5200000
            7           8           9          10
    1   1.5200000   1.5200000   1.5200000   1.2000000
 using 4 threads for integral computing
 -------------------------------------------------------
 OpenMP Integral computing Module                
 Release: version 1.0, May 2013, Q-Chem Inc. Pittsburgh 
 -------------------------------------------------------
 -------------------------------------------------------
 OpenMP BLAS3 based DFT computing Module                
 Release: version 1.0, May 2013, Q-Chem Inc. Pittsburgh 
 -------------------------------------------------------
 A unrestricted SCF calculation will be
 performed using DIIS, GDM
 SCF converges when RMS gradient is below 1.0e-07
 ---------------------------------------
  Cycle       Energy         DIIS error
 ---------------------------------------
    1    -529.7139588695      2.27e-02  
    2    -528.5625265082      4.17e-03  Done DIIS. Switching to GDM
 ---------------------------------------
  Cycle       Energy        RMS Gradient
 ---------------------------------------
    1    -528.5625265082      1.70e-01   Descent step
    2    -528.7768305084      5.44e-02   Normal BFGS step
    3    -528.8134580649      7.62e-03   Normal BFGS step
    4    -528.8149565520      4.38e-03   Normal BFGS step
    5    -528.8153650680      8.82e-04   Normal BFGS step
    6    -528.8153804933      1.40e-03   Normal BFGS step
    7    -528.8153855183      5.10e-04   Normal BFGS step
    8    -528.8153871984      5.08e-04   Normal BFGS step
    9    -528.8153878473      5.07e-04   Normal BFGS step
   10    -528.8153888731      5.07e-04   Normal BFGS step
   11    -528.8153920802      4.95e-04   Normal BFGS step
   12    -528.8153972453      7.72e-04   Normal BFGS step
   13    -528.8154076379      1.28e-03   Normal BFGS step
   14    -528.8154223668      1.77e-03   Normal BFGS step
   15    -528.8154376620      1.77e-03   Normal BFGS step
   16    -528.8154490391      9.64e-04   Normal BFGS step
   17    -528.8154514825      3.88e-04   Normal BFGS step
   18    -528.8154522573      2.04e-04   Normal BFGS step
   19    -528.8154524411      9.05e-05   Normal BFGS step
   20    -528.8154525038      1.87e-05   Normal BFGS step
   21    -528.8154525104      9.14e-06   Normal BFGS step
   22    -528.8154525115      3.62e-06   Normal BFGS step
   23    -528.8154525116      1.70e-06   Normal BFGS step
   24    -528.8154525116      1.24e-06   Normal BFGS step
   25    -528.8154525116      6.45e-07   Normal BFGS step
   26    -528.8154525116      1.12e-07   Normal BFGS step
   27    -528.8154525116      7.76e-08  Convergence criterion met
 ---------------------------------------
 SCF time:   CPU 348.97s  wall 89.00s 
<S^2> =          0.754639300
(3)  G-ENP(liq) elect-nuc-pol free energy of system     -528.815452512 a.u.
(4)  G-CDS(liq) cavity-dispersion-solvent structure 
     free energy                                                5.1142 kcal/mol
(6)  G-S(liq) free energy of system                     -528.807302510 a.u.
 SCF   energy in the final basis set =     -528.8073025095
 Total energy in the final basis set =     -528.8073025095
 
 --------------------------------------------------------------
 
                    Orbital Energies (a.u.)
 --------------------------------------------------------------
 
 Alpha MOs
 -- Occupied --
-19.4401 -19.4397 -19.3386 -19.3384 -19.3082 -19.3080 -10.5538 -10.4795
 -1.3296  -1.2477  -1.2218  -1.1992  -1.1147  -0.8714  -0.8654  -0.7780
 -0.7138  -0.6386  -0.6314  -0.5763  -0.5561  -0.5428  -0.5371  -0.5254
 -0.5216  -0.5051  -0.4922  -0.3946  -0.3902  -0.3847  -0.3261  -0.2950
 -- Virtual --
  0.0077   0.0304   0.0606   0.0674   0.0852   0.0989   0.1071   0.1157
  0.1324   0.1508   0.1579   0.1669   0.1812   0.1843   0.2215   0.2284
  0.2460   0.2622   0.2648   0.2710   0.2887   0.2911   0.3050   0.3081
  0.3100   0.3204   0.3234   0.3347   0.3443   0.3520   0.3588   0.3615
  0.3631   0.3789   0.3913   0.4028   0.4155   0.4349   0.4401   0.4449
  0.4553   0.4778   0.5515   0.6139   0.6394   0.6699   0.7015   0.7220
  0.7254   0.7788   0.8228   0.8467   0.9051   0.9314   1.0440   1.0621
  1.1304   1.1313   1.1430   1.1614   1.1666   1.1684   1.1872   1.2017
  1.2203   1.2341   1.2497   1.2653   1.2759   1.2929   1.2979   1.3185
  1.3254   1.3326   1.4710   1.4905   1.5166   1.5207   1.5298   1.5969
  1.6491   1.7146   1.7502   1.7799   1.8026   1.8392   1.8710   1.8828
  1.9222   2.0727   2.0885   2.1115   2.2575   2.2703   2.5452   2.5837
  2.6372   2.6440   2.6583   2.7754   2.8246   2.8858   2.9174   2.9416
  2.9802   2.9969   3.0133   3.0223   3.0285   3.0645   3.0726   3.1071
  3.1673   3.2454   3.2928   3.3486   3.3909   3.4015   3.4608   3.4992
  3.5268   3.5434   3.5541   3.6079   3.6919   3.8290   3.9416   3.9699
  4.0236   4.0727   4.1864   4.2403   4.9922   5.0176   5.0798   5.1246
  5.1545   5.1701   5.1969   5.2323   5.2603   5.2905   5.3291   5.4034
  5.5321   5.6500   5.9209   5.9799   6.0240   6.1482  24.0593  24.2224
 50.3644  50.4003  50.4452  50.4798  50.5125  50.6088
 
 Beta MOs
 -- Occupied --
-19.4401 -19.4397 -19.3243 -19.3241 -19.3082 -19.3080 -10.5538 -10.4795
 -1.3296  -1.2477  -1.1996  -1.1921  -1.1147  -0.8714  -0.8233  -0.7780
 -0.7138  -0.6382  -0.6314  -0.5762  -0.5561  -0.5414  -0.5343  -0.5083
 -0.5007  -0.4773  -0.4379  -0.3943  -0.3899  -0.3846  -0.2756
 -- Virtual --
  0.0079   0.0305   0.0312   0.0610   0.0676   0.0856   0.0992   0.1075
  0.1168   0.1328   0.1510   0.1589   0.1671   0.1838   0.1874   0.2216
  0.2324   0.2480   0.2656   0.2671   0.2751   0.2907   0.2926   0.3090
  0.3096   0.3159   0.3224   0.3246   0.3357   0.3452   0.3528   0.3597
  0.3626   0.3660   0.3793   0.3919   0.4078   0.4162   0.4351   0.4404
  0.4475   0.4561   0.4790   0.5517   0.6140   0.6396   0.6705   0.7032
  0.7222   0.7255   0.7797   0.8228   0.8473   0.9053   0.9326   1.0449
  1.0698   1.1342   1.1418   1.1509   1.1688   1.1717   1.1800   1.1929
  1.2092   1.2250   1.2389   1.2538   1.2709   1.2799   1.2962   1.2994
  1.3205   1.3270   1.3338   1.4728   1.4909   1.5220   1.5235   1.5303
  1.5996   1.6532   1.7179   1.7559   1.7814   1.8046   1.8408   1.8744
  1.8829   1.9255   2.0732   2.0888   2.1128   2.2576   2.2703   2.5862
  2.5976   2.6384   2.6441   2.6637   2.7787   2.8521   2.9095   2.9384
  2.9496   2.9939   3.0014   3.0185   3.0292   3.0628   3.0789   3.1017
  3.1083   3.1685   3.2461   3.2933   3.3486   3.3911   3.4017   3.5019
  3.5154   3.5268   3.5439   3.5549   3.6081   3.6922   3.8293   3.9424
  3.9703   4.0418   4.0760   4.1864   4.2403   5.0067   5.0464   5.1194
  5.1293   5.1745   5.1789   5.2349   5.2499   5.2678   5.3128   5.3315
  5.4037   5.5323   5.6500   5.9210   5.9799   6.0240   6.1650  24.0593
 24.2224  50.3666  50.4103  50.4536  50.4806  50.5126  50.6088
 --------------------------------------------------------------
 
          Ground-State Mulliken Net Atomic Charges

     Atom                 Charge (a.u.)    Spin (a.u.)
  --------------------------------------------------------
      1 C                     0.234250       0.005657
      2 O                    -0.499340      -0.000711
      3 H                     0.393294      -0.000135
      4 C                     0.042102      -0.005518
      5 O                    -0.073658      -0.001898
      6 O                    -0.064183       0.000503
      7 O                    -0.506664      -0.000401
      8 O                    -0.443806       0.503751
      9 O                    -0.478045       0.498738
     10 H                     0.396052       0.000014
  --------------------------------------------------------
  Sum of atomic charges =    -1.000000
  Sum of spin   charges =     1.000000

 -----------------------------------------------------------------
                    Cartesian Multipole Moments
 -----------------------------------------------------------------
    Charge (ESU x 10^10)
                -4.8032
    Dipole Moment (Debye)
         X      -2.5308      Y     -13.2741      Z     -13.2773
       Tot      18.9444
    Quadrupole Moments (Debye-Ang)
        XX     -61.3560     XY      18.8678     YY     -48.0223
        XZ      11.4516     YZ      -8.7248     ZZ     -75.1713
    Octopole Moments (Debye-Ang^2)
       XXX      83.5012    XXY     -48.7903    XYY       9.1561
       YYY     -52.4792    XXZ     -96.6272    XYZ      23.0992
       YYZ     -57.4323    XZZ      46.0927    YZZ     -29.6994
       ZZZ    -206.3268
    Hexadecapole Moments (Debye-Ang^3)
      XXXX    -651.7354   XXXY     109.0867   XXYY    -133.9533
      XYYY      67.0625   YYYY    -278.8491   XXXZ     182.5323
      XXYZ     -58.0300   XYYZ      48.3623   YYYZ     -77.6159
      XXZZ    -271.0210   XYZZ      61.8654   YYZZ    -176.8521
      XZZZ     174.7032   YZZZ    -103.9856   ZZZZ    -736.3603
 -----------------------------------------------------------------
 Total job time:  89.44s(wall), 350.91s(cpu) 
 Wed Dec  6 11:03:28 2023

        *************************************************************
        *                                                           *
        *  Thank you very much for using Q-Chem.  Have a nice day.  *
        *                                                           *
        *************************************************************


