
Running Job 1 of 1 Q_in.in
qchem Q_in.in_62217.0 /scratch/ari.fischer/qChem1787769.hpc-mn1/qchem62217/ 0
/usr/local/qchem-5.4.1/exe/qcprog.exe_s Q_in.in_62217.0 /scratch/ari.fischer/qChem1787769.hpc-mn1/qchem62217/
                  Welcome to Q-Chem
     A Quantum Leap Into The Future Of Chemistry


 Q-Chem 5.4, Q-Chem, Inc., Pleasanton, CA (2021)

 License issued to: Nanyang Technological University (site)

 E. Epifanovsky,  A. T. B. Gilbert,  Xintian Feng,  Joonho Lee,  Yuezhi Mao,  
 N. Mardirossian,  P. Pokhilko,  A. White,  M. Wormit,  M. P. Coons,  
 A. L. Dempwolff,  Zhengting Gan,  D. Hait,  P. R. Horn,  L. D. Jacobson,  
 I. Kaliman,  J. Kussmann,  A. W. Lange,  Ka Un Lao,  D. S. Levine,  Jie Liu,  
 S. C. McKenzie,  A. F. Morrison,  K. Nanda,  F. Plasser,  D. R. Rehn,  
 M. L. Vidal,  Zhi-Qiang You,  Ying Zhu,  B. Alam,  B. Albrecht,  
 A. Aldossary,  E. Alguire,  J. H. Andersen,  D. Barton,  K. Begam,  A. Behn,  
 Y. A. Bernard,  E. J. Berquist,  H. Burton,  A. Carreras,  K. Carter-Fenk,  
 R. Chakraborty,  A. D. Chien,  K. D. Closser,  V. Cofer-Shabica,  
 S. Dasgupta,  Jia Deng,  M. de Wergifosse,  M. Diedenhofen,  Hainam Do,  
 S. Ehlert,  Po-Tung Fang,  S. Fatehi,  Qingguo Feng,  T. Friedhoff,  
 J. Gayvert,  Qinghui Ge,  G. Gidofalvi,  M. Goldey,  J. Gomes,  
 C. Gonzalez-Espinoza,  S. Gulania,  A. Gunina,  M. W. D. Hanson-Heine,  
 P. H. P. Harbach,  A. W. Hauser,  M. F. Herbst,  M. Hernandez Vera,  
 M. Hodecker,  Z. C. Holden,  S. Houck,  Xunkun Huang,  Kerwin Hui,  
 B. C. Huynh,  M. Ivanov,  Hyunjun Ji,  Hanjie Jiang,  B. Kaduk,  S. Kaehler,  
 K. Khistyaev,  Jaehoon Kim,  P. Klunzinger,  Z. Koczor-Benda,  
 Joong Hoon Koh,  D. Kosenkov,  L. Koulias,  T. Kowalczyk,  C. M. Krauter,  
 K. Kue,  A. Kunitsa,  T. Kus,  A. Landau,  K. V. Lawler,  D. Lefrancois,  
 S. Lehtola,  Rain Li,  Yi-Pei Li,  Jiashu Liang,  M. Liebenthal,  
 Hung-Hsuan Lin,  You-Sheng Lin,  Fenglai Liu,  Kuan-Yu Liu,  
 M. Loipersberger,  A. Luenser,  A. Manjanath,  P. Manohar,  E. Mansoor,  
 S. F. Manzer,  Shan-Ping Mao,  A. V. Marenich,  T. Markovich,  S. Mason,  
 S. A. Maurer,  P. F. McLaughlin,  M. F. S. J. Menger,  J.-M. Mewes,  
 S. A. Mewes,  P. Morgante,  J. W. Mullinax,  K. J. Oosterbaan,  G. Paran,  
 Alexander C. Paul,  Suranjan K. Paul,  F. Pavosevic,  Zheng Pei,  S. Prager,  
 E. I. Proynov,  E. Ramos,  B. Rana,  A. E. Rask,  A. Rettig,  R. M. Richard,  
 F. Rob,  E. Rossomme,  T. Scheele,  M. Scheurer,  M. Schneider,  
 N. Sergueev,  S. M. Sharada,  W. Skomorowski,  D. W. Small,  C. J. Stein,  
 Yu-Chuan Su,  E. J. Sundstrom,  Zhen Tao,  J. Thirman,  T. Tsuchimochi,  
 N. M. Tubman,  S. P. Veccham,  O. Vydrov,  J. Wenzel,  J. Witte,  A. Yamada,  
 Kun Yao,  S. Yeganeh,  S. R. Yost,  A. Zech,  Igor Ying Zhang,  Xing Zhang,  
 Yu Zhang,  D. Zuev,  A. Aspuru-Guzik,  A. T. Bell,  N. A. Besley,  
 K. B. Bravaya,  B. R. Brooks,  D. Casanova,  Jeng-Da Chai,  S. Coriani,  
 C. J. Cramer,  A. E. DePrince, III,  R. A. DiStasio Jr.,  A. Dreuw,  
 B. D. Dunietz,  T. R. Furlani,  W. A. Goddard III,  S. Grimme,  
 S. Hammes-Schiffer,  T. Head-Gordon,  W. J. Hehre,  Chao-Ping Hsu,  
 T.-C. Jagau,  Yousung Jung,  A. Klamt,  Jing Kong,  D. S. Lambrecht,  
 WanZhen Liang,  N. J. Mayhall,  C. W. McCurdy,  J. B. Neaton,  
 C. Ochsenfeld,  J. A. Parkhill,  R. Peverati,  V. A. Rassolov,  Yihan Shao,  
 L. V. Slipchenko,  T. Stauch,  R. P. Steele,  J. E. Subotnik,  
 A. J. W. Thom,  A. Tkatchenko,  D. G. Truhlar,  T. Van Voorhis,  
 T. A. Wesolowski,  K. B. Whaley,  H. L. Woodcock III,  P. M. Zimmerman,  
 S. Faraji,  P. M. W. Gill,  M. Head-Gordon,  J. M. Herbert,  A. I. Krylov

 Additional authors for Version 5.4.1: 
 S. Kotaru,  Shaozhi Li,  Xiangyuan Li,  F. Matz,  A. Molle,  Haisheng Ren,  
 Yingli Su,  Hung-Yi Tsai,  C. Utku,  Fang Wang

 Contributors to earlier versions of Q-Chem not listed above: 
 R. D. Adamson,  B. Austin,  R. Baer,  J. Baker,  G. J. O. Beran,  
 K. Brandhorst,  S. T. Brown,  E. F. C. Byrd,  A. K. Chakraborty,  
 G. K. L. Chan,  Chun-Min Chang,  Yunqing Chen,  C.-L. Cheng,  
 Siu Hung Chien,  D. M. Chipman,  D. L. Crittenden,  H. Dachsel,  
 R. J. Doerksen,  A. D. Dutoi,  R. G. Edgar,  J. Fosso-Tande,  
 L. Fusti-Molnar,  D. Ghosh,  A. Ghysels,  A. Golubeva-Zadorozhnaya,  
 J. Gonthier,  M. S. Gordon,  S. R. Gwaltney,  G. Hawkins,  J. E. Herr,  
 A. Heyden,  S. Hirata,  E. G. Hohenstein,  G. Kedziora,  F. J. Keil,  
 C. Kelley,  Jihan Kim,  R. A. King,  R. Z. Khaliullin,  P. P. Korambath,  
 W. Kurlancheek,  A. Laurent,  A. M. Lee,  M. S. Lee,  S. V. Levchenko,  
 Ching Yeh Lin,  D. Liotard,  E. Livshits,  R. C. Lochan,  I. Lotan,  
 L. A. Martinez-Martinez,  P. E. Maslen,  N. Nair,  D. P. O'Neill,  
 D. Neuhauser,  E. Neuscamman,  C. M. Oana,  R. Olivares-Amaya,  R. Olson,  
 T. M. Perrine,  B. Peters,  P. A. Pieniazek,  A. Prociuk,  Y. M. Rhee,  
 J. Ritchie,  M. A. Rohrdanz,  E. Rosta,  N. J. Russ,  H. F. Schaefer III,  
 M. W. Schmidt,  N. E. Schultz,  S. Sharma,  N. Shenvi,  C. D. Sherrill,  
 A. C. Simmonett,  A. Sodt,  T. Stein,  D. Stuck,  K. S. Thanthiriwatte,  
 V. Vanovschi,  L. Vogt,  Tao Wang,  A. Warshel,  M. A. Watson,  
 C. F. Williams,  Q. Wu,  X. Xu,  Jun Yang,  W. Zhang,  Yan Zhao

 Please cite Q-Chem as follows:
 Y. Shao et al., Mol. Phys. 113, 184-215 (2015)
 DOI: 10.1080/00268976.2014.952696

 Q-Chem 5.4.1 for Intel X86 EM64T Linux

 Parts of Q-Chem use Armadillo 9.800.1 (Horizon Scraper).
 http://arma.sourceforge.net/

 Q-Chem begins on Fri Sep 29 11:17:14 2023  

 Host: 
0

     Scratch files written to /scratch/ari.fischer/qChem1787769.hpc-mn1/qchem62217//
 Aug1521 |scratch|qcdevops|jenkins|workspace|build_RNUM 8249   
 Processing $rem in /usr/local/qchem-5.4.1/config/preferences:
 Processing $rem in /home/ari.fischer/.qchemrc:
 Symmetry turned off for PCM/SM12/SMD calculation


!!********************************************.
!!******************Warning*******************.
!!Desired Analytical derivatives not available.
!!Finite difference job might take a long time.
!!********************************************.
!!********************************************.


 2-order derivative to be evaluated numerically with 1-order analytical derivatives

 Checking the input file for inconsistencies... 	...done.

--------------------------------------------------------------
User input:
--------------------------------------------------------------
$molecule
-1 2
C        -0.9042320565    1.8235343475   -0.1754217250
O        -0.7770808828    1.5778680135    1.0581664037
O        -0.9038101243    3.0197518723   -0.5840282338
O        -1.0312928363    0.8736730666   -0.9992925448
$end

$rem
BASIS = 6-311++G(2df,2p)
GUI = 2
JOB_TYPE = Frequency
METHOD = wB97M-V
SOLVENT_METHOD = SMD
SCF_ALGORITHM = DIIS_GDM
MAX_SCF_CYCLES = 400
SCF_CONVERGENCE = 7
THRESH = 12
$end
--------------------------------------------------------------
 ----------------------------------------------------------------
             Standard Nuclear Orientation (Angstroms)
    I     Atom           X                Y                Z
 ----------------------------------------------------------------
    1      C      -0.9042320565     1.8235343475    -0.1754217250
    2      O      -0.7770808828     1.5778680135     1.0581664037
    3      O      -0.9038101243     3.0197518723    -0.5840282338
    4      O      -1.0312928363     0.8736730666    -0.9992925448
 ----------------------------------------------------------------
 Nuclear Repulsion Energy =         106.69186335 hartrees
 There are       16 alpha and       15 beta electrons
 Requested basis set is 6-311++G(2df,2p)
 There are 32 shells and 136 basis functions

 Total QAlloc Memory Limit 288000 MB
 Mega-Array Size       188 MB
 MEM_STATIC part       192 MB
 
 Citation of the SMD model:
 Marenich, A.V.; Cramer, C.J.; Truhlar, D.G.
 J. Phys. Chem. B 2009, 113, 6378-6396.
 iSolventCode=           1
 Solvent: water                                                           
 
 vradii
            1           2           3           4
    1   1.8500000   1.5200000   1.5200000   1.5200000
 Changing PCM_VDW_RADII to SMD_RADIUS
 Discretize the solute cavity surface with Lebedev spheres
	Using 110 Lebedev grid points for each H atom
	Using 194 Lebedev grid points for other atoms
	Atomic van der Waals radii will be scaled by 1.20
 Remove points where switching function is < 1.0e-08
 Keep 501 surface tesserae and discard 275 interior tesserae
 Molecular Surface Area = 64.926 Angst**2

                       Distance Matrix (Angstroms)
             C (  1)   O (  2)   O (  3)
   O (  2)  1.264223
   O (  3)  1.264079  2.189039
   O (  4)  1.263782  2.189441  2.189601
 
 A cutoff of  1.0D-12 yielded    525 shell pairs
 There are      9573 function pairs (     12639 Cartesian)
 Smallest overlap matrix eigenvalue = 9.90E-04
 Guess from superposition of atomic densities
 Warning:  Energy on first SCF cycle will be non-variational
 SAD guess density has 30.000000 electrons

 -----------------------------------------------------------------------
  General SCF calculation program by
  Eric Jon Sundstrom, Paul Horn, Yuezhi Mao, Dmitri Zuev, Alec White,
  David Stuck, Shaama M.S., Shane Yost, Joonho Lee, David Small,
  Daniel Levine, Susi Lehtola, Hugh Burton, Evgeny Epifanovsky,
  Bang C. Huynh
 -----------------------------------------------------------------------
 Exchange:     0.1500 Hartree-Fock + 1.0000 wB97M-V + LR-HF
 Correlation:  1.0000 wB97M-V
 Using SG-2 standard quadrature grid
 Nonlocal Correlation:  VV10 with C = 0.0100 and b = 6.00 and scale = 1.00000
 Grid used for NLC:  SG-1 standard quadrature
 using 8 threads for integral computing
 -------------------------------------------------------
 OpenMP Integral computing Module                
 Release: version 1.0, May 2013, Q-Chem Inc. Pittsburgh 
 -------------------------------------------------------
 
 Citation of the SMD model:
 Marenich, A.V.; Cramer, C.J.; Truhlar, D.G.
 J. Phys. Chem. B 2009, 113, 6378-6396.
 iSolventCode=           1
 Solvent: water                                                           
 
 vradii
            1           2           3           4
    1   1.8500000   1.5200000   1.5200000   1.5200000
 -------------------------------------------------------
 OpenMP BLAS3 based DFT computing Module                
 Release: version 1.0, May 2013, Q-Chem Inc. Pittsburgh 
 -------------------------------------------------------
 A unrestricted SCF calculation will be
 performed using DIIS, GDM
 SCF converges when RMS gradient is below 1.0e-07
 ---------------------------------------
  Cycle       Energy         DIIS error
 ---------------------------------------
    1    -264.2356692522      2.16e-02  
    2    -263.8208680231      3.97e-03  Done DIIS. Switching to GDM
 ---------------------------------------
  Cycle       Energy        RMS Gradient
 ---------------------------------------
    1    -263.8208680231      1.65e-01   Descent step
    2    -263.9299048704      2.60e-02   Normal BFGS step
    3    -263.9349423349      4.47e-03   Normal BFGS step
    4    -263.9352303878      2.03e-03   Normal BFGS step
    5    -263.9352548173      8.50e-04   Normal BFGS step
    6    -263.9352582227      4.21e-04   Normal BFGS step
    7    -263.9352582829      3.73e-04   Normal BFGS step
    8    -263.9352586799      5.83e-05   Normal BFGS step
    9    -263.9352586919      5.93e-05   Normal BFGS step
   10    -263.9352586999      4.29e-05   Normal BFGS step
   11    -263.9352587043      2.69e-05   Normal BFGS step
   12    -263.9352587089      1.79e-05   Normal BFGS step
   13    -263.9352587097      1.27e-05   Normal BFGS step
   14    -263.9352587100      6.21e-06   Normal BFGS step
   15    -263.9352587100      5.13e-07   Normal BFGS step
   16    -263.9352587100      4.31e-07   Normal BFGS step
   17    -263.9352587100      3.08e-07   Normal BFGS step
   18    -263.9352587100      1.59e-07   Normal BFGS step
   19    -263.9352587100      8.25e-08  Convergence criterion met
 ---------------------------------------
 SCF time:   CPU 105.92s  wall 14.00s 
<S^2> =          0.758808907
(3)  G-ENP(liq) elect-nuc-pol free energy of system     -263.935258710 a.u.
(4)  G-CDS(liq) cavity-dispersion-solvent structure 
     free energy                                                4.3077 kcal/mol
(6)  G-S(liq) free energy of system                     -263.928393987 a.u.
 SCF   energy in the final basis set =     -263.9283939869
 Total energy in the final basis set =     -263.9283939869
 
 --------------------------------------------------------------
 
                    Orbital Energies (a.u.)
 --------------------------------------------------------------
 
 Alpha MOs
 -- Occupied --
-19.3421 -19.3420 -19.3416 -10.4902  -1.2489  -1.1220  -1.1220  -0.6561
 -0.5971  -0.5971  -0.5849  -0.4527  -0.4524  -0.4167  -0.4165  -0.3927
 -- Virtual --
  0.0555   0.0857   0.0859   0.0878   0.1619   0.2138   0.2139   0.2284
  0.2454   0.2456   0.2966   0.3022   0.3196   0.3197   0.3273   0.3657
  0.3659   0.4213   0.5909   0.5915   0.6664   0.7475   0.7475   0.7921
  0.8768   0.8771   1.0432   1.0896   1.0908   1.0909   1.1299   1.1300
  1.1633   1.1635   1.2076   1.2168   1.3705   1.3707   1.6190   1.6193
  1.6212   1.6217   1.6234   1.6283   1.8052   1.8056   1.9453   1.9539
  1.9836   2.2564   2.2569   2.4369   2.4374   2.5033   2.7838   2.7840
  2.8590   3.0625   3.0629   3.2109   3.2111   3.4404   3.4678   3.4680
  3.5098   3.5099   3.5715   3.7896   3.8178   3.9917   3.9926   5.0954
  5.1109   5.1112   5.1131   5.1149   5.1314   5.1315   5.1780   5.1781
  5.1872   5.1875   5.2118   5.2235   5.2348   5.3223   5.3230   5.5266
  5.5268   5.6011   5.6015   5.7193   6.1320   6.1323   6.2000   6.3511
  6.3512   6.5170   6.8499   6.9050   6.9055   6.9398   6.9404   6.9734
  7.0868   7.1998   7.2012   7.3041   7.3535   7.3541   7.7076   7.7103
  7.7105   7.7441   7.7442   7.7672  25.3661  50.5922  50.5928  50.6229
 
 Beta MOs
 -- Occupied --
-19.3318 -19.3317 -19.3314 -10.4911  -1.2339  -1.0998  -1.0997  -0.6415
 -0.5787  -0.5720  -0.5718  -0.4029  -0.4028  -0.3868  -0.3868
 -- Virtual --
 -0.0864   0.0580   0.0886   0.0896   0.0898   0.1652   0.2190   0.2191
  0.2302   0.2488   0.2489   0.3008   0.3089   0.3249   0.3250   0.3316
  0.3708   0.3709   0.4285   0.6068   0.6074   0.6665   0.7507   0.7508
  0.7954   0.8772   0.8775   1.0465   1.0917   1.0966   1.0967   1.1354
  1.1354   1.1784   1.1785   1.2216   1.2311   1.3858   1.3861   1.6313
  1.6316   1.6334   1.6339   1.6342   1.6482   1.8235   1.8240   1.9614
  1.9744   1.9879   2.2654   2.2659   2.4429   2.4433   2.5104   2.7989
  2.7991   2.8563   3.0618   3.0622   3.2083   3.2085   3.4390   3.4693
  3.4695   3.5134   3.5135   3.5708   3.8034   3.8235   3.9967   3.9976
  5.1172   5.1356   5.1427   5.1429   5.1508   5.1652   5.1653   5.1902
  5.1902   5.2209   5.2285   5.2286   5.2471   5.2801   5.3561   5.3569
  5.5439   5.5442   5.6150   5.6154   5.7446   6.1606   6.1610   6.2063
  6.3615   6.3615   6.5307   6.8984   6.9477   6.9479   6.9916   6.9918
  7.0214   7.1312   7.2091   7.2104   7.3155   7.3705   7.3711   7.7350
  7.7428   7.7429   7.7738   7.7741   7.7890  25.3656  50.6001  50.6006
 50.6307
 --------------------------------------------------------------
 
          Ground-State Mulliken Net Atomic Charges

     Atom                 Charge (a.u.)    Spin (a.u.)
  --------------------------------------------------------
      1 C                     0.524300      -0.106030
      2 O                    -0.507302       0.370265
      3 O                    -0.507480       0.369521
      4 O                    -0.509518       0.366243
  --------------------------------------------------------
  Sum of atomic charges =    -1.000000
  Sum of spin   charges =     1.000000

 -----------------------------------------------------------------
                    Cartesian Multipole Moments
 -----------------------------------------------------------------
    Charge (ESU x 10^10)
                -4.8032
    Dipole Moment (Debye)
         X       4.3432      Y      -8.7532      Z       0.8479
       Tot       9.8082
    Quadrupole Moments (Debye-Ang)
        XX     -27.1154     XY       7.6328     YY     -46.5204
        XZ      -1.5844     YZ       1.5669     ZZ     -30.6334
    Octopole Moments (Debye-Ang^2)
       XXX      66.4449    XXY     -48.8788    XYY      41.3308
       YYY    -198.6317    XXZ       6.2172    XYZ      -2.4729
       YYZ      11.7479    XZZ      27.6874    YZZ     -53.5874
       ZZZ      12.5887
    Hexadecapole Moments (Debye-Ang^3)
      XXXX    -139.9234   XXXY     118.5079   XXYY    -137.1892
      XYYY     176.4285   YYYY    -802.4081   XXXZ     -18.8871
      XXYZ      10.6065   XYYZ     -13.7187   YYYZ      54.3770
      XXZZ     -49.1491   XYZZ      47.6315   YYZZ    -136.3747
      XZZZ     -17.0357   YZZZ      21.9457   ZZZZ    -124.5587
 -----------------------------------------------------------------
 Calculating analytic gradient of the SCF energy
 Gradient of CDS energy
            1           2           3           4
    1   0.0000018  -0.0002526  -0.0000007   0.0002515
    2   0.0000056   0.0004889  -0.0023736   0.0018792
    3   0.0000095  -0.0024515   0.0008118   0.0016303
 Gradient of SCF Energy
            1           2           3           4
    1  -0.0000268  -0.0041493   0.0000189   0.0041573
    2  -0.0000104   0.0079877  -0.0389723   0.0309950
    3  -0.0000130  -0.0401134   0.0132285   0.0268979
 Max gradient component =       4.011E-02
 RMS gradient           =       2.059E-02
 Computing fast CPCM-SWIG gradient
 Updating gradient with PCM contributions...
 -- total gradient after adding PCM contribution --
---------------------------------------------------
  Atom         X              Y              Z     
---------------------------------------------------
   1       0.000008       0.000042       0.000094
   2       0.000007      -0.000055      -0.000014
   3       0.000012      -0.000066      -0.000101
   4      -0.000026       0.000079       0.000021
---------------------------------------------------
 Number of fixed atoms: 0
 Gradient time:  CPU 14.65 s  wall 2.06 s
 ######################################################
 ######################################################
 # Starting finite difference calculation for IDERIV  #
 Finite diff step size:  1.88973e-03 a.u.
 ----------------------------------------------------------------
             Standard Nuclear Orientation (Angstroms)
    I     Atom           X                Y                Z
 ----------------------------------------------------------------
    1      C      -0.9032320565     1.8235343475    -0.1754217250
    2      O      -0.7770808828     1.5778680135     1.0581664037
    3      O      -0.9038101243     3.0197518723    -0.5840282338
    4      O      -1.0312928363     0.8736730666    -0.9992925448
 ----------------------------------------------------------------
 Nuclear Repulsion Energy =         106.69184964 hartrees
 There are       16 alpha and       15 beta electrons
 Discretize the solute cavity surface with Lebedev spheres
	Using 110 Lebedev grid points for each H atom
	Using 194 Lebedev grid points for other atoms
	Atomic van der Waals radii will be scaled by 1.20
 Remove points where switching function is < 1.0e-08
 Keep 501 surface tesserae and discard 275 interior tesserae
 Molecular Surface Area = 64.926 Angst**2

                       Distance Matrix (Angstroms)
             C (  1)   O (  2)   O (  3)
   O (  2)  1.264123
   O (  3)  1.264079  2.189039
   O (  4)  1.263883  2.189441  2.189601
 
 Requested basis set is 6-311++G(2df,2p)
 There are 32 shells and 136 basis functions
 A cutoff of  1.0D-12 yielded    525 shell pairs
 There are      9573 function pairs (     12639 Cartesian)
 Smallest overlap matrix eigenvalue = 9.90E-04
 Guess MOs from SCF MO coefficient file

 -----------------------------------------------------------------------
  General SCF calculation program by
  Eric Jon Sundstrom, Paul Horn, Yuezhi Mao, Dmitri Zuev, Alec White,
  David Stuck, Shaama M.S., Shane Yost, Joonho Lee, David Small,
  Daniel Levine, Susi Lehtola, Hugh Burton, Evgeny Epifanovsky,
  Bang C. Huynh
 -----------------------------------------------------------------------
 Exchange:     0.1500 Hartree-Fock + 1.0000 wB97M-V + LR-HF
 Correlation:  1.0000 wB97M-V
 Using SG-2 standard quadrature grid
 Nonlocal Correlation:  VV10 with C = 0.0100 and b = 6.00 and scale = 1.00000
 Grid used for NLC:  SG-1 standard quadrature
 
 Citation of the SMD model:
 Marenich, A.V.; Cramer, C.J.; Truhlar, D.G.
 J. Phys. Chem. B 2009, 113, 6378-6396.
 iSolventCode=           1
 Solvent: water                                                           
 
 vradii
            1           2           3           4
    1   1.8500000   1.5200000   1.5200000   1.5200000
 -------------------------------------------------------
 OpenMP BLAS3 based DFT computing Module                
 Release: version 1.0, May 2013, Q-Chem Inc. Pittsburgh 
 -------------------------------------------------------
 A unrestricted SCF calculation will be
 performed using Roothaan-Hall, DIIS, GDM
 SCF converges when RMS gradient is below 1.0e-07
 ---------------------------------------
  Cycle       Energy         DIIS error
 ---------------------------------------
    1    -263.8297410163      1.75e-04  Roothaan Step
 ---------------------------------------
  Cycle       Energy         DIIS error
 ---------------------------------------
    1    -263.9344118483      2.11e-04  
    2    -263.9350229897      2.04e-04  Done DIIS. Switching to GDM
 ---------------------------------------
  Cycle       Energy        RMS Gradient
 ---------------------------------------
    1    -263.9350229897      5.69e-03   Normal BFGS step
    2    -263.9350598049      6.89e-03   Normal BFGS step
    3    -263.9352575331      3.05e-04   Normal BFGS step
    4    -263.9352580365      2.66e-04   Normal BFGS step
    5    -263.9352582178      1.21e-04   Normal BFGS step
    6    -263.9352582396      4.28e-05   Normal BFGS step
    7    -263.9352582557      9.59e-06   Normal BFGS step
    8    -263.9352582561      1.23e-05   Normal BFGS step
    9    -263.9352582568      9.88e-06   Normal BFGS step
   10    -263.9352582570      5.03e-06   Normal BFGS step
   11    -263.9352582572      1.38e-06   Normal BFGS step
   12    -263.9352582572      2.01e-06   Normal BFGS step
   13    -263.9352582572      3.89e-07   Normal BFGS step
   14    -263.9352582572      1.05e-07   Normal BFGS step
   15    -263.9352582572      5.72e-08  Convergence criterion met
 ---------------------------------------
 SCF time:   CPU 90.68s  wall 12.00s 
<S^2> =          0.758808932
(3)  G-ENP(liq) elect-nuc-pol free energy of system     -263.935258257 a.u.
(4)  G-CDS(liq) cavity-dispersion-solvent structure 
     free energy                                                4.3077 kcal/mol
(6)  G-S(liq) free energy of system                     -263.928393535 a.u.
 SCF   energy in the final basis set =     -263.9283935351
 Total energy in the final basis set =     -263.9283935351
 
 --------------------------------------------------------------
 
                    Orbital Energies (a.u.)
 --------------------------------------------------------------
 
 Alpha MOs
 -- Occupied --
-19.3421 -19.3420 -19.3417 -10.4902  -1.2489  -1.1220  -1.1220  -0.6561
 -0.5971  -0.5971  -0.5849  -0.4527  -0.4524  -0.4167  -0.4165  -0.3927
 -- Virtual --
  0.0555   0.0857   0.0859   0.0878   0.1619   0.2138   0.2139   0.2284
  0.2454   0.2456   0.2966   0.3022   0.3196   0.3197   0.3273   0.3658
  0.3659   0.4213   0.5909   0.5914   0.6664   0.7475   0.7475   0.7921
  0.8769   0.8771   1.0432   1.0896   1.0908   1.0909   1.1300   1.1300
  1.1633   1.1635   1.2076   1.2168   1.3705   1.3707   1.6190   1.6193
  1.6212   1.6216   1.6234   1.6283   1.8052   1.8056   1.9453   1.9539
  1.9836   2.2565   2.2568   2.4370   2.4374   2.5033   2.7838   2.7840
  2.8590   3.0626   3.0629   3.2109   3.2111   3.4404   3.4678   3.4680
  3.5098   3.5099   3.5715   3.7896   3.8178   3.9918   3.9925   5.0954
  5.1109   5.1112   5.1131   5.1149   5.1314   5.1315   5.1780   5.1781
  5.1872   5.1875   5.2118   5.2235   5.2348   5.3223   5.3230   5.5266
  5.5268   5.6011   5.6014   5.7193   6.1320   6.1323   6.2000   6.3511
  6.3512   6.5170   6.8499   6.9051   6.9054   6.9399   6.9403   6.9734
  7.0868   7.2000   7.2010   7.3041   7.3536   7.3540   7.7076   7.7103
  7.7105   7.7440   7.7443   7.7672  25.3661  50.5923  50.5927  50.6229
 
 Beta MOs
 -- Occupied --
-19.3318 -19.3317 -19.3315 -10.4911  -1.2339  -1.0998  -1.0997  -0.6415
 -0.5787  -0.5720  -0.5719  -0.4029  -0.4028  -0.3868  -0.3868
 -- Virtual --
 -0.0864   0.0580   0.0886   0.0896   0.0898   0.1652   0.2190   0.2191
  0.2302   0.2488   0.2489   0.3008   0.3089   0.3249   0.3250   0.3316
  0.3708   0.3709   0.4285   0.6069   0.6074   0.6665   0.7507   0.7508
  0.7954   0.8772   0.8774   1.0465   1.0917   1.0966   1.0967   1.1354
  1.1354   1.1784   1.1785   1.2216   1.2311   1.3858   1.3861   1.6313
  1.6315   1.6335   1.6338   1.6342   1.6482   1.8236   1.8240   1.9614
  1.9744   1.9879   2.2654   2.2658   2.4430   2.4433   2.5104   2.7990
  2.7990   2.8563   3.0618   3.0621   3.2083   3.2084   3.4390   3.4693
  3.4695   3.5134   3.5135   3.5708   3.8034   3.8235   3.9968   3.9975
  5.1172   5.1356   5.1427   5.1429   5.1508   5.1652   5.1653   5.1902
  5.1902   5.2209   5.2285   5.2286   5.2471   5.2801   5.3562   5.3569
  5.5439   5.5442   5.6150   5.6153   5.7446   6.1606   6.1610   6.2063
  6.3614   6.3615   6.5307   6.8984   6.9477   6.9479   6.9916   6.9918
  7.0214   7.1312   7.2093   7.2103   7.3155   7.3706   7.3710   7.7350
  7.7428   7.7429   7.7738   7.7742   7.7890  25.3656  50.6002  50.6005
 50.6307
 --------------------------------------------------------------
 
          Ground-State Mulliken Net Atomic Charges

     Atom                 Charge (a.u.)    Spin (a.u.)
  --------------------------------------------------------
      1 C                     0.524301      -0.106030
      2 O                    -0.507475       0.369828
      3 O                    -0.507482       0.369520
      4 O                    -0.509344       0.366682
  --------------------------------------------------------
  Sum of atomic charges =    -1.000000
  Sum of spin   charges =     1.000000

 -----------------------------------------------------------------
                    Cartesian Multipole Moments
 -----------------------------------------------------------------
    Charge (ESU x 10^10)
                -4.8032
    Dipole Moment (Debye)
         X       4.3456      Y      -8.7537      Z       0.8464
       Tot       9.8096
    Quadrupole Moments (Debye-Ang)
        XX     -27.1196     XY       7.6377     YY     -46.5215
        XZ      -1.5835     YZ       1.5654     ZZ     -30.6337
    Octopole Moments (Debye-Ang^2)
       XXX      66.4363    XXY     -48.8875    XYY      41.3318
       YYY    -198.6333    XXZ       6.2162    XYZ      -2.4724
       YYZ      11.7463    XZZ      27.6793    YZZ     -53.5885
       ZZZ      12.5867
    Hexadecapole Moments (Debye-Ang^3)
      XXXX    -139.8784   XXXY     118.4937   XXYY    -137.1905
      XYYY     176.3991   YYYY    -802.4066   XXXZ     -18.8829
      XXYZ      10.6065   XYYZ     -13.7151   YYYZ      54.3767
      XXZZ     -49.1347   XYZZ      47.6191   YYZZ    -136.3792
      XZZZ     -17.0320   YZZZ      21.9436   ZZZZ    -124.5585
 -----------------------------------------------------------------
 Calculating analytic gradient of the SCF energy
 Gradient of CDS energy
            1           2           3           4
    1  -0.0000028  -0.0002510   0.0000007   0.0002531
    2   0.0000041   0.0004883  -0.0023737   0.0018812
    3   0.0000053  -0.0024490   0.0008117   0.0016320
 Gradient of SCF Energy
            1           2           3           4
    1   0.0002165  -0.0042330  -0.0000570   0.0040734
    2   0.0000116   0.0080103  -0.0389650   0.0309431
    3   0.0000517  -0.0401683   0.0132497   0.0268670
 Max gradient component =       4.017E-02
 RMS gradient           =       2.059E-02
 Computing fast CPCM-SWIG gradient
 Updating gradient with PCM contributions...
 -- total gradient after adding PCM contribution --
---------------------------------------------------
  Atom         X              Y              Z     
---------------------------------------------------
   1       0.000470       0.000043       0.000101
   2      -0.000150      -0.000023      -0.000052
   3      -0.000137      -0.000051      -0.000057
   4      -0.000183       0.000031       0.000008
---------------------------------------------------
 Number of fixed atoms: 0
 Gradient time:  CPU 13.89 s  wall 1.92 s
 ----------------------------------------------------------------
             Standard Nuclear Orientation (Angstroms)
    I     Atom           X                Y                Z
 ----------------------------------------------------------------
    1      C      -0.9052320565     1.8235343475    -0.1754217250
    2      O      -0.7770808828     1.5778680135     1.0581664037
    3      O      -0.9038101243     3.0197518723    -0.5840282338
    4      O      -1.0312928363     0.8736730666    -0.9992925448
 ----------------------------------------------------------------
 Nuclear Repulsion Energy =         106.69184010 hartrees
 There are       16 alpha and       15 beta electrons
 Discretize the solute cavity surface with Lebedev spheres
	Using 110 Lebedev grid points for each H atom
	Using 194 Lebedev grid points for other atoms
	Atomic van der Waals radii will be scaled by 1.20
 Remove points where switching function is < 1.0e-08
 Keep 501 surface tesserae and discard 275 interior tesserae
 Molecular Surface Area = 64.927 Angst**2

                       Distance Matrix (Angstroms)
             C (  1)   O (  2)   O (  3)
   O (  2)  1.264324
   O (  3)  1.264080  2.189039
   O (  4)  1.263681  2.189441  2.189601
 
 Requested basis set is 6-311++G(2df,2p)
 There are 32 shells and 136 basis functions
 A cutoff of  1.0D-12 yielded    525 shell pairs
 There are      9573 function pairs (     12639 Cartesian)
 Smallest overlap matrix eigenvalue = 9.90E-04
 Guess MOs from SCF MO coefficient file

 -----------------------------------------------------------------------
  General SCF calculation program by
  Eric Jon Sundstrom, Paul Horn, Yuezhi Mao, Dmitri Zuev, Alec White,
  David Stuck, Shaama M.S., Shane Yost, Joonho Lee, David Small,
  Daniel Levine, Susi Lehtola, Hugh Burton, Evgeny Epifanovsky,
  Bang C. Huynh
 -----------------------------------------------------------------------
 Exchange:     0.1500 Hartree-Fock + 1.0000 wB97M-V + LR-HF
 Correlation:  1.0000 wB97M-V
 Using SG-2 standard quadrature grid
 Nonlocal Correlation:  VV10 with C = 0.0100 and b = 6.00 and scale = 1.00000
 Grid used for NLC:  SG-1 standard quadrature
 
 Citation of the SMD model:
 Marenich, A.V.; Cramer, C.J.; Truhlar, D.G.
 J. Phys. Chem. B 2009, 113, 6378-6396.
 iSolventCode=           1
 Solvent: water                                                           
 
 vradii
            1           2           3           4
    1   1.8500000   1.5200000   1.5200000   1.5200000
 -------------------------------------------------------
 OpenMP BLAS3 based DFT computing Module                
 Release: version 1.0, May 2013, Q-Chem Inc. Pittsburgh 
 -------------------------------------------------------
 A unrestricted SCF calculation will be
 performed using Roothaan-Hall, DIIS, GDM
 SCF converges when RMS gradient is below 1.0e-07
 ---------------------------------------
  Cycle       Energy         DIIS error
 ---------------------------------------
    1    -263.8297381066      1.75e-04  Roothaan Step
 ---------------------------------------
  Cycle       Energy         DIIS error
 ---------------------------------------
    1    -263.9344117232      2.11e-04  
    2    -263.9350231076      2.04e-04  Done DIIS. Switching to GDM
 ---------------------------------------
  Cycle       Energy        RMS Gradient
 ---------------------------------------
    1    -263.9350231076      5.69e-03   Normal BFGS step
    2    -263.9350601553      6.89e-03   Normal BFGS step
    3    -263.9352575673      3.93e-04   Normal BFGS step
    4    -263.9352581192      1.35e-04   Normal BFGS step
    5    -263.9352582506      8.04e-05   Normal BFGS step
    6    -263.9352582533      9.53e-05   Normal BFGS step
    7    -263.9352582694      4.38e-05   Normal BFGS step
    8    -263.9352582722      3.15e-05   Normal BFGS step
    9    -263.9352582789      1.24e-05   Normal BFGS step
   10    -263.9352582797      3.56e-06   Normal BFGS step
   11    -263.9352582799      2.02e-06   Normal BFGS step
   12    -263.9352582799      3.44e-06   Normal BFGS step
   13    -263.9352582799      3.09e-07   Normal BFGS step
   14    -263.9352582799      1.21e-07   Normal BFGS step
   15    -263.9352582799      6.22e-08  Convergence criterion met
 ---------------------------------------
 SCF time:   CPU 89.96s  wall 12.00s 
<S^2> =          0.758808893
(3)  G-ENP(liq) elect-nuc-pol free energy of system     -263.935258280 a.u.
(4)  G-CDS(liq) cavity-dispersion-solvent structure 
     free energy                                                4.3077 kcal/mol
(6)  G-S(liq) free energy of system                     -263.928393564 a.u.
 SCF   energy in the final basis set =     -263.9283935644
 Total energy in the final basis set =     -263.9283935644
 
 --------------------------------------------------------------
 
                    Orbital Energies (a.u.)
 --------------------------------------------------------------
 
 Alpha MOs
 -- Occupied --
-19.3422 -19.3420 -19.3416 -10.4902  -1.2489  -1.1220  -1.1220  -0.6561
 -0.5971  -0.5971  -0.5849  -0.4527  -0.4524  -0.4167  -0.4165  -0.3927
 -- Virtual --
  0.0555   0.0857   0.0859   0.0878   0.1619   0.2138   0.2139   0.2284
  0.2454   0.2456   0.2966   0.3022   0.3196   0.3197   0.3273   0.3657
  0.3659   0.4213   0.5908   0.5915   0.6664   0.7474   0.7475   0.7921
  0.8768   0.8771   1.0432   1.0896   1.0908   1.0909   1.1299   1.1300
  1.1633   1.1635   1.2076   1.2168   1.3705   1.3707   1.6190   1.6193
  1.6211   1.6217   1.6234   1.6283   1.8052   1.8056   1.9453   1.9539
  1.9836   2.2564   2.2569   2.4369   2.4375   2.5033   2.7838   2.7840
  2.8590   3.0625   3.0630   3.2109   3.2112   3.4404   3.4678   3.4680
  3.5098   3.5099   3.5715   3.7896   3.8178   3.9916   3.9927   5.0954
  5.1108   5.1113   5.1131   5.1149   5.1313   5.1315   5.1779   5.1781
  5.1872   5.1875   5.2118   5.2235   5.2348   5.3222   5.3231   5.5266
  5.5268   5.6010   5.6015   5.7193   6.1321   6.1322   6.2000   6.3511
  6.3513   6.5170   6.8499   6.9050   6.9055   6.9398   6.9404   6.9734
  7.0868   7.1996   7.2014   7.3041   7.3535   7.3541   7.7076   7.7103
  7.7105   7.7441   7.7442   7.7672  25.3660  50.5922  50.5929  50.6229
 
 Beta MOs
 -- Occupied --
-19.3319 -19.3317 -19.3314 -10.4912  -1.2339  -1.0998  -1.0996  -0.6415
 -0.5787  -0.5720  -0.5718  -0.4029  -0.4028  -0.3868  -0.3868
 -- Virtual --
 -0.0864   0.0580   0.0886   0.0896   0.0898   0.1652   0.2190   0.2191
  0.2302   0.2488   0.2489   0.3008   0.3089   0.3249   0.3250   0.3316
  0.3708   0.3709   0.4285   0.6067   0.6075   0.6665   0.7507   0.7508
  0.7954   0.8772   0.8775   1.0465   1.0917   1.0966   1.0967   1.1354
  1.1354   1.1783   1.1785   1.2216   1.2311   1.3858   1.3861   1.6313
  1.6316   1.6334   1.6339   1.6342   1.6482   1.8235   1.8241   1.9614
  1.9744   1.9879   2.2654   2.2659   2.4428   2.4434   2.5104   2.7989
  2.7991   2.8563   3.0617   3.0622   3.2082   3.2085   3.4390   3.4693
  3.4695   3.5134   3.5135   3.5708   3.8034   3.8235   3.9966   3.9977
  5.1172   5.1356   5.1427   5.1429   5.1508   5.1652   5.1653   5.1901
  5.1902   5.2209   5.2285   5.2286   5.2471   5.2801   5.3561   5.3570
  5.5439   5.5442   5.6149   5.6154   5.7446   6.1607   6.1609   6.2063
  6.3614   6.3616   6.5307   6.8984   6.9477   6.9479   6.9916   6.9918
  7.0214   7.1312   7.2089   7.2106   7.3155   7.3705   7.3711   7.7350
  7.7428   7.7429   7.7739   7.7741   7.7890  25.3656  50.6000  50.6007
 50.6307
 --------------------------------------------------------------
 
          Ground-State Mulliken Net Atomic Charges

     Atom                 Charge (a.u.)    Spin (a.u.)
  --------------------------------------------------------
      1 C                     0.524298      -0.106029
      2 O                    -0.507129       0.370702
      3 O                    -0.507478       0.369523
      4 O                    -0.509690       0.365805
  --------------------------------------------------------
  Sum of atomic charges =    -1.000000
  Sum of spin   charges =     1.000000

 -----------------------------------------------------------------
                    Cartesian Multipole Moments
 -----------------------------------------------------------------
    Charge (ESU x 10^10)
                -4.8032
    Dipole Moment (Debye)
         X       4.3408      Y      -8.7527      Z       0.8493
       Tot       9.8069
    Quadrupole Moments (Debye-Ang)
        XX     -27.1111     XY       7.6280     YY     -46.5194
        XZ      -1.5852     YZ       1.5684     ZZ     -30.6332
    Octopole Moments (Debye-Ang^2)
       XXX      66.4535    XXY     -48.8702    XYY      41.3297
       YYY    -198.6302    XXZ       6.2182    XYZ      -2.4733
       YYZ      11.7496    XZZ      27.6954    YZZ     -53.5862
       ZZZ      12.5907
    Hexadecapole Moments (Debye-Ang^3)
      XXXX    -139.9683   XXXY     118.5220   XXYY    -137.1879
      XYYY     176.4580   YYYY    -802.4099   XXXZ     -18.8913
      XXYZ      10.6066   XYYZ     -13.7222   YYYZ      54.3773
      XXZZ     -49.1636   XYZZ      47.6438   YYZZ    -136.3703
      XZZZ     -17.0393   YZZZ      21.9477   ZZZZ    -124.5589
 -----------------------------------------------------------------
 Calculating analytic gradient of the SCF energy
 Gradient of CDS energy
            1           2           3           4
    1   0.0000063  -0.0002542  -0.0000020   0.0002499
    2   0.0000070   0.0004895  -0.0023736   0.0018772
    3   0.0000136  -0.0024541   0.0008119   0.0016286
 Gradient of SCF Energy
            1           2           3           4
    1  -0.0002701  -0.0040655   0.0000947   0.0042410
    2  -0.0000325   0.0079650  -0.0389791   0.0310466
    3  -0.0000776  -0.0400581   0.0132072   0.0269284
 Max gradient component =       4.006E-02
 RMS gradient           =       2.059E-02
 Computing fast CPCM-SWIG gradient
 Updating gradient with PCM contributions...
 -- total gradient after adding PCM contribution --
---------------------------------------------------
  Atom         X              Y              Z     
---------------------------------------------------
   1      -0.000455       0.000040       0.000087
   2       0.000164      -0.000086       0.000024
   3       0.000160      -0.000080      -0.000144
   4       0.000131       0.000127       0.000033
---------------------------------------------------
 Number of fixed atoms: 0
 Gradient time:  CPU 13.90 s  wall 1.93 s
 ----------------------------------------------------------------
             Standard Nuclear Orientation (Angstroms)
    I     Atom           X                Y                Z
 ----------------------------------------------------------------
    1      C      -0.9042320565     1.8245343475    -0.1754217250
    2      O      -0.7770808828     1.5778680135     1.0581664037
    3      O      -0.9038101243     3.0197518723    -0.5840282338
    4      O      -1.0312928363     0.8736730666    -0.9992925448
 ----------------------------------------------------------------
 Nuclear Repulsion Energy =         106.69187406 hartrees
 There are       16 alpha and       15 beta electrons
 Discretize the solute cavity surface with Lebedev spheres
	Using 110 Lebedev grid points for each H atom
	Using 194 Lebedev grid points for other atoms
	Atomic van der Waals radii will be scaled by 1.20
 Remove points where switching function is < 1.0e-08
 Keep 501 surface tesserae and discard 275 interior tesserae
 Molecular Surface Area = 64.927 Angst**2

                       Distance Matrix (Angstroms)
             C (  1)   O (  2)   O (  3)
   O (  2)  1.264417
   O (  3)  1.263133  2.189039
   O (  4)  1.264533  2.189441  2.189601
 
 Requested basis set is 6-311++G(2df,2p)
 There are 32 shells and 136 basis functions
 A cutoff of  1.0D-12 yielded    525 shell pairs
 There are      9573 function pairs (     12639 Cartesian)
 Smallest overlap matrix eigenvalue = 9.90E-04
 Guess MOs from SCF MO coefficient file

 -----------------------------------------------------------------------
  General SCF calculation program by
  Eric Jon Sundstrom, Paul Horn, Yuezhi Mao, Dmitri Zuev, Alec White,
  David Stuck, Shaama M.S., Shane Yost, Joonho Lee, David Small,
  Daniel Levine, Susi Lehtola, Hugh Burton, Evgeny Epifanovsky,
  Bang C. Huynh
 -----------------------------------------------------------------------
 Exchange:     0.1500 Hartree-Fock + 1.0000 wB97M-V + LR-HF
 Correlation:  1.0000 wB97M-V
 Using SG-2 standard quadrature grid
 Nonlocal Correlation:  VV10 with C = 0.0100 and b = 6.00 and scale = 1.00000
 Grid used for NLC:  SG-1 standard quadrature
 
 Citation of the SMD model:
 Marenich, A.V.; Cramer, C.J.; Truhlar, D.G.
 J. Phys. Chem. B 2009, 113, 6378-6396.
 iSolventCode=           1
 Solvent: water                                                           
 
 vradii
            1           2           3           4
    1   1.8500000   1.5200000   1.5200000   1.5200000
 -------------------------------------------------------
 OpenMP BLAS3 based DFT computing Module                
 Release: version 1.0, May 2013, Q-Chem Inc. Pittsburgh 
 -------------------------------------------------------
 A unrestricted SCF calculation will be
 performed using Roothaan-Hall, DIIS, GDM
 SCF converges when RMS gradient is below 1.0e-07
 ---------------------------------------
  Cycle       Energy         DIIS error
 ---------------------------------------
    1    -263.8297378936      1.75e-04  Roothaan Step
 ---------------------------------------
  Cycle       Energy         DIIS error
 ---------------------------------------
    1    -263.9344103347      2.11e-04  
    2    -263.9350210775      2.04e-04  Done DIIS. Switching to GDM
 ---------------------------------------
  Cycle       Energy        RMS Gradient
 ---------------------------------------
    1    -263.9350210775      5.69e-03   Normal BFGS step
    2    -263.9350563510      6.89e-03   Normal BFGS step
    3    -263.9352567709      5.15e-04   Normal BFGS step
    4    -263.9352570319      4.65e-04   Normal BFGS step
    5    -263.9352578240      2.52e-04   Normal BFGS step
    6    -263.9352579014      1.76e-04   Normal BFGS step
    7    -263.9352579693      1.37e-04   Normal BFGS step
    8    -263.9352581012      3.15e-05   Normal BFGS step
    9    -263.9352581086      1.23e-05   Normal BFGS step
   10    -263.9352581095      9.16e-06   Normal BFGS step
   11    -263.9352581096      6.96e-06   Normal BFGS step
   12    -263.9352581098      7.62e-07   Normal BFGS step
   13    -263.9352581098      3.75e-07   Normal BFGS step
   14    -263.9352581098      7.23e-08  Convergence criterion met
 ---------------------------------------
 SCF time:   CPU 85.55s  wall 11.00s 
<S^2> =          0.758808858
(3)  G-ENP(liq) elect-nuc-pol free energy of system     -263.935258110 a.u.
(4)  G-CDS(liq) cavity-dispersion-solvent structure 
     free energy                                                4.3077 kcal/mol
(6)  G-S(liq) free energy of system                     -263.928393416 a.u.
 SCF   energy in the final basis set =     -263.9283934157
 Total energy in the final basis set =     -263.9283934157
 
 --------------------------------------------------------------
 
                    Orbital Energies (a.u.)
 --------------------------------------------------------------
 
 Alpha MOs
 -- Occupied --
-19.3422 -19.3420 -19.3416 -10.4902  -1.2489  -1.1221  -1.1219  -0.6561
 -0.5971  -0.5970  -0.5849  -0.4528  -0.4523  -0.4167  -0.4165  -0.3927
 -- Virtual --
  0.0555   0.0857   0.0859   0.0878   0.1619   0.2138   0.2139   0.2284
  0.2454   0.2456   0.2966   0.3022   0.3195   0.3197   0.3273   0.3658
  0.3659   0.4213   0.5907   0.5917   0.6664   0.7475   0.7475   0.7921
  0.8767   0.8772   1.0432   1.0896   1.0908   1.0909   1.1300   1.1300
  1.1632   1.1636   1.2076   1.2168   1.3705   1.3707   1.6190   1.6193
  1.6211   1.6218   1.6234   1.6283   1.8052   1.8056   1.9453   1.9539
  1.9836   2.2564   2.2569   2.4366   2.4377   2.5033   2.7837   2.7841
  2.8590   3.0624   3.0630   3.2108   3.2113   3.4404   3.4677   3.4681
  3.5096   3.5101   3.5715   3.7896   3.8178   3.9913   3.9930   5.0954
  5.1109   5.1112   5.1131   5.1149   5.1314   5.1315   5.1779   5.1782
  5.1872   5.1875   5.2118   5.2235   5.2348   5.3223   5.3230   5.5266
  5.5269   5.6008   5.6017   5.7193   6.1315   6.1328   6.1999   6.3506
  6.3518   6.5170   6.8499   6.9049   6.9056   6.9398   6.9404   6.9734
  7.0868   7.1990   7.2020   7.3041   7.3534   7.3542   7.7076   7.7101
  7.7107   7.7435   7.7448   7.7673  25.3661  50.5918  50.5932  50.6229
 
 Beta MOs
 -- Occupied --
-19.3319 -19.3317 -19.3314 -10.4911  -1.2339  -1.0999  -1.0995  -0.6415
 -0.5787  -0.5720  -0.5718  -0.4029  -0.4028  -0.3869  -0.3867
 -- Virtual --
 -0.0864   0.0580   0.0886   0.0896   0.0898   0.1652   0.2190   0.2191
  0.2302   0.2488   0.2489   0.3008   0.3089   0.3249   0.3250   0.3316
  0.3708   0.3709   0.4285   0.6066   0.6077   0.6665   0.7507   0.7508
  0.7954   0.8771   0.8776   1.0465   1.0917   1.0966   1.0967   1.1353
  1.1354   1.1783   1.1785   1.2216   1.2311   1.3858   1.3861   1.6313
  1.6316   1.6334   1.6339   1.6342   1.6482   1.8235   1.8240   1.9614
  1.9744   1.9879   2.2654   2.2659   2.4426   2.4436   2.5104   2.7988
  2.7992   2.8563   3.0617   3.0622   3.2081   3.2086   3.4390   3.4692
  3.4696   3.5132   3.5137   3.5708   3.8034   3.8235   3.9964   3.9980
  5.1172   5.1356   5.1427   5.1429   5.1508   5.1652   5.1653   5.1901
  5.1903   5.2209   5.2285   5.2286   5.2471   5.2801   5.3562   5.3569
  5.5439   5.5442   5.6148   5.6156   5.7446   6.1602   6.1614   6.2063
  6.3609   6.3621   6.5307   6.8984   6.9477   6.9479   6.9916   6.9918
  7.0214   7.1312   7.2083   7.2112   7.3155   7.3704   7.3712   7.7350
  7.7425   7.7432   7.7734   7.7745   7.7890  25.3656  50.5997  50.6010
 50.6308
 --------------------------------------------------------------
 
          Ground-State Mulliken Net Atomic Charges

     Atom                 Charge (a.u.)    Spin (a.u.)
  --------------------------------------------------------
      1 C                     0.524299      -0.106030
      2 O                    -0.506971       0.371110
      3 O                    -0.509081       0.365428
      4 O                    -0.508247       0.369492
  --------------------------------------------------------
  Sum of atomic charges =    -1.000000
  Sum of spin   charges =     1.000000

 -----------------------------------------------------------------
                    Cartesian Multipole Moments
 -----------------------------------------------------------------
    Charge (ESU x 10^10)
                -4.8032
    Dipole Moment (Debye)
         X       4.3427      Y      -8.7636      Z       0.8479
       Tot       9.8173
    Quadrupole Moments (Debye-Ang)
        XX     -27.1143     XY       7.6421     YY     -46.5645
        XZ      -1.5833     YZ       1.5779     ZZ     -30.6275
    Octopole Moments (Debye-Ang^2)
       XXX      66.4434    XXY     -48.8907    XYY      41.3707
       YYY    -198.8141    XXZ       6.2152    XYZ      -2.4823
       YYZ      11.7894    XZZ      27.6814    YZZ     -53.5950
       ZZZ      12.5857
    Hexadecapole Moments (Debye-Ang^3)
      XXXX    -139.9214   XXXY     118.5255   XXYY    -137.2397
      XYYY     176.5929   YYYY    -803.1327   XXXZ     -18.8838
      XXYZ      10.6165   XYYZ     -13.7574   YYYZ      54.5139
      XXZZ     -49.1418   XYZZ      47.6398   YYZZ    -136.4265
      XZZZ     -17.0290   YZZZ      21.9729   ZZZZ    -124.5302
 -----------------------------------------------------------------
 Calculating analytic gradient of the SCF energy
 Gradient of CDS energy
            1           2           3           4
    1   0.0000003  -0.0002532  -0.0000007   0.0002535
    2  -0.0000363   0.0004903  -0.0023490   0.0018950
    3   0.0000096  -0.0024567   0.0008035   0.0016437
 Gradient of SCF Energy
            1           2           3           4
    1  -0.0000048  -0.0041269   0.0000261   0.0041056
    2   0.0008223   0.0080707  -0.0395607   0.0306677
    3  -0.0000158  -0.0399671   0.0134673   0.0265155
 Max gradient component =       3.997E-02
 RMS gradient           =       2.059E-02
 Computing fast CPCM-SWIG gradient
 Updating gradient with PCM contributions...
 -- total gradient after adding PCM contribution --
---------------------------------------------------
  Atom         X              Y              Z     
---------------------------------------------------
   1       0.000009       0.000564       0.000093
   2       0.000038       0.000155       0.000140
   3       0.000026      -0.000570       0.000153
   4      -0.000074      -0.000148      -0.000386
---------------------------------------------------
 Number of fixed atoms: 0
 Gradient time:  CPU 13.97 s  wall 1.92 s
 ----------------------------------------------------------------
             Standard Nuclear Orientation (Angstroms)
    I     Atom           X                Y                Z
 ----------------------------------------------------------------
    1      C      -0.9042320565     1.8225343475    -0.1754217250
    2      O      -0.7770808828     1.5778680135     1.0581664037
    3      O      -0.9038101243     3.0197518723    -0.5840282338
    4      O      -1.0312928363     0.8736730666    -0.9992925448
 ----------------------------------------------------------------
 Nuclear Repulsion Energy =         106.69187145 hartrees
 There are       16 alpha and       15 beta electrons
 Discretize the solute cavity surface with Lebedev spheres
	Using 110 Lebedev grid points for each H atom
	Using 194 Lebedev grid points for other atoms
	Atomic van der Waals radii will be scaled by 1.20
 Remove points where switching function is < 1.0e-08
 Keep 501 surface tesserae and discard 275 interior tesserae
 Molecular Surface Area = 64.925 Angst**2

                       Distance Matrix (Angstroms)
             C (  1)   O (  2)   O (  3)
   O (  2)  1.264029
   O (  3)  1.265025  2.189039
   O (  4)  1.263030  2.189441  2.189601
 
 Requested basis set is 6-311++G(2df,2p)
 There are 32 shells and 136 basis functions
 A cutoff of  1.0D-12 yielded    525 shell pairs
 There are      9573 function pairs (     12639 Cartesian)
 Smallest overlap matrix eigenvalue = 9.90E-04
 Guess MOs from SCF MO coefficient file

 -----------------------------------------------------------------------
  General SCF calculation program by
  Eric Jon Sundstrom, Paul Horn, Yuezhi Mao, Dmitri Zuev, Alec White,
  David Stuck, Shaama M.S., Shane Yost, Joonho Lee, David Small,
  Daniel Levine, Susi Lehtola, Hugh Burton, Evgeny Epifanovsky,
  Bang C. Huynh
 -----------------------------------------------------------------------
 Exchange:     0.1500 Hartree-Fock + 1.0000 wB97M-V + LR-HF
 Correlation:  1.0000 wB97M-V
 Using SG-2 standard quadrature grid
 Nonlocal Correlation:  VV10 with C = 0.0100 and b = 6.00 and scale = 1.00000
 Grid used for NLC:  SG-1 standard quadrature
 
 Citation of the SMD model:
 Marenich, A.V.; Cramer, C.J.; Truhlar, D.G.
 J. Phys. Chem. B 2009, 113, 6378-6396.
 iSolventCode=           1
 Solvent: water                                                           
 
 vradii
            1           2           3           4
    1   1.8500000   1.5200000   1.5200000   1.5200000
 -------------------------------------------------------
 OpenMP BLAS3 based DFT computing Module                
 Release: version 1.0, May 2013, Q-Chem Inc. Pittsburgh 
 -------------------------------------------------------
 A unrestricted SCF calculation will be
 performed using Roothaan-Hall, DIIS, GDM
 SCF converges when RMS gradient is below 1.0e-07
 ---------------------------------------
  Cycle       Energy         DIIS error
 ---------------------------------------
    1    -263.8297316593      1.76e-04  Roothaan Step
 ---------------------------------------
  Cycle       Energy         DIIS error
 ---------------------------------------
    1    -263.9344075738      2.12e-04  
    2    -263.9350180348      2.05e-04  Done DIIS. Switching to GDM
 ---------------------------------------
  Cycle       Energy        RMS Gradient
 ---------------------------------------
    1    -263.9350180348      5.69e-03   Normal BFGS step
    2    -263.9350514734      6.89e-03   Normal BFGS step
    3    -263.9352555355      1.09e-03   Normal BFGS step
    4    -263.9352556421      6.77e-04   Normal BFGS step
    5    -263.9352572525      3.05e-04   Normal BFGS step
    6    -263.9352575144      3.13e-04   Normal BFGS step
    7    -263.9352579371      2.53e-04   Normal BFGS step
    8    -263.9352582313      4.53e-05   Normal BFGS step
    9    -263.9352582488      1.45e-05   Normal BFGS step
   10    -263.9352582499      1.73e-05   Normal BFGS step
   11    -263.9352582505      7.13e-06   Normal BFGS step
   12    -263.9352582506      1.40e-06   Normal BFGS step
   13    -263.9352582506      7.01e-07   Normal BFGS step
   14    -263.9352582506      5.30e-07   Normal BFGS step
   15    -263.9352582506      4.49e-07   Normal BFGS step
   16    -263.9352582506      3.59e-07   Normal BFGS step
   17    -263.9352582506      2.09e-07   Normal BFGS step
   18    -263.9352582506      5.09e-08  Convergence criterion met
 ---------------------------------------
 SCF time:   CPU 104.50s  wall 14.00s 
<S^2> =          0.758808548
(3)  G-ENP(liq) elect-nuc-pol free energy of system     -263.935258251 a.u.
(4)  G-CDS(liq) cavity-dispersion-solvent structure 
     free energy                                                4.3076 kcal/mol
(6)  G-S(liq) free energy of system                     -263.928393578 a.u.
 SCF   energy in the final basis set =     -263.9283935777
 Total energy in the final basis set =     -263.9283935777
 
 --------------------------------------------------------------
 
                    Orbital Energies (a.u.)
 --------------------------------------------------------------
 
 Alpha MOs
 -- Occupied --
-19.3425 -19.3420 -19.3413 -10.4902  -1.2489  -1.1221  -1.1220  -0.6561
 -0.5972  -0.5970  -0.5849  -0.4529  -0.4522  -0.4168  -0.4164  -0.3927
 -- Virtual --
  0.0555   0.0857   0.0859   0.0878   0.1619   0.2138   0.2139   0.2284
  0.2454   0.2456   0.2966   0.3022   0.3195   0.3197   0.3273   0.3657
  0.3660   0.4213   0.5904   0.5920   0.6664   0.7474   0.7476   0.7921
  0.8766   0.8774   1.0432   1.0896   1.0908   1.0909   1.1299   1.1300
  1.1632   1.1636   1.2076   1.2168   1.3704   1.3708   1.6189   1.6194
  1.6209   1.6220   1.6234   1.6283   1.8050   1.8058   1.9453   1.9539
  1.9836   2.2562   2.2571   2.4364   2.4380   2.5033   2.7836   2.7842
  2.8590   3.0622   3.0632   3.2106   3.2114   3.4404   3.4677   3.4681
  3.5096   3.5101   3.5715   3.7896   3.8178   3.9910   3.9934   5.0954
  5.1106   5.1114   5.1131   5.1149   5.1313   5.1316   5.1778   5.1783
  5.1870   5.1876   5.2118   5.2235   5.2348   5.3220   5.3233   5.5266
  5.5268   5.6006   5.6019   5.7193   6.1316   6.1327   6.1999   6.3506
  6.3518   6.5170   6.8499   6.9047   6.9058   6.9396   6.9406   6.9734
  7.0868   7.1983   7.2027   7.3041   7.3532   7.3544   7.7077   7.7100
  7.7109   7.7436   7.7447   7.7673  25.3661  50.5915  50.5935  50.6230
 
 Beta MOs
 -- Occupied --
-19.3321 -19.3317 -19.3311 -10.4911  -1.2339  -1.1000  -1.0995  -0.6415
 -0.5787  -0.5721  -0.5718  -0.4029  -0.4027  -0.3869  -0.3867
 -- Virtual --
 -0.0864   0.0580   0.0886   0.0896   0.0898   0.1652   0.2189   0.2192
  0.2302   0.2488   0.2489   0.3008   0.3089   0.3249   0.3250   0.3316
  0.3708   0.3710   0.4285   0.6062   0.6080   0.6665   0.7507   0.7508
  0.7954   0.8769   0.8777   1.0465   1.0917   1.0967   1.0967   1.1353
  1.1354   1.1783   1.1785   1.2216   1.2312   1.3857   1.3862   1.6312
  1.6317   1.6331   1.6341   1.6342   1.6482   1.8233   1.8243   1.9614
  1.9744   1.9879   2.2652   2.2661   2.4424   2.4438   2.5104   2.7988
  2.7992   2.8563   3.0615   3.0625   3.2080   3.2087   3.4390   3.4692
  3.4696   3.5132   3.5137   3.5708   3.8034   3.8235   3.9960   3.9984
  5.1172   5.1356   5.1427   5.1429   5.1508   5.1652   5.1653   5.1901
  5.1903   5.2209   5.2284   5.2286   5.2471   5.2801   5.3559   5.3571
  5.5438   5.5442   5.6146   5.6158   5.7446   6.1604   6.1612   6.2062
  6.3609   6.3621   6.5307   6.8984   6.9475   6.9481   6.9916   6.9918
  7.0214   7.1312   7.2076   7.2119   7.3155   7.3702   7.3714   7.7350
  7.7425   7.7433   7.7736   7.7743   7.7890  25.3656  50.5994  50.6012
 50.6308
 --------------------------------------------------------------
 
          Ground-State Mulliken Net Atomic Charges

     Atom                 Charge (a.u.)    Spin (a.u.)
  --------------------------------------------------------
      1 C                     0.524300      -0.106023
      2 O                    -0.507662       0.369383
      3 O                    -0.505854       0.373643
      4 O                    -0.510784       0.362997
  --------------------------------------------------------
  Sum of atomic charges =    -1.000000
  Sum of spin   charges =     1.000000

 -----------------------------------------------------------------
                    Cartesian Multipole Moments
 -----------------------------------------------------------------
    Charge (ESU x 10^10)
                -4.8032
    Dipole Moment (Debye)
         X       4.3437      Y      -8.7427      Z       0.8475
       Tot       9.7990
    Quadrupole Moments (Debye-Ang)
        XX     -27.1164     XY       7.6234     YY     -46.4756
        XZ      -1.5852     YZ       1.5553     ZZ     -30.6394
    Octopole Moments (Debye-Ang^2)
       XXX      66.4463    XXY     -48.8667    XYY      41.2901
       YYY    -198.4465    XXZ       6.2190    XYZ      -2.4630
       YYZ      11.7054    XZZ      27.6934    YZZ     -53.5797
       ZZZ      12.5911
    Hexadecapole Moments (Debye-Ang^3)
      XXXX    -139.9251   XXXY     118.4897   XXYY    -137.1376
      XYYY     176.2615   YYYY    -801.6733   XXXZ     -18.8900
      XXYZ      10.5960   XYYZ     -13.6790   YYYZ      54.2373
      XXZZ     -49.1564   XYZZ      47.6230   YYZZ    -136.3224
      XZZZ     -17.0418   YZZZ      21.9172   ZZZZ    -124.5872
 -----------------------------------------------------------------
 Calculating analytic gradient of the SCF energy
 Gradient of CDS energy
            1           2           3           4
    1   0.0000032  -0.0002520  -0.0000006   0.0002495
    2   0.0000476   0.0004875  -0.0023986   0.0018635
    3   0.0000092  -0.0024464   0.0008201   0.0016170
 Gradient of SCF Energy
            1           2           3           4
    1  -0.0000496  -0.0041715   0.0000117   0.0042094
    2  -0.0008372   0.0079040  -0.0383918   0.0313251
    3  -0.0000191  -0.0402578   0.0129931   0.0272838
 Max gradient component =       4.026E-02
 RMS gradient           =       2.059E-02
 Computing fast CPCM-SWIG gradient
 Updating gradient with PCM contributions...
 -- total gradient after adding PCM contribution --
---------------------------------------------------
  Atom         X              Y              Z     
---------------------------------------------------
   1       0.000006      -0.000474       0.000085
   2      -0.000024      -0.000265      -0.000168
   3      -0.000003       0.000429      -0.000350
   4       0.000021       0.000310       0.000433
---------------------------------------------------
 Number of fixed atoms: 0
 Gradient time:  CPU 13.87 s  wall 1.91 s
 ----------------------------------------------------------------
             Standard Nuclear Orientation (Angstroms)
    I     Atom           X                Y                Z
 ----------------------------------------------------------------
    1      C      -0.9042320565     1.8235343475    -0.1744217250
    2      O      -0.7770808828     1.5778680135     1.0581664037
    3      O      -0.9038101243     3.0197518723    -0.5840282338
    4      O      -1.0312928363     0.8736730666    -0.9992925448
 ----------------------------------------------------------------
 Nuclear Repulsion Energy =         106.69187382 hartrees
 There are       16 alpha and       15 beta electrons
 Discretize the solute cavity surface with Lebedev spheres
	Using 110 Lebedev grid points for each H atom
	Using 194 Lebedev grid points for other atoms
	Atomic van der Waals radii will be scaled by 1.20
 Remove points where switching function is < 1.0e-08
 Keep 501 surface tesserae and discard 275 interior tesserae
 Molecular Surface Area = 64.926 Angst**2

                       Distance Matrix (Angstroms)
             C (  1)   O (  2)   O (  3)
   O (  2)  1.263247
   O (  3)  1.264403  2.189039
   O (  4)  1.264434  2.189441  2.189601
 
 Requested basis set is 6-311++G(2df,2p)
 There are 32 shells and 136 basis functions
 A cutoff of  1.0D-12 yielded    525 shell pairs
 There are      9573 function pairs (     12639 Cartesian)
 Smallest overlap matrix eigenvalue = 9.90E-04
 Guess MOs from SCF MO coefficient file

 -----------------------------------------------------------------------
  General SCF calculation program by
  Eric Jon Sundstrom, Paul Horn, Yuezhi Mao, Dmitri Zuev, Alec White,
  David Stuck, Shaama M.S., Shane Yost, Joonho Lee, David Small,
  Daniel Levine, Susi Lehtola, Hugh Burton, Evgeny Epifanovsky,
  Bang C. Huynh
 -----------------------------------------------------------------------
 Exchange:     0.1500 Hartree-Fock + 1.0000 wB97M-V + LR-HF
 Correlation:  1.0000 wB97M-V
 Using SG-2 standard quadrature grid
 Nonlocal Correlation:  VV10 with C = 0.0100 and b = 6.00 and scale = 1.00000
 Grid used for NLC:  SG-1 standard quadrature
 
 Citation of the SMD model:
 Marenich, A.V.; Cramer, C.J.; Truhlar, D.G.
 J. Phys. Chem. B 2009, 113, 6378-6396.
 iSolventCode=           1
 Solvent: water                                                           
 
 vradii
            1           2           3           4
    1   1.8500000   1.5200000   1.5200000   1.5200000
 -------------------------------------------------------
 OpenMP BLAS3 based DFT computing Module                
 Release: version 1.0, May 2013, Q-Chem Inc. Pittsburgh 
 -------------------------------------------------------
 A unrestricted SCF calculation will be
 performed using Roothaan-Hall, DIIS, GDM
 SCF converges when RMS gradient is below 1.0e-07
 ---------------------------------------
  Cycle       Energy         DIIS error
 ---------------------------------------
    1    -263.8297359753      1.75e-04  Roothaan Step
 ---------------------------------------
  Cycle       Energy         DIIS error
 ---------------------------------------
    1    -263.9344088068      2.12e-04  
    2    -263.9350187532      2.05e-04  Done DIIS. Switching to GDM
 ---------------------------------------
  Cycle       Energy        RMS Gradient
 ---------------------------------------
    1    -263.9350187532      5.69e-03   Normal BFGS step
    2    -263.9350516349      6.90e-03   Normal BFGS step
    3    -263.9352560446      9.94e-04   Normal BFGS step
    4    -263.9352559366      7.31e-04   Normal BFGS step
    5    -263.9352575468      2.64e-04   Normal BFGS step
    6    -263.9352576668      2.16e-04   Normal BFGS step
    7    -263.9352578148      1.52e-04   Normal BFGS step
    8    -263.9352580143      2.86e-05   Normal BFGS step
    9    -263.9352580212      1.00e-05   Normal BFGS step
   10    -263.9352580218      1.66e-05   Normal BFGS step
   11    -263.9352580223      3.72e-06   Normal BFGS step
   12    -263.9352580223      8.13e-07   Normal BFGS step
   13    -263.9352580224      3.35e-07   Normal BFGS step
   14    -263.9352580224      2.51e-07   Normal BFGS step
   15    -263.9352580224      2.30e-07   Normal BFGS step
   16    -263.9352580224      1.53e-07   Normal BFGS step
   17    -263.9352580224      1.11e-07   Normal BFGS step
   18    -263.9352580224      3.75e-08  Convergence criterion met
 ---------------------------------------
 SCF time:   CPU 104.96s  wall 13.00s 
<S^2> =          0.758808884
(3)  G-ENP(liq) elect-nuc-pol free energy of system     -263.935258022 a.u.
(4)  G-CDS(liq) cavity-dispersion-solvent structure 
     free energy                                                4.3077 kcal/mol
(6)  G-S(liq) free energy of system                     -263.928393321 a.u.
 SCF   energy in the final basis set =     -263.9283933206
 Total energy in the final basis set =     -263.9283933206
 
 --------------------------------------------------------------
 
                    Orbital Energies (a.u.)
 --------------------------------------------------------------
 
 Alpha MOs
 -- Occupied --
-19.3422 -19.3420 -19.3417 -10.4902  -1.2489  -1.1221  -1.1219  -0.6561
 -0.5971  -0.5970  -0.5849  -0.4527  -0.4524  -0.4167  -0.4165  -0.3927
 -- Virtual --
  0.0555   0.0857   0.0859   0.0878   0.1619   0.2138   0.2139   0.2284
  0.2454   0.2456   0.2966   0.3022   0.3195   0.3197   0.3273   0.3657
  0.3659   0.4213   0.5908   0.5916   0.6664   0.7474   0.7476   0.7921
  0.8768   0.8772   1.0432   1.0896   1.0908   1.0909   1.1300   1.1300
  1.1633   1.1635   1.2076   1.2168   1.3706   1.3706   1.6191   1.6192
  1.6212   1.6216   1.6234   1.6283   1.8053   1.8055   1.9453   1.9539
  1.9836   2.2565   2.2568   2.4368   2.4376   2.5033   2.7837   2.7841
  2.8590   3.0625   3.0630   3.2108   3.2113   3.4404   3.4676   3.4681
  3.5096   3.5101   3.5715   3.7896   3.8178   3.9916   3.9927   5.0954
  5.1109   5.1112   5.1131   5.1149   5.1314   5.1315   5.1779   5.1782
  5.1872   5.1874   5.2118   5.2235   5.2348   5.3225   5.3228   5.5266
  5.5269   5.6009   5.6016   5.7193   6.1315   6.1328   6.2000   6.3506
  6.3518   6.5170   6.8499   6.9050   6.9055   6.9399   6.9403   6.9734
  7.0868   7.1993   7.2017   7.3041   7.3535   7.3540   7.7077   7.7101
  7.7107   7.7435   7.7448   7.7672  25.3661  50.5919  50.5931  50.6229
 
 Beta MOs
 -- Occupied --
-19.3319 -19.3317 -19.3314 -10.4911  -1.2339  -1.0999  -1.0996  -0.6415
 -0.5787  -0.5720  -0.5718  -0.4028  -0.4028  -0.3869  -0.3867
 -- Virtual --
 -0.0864   0.0580   0.0886   0.0896   0.0898   0.1652   0.2190   0.2191
  0.2302   0.2488   0.2489   0.3008   0.3089   0.3249   0.3250   0.3316
  0.3708   0.3709   0.4285   0.6067   0.6075   0.6665   0.7507   0.7508
  0.7954   0.8771   0.8775   1.0465   1.0917   1.0967   1.0967   1.1353
  1.1354   1.1784   1.1785   1.2216   1.2312   1.3859   1.3860   1.6314
  1.6315   1.6334   1.6338   1.6342   1.6482   1.8236   1.8240   1.9614
  1.9744   1.9879   2.2655   2.2658   2.4427   2.4435   2.5104   2.7989
  2.7991   2.8563   3.0618   3.0622   3.2081   3.2086   3.4390   3.4692
  3.4696   3.5132   3.5137   3.5708   3.8034   3.8235   3.9967   3.9977
  5.1172   5.1356   5.1427   5.1428   5.1508   5.1652   5.1653   5.1901
  5.1903   5.2209   5.2285   5.2286   5.2471   5.2801   5.3563   5.3567
  5.5439   5.5442   5.6148   5.6155   5.7446   6.1602   6.1615   6.2063
  6.3609   6.3621   6.5307   6.8984   6.9477   6.9479   6.9916   6.9918
  7.0214   7.1312   7.2086   7.2109   7.3155   7.3706   7.3710   7.7350
  7.7425   7.7432   7.7734   7.7745   7.7890  25.3656  50.5997  50.6009
 50.6307
 --------------------------------------------------------------
 
          Ground-State Mulliken Net Atomic Charges

     Atom                 Charge (a.u.)    Spin (a.u.)
  --------------------------------------------------------
      1 C                     0.524302      -0.106029
      2 O                    -0.508955       0.366042
      3 O                    -0.506927       0.370929
      4 O                    -0.508419       0.369058
  --------------------------------------------------------
  Sum of atomic charges =    -1.000000
  Sum of spin   charges =     1.000000

 -----------------------------------------------------------------
                    Cartesian Multipole Moments
 -----------------------------------------------------------------
    Charge (ESU x 10^10)
                -4.8032
    Dipole Moment (Debye)
         X       4.3418      Y      -8.7531      Z       0.8376
       Tot       9.8066
    Quadrupole Moments (Debye-Ang)
        XX     -27.1129     XY       7.6312     YY     -46.5109
        XZ      -1.5756     YZ       1.5541     ZZ     -30.6389
    Octopole Moments (Debye-Ang^2)
       XXX      66.4419    XXY     -48.8760    XYY      41.3204
       YYY    -198.5804    XXZ       6.2058    XYZ      -2.4629
       YYZ      11.7189    XZZ      27.6894    YZZ     -53.5993
       ZZZ      12.5479
    Hexadecapole Moments (Debye-Ang^3)
      XXXX    -139.9207   XXXY     118.5053   XXYY    -137.1771
      XYYY     176.3828   YYYY    -802.1788   XXXZ     -18.8704
      XXYZ      10.5925   XYYZ     -13.6967   YYYZ      54.2990
      XXZZ     -49.1483   XYZZ      47.6374   YYZZ    -136.4002
      XZZZ     -16.9995   YZZZ      21.8799   ZZZZ    -124.5595
 -----------------------------------------------------------------
 Calculating analytic gradient of the SCF energy
 Gradient of CDS energy
            1           2           3           4
    1  -0.0000024  -0.0002500  -0.0000008   0.0002532
    2   0.0000057   0.0004837  -0.0023820   0.0018926
    3  -0.0000320  -0.0024253   0.0008150   0.0016423
 Gradient of SCF Energy
            1           2           3           4
    1   0.0000380  -0.0042048   0.0000397   0.0041270
    2  -0.0000121   0.0081354  -0.0387355   0.0306123
    3   0.0008120  -0.0407466   0.0132578   0.0266768
 Max gradient component =       4.075E-02
 RMS gradient           =       2.059E-02
 Computing fast CPCM-SWIG gradient
 Updating gradient with PCM contributions...
 -- total gradient after adding PCM contribution --
---------------------------------------------------
  Atom         X              Y              Z     
---------------------------------------------------
   1       0.000015       0.000042       0.000613
   2      -0.000031       0.000101      -0.000568
   3       0.000055       0.000185       0.000050
   4      -0.000038      -0.000328      -0.000095
---------------------------------------------------
 Number of fixed atoms: 0
 Gradient time:  CPU 14.84 s  wall 2.09 s
 ----------------------------------------------------------------
             Standard Nuclear Orientation (Angstroms)
    I     Atom           X                Y                Z
 ----------------------------------------------------------------
    1      C      -0.9042320565     1.8235343475    -0.1764217250
    2      O      -0.7770808828     1.5778680135     1.0581664037
    3      O      -0.9038101243     3.0197518723    -0.5840282338
    4      O      -1.0312928363     0.8736730666    -0.9992925448
 ----------------------------------------------------------------
 Nuclear Repulsion Energy =         106.69187106 hartrees
 There are       16 alpha and       15 beta electrons
 Discretize the solute cavity surface with Lebedev spheres
	Using 110 Lebedev grid points for each H atom
	Using 194 Lebedev grid points for other atoms
	Atomic van der Waals radii will be scaled by 1.20
 Remove points where switching function is < 1.0e-08
 Keep 501 surface tesserae and discard 275 interior tesserae
 Molecular Surface Area = 64.927 Angst**2

                       Distance Matrix (Angstroms)
             C (  1)   O (  2)   O (  3)
   O (  2)  1.265198
   O (  3)  1.263756  2.189039
   O (  4)  1.263130  2.189441  2.189601
 
 Requested basis set is 6-311++G(2df,2p)
 There are 32 shells and 136 basis functions
 A cutoff of  1.0D-12 yielded    525 shell pairs
 There are      9573 function pairs (     12639 Cartesian)
 Smallest overlap matrix eigenvalue = 9.90E-04
 Guess MOs from SCF MO coefficient file

 -----------------------------------------------------------------------
  General SCF calculation program by
  Eric Jon Sundstrom, Paul Horn, Yuezhi Mao, Dmitri Zuev, Alec White,
  David Stuck, Shaama M.S., Shane Yost, Joonho Lee, David Small,
  Daniel Levine, Susi Lehtola, Hugh Burton, Evgeny Epifanovsky,
  Bang C. Huynh
 -----------------------------------------------------------------------
 Exchange:     0.1500 Hartree-Fock + 1.0000 wB97M-V + LR-HF
 Correlation:  1.0000 wB97M-V
 Using SG-2 standard quadrature grid
 Nonlocal Correlation:  VV10 with C = 0.0100 and b = 6.00 and scale = 1.00000
 Grid used for NLC:  SG-1 standard quadrature
 
 Citation of the SMD model:
 Marenich, A.V.; Cramer, C.J.; Truhlar, D.G.
 J. Phys. Chem. B 2009, 113, 6378-6396.
 iSolventCode=           1
 Solvent: water                                                           
 
 vradii
            1           2           3           4
    1   1.8500000   1.5200000   1.5200000   1.5200000
 -------------------------------------------------------
 OpenMP BLAS3 based DFT computing Module                
 Release: version 1.0, May 2013, Q-Chem Inc. Pittsburgh 
 -------------------------------------------------------
 A unrestricted SCF calculation will be
 performed using Roothaan-Hall, DIIS, GDM
 SCF converges when RMS gradient is below 1.0e-07
 ---------------------------------------
  Cycle       Energy         DIIS error
 ---------------------------------------
    1    -263.8297315251      1.76e-04  Roothaan Step
 ---------------------------------------
  Cycle       Energy         DIIS error
 ---------------------------------------
    1    -263.9344076132      2.12e-04  
    2    -263.9350179966      2.05e-04  Done DIIS. Switching to GDM
 ---------------------------------------
  Cycle       Energy        RMS Gradient
 ---------------------------------------
    1    -263.9350179966      5.68e-03   Normal BFGS step
    2    -263.9350511907      6.89e-03   Normal BFGS step
    3    -263.9352556256      1.16e-03   Normal BFGS step
    4    -263.9352556854      7.51e-04   Normal BFGS step
    5    -263.9352573655      3.47e-04   Normal BFGS step
    6    -263.9352576207      2.91e-04   Normal BFGS step
    7    -263.9352580372      2.61e-04   Normal BFGS step
    8    -263.9352583281      4.85e-05   Normal BFGS step
    9    -263.9352583462      1.39e-05   Normal BFGS step
   10    -263.9352583476      1.16e-05   Normal BFGS step
   11    -263.9352583477      1.16e-05   Normal BFGS step
   12    -263.9352583480      1.38e-06   Normal BFGS step
   13    -263.9352583480      6.83e-07   Normal BFGS step
   14    -263.9352583480      4.98e-07   Normal BFGS step
   15    -263.9352583480      4.26e-07   Normal BFGS step
   16    -263.9352583480      3.49e-07   Normal BFGS step
   17    -263.9352583480      2.19e-07   Normal BFGS step
   18    -263.9352583480      5.73e-08  Convergence criterion met
 ---------------------------------------
 SCF time:   CPU 105.67s  wall 13.00s 
<S^2> =          0.758808513
(3)  G-ENP(liq) elect-nuc-pol free energy of system     -263.935258348 a.u.
(4)  G-CDS(liq) cavity-dispersion-solvent structure 
     free energy                                                4.3076 kcal/mol
(6)  G-S(liq) free energy of system                     -263.928393682 a.u.
 SCF   energy in the final basis set =     -263.9283936821
 Total energy in the final basis set =     -263.9283936821
 
 --------------------------------------------------------------
 
                    Orbital Energies (a.u.)
 --------------------------------------------------------------
 
 Alpha MOs
 -- Occupied --
-19.3426 -19.3419 -19.3413 -10.4902  -1.2489  -1.1221  -1.1220  -0.6561
 -0.5972  -0.5970  -0.5849  -0.4529  -0.4522  -0.4168  -0.4164  -0.3927
 -- Virtual --
  0.0555   0.0858   0.0858   0.0878   0.1619   0.2137   0.2139   0.2284
  0.2454   0.2456   0.2966   0.3022   0.3196   0.3197   0.3273   0.3657
  0.3659   0.4213   0.5903   0.5920   0.6664   0.7474   0.7476   0.7921
  0.8766   0.8774   1.0432   1.0896   1.0908   1.0910   1.1299   1.1300
  1.1632   1.1636   1.2076   1.2168   1.3704   1.3708   1.6188   1.6195
  1.6208   1.6220   1.6234   1.6283   1.8050   1.8058   1.9453   1.9539
  1.9836   2.2562   2.2571   2.4363   2.4380   2.5033   2.7836   2.7842
  2.8590   3.0622   3.0632   3.2106   3.2114   3.4404   3.4678   3.4680
  3.5096   3.5101   3.5715   3.7896   3.8178   3.9908   3.9935   5.0954
  5.1106   5.1114   5.1131   5.1149   5.1313   5.1316   5.1778   5.1783
  5.1870   5.1876   5.2118   5.2235   5.2348   5.3220   5.3234   5.5266
  5.5268   5.6006   5.6020   5.7193   6.1316   6.1327   6.1999   6.3506
  6.3518   6.5170   6.8499   6.9047   6.9058   6.9396   6.9406   6.9734
  7.0868   7.1981   7.2028   7.3041   7.3531   7.3545   7.7076   7.7100
  7.7108   7.7436   7.7447   7.7673  25.3661  50.5914  50.5936  50.6230
 
 Beta MOs
 -- Occupied --
-19.3322 -19.3316 -19.3312 -10.4911  -1.2339  -1.1000  -1.0995  -0.6415
 -0.5787  -0.5721  -0.5718  -0.4029  -0.4027  -0.3869  -0.3867
 -- Virtual --
 -0.0864   0.0580   0.0886   0.0896   0.0898   0.1652   0.2189   0.2192
  0.2302   0.2488   0.2489   0.3008   0.3089   0.3249   0.3250   0.3316
  0.3708   0.3709   0.4285   0.6062   0.6080   0.6665   0.7507   0.7508
  0.7954   0.8769   0.8777   1.0465   1.0917   1.0966   1.0968   1.1354
  1.1354   1.1783   1.1786   1.2216   1.2311   1.3857   1.3862   1.6312
  1.6317   1.6331   1.6342   1.6342   1.6482   1.8233   1.8243   1.9614
  1.9744   1.9879   2.2651   2.2661   2.4423   2.4439   2.5104   2.7988
  2.7992   2.8563   3.0615   3.0625   3.2080   3.2087   3.4390   3.4693
  3.4695   3.5132   3.5137   3.5708   3.8034   3.8235   3.9959   3.9985
  5.1172   5.1356   5.1427   5.1429   5.1508   5.1652   5.1653   5.1901
  5.1903   5.2209   5.2284   5.2286   5.2471   5.2801   5.3558   5.3572
  5.5438   5.5443   5.6145   5.6158   5.7446   6.1605   6.1612   6.2062
  6.3610   6.3621   6.5307   6.8984   6.9475   6.9481   6.9916   6.9917
  7.0214   7.1312   7.2075   7.2120   7.3155   7.3701   7.3715   7.7350
  7.7425   7.7432   7.7736   7.7743   7.7890  25.3656  50.5993  50.6013
 50.6308
 --------------------------------------------------------------
 
          Ground-State Mulliken Net Atomic Charges

     Atom                 Charge (a.u.)    Spin (a.u.)
  --------------------------------------------------------
      1 C                     0.524298      -0.106024
      2 O                    -0.505620       0.374521
      3 O                    -0.508058       0.368081
      4 O                    -0.510620       0.363421
  --------------------------------------------------------
  Sum of atomic charges =    -1.000000
  Sum of spin   charges =     1.000000

 -----------------------------------------------------------------
                    Cartesian Multipole Moments
 -----------------------------------------------------------------
    Charge (ESU x 10^10)
                -4.8032
    Dipole Moment (Debye)
         X       4.3446      Y      -8.7535      Z       0.8584
       Tot       9.8100
    Quadrupole Moments (Debye-Ang)
        XX     -27.1179     XY       7.6347     YY     -46.5307
        XZ      -1.5933     YZ       1.5801     ZZ     -30.6279
    Octopole Moments (Debye-Ang^2)
       XXX      66.4480    XXY     -48.8819    XYY      41.3419
[...]
    8    -263.9352552050      5.14e-05   Normal BFGS step
    9    -263.9352552313      1.93e-05   Normal BFGS step
   10    -263.9352552380      8.50e-06   Normal BFGS step
   11    -263.9352552387      3.78e-06   Normal BFGS step
   12    -263.9352552387      6.85e-06   Normal BFGS step
   13    -263.9352552388      6.75e-07   Normal BFGS step
   14    -263.9352552388      3.51e-07   Normal BFGS step
   15    -263.9352552388      2.27e-07   Normal BFGS step
   16    -263.9352552388      1.83e-07   Normal BFGS step
   17    -263.9352552388      7.22e-08  Convergence criterion met
 ---------------------------------------
 SCF time:   CPU 101.89s  wall 13.00s 
<S^2> =          0.758812759
(3)  G-ENP(liq) elect-nuc-pol free energy of system     -263.935255239 a.u.
(4)  G-CDS(liq) cavity-dispersion-solvent structure 
     free energy                                                4.3057 kcal/mol
(6)  G-S(liq) free energy of system                     -263.928393608 a.u.
 SCF   energy in the final basis set =     -263.9283936083
 Total energy in the final basis set =     -263.9283936083
 
 --------------------------------------------------------------
 
                    Orbital Energies (a.u.)
 --------------------------------------------------------------
 
 Alpha MOs
 -- Occupied --
-19.3422 -19.3420 -19.3418 -10.4903  -1.2488  -1.1220  -1.1219  -0.6561
 -0.5971  -0.5971  -0.5848  -0.4526  -0.4524  -0.4167  -0.4165  -0.3927
 -- Virtual --
  0.0555   0.0857   0.0859   0.0878   0.1617   0.2138   0.2139   0.2284
  0.2454   0.2456   0.2966   0.3022   0.3195   0.3197   0.3273   0.3657
  0.3659   0.4211   0.5907   0.5911   0.6663   0.7474   0.7475   0.7920
  0.8769   0.8770   1.0432   1.0896   1.0908   1.0909   1.1300   1.1300
  1.1633   1.1635   1.2076   1.2168   1.3704   1.3706   1.6188   1.6192
  1.6210   1.6216   1.6234   1.6282   1.8048   1.8055   1.9452   1.9536
  1.9834   2.2562   2.2568   2.4370   2.4371   2.5031   2.7837   2.7837
  2.8589   3.0625   3.0628   3.2111   3.2112   3.4406   3.4673   3.4679
  3.5096   3.5100   3.5712   3.7892   3.8174   3.9917   3.9920   5.0954
  5.1109   5.1112   5.1132   5.1149   5.1313   5.1315   5.1780   5.1780
  5.1871   5.1872   5.2119   5.2234   5.2347   5.3219   5.3227   5.5259
  5.5265   5.6009   5.6010   5.7185   6.1304   6.1319   6.1993   6.3499
  6.3507   6.5161   6.8498   6.9050   6.9054   6.9398   6.9401   6.9733
  7.0869   7.1995   7.1999   7.3039   7.3534   7.3539   7.7059   7.7101
  7.7103   7.7439   7.7445   7.7669  25.3648  50.5921  50.5922  50.6227
 
 Beta MOs
 -- Occupied --
-19.3319 -19.3317 -19.3315 -10.4913  -1.2338  -1.0997  -1.0996  -0.6415
 -0.5786  -0.5719  -0.5718  -0.4029  -0.4028  -0.3868  -0.3868
 -- Virtual --
 -0.0864   0.0580   0.0886   0.0896   0.0898   0.1650   0.2190   0.2191
  0.2302   0.2488   0.2489   0.3008   0.3089   0.3249   0.3250   0.3316
  0.3708   0.3709   0.4283   0.6066   0.6070   0.6664   0.7507   0.7508
  0.7953   0.8772   0.8773   1.0465   1.0917   1.0966   1.0968   1.1353
  1.1354   1.1784   1.1784   1.2216   1.2311   1.3858   1.3860   1.6311
  1.6315   1.6333   1.6338   1.6342   1.6481   1.8231   1.8239   1.9613
  1.9740   1.9877   2.2651   2.2657   2.4429   2.4430   2.5103   2.7988
  2.7988   2.8562   3.0618   3.0621   3.2085   3.2086   3.4391   3.4688
  3.4694   3.5132   3.5136   3.5705   3.8030   3.8232   3.9967   3.9970
  5.1172   5.1356   5.1427   5.1429   5.1508   5.1652   5.1653   5.1901
  5.1901   5.2210   5.2283   5.2285   5.2471   5.2801   5.3558   5.3566
  5.5432   5.5439   5.6148   5.6149   5.7438   6.1590   6.1606   6.2056
  6.3601   6.3610   6.5298   6.8983   6.9477   6.9479   6.9914   6.9917
  7.0213   7.1313   7.2087   7.2092   7.3154   7.3704   7.3709   7.7333
  7.7427   7.7430   7.7734   7.7741   7.7887  25.3644  50.5999  50.6001
 50.6305
 --------------------------------------------------------------
 
          Ground-State Mulliken Net Atomic Charges

     Atom                 Charge (a.u.)    Spin (a.u.)
  --------------------------------------------------------
      1 C                     0.524185      -0.106056
      2 O                    -0.507993       0.368765
      3 O                    -0.506725       0.370299
      4 O                    -0.509467       0.366992
  --------------------------------------------------------
  Sum of atomic charges =    -1.000000
  Sum of spin   charges =     1.000000

 -----------------------------------------------------------------
                    Cartesian Multipole Moments
 -----------------------------------------------------------------
    Charge (ESU x 10^10)
                -4.8032
    Dipole Moment (Debye)
         X       4.3428      Y      -8.7488      Z       0.8454
       Tot       9.8039
    Quadrupole Moments (Debye-Ang)
        XX     -27.1161     XY       7.6284     YY     -46.4993
        XZ      -1.5827     YZ       1.5592     ZZ     -30.6415
    Octopole Moments (Debye-Ang^2)
       XXX      66.4482    XXY     -48.8733    XYY      41.3114
       YYY    -198.5467    XXZ       6.2224    XYZ      -2.4669
       YYZ      11.7311    XZZ      27.6946    YZZ     -53.5929
       ZZZ      12.6070
    Hexadecapole Moments (Debye-Ang^3)
      XXXX    -139.9334   XXXY     118.5009   XXYY    -137.1613
      XYYY     176.3523   YYYY    -802.0775   XXXZ     -18.9064
      XXYZ      10.6051   XYYZ     -13.7062   YYYZ      54.3252
      XXZZ     -49.1710   XYZZ      47.6359   YYZZ    -136.3849
      XZZZ     -17.0560   YZZZ      21.9497   ZZZZ    -124.6537
 -----------------------------------------------------------------
 Calculating analytic gradient of the SCF energy
 Gradient of CDS energy
            1           2           3           4
    1   0.0000001  -0.0002526  -0.0000007   0.0002532
    2  -0.0000078   0.0004892  -0.0023737   0.0018924
    3  -0.0000025  -0.0024516   0.0008113   0.0016428
 Gradient of SCF Energy
            1           2           3           4
    1   0.0000040  -0.0041261   0.0000271   0.0040950
    2   0.0004094   0.0080184  -0.0389538   0.0305260
    3   0.0002025  -0.0399521   0.0132602   0.0264894
 Max gradient component =       3.995E-02
 RMS gradient           =       2.046E-02
 Computing fast CPCM-SWIG gradient
 Updating gradient with PCM contributions...
 -- total gradient after adding PCM contribution --
---------------------------------------------------
  Atom         X              Y              Z     
---------------------------------------------------
   1       0.000020       0.000449       0.000210
   2       0.000042      -0.000008       0.000234
   3       0.000028      -0.000016      -0.000023
   4      -0.000090      -0.000425      -0.000421
---------------------------------------------------
 Number of fixed atoms: 0
 Gradient time:  CPU 14.49 s  wall 2.03 s
Dipole drv :
gprntSymmMtrx error report: 
 Final Hessian.
            1           2           3           4           5           6
    1   0.2448454   0.0008683   0.0035287  -0.0830253   0.0166268  -0.0199367
    2   0.0008683   0.2745587   0.0019746   0.0164771   0.1110299   0.0815328
    3   0.0035287   0.0019746   0.2719746  -0.0199657   0.0819453  -0.2903422
    4  -0.0830253   0.0164771  -0.0199657   0.0322185  -0.0116963   0.0505446
    5   0.0166268   0.1110299   0.0819453  -0.0116963   0.0225111  -0.1029441
    6  -0.0199367   0.0815328  -0.2903422   0.0505446  -0.1029441   0.5198683
    7  -0.0787311   0.0077541   0.0228488   0.0259339   0.0007605  -0.0115175
    8   0.0076914  -0.2643242   0.1326326   0.0024456  -0.0846503   0.0605385
    9   0.0229508   0.1331781   0.0799588  -0.0120741   0.0453555  -0.0977610
   10  -0.0830886  -0.0251190  -0.0064007   0.0248727  -0.0056834  -0.0190943
   11  -0.0251781  -0.1212523  -0.2164818  -0.0072294  -0.0488993  -0.0391455
   12  -0.0065421  -0.2166464  -0.0615985  -0.0185047  -0.0243741  -0.1317605
            7           8           9          10          11          12
    1  -0.0787311   0.0076914   0.0229508  -0.0830886  -0.0251781  -0.0065421
    2   0.0077541  -0.2643242   0.1331781  -0.0251190  -0.1212523  -0.2166464
    3   0.0228488   0.1326326   0.0799588  -0.0064007  -0.2164818  -0.0615985
    4   0.0259339   0.0024456  -0.0120741   0.0248727  -0.0072294  -0.0185047
    5   0.0007605  -0.0846503   0.0453555  -0.0056834  -0.0488993  -0.0243741
    6  -0.0115175   0.0605385  -0.0977610  -0.0190943  -0.0391455  -0.1317605
    7   0.0268072  -0.0007801  -0.0027869   0.0259898  -0.0077376  -0.0085445
    8  -0.0007801   0.4895852  -0.1665371  -0.0093516  -0.1406164  -0.0266439
    9  -0.0027869  -0.1665371   0.0588592  -0.0080926  -0.0120264  -0.0410589
   10   0.0259898  -0.0093516  -0.0080926   0.0322259   0.0401519   0.0335870
   11  -0.0077376  -0.1406164  -0.0120264   0.0401519   0.3107704   0.2676417
   12  -0.0085445  -0.0266439  -0.0410589   0.0335870   0.2676417   0.2344226
 ----------------------------------------------------------------
             Standard Nuclear Orientation (Angstroms)
    I     Atom           X                Y                Z
 ----------------------------------------------------------------
    1      C      -0.9042320565     1.8235343475    -0.1754217250
    2      O      -0.7770808828     1.5778680135     1.0581664037
    3      O      -0.9038101243     3.0197518723    -0.5840282338
    4      O      -1.0312928363     0.8736730666    -0.9992925448
 ----------------------------------------------------------------
 Nuclear Repulsion Energy =         106.69186335 hartrees
 There are       16 alpha and       15 beta electrons
 old dipole drv.
            1           2           3           4           5           6
    1   0.4903064  -0.1000224  -0.2957670  -0.5030604   0.1054667   0.0184926
    2  -0.1044588  -2.1828782   0.0393643   0.1049371   1.2576979   0.3378146
    3  -0.2977949   0.0390742  -2.1619654   0.0182401   0.3427248  -0.4578912
            7           8           9          10          11          12
    1  -0.4835161   0.0676289   0.2004449  -0.5037259  -0.0729047   0.0768327
    2   0.0681903  -0.3393183   0.5542968  -0.0689448   0.2646643  -0.9307166
    3   0.1997503   0.5517414   1.1077156   0.0799324  -0.9320731   0.5119157
 New transposed dipole drv.
            1           2           3
    1   0.4903064  -0.1044588  -0.2977949
    2  -0.1000224  -2.1828782   0.0390742
    3  -0.2957670   0.0393643  -2.1619654
    4  -0.5030604   0.1049371   0.0182401
    5   0.1054667   1.2576979   0.3427248
    6   0.0184926   0.3378146  -0.4578912
    7  -0.4835161   0.0681903   0.1997503
    8   0.0676289  -0.3393183   0.5517414
    9   0.2004449   0.5542968   1.1077156
   10  -0.5037259  -0.0689448   0.0799324
   11  -0.0729047   0.2646643  -0.9320731
   12   0.0768327  -0.9307166   0.5119157
FINAL TENSOR RESULT:
Order 2, Length 12
    Atom      X          Y          Z
     1 Order 1, Length 12
    Atom      X          Y          Z
     1    2.448453528293490e-01   8.683027281352975e-04   3.528725126962389e-03
     2   -8.302526654942763e-02   1.662676784328955e-02  -1.993670979160250e-02
     3   -7.873106083284132e-02   7.691372876325783e-03   2.295081075938992e-02
     4   -8.308858159021051e-02  -2.517812916129912e-02  -6.542140914604972e-03

Order 1, Length 12
    Atom      X          Y          Z
     1    8.683027281352975e-04   2.745587341908042e-01   1.974637814229667e-03
     2    1.647710952730160e-02   1.110298529391593e-01   8.153282447918445e-02
     3    7.754066079478305e-03  -2.643242388938346e-01   1.331780998648658e-01
     4   -2.511903959341596e-02  -1.212522979323512e-01  -2.166464065121377e-01

Order 1, Length 12
    Atom      X          Y          Z
     1    3.528725126962389e-03   1.974637814229667e-03   2.719745621239312e-01
     2   -1.996570120265483e-02   8.194532948111996e-02  -2.903422234392695e-01
     3    2.284884253615963e-02   1.326326494763074e-01   7.995880273879333e-02
     4   -6.400741355583436e-03  -2.164817530238062e-01  -6.159854826717573e-02


     2 Order 1, Length 12
    Atom      X          Y          Z
     1   -8.302526654942763e-02   1.647710952730160e-02  -1.996570120265483e-02
     2    3.221850999175930e-02  -1.169630626529971e-02   5.054455480789677e-02
     3    2.593393849008342e-02   2.445579305562715e-03  -1.207409956164021e-02
     4    2.487274999643694e-02  -7.229446666750310e-03  -1.850467071187380e-02

Order 1, Length 12
    Atom      X          Y          Z
     1    1.662676784328955e-02   1.110298529391593e-01   8.194532948111996e-02
     2   -1.169630626529971e-02   2.251105332577996e-02  -1.029440633227999e-01
     3    7.605330848223660e-04  -8.465025764404281e-02   4.535549354153554e-02
     4   -5.683410781679769e-03  -4.889932012757932e-02  -2.437407881512987e-02

Order 1, Length 12
    Atom      X          Y          Z
     1   -1.993670979160250e-02   8.153282447918445e-02  -2.903422234392695e-01
     2    5.054455480789677e-02  -1.029440633227999e-01   5.198683334070612e-01
     3   -1.151749441642559e-02   6.053852043373663e-02  -9.776098251971030e-02
     4   -1.909429841062815e-02  -3.914550010024254e-02  -1.317604859917003e-01


     3 Order 1, Length 12
    Atom      X          Y          Z
     1   -7.873106083284132e-02   7.754066079478305e-03   2.284884253615963e-02
     2    2.593393849008342e-02   7.605330848223660e-04  -1.151749441642559e-02
     3    2.680715406760014e-02  -7.800904753730599e-04  -2.786903856415891e-03
     4    2.598978371429900e-02  -7.737648647846998e-03  -8.544548838400657e-03

Order 1, Length 12
    Atom      X          Y          Z
     1    7.691372876325783e-03  -2.643242388938346e-01   1.326326494763074e-01
     2    2.445579305562715e-03  -8.465025764404281e-02   6.053852043373663e-02
     3   -7.800904753730599e-04   4.895851779901178e-01  -1.665370604976803e-01
     4   -9.351553513922205e-03  -1.406164306825695e-01  -2.664392043399981e-02

Order 1, Length 12
    Atom      X          Y          Z
     1    2.295081075938992e-02   1.331780998648658e-01   7.995880273879333e-02
     2   -1.207409956164021e-02   4.535549354153554e-02  -9.776098251971030e-02
     3   -2.786903856415891e-03  -1.665370604976803e-01   5.885923140610135e-02
     4   -8.092644083025244e-03  -1.202644254439345e-02  -4.105890436313674e-02


     4 Order 1, Length 12
    Atom      X          Y          Z
     1   -8.308858159021051e-02  -2.511903959341596e-02  -6.400741355583436e-03
     2    2.487274999643694e-02  -5.683410781679769e-03  -1.909429841062815e-02
     3    2.598978371429900e-02  -9.351553513922205e-03  -8.092644083025244e-03
     4    3.222585665270222e-02   4.015189363511264e-02   3.358701988808896e-02

Order 1, Length 12
    Atom      X          Y          Z
     1   -2.517812916129912e-02  -1.212522979323512e-01  -2.164817530238062e-01
     2   -7.229446666750310e-03  -4.889932012757932e-02  -3.914550010024254e-02
     3   -7.737648647846998e-03  -1.406164306825695e-01  -1.202644254439345e-02
     4    4.015189363511264e-02   3.107704191466014e-01   2.676416701354647e-01

Order 1, Length 12
    Atom      X          Y          Z
     1   -6.542140914604972e-03  -2.166464065121377e-01  -6.159854826717573e-02
     2   -1.850467071187380e-02  -2.437407881512987e-02  -1.317604859917003e-01
     3   -8.544548838400657e-03  -2.664392043399981e-02  -4.105890436313674e-02
     4    3.358701988808896e-02   2.676416701354647e-01   2.344225567227865e-01




 # Finishing finite difference calculation for IDERIV #
 ######################################################
 ######################################################
 Requested basis set is 6-311++G(2df,2p)
 There are 32 shells and 136 basis functions
 **********************************************************************
 **                                                                  **
 **                       VIBRATIONAL ANALYSIS                       **
 **                       --------------------                       **
 **                                                                  **
 **        VIBRATIONAL FREQUENCIES (CM**-1) AND NORMAL MODES         **
 **     FORCE CONSTANTS (mDYN/ANGSTROM) AND REDUCED MASSES (AMU)     **
 **                  INFRARED INTENSITIES (KM/MOL)                   **
 **                                                                  **
 **********************************************************************
 

 Mode:                 1                      2                      3
 Frequency:      -382.33                -380.83                 820.22
 Force Cnst:      1.2306                 1.2213                 5.0068
 Red. Mass:      14.2889                14.2920                12.6311
 IR Active:          YES                    YES                    YES
 IR Intens:      517.895                519.716                 53.721
 Raman Active:       YES                    YES                    YES
               X      Y      Z        X      Y      Z        X      Y      Z
 C          0.073  0.065  0.646    0.019  0.649 -0.070    0.911 -0.036 -0.101
 O          0.014 -0.209  0.193   -0.039 -0.519 -0.172   -0.228  0.009  0.026
 O         -0.064 -0.229 -0.504   -0.015  0.182 -0.196   -0.228  0.008  0.025
 O         -0.004  0.389 -0.174    0.040 -0.149  0.421   -0.228  0.010  0.024
 TransDip  -0.083 -0.069 -0.721   -0.018 -0.725  0.082    0.233 -0.009 -0.027

 Mode:                 4                      5                      6
 Frequency:      1119.03                1214.75                1219.70
 Force Cnst:     11.8007                12.1287                12.2175
 Red. Mass:      15.9946                13.9505                13.9388
 IR Active:          YES                    YES                    YES
 IR Intens:        0.014                 44.640                 39.582
 Raman Active:       YES                    YES                    YES
               X      Y      Z        X      Y      Z        X      Y      Z
 C         -0.001 -0.004 -0.007    0.052 -0.387  0.599    0.065  0.603  0.384
 O          0.058 -0.115  0.568   -0.054  0.031 -0.500   -0.010  0.202 -0.156
 O         -0.000  0.547 -0.190    0.013  0.440 -0.031    0.016 -0.267  0.240
 O         -0.058 -0.428 -0.373    0.002 -0.181  0.082   -0.056 -0.388 -0.371
 TransDip   0.000  0.002  0.003   -0.015  0.117 -0.178   -0.018 -0.170 -0.106

 STANDARD THERMODYNAMIC QUANTITIES AT   298.15 K  AND     1.00 ATM

   This Molecule has  2 Imaginary Frequencies
   Zero point vibrational energy:        6.253 kcal/mol

   Atom    1 Element C  Has Mass   12.00000
   Atom    2 Element O  Has Mass   15.99491
   Atom    3 Element O  Has Mass   15.99491
   Atom    4 Element O  Has Mass   15.99491
   Molecular Mass:    59.984730 amu
   Principal axes and moments of inertia in amu*Bohr^2:
                             1           2           3
    Eigenvalues --      136.85210   136.93564   273.78774
          X               0.09160     0.07135     0.99324
          Y               0.83592    -0.54755    -0.03775
          Z               0.54115     0.83373    -0.10980
   Rotational Symmetry Number is   1
   The Molecule is an Asymmetric Top
   Translational Enthalpy:        0.889 kcal/mol
   Rotational Enthalpy:           0.889 kcal/mol
   Vibrational Enthalpy:          6.332 kcal/mol
   gas constant (RT):             0.592 kcal/mol
   Translational Entropy:        38.194  cal/mol.K
   Rotational Entropy:           23.155  cal/mol.K
   Vibrational Entropy:           0.326  cal/mol.K

   Total Enthalpy:                8.702 kcal/mol
   Total Entropy:                61.675  cal/mol.K
 Total job time:  377.56s(wall), 2900.05s(cpu) 
 Fri Sep 29 11:23:31 2023

        *************************************************************
        *                                                           *
        *  Thank you very much for using Q-Chem.  Have a nice day.  *
        *                                                           *
        *************************************************************


