
Running Job 1 of 2 Q_in.in
qchem Q_in.in_92168.0 /scratch/ari.fischer/qChem1909673.hpc-mn1/qchem92168/ 0
/usr/local/qchem-5.4.1/exe/qcprog.exe_s Q_in.in_92168.0 /scratch/ari.fischer/qChem1909673.hpc-mn1/qchem92168/
                  Welcome to Q-Chem
     A Quantum Leap Into The Future Of Chemistry


 Q-Chem 5.4, Q-Chem, Inc., Pleasanton, CA (2021)

 License issued to: Nanyang Technological University (site)

 E. Epifanovsky,  A. T. B. Gilbert,  Xintian Feng,  Joonho Lee,  Yuezhi Mao,  
 N. Mardirossian,  P. Pokhilko,  A. White,  M. Wormit,  M. P. Coons,  
 A. L. Dempwolff,  Zhengting Gan,  D. Hait,  P. R. Horn,  L. D. Jacobson,  
 I. Kaliman,  J. Kussmann,  A. W. Lange,  Ka Un Lao,  D. S. Levine,  Jie Liu,  
 S. C. McKenzie,  A. F. Morrison,  K. Nanda,  F. Plasser,  D. R. Rehn,  
 M. L. Vidal,  Zhi-Qiang You,  Ying Zhu,  B. Alam,  B. Albrecht,  
 A. Aldossary,  E. Alguire,  J. H. Andersen,  D. Barton,  K. Begam,  A. Behn,  
 Y. A. Bernard,  E. J. Berquist,  H. Burton,  A. Carreras,  K. Carter-Fenk,  
 R. Chakraborty,  A. D. Chien,  K. D. Closser,  V. Cofer-Shabica,  
 S. Dasgupta,  Jia Deng,  M. de Wergifosse,  M. Diedenhofen,  Hainam Do,  
 S. Ehlert,  Po-Tung Fang,  S. Fatehi,  Qingguo Feng,  T. Friedhoff,  
 J. Gayvert,  Qinghui Ge,  G. Gidofalvi,  M. Goldey,  J. Gomes,  
 C. Gonzalez-Espinoza,  S. Gulania,  A. Gunina,  M. W. D. Hanson-Heine,  
 P. H. P. Harbach,  A. W. Hauser,  M. F. Herbst,  M. Hernandez Vera,  
 M. Hodecker,  Z. C. Holden,  S. Houck,  Xunkun Huang,  Kerwin Hui,  
 B. C. Huynh,  M. Ivanov,  Hyunjun Ji,  Hanjie Jiang,  B. Kaduk,  S. Kaehler,  
 K. Khistyaev,  Jaehoon Kim,  P. Klunzinger,  Z. Koczor-Benda,  
 Joong Hoon Koh,  D. Kosenkov,  L. Koulias,  T. Kowalczyk,  C. M. Krauter,  
 K. Kue,  A. Kunitsa,  T. Kus,  A. Landau,  K. V. Lawler,  D. Lefrancois,  
 S. Lehtola,  Rain Li,  Yi-Pei Li,  Jiashu Liang,  M. Liebenthal,  
 Hung-Hsuan Lin,  You-Sheng Lin,  Fenglai Liu,  Kuan-Yu Liu,  
 M. Loipersberger,  A. Luenser,  A. Manjanath,  P. Manohar,  E. Mansoor,  
 S. F. Manzer,  Shan-Ping Mao,  A. V. Marenich,  T. Markovich,  S. Mason,  
 S. A. Maurer,  P. F. McLaughlin,  M. F. S. J. Menger,  J.-M. Mewes,  
 S. A. Mewes,  P. Morgante,  J. W. Mullinax,  K. J. Oosterbaan,  G. Paran,  
 Alexander C. Paul,  Suranjan K. Paul,  F. Pavosevic,  Zheng Pei,  S. Prager,  
 E. I. Proynov,  E. Ramos,  B. Rana,  A. E. Rask,  A. Rettig,  R. M. Richard,  
 F. Rob,  E. Rossomme,  T. Scheele,  M. Scheurer,  M. Schneider,  
 N. Sergueev,  S. M. Sharada,  W. Skomorowski,  D. W. Small,  C. J. Stein,  
 Yu-Chuan Su,  E. J. Sundstrom,  Zhen Tao,  J. Thirman,  T. Tsuchimochi,  
 N. M. Tubman,  S. P. Veccham,  O. Vydrov,  J. Wenzel,  J. Witte,  A. Yamada,  
 Kun Yao,  S. Yeganeh,  S. R. Yost,  A. Zech,  Igor Ying Zhang,  Xing Zhang,  
 Yu Zhang,  D. Zuev,  A. Aspuru-Guzik,  A. T. Bell,  N. A. Besley,  
 K. B. Bravaya,  B. R. Brooks,  D. Casanova,  Jeng-Da Chai,  S. Coriani,  
 C. J. Cramer,  A. E. DePrince, III,  R. A. DiStasio Jr.,  A. Dreuw,  
 B. D. Dunietz,  T. R. Furlani,  W. A. Goddard III,  S. Grimme,  
 S. Hammes-Schiffer,  T. Head-Gordon,  W. J. Hehre,  Chao-Ping Hsu,  
 T.-C. Jagau,  Yousung Jung,  A. Klamt,  Jing Kong,  D. S. Lambrecht,  
 WanZhen Liang,  N. J. Mayhall,  C. W. McCurdy,  J. B. Neaton,  
 C. Ochsenfeld,  J. A. Parkhill,  R. Peverati,  V. A. Rassolov,  Yihan Shao,  
 L. V. Slipchenko,  T. Stauch,  R. P. Steele,  J. E. Subotnik,  
 A. J. W. Thom,  A. Tkatchenko,  D. G. Truhlar,  T. Van Voorhis,  
 T. A. Wesolowski,  K. B. Whaley,  H. L. Woodcock III,  P. M. Zimmerman,  
 S. Faraji,  P. M. W. Gill,  M. Head-Gordon,  J. M. Herbert,  A. I. Krylov

 Additional authors for Version 5.4.1: 
 S. Kotaru,  Shaozhi Li,  Xiangyuan Li,  F. Matz,  A. Molle,  Haisheng Ren,  
 Yingli Su,  Hung-Yi Tsai,  C. Utku,  Fang Wang

 Contributors to earlier versions of Q-Chem not listed above: 
 R. D. Adamson,  B. Austin,  R. Baer,  J. Baker,  G. J. O. Beran,  
 K. Brandhorst,  S. T. Brown,  E. F. C. Byrd,  A. K. Chakraborty,  
 G. K. L. Chan,  Chun-Min Chang,  Yunqing Chen,  C.-L. Cheng,  
 Siu Hung Chien,  D. M. Chipman,  D. L. Crittenden,  H. Dachsel,  
 R. J. Doerksen,  A. D. Dutoi,  R. G. Edgar,  J. Fosso-Tande,  
 L. Fusti-Molnar,  D. Ghosh,  A. Ghysels,  A. Golubeva-Zadorozhnaya,  
 J. Gonthier,  M. S. Gordon,  S. R. Gwaltney,  G. Hawkins,  J. E. Herr,  
 A. Heyden,  S. Hirata,  E. G. Hohenstein,  G. Kedziora,  F. J. Keil,  
 C. Kelley,  Jihan Kim,  R. A. King,  R. Z. Khaliullin,  P. P. Korambath,  
 W. Kurlancheek,  A. Laurent,  A. M. Lee,  M. S. Lee,  S. V. Levchenko,  
 Ching Yeh Lin,  D. Liotard,  E. Livshits,  R. C. Lochan,  I. Lotan,  
 L. A. Martinez-Martinez,  P. E. Maslen,  N. Nair,  D. P. O'Neill,  
 D. Neuhauser,  E. Neuscamman,  C. M. Oana,  R. Olivares-Amaya,  R. Olson,  
 T. M. Perrine,  B. Peters,  P. A. Pieniazek,  A. Prociuk,  Y. M. Rhee,  
 J. Ritchie,  M. A. Rohrdanz,  E. Rosta,  N. J. Russ,  H. F. Schaefer III,  
 M. W. Schmidt,  N. E. Schultz,  S. Sharma,  N. Shenvi,  C. D. Sherrill,  
 A. C. Simmonett,  A. Sodt,  T. Stein,  D. Stuck,  K. S. Thanthiriwatte,  
 V. Vanovschi,  L. Vogt,  Tao Wang,  A. Warshel,  M. A. Watson,  
 C. F. Williams,  Q. Wu,  X. Xu,  Jun Yang,  W. Zhang,  Yan Zhao

 Please cite Q-Chem as follows:
 Y. Shao et al., Mol. Phys. 113, 184-215 (2015)
 DOI: 10.1080/00268976.2014.952696

 Q-Chem 5.4.1 for Intel X86 EM64T Linux

 Parts of Q-Chem use Armadillo 9.800.1 (Horizon Scraper).
 http://arma.sourceforge.net/

 Q-Chem begins on Fri Feb  2 15:42:43 2024  

 Host: 
0

     Scratch files written to /scratch/ari.fischer/qChem1909673.hpc-mn1/qchem92168//
 Aug1521 |scratch|qcdevops|jenkins|workspace|build_RNUM 8249   
 Processing $rem in /usr/local/qchem-5.4.1/config/preferences:
 Processing $rem in /home/ari.fischer/.qchemrc:
 Symmetry turned off for PCM/SM12/SMD calculation


!!********************************************.
!!******************Warning*******************.
!!Desired Analytical derivatives not available.
!!Finite difference job might take a long time.
!!********************************************.
!!********************************************.


 2-order derivative to be evaluated numerically with 1-order analytical derivatives

 Checking the input file for inconsistencies... 	...done.

--------------------------------------------------------------
User input:
--------------------------------------------------------------
$molecule
0 2
C    1.5662520    0.8598144   -1.6713106
C    0.5281843   -0.0999606   -2.4924856
O    1.1056629   -1.3649253   -2.5775764
O    0.4010119    0.4041601   -3.7757623
O    2.8203201    0.8474601   -2.3043673
H    1.0133814   -1.8109574   -1.7256154
H   -0.5341476    0.4332163   -4.0070180
H    1.6050243    0.3461009   -0.6907037
H   -0.4038029   -0.0970360   -1.9324527
O    1.0323368    2.0390039   -1.5911066
H    3.1273872   -0.0675986   -2.3488875
$end

$rem
BASIS = 6-311++G(2df,2p)
GUI = 2
JOB_TYPE = Frequency
METHOD = wB97M-V
SOLVENT_METHOD = SMD
SCF_ALGORITHM = DIIS_GDM
MAX_SCF_CYCLES = 400
SCF_CONVERGENCE = 7
THRESH = 12
$end

--------------------------------------------------------------
 ----------------------------------------------------------------
             Standard Nuclear Orientation (Angstroms)
    I     Atom           X                Y                Z
 ----------------------------------------------------------------
    1      C       1.5662520000     0.8598144000    -1.6713106000
    2      C       0.5281843000    -0.0999606000    -2.4924856000
    3      O       1.1056629000    -1.3649253000    -2.5775764000
    4      O       0.4010119000     0.4041601000    -3.7757623000
    5      O       2.8203201000     0.8474601000    -2.3043673000
    6      H       1.0133814000    -1.8109574000    -1.7256154000
    7      H      -0.5341476000     0.4332163000    -4.0070180000
    8      H       1.6050243000     0.3461009000    -0.6907037000
    9      H      -0.4038029000    -0.0970360000    -1.9324527000
   10      O       1.0323368000     2.0390039000    -1.5911066000
   11      H       3.1273872000    -0.0675986000    -2.3488875000
 ----------------------------------------------------------------
 Nuclear Repulsion Energy =         261.34440087 hartrees
 There are       25 alpha and       24 beta electrons
 Requested basis set is 6-311++G(2df,2p)
 There are 78 shells and 254 basis functions

 Total QAlloc Memory Limit 288000 MB
 Mega-Array Size       188 MB
 MEM_STATIC part       192 MB
 
 Citation of the SMD model:
 Marenich, A.V.; Cramer, C.J.; Truhlar, D.G.
 J. Phys. Chem. B 2009, 113, 6378-6396.
 iSolventCode=           1
 Solvent: water                                                           
 
 vradii
            1           2           3           4           5           6
    1   1.8500000   1.8500000   1.5200000   1.5200000   1.5200000   1.2000000
            7           8           9          10          11
    1   1.2000000   1.2000000   1.2000000   1.5200000   1.2000000
 Changing PCM_VDW_RADII to SMD_RADIUS
 Discretize the solute cavity surface with Lebedev spheres
	Using 110 Lebedev grid points for each H atom
	Using 194 Lebedev grid points for other atoms
	Atomic van der Waals radii will be scaled by 1.20
 Remove points where switching function is < 1.0e-08
 Keep 923 surface tesserae and discard 791 interior tesserae
 Molecular Surface Area = 106.371 Angst**2

                       Distance Matrix (Angstroms)
             C (  1)   C (  2)   O (  3)   O (  4)   O (  5)   H (  6)
   C (  2)  1.634956
   O (  3)  2.446002  1.393147
   O (  4)  2.448290  1.384597  2.249855
   O (  5)  1.404849  2.487344  2.812355  2.866107
   H (  6)  2.727936  1.936754  0.966074  3.079747  3.266063
   H (  7)  3.170046  1.925262  2.822339  0.963767  3.784583  3.554709
   H (  8)  1.107698  2.145920  2.595623  3.312190  2.081397  2.464545
   H (  9)  2.205646  1.087311  2.074178  2.072852  3.380142  2.233544
   O ( 10)  1.296914  2.375252  3.544747  2.800715  2.263935  3.852357
   H ( 11)  1.938130  2.603368  2.413032  3.113142  0.966232  2.810123
             H (  7)   H (  8)   H (  9)   O ( 10)
   H (  8)  3.947352
   H (  9)  2.145222  2.402852
   O ( 10)  3.296825  2.001154  2.596475
   H ( 11)  4.050562  2.288735  3.555782  3.066145
 
 A cutoff of  1.0D-12 yielded   2947 shell pairs
 There are     31592 function pairs (     39583 Cartesian)
 Smallest overlap matrix eigenvalue = 1.03E-04
 Guess from superposition of atomic densities
 Warning:  Energy on first SCF cycle will be non-variational
 SAD guess density has 49.000000 electrons

 -----------------------------------------------------------------------
  General SCF calculation program by
  Eric Jon Sundstrom, Paul Horn, Yuezhi Mao, Dmitri Zuev, Alec White,
  David Stuck, Shaama M.S., Shane Yost, Joonho Lee, David Small,
  Daniel Levine, Susi Lehtola, Hugh Burton, Evgeny Epifanovsky,
  Bang C. Huynh
 -----------------------------------------------------------------------
 Exchange:     0.1500 Hartree-Fock + 1.0000 wB97M-V + LR-HF
 Correlation:  1.0000 wB97M-V
 Using SG-2 standard quadrature grid
 Nonlocal Correlation:  VV10 with C = 0.0100 and b = 6.00 and scale = 1.00000
 Grid used for NLC:  SG-1 standard quadrature
 using 16 threads for integral computing
 -------------------------------------------------------
 OpenMP Integral computing Module                
 Release: version 1.0, May 2013, Q-Chem Inc. Pittsburgh 
 -------------------------------------------------------
 
 Citation of the SMD model:
 Marenich, A.V.; Cramer, C.J.; Truhlar, D.G.
 J. Phys. Chem. B 2009, 113, 6378-6396.
 iSolventCode=           1
 Solvent: water                                                           
 
 vradii
            1           2           3           4           5           6
    1   1.8500000   1.8500000   1.5200000   1.5200000   1.5200000   1.2000000
            7           8           9          10          11
    1   1.2000000   1.2000000   1.2000000   1.5200000   1.2000000
 -------------------------------------------------------
 OpenMP BLAS3 based DFT computing Module                
 Release: version 1.0, May 2013, Q-Chem Inc. Pittsburgh 
 -------------------------------------------------------
 A unrestricted SCF calculation will be
 performed using DIIS, GDM
 SCF converges when RMS gradient is below 1.0e-07
 ---------------------------------------
  Cycle       Energy         DIIS error
 ---------------------------------------
    1    -381.0841256458      1.56e-02  
    2    -379.8888739727      2.69e-03  Done DIIS. Switching to GDM
 ---------------------------------------
  Cycle       Energy        RMS Gradient
 ---------------------------------------
    1    -379.8888739727      2.32e-01   Descent step
    2    -380.0598873436      2.89e-02   Normal BFGS step
    3    -380.0783114307      5.20e-02   Normal BFGS step
    4    -380.0818854151      1.31e-02   Normal BFGS step
    5    -380.0841756934      1.37e-02   Normal BFGS step
    6    -380.0852372893      1.21e-02   Normal BFGS step
    7    -380.0856520316      5.16e-03   Normal BFGS step
    8    -380.0857302753      1.83e-03   Normal BFGS step
    9    -380.0857595586      1.44e-03   Normal BFGS step
   10    -380.0857671605      1.38e-03   Normal BFGS step
   11    -380.0857759985      1.12e-03   Normal BFGS step
   12    -380.0857807814      6.59e-04   Normal BFGS step
   13    -380.0857832155      3.85e-04   Normal BFGS step
   14    -380.0857837878      9.92e-05   Normal BFGS step
   15    -380.0857839749      3.52e-05   Normal BFGS step
   16    -380.0857839910      1.67e-05   Normal BFGS step
   17    -380.0857839935      7.32e-06   Normal BFGS step
   18    -380.0857839939      3.23e-06   Normal BFGS step
   19    -380.0857839940      1.63e-06   Normal BFGS step
   20    -380.0857839940      7.26e-07   Normal BFGS step
   21    -380.0857839940      2.84e-07   Normal BFGS step
   22    -380.0857839940      5.42e-08  Convergence criterion met
 ---------------------------------------
 SCF time:   CPU 816.63s  wall 54.00s 
<S^2> =          0.756504499
(3)  G-ENP(liq) elect-nuc-pol free energy of system     -380.085783994 a.u.
(4)  G-CDS(liq) cavity-dispersion-solvent structure 
     free energy                                                3.4194 kcal/mol
(6)  G-S(liq) free energy of system                     -380.080334773 a.u.
 SCF   energy in the final basis set =     -380.0803347733
 Total energy in the final basis set =     -380.0803347733
 
 --------------------------------------------------------------
 
                    Orbital Energies (a.u.)
 --------------------------------------------------------------
 
 Alpha MOs
 -- Occupied --
-19.3707 -19.3628 -19.3592 -19.3505 -10.4791 -10.4561  -1.2341  -1.2032
 -1.1567  -1.1398  -0.8368  -0.7429  -0.6921  -0.6556  -0.6504  -0.6044
 -0.5812  -0.5361  -0.4995  -0.4838  -0.4645  -0.4559  -0.4322  -0.4168
 -0.3637
 -- Virtual --
  0.0257   0.0428   0.0511   0.0559   0.0785   0.0932   0.1068   0.1093
  0.1244   0.1436   0.1460   0.1526   0.1708   0.2085   0.2292   0.2356
  0.2456   0.2514   0.2566   0.2669   0.2802   0.2824   0.2885   0.3030
  0.3195   0.3218   0.3361   0.3383   0.3456   0.3545   0.3613   0.3633
  0.3683   0.3943   0.4028   0.4249   0.4500   0.4635   0.4755   0.5633
  0.5785   0.5950   0.6022   0.6322   0.6367   0.6509   0.6788   0.6810
  0.7092   0.7326   0.7486   0.7813   0.8261   0.8457   0.8879   0.9235
  0.9655   0.9698   1.0047   1.0246   1.0514   1.0756   1.0837   1.1035
  1.1220   1.1369   1.1429   1.1723   1.1846   1.2006   1.2069   1.2331
  1.2422   1.2561   1.2641   1.2741   1.3321   1.3493   1.3858   1.3970
  1.4119   1.4411   1.4838   1.5043   1.5316   1.5382   1.5768   1.6008
  1.6084   1.6299   1.6748   1.7243   1.7703   1.7748   1.8417   1.9032
  1.9156   1.9284   2.0129   2.0566   2.1130   2.1522   2.2111   2.2425
  2.2918   2.3208   2.3577   2.3683   2.4071   2.4254   2.4702   2.4932
  2.5125   2.6424   2.6852   2.7672   2.8121   2.8377   2.9253   3.0138
  3.0759   3.1983   3.2185   3.2333   3.2898   3.3486   3.3514   3.3771
  3.4523   3.4710   3.5114   3.5402   3.5655   3.5934   3.6112   3.6642
  3.6712   3.7602   3.7905   3.8002   3.8159   3.8378   3.8581   3.8874
  3.9098   3.9577   3.9832   4.0485   4.0784   4.1495   4.1634   4.2293
  4.2515   4.2581   4.2910   4.3359   4.3678   4.3821   4.4555   4.5653
  4.6280   5.0923   5.1144   5.1711   5.1851   5.1936   5.2043   5.2267
  5.2339   5.2557   5.2717   5.2806   5.2872   5.2968   5.3266   5.3444
  5.3998   5.4228   5.4457   5.4728   5.4954   5.4989   5.5496   5.5801
  5.6212   5.6581   5.6930   5.7581   5.9106   5.9411   5.9727   5.9952
  6.0263   6.1423   6.1950   6.3739   6.5184   6.5724   6.7695   6.9030
  6.9287   6.9700   7.0517   7.0999   7.1197   7.1954   7.2562   7.2599
  7.3068   7.3222   7.3277   7.3867   7.3950   7.4194   7.4578   7.4661
  7.6437   7.6806   7.6961   7.7601   7.8011   7.8278   7.8649  24.7551
 24.9043  50.5425  50.5753  50.6110  50.6625
 
 Beta MOs
 -- Occupied --
-19.3615 -19.3591 -19.3534 -19.3500 -10.4749 -10.4564  -1.2278  -1.1917
 -1.1541  -1.1192  -0.8231  -0.7318  -0.6891  -0.6460  -0.6441  -0.5867
 -0.5623  -0.5317  -0.4940  -0.4750  -0.4515  -0.4289  -0.4057  -0.3884
 -- Virtual --
 -0.0746   0.0257   0.0425   0.0511   0.0560   0.0783   0.0936   0.1072
  0.1103   0.1251   0.1437   0.1469   0.1523   0.1711   0.2098   0.2309
  0.2366   0.2472   0.2521   0.2566   0.2704   0.2806   0.2858   0.2909
  0.3083   0.3218   0.3232   0.3366   0.3401   0.3511   0.3555   0.3642
  0.3659   0.3723   0.3978   0.4037   0.4276   0.4540   0.4655   0.4768
  0.5672   0.5831   0.5975   0.6056   0.6331   0.6423   0.6525   0.6826
  0.6842   0.7116   0.7349   0.7527   0.7827   0.8288   0.8470   0.8899
  0.9247   0.9664   0.9709   1.0075   1.0252   1.0559   1.0785   1.0867
  1.1070   1.1238   1.1404   1.1503   1.1769   1.1938   1.2025   1.2098
  1.2349   1.2539   1.2587   1.2674   1.2806   1.3361   1.3531   1.3939
  1.4017   1.4177   1.4433   1.4909   1.5072   1.5355   1.5408   1.5842
  1.6040   1.6117   1.6369   1.6777   1.7366   1.7805   1.7860   1.8533
  1.9096   1.9212   1.9343   2.0212   2.0614   2.1179   2.1609   2.2159
  2.2486   2.2938   2.3248   2.3591   2.3703   2.4106   2.4300   2.4756
  2.5028   2.5175   2.6517   2.6932   2.7749   2.8156   2.8437   2.9358
  3.0194   3.0885   3.2054   3.2258   3.2430   3.2955   3.3558   3.3576
  3.3828   3.4587   3.4780   3.5159   3.5472   3.5704   3.6035   3.6170
  3.6713   3.6763   3.7661   3.7941   3.8042   3.8206   3.8428   3.8619
  3.8897   3.9144   3.9649   3.9937   4.0544   4.0845   4.1569   4.1667
  4.2367   4.2606   4.2626   4.2937   4.3420   4.3819   4.3938   4.4641
  4.5792   4.6398   5.1330   5.1611   5.1923   5.1984   5.2176   5.2254
  5.2400   5.2445   5.2634   5.2796   5.2910   5.2997   5.3162   5.3426
  5.3653   5.4093   5.4275   5.4563   5.4904   5.5023   5.5139   5.5530
  5.5899   5.6280   5.6657   5.6974   5.7637   5.9186   5.9472   5.9774
  5.9984   6.0325   6.1517   6.2258   6.3827   6.5231   6.5777   6.7746
  6.9463   6.9934   7.0119   7.0557   7.1150   7.1286   7.2023   7.2624
  7.2646   7.3131   7.3262   7.3297   7.4006   7.4104   7.4242   7.4721
  7.5057   7.6489   7.6911   7.7095   7.7656   7.8051   7.8387   7.8670
 24.7587  24.9040  50.5461  50.5766  50.6170  50.6656
 --------------------------------------------------------------
 
          Ground-State Mulliken Net Atomic Charges

     Atom                 Charge (a.u.)    Spin (a.u.)
  --------------------------------------------------------
      1 C                    -0.047988       0.012048
      2 C                     0.027010       0.155611
      3 O                    -0.397694       0.044194
      4 O                    -0.418479       0.008869
      5 O                    -0.411580       0.025832
      6 H                     0.335738      -0.000294
      7 H                     0.357883       0.003516
      8 H                     0.293319       0.090156
      9 H                     0.267424      -0.001119
     10 O                    -0.333062       0.663650
     11 H                     0.327430      -0.002462
  --------------------------------------------------------
  Sum of atomic charges =     0.000000
  Sum of spin   charges =     1.000000

 -----------------------------------------------------------------
                    Cartesian Multipole Moments
 -----------------------------------------------------------------
    Charge (ESU x 10^10)
                 0.0000
    Dipole Moment (Debye)
         X      -3.1971      Y      -5.7481      Z       3.0483
       Tot       7.2494
    Quadrupole Moments (Debye-Ang)
        XX     -37.3981     XY     -10.0785     YY     -45.1386
        XZ      15.0968     YZ       8.0793     ZZ     -48.8465
    Octopole Moments (Debye-Ang^2)
       XXX    -138.1165    XXY     -37.5503    XYY     -57.5641
       YYY     -70.5527    XXZ      94.6089    XYZ      21.1800
       YYZ     109.5191    XZZ    -101.0646    YZZ     -23.5754
       ZZZ     302.7919
    Hexadecapole Moments (Debye-Ang^3)
      XXXX    -527.6530   XXXY    -142.7614   XXYY    -165.5754
      XYYY    -104.6543   YYYY    -343.4293   XXXZ     309.2324
      XXYZ      74.5681   XYYZ     132.6767   YYYZ     110.8128
      XXZZ    -347.5885   XYZZ     -72.9112   YYZZ    -346.4822
      XZZZ     500.8834   YZZZ      72.6697   ZZZZ   -1539.6500
 -----------------------------------------------------------------
 Calculating analytic gradient of the SCF energy
 Gradient of CDS energy
            1           2           3           4           5           6
    1   0.0015691   0.0008652  -0.0017189   0.0007349  -0.0030177   0.0000561
    2   0.0038580  -0.0025423   0.0042128  -0.0019037   0.0000621  -0.0004691
    3  -0.0003899  -0.0050171   0.0001528   0.0046904   0.0012028   0.0001780
            7           8           9          10          11
    1  -0.0003097  -0.0000377  -0.0000479   0.0014552   0.0004513
    2   0.0001451  -0.0002378   0.0001153  -0.0030485  -0.0001919
    3  -0.0003593  -0.0000515   0.0000947  -0.0004064  -0.0000944
 Gradient of SCF Energy
            1           2           3           4           5           6
    1  -0.0025947   0.0135298   0.0008410   0.0205445  -0.0040991  -0.0016259
    2   0.0063898   0.0008667   0.0113458   0.0021529   0.0140613  -0.0101896
    3  -0.0094505  -0.0075774  -0.0259551   0.0017449  -0.0028152   0.0238981
            7           8           9          10          11
    1  -0.0174853  -0.0004825  -0.0140793   0.0026884   0.0027629
    2  -0.0015247  -0.0096122  -0.0024120   0.0006691  -0.0117470
    3  -0.0006763   0.0100940   0.0083800  -0.0016605   0.0040181
 Max gradient component =       2.596E-02
 RMS gradient           =       1.024E-02
 Computing fast CPCM-SWIG gradient
 Updating gradient with PCM contributions...
 -- total gradient after adding PCM contribution --
---------------------------------------------------
  Atom         X              Y              Z     
---------------------------------------------------
   1       0.000045      -0.000261      -0.000268
   2       0.000046       0.000136       0.000069
   3       0.000075       0.000006       0.000018
   4      -0.000048      -0.000019       0.000025
   5      -0.000086      -0.000150       0.000051
   6       0.000012      -0.000024       0.000004
   7      -0.000036      -0.000021       0.000038
   8       0.000098       0.000016      -0.000008
   9      -0.000001       0.000007       0.000025
  10      -0.000169       0.000239       0.000093
  11       0.000064       0.000070      -0.000047
---------------------------------------------------
 Number of fixed atoms: 0
 Gradient time:  CPU 86.49 s  wall 7.25 s
 ######################################################
 ######################################################
 # Starting finite difference calculation for IDERIV  #
 Finite diff step size:  1.88973e-03 a.u.
 ----------------------------------------------------------------
             Standard Nuclear Orientation (Angstroms)
    I     Atom           X                Y                Z
 ----------------------------------------------------------------
    1      C       1.5672520000     0.8598144000    -1.6713106000
    2      C       0.5281843000    -0.0999606000    -2.4924856000
    3      O       1.1056629000    -1.3649253000    -2.5775764000
    4      O       0.4010119000     0.4041601000    -3.7757623000
    5      O       2.8203201000     0.8474601000    -2.3043673000
    6      H       1.0133814000    -1.8109574000    -1.7256154000
    7      H      -0.5341476000     0.4332163000    -4.0070180000
    8      H       1.6050243000     0.3461009000    -0.6907037000
    9      H      -0.4038029000    -0.0970360000    -1.9324527000
   10      O       1.0323368000     2.0390039000    -1.5911066000
   11      H       3.1273872000    -0.0675986000    -2.3488875000
 ----------------------------------------------------------------
 Nuclear Repulsion Energy =         261.34222625 hartrees
 There are       25 alpha and       24 beta electrons
 Discretize the solute cavity surface with Lebedev spheres
	Using 110 Lebedev grid points for each H atom
	Using 194 Lebedev grid points for other atoms
	Atomic van der Waals radii will be scaled by 1.20
 Remove points where switching function is < 1.0e-08
 Keep 923 surface tesserae and discard 791 interior tesserae
 Molecular Surface Area = 106.372 Angst**2

                       Distance Matrix (Angstroms)
             C (  1)   C (  2)   O (  3)   O (  4)   O (  5)   H (  6)
   C (  2)  1.635591
   O (  3)  2.446191  1.393147
   O (  4)  2.448766  1.384597  2.249855
   O (  5)  1.403956  2.487344  2.812355  2.866107
   H (  6)  2.728139  1.936754  0.966074  3.079747  3.266063
   H (  7)  3.170709  1.925262  2.822339  0.963767  3.784583  3.554709
   H (  8)  1.107663  2.145920  2.595623  3.312190  2.081397  2.464545
   H (  9)  2.206539  1.087311  2.074178  2.072852  3.380142  2.233544
   O ( 10)  1.297326  2.375252  3.544747  2.800715  2.263935  3.852357
   H ( 11)  1.937325  2.603368  2.413032  3.113142  0.966232  2.810123
             H (  7)   H (  8)   H (  9)   O ( 10)
   H (  8)  3.947352
   H (  9)  2.145222  2.402852
   O ( 10)  3.296825  2.001154  2.596475
   H ( 11)  4.050562  2.288735  3.555782  3.066145
 
 Requested basis set is 6-311++G(2df,2p)
 There are 78 shells and 254 basis functions
 A cutoff of  1.0D-12 yielded   2947 shell pairs
 There are     31592 function pairs (     39583 Cartesian)
 Smallest overlap matrix eigenvalue = 1.03E-04
 Guess MOs from SCF MO coefficient file

 -----------------------------------------------------------------------
  General SCF calculation program by
  Eric Jon Sundstrom, Paul Horn, Yuezhi Mao, Dmitri Zuev, Alec White,
  David Stuck, Shaama M.S., Shane Yost, Joonho Lee, David Small,
  Daniel Levine, Susi Lehtola, Hugh Burton, Evgeny Epifanovsky,
  Bang C. Huynh
 -----------------------------------------------------------------------
 Exchange:     0.1500 Hartree-Fock + 1.0000 wB97M-V + LR-HF
 Correlation:  1.0000 wB97M-V
 Using SG-2 standard quadrature grid
 Nonlocal Correlation:  VV10 with C = 0.0100 and b = 6.00 and scale = 1.00000
 Grid used for NLC:  SG-1 standard quadrature
 
 Citation of the SMD model:
 Marenich, A.V.; Cramer, C.J.; Truhlar, D.G.
 J. Phys. Chem. B 2009, 113, 6378-6396.
 iSolventCode=           1
 Solvent: water                                                           
 
 vradii
            1           2           3           4           5           6
    1   1.8500000   1.8500000   1.5200000   1.5200000   1.5200000   1.2000000
            7           8           9          10          11
    1   1.2000000   1.2000000   1.2000000   1.5200000   1.2000000
 -------------------------------------------------------
 OpenMP BLAS3 based DFT computing Module                
 Release: version 1.0, May 2013, Q-Chem Inc. Pittsburgh 
 -------------------------------------------------------
 A unrestricted SCF calculation will be
 performed using Roothaan-Hall, DIIS, GDM
 SCF converges when RMS gradient is below 1.0e-07
 ---------------------------------------
  Cycle       Energy         DIIS error
 ---------------------------------------
    1    -380.0320262667      4.81e-04  Roothaan Step
 ---------------------------------------
  Cycle       Energy         DIIS error
 ---------------------------------------
    1    -380.0709312849      5.63e-04  
    2    -380.0805943789      4.81e-04  Done DIIS. Switching to GDM
 ---------------------------------------
  Cycle       Energy        RMS Gradient
 ---------------------------------------
    1    -380.0805943789      1.42e-02   Normal BFGS step
    2    -380.0803750675      2.19e-02  Line search: overstep
    3    -380.0854113686      4.82e-03   Normal BFGS step
    4    -380.0857110672      1.49e-03   Normal BFGS step
    5    -380.0857635672      2.53e-03   Normal BFGS step
    6    -380.0857763131      7.85e-04   Normal BFGS step
    7    -380.0857821360      7.08e-04   Normal BFGS step
    8    -380.0857855769      3.23e-04   Normal BFGS step
    9    -380.0857861057      8.94e-05   Normal BFGS step
   10    -380.0857861605      4.72e-05   Normal BFGS step
   11    -380.0857861769      4.16e-05   Normal BFGS step
   12    -380.0857861835      3.25e-05   Normal BFGS step
   13    -380.0857861881      2.37e-05   Normal BFGS step
   14    -380.0857861914      1.45e-05   Normal BFGS step
   15    -380.0857861934      1.23e-05   Normal BFGS step
   16    -380.0857861941      5.28e-06   Normal BFGS step
   17    -380.0857861942      1.74e-06   Normal BFGS step
   18    -380.0857861943      6.28e-07   Normal BFGS step
   19    -380.0857861943      3.73e-07   Normal BFGS step
   20    -380.0857861943      1.32e-07   Normal BFGS step
   21    -380.0857861943      4.60e-08  Convergence criterion met
 ---------------------------------------
 SCF time:   CPU 815.59s  wall 54.00s 
<S^2> =          0.756511937
(3)  G-ENP(liq) elect-nuc-pol free energy of system     -380.085786194 a.u.
(4)  G-CDS(liq) cavity-dispersion-solvent structure 
     free energy                                                3.4214 kcal/mol
(6)  G-S(liq) free energy of system                     -380.080333825 a.u.
 SCF   energy in the final basis set =     -380.0803338246
 Total energy in the final basis set =     -380.0803338246
 
 --------------------------------------------------------------
 
                    Orbital Energies (a.u.)
 --------------------------------------------------------------
 
 Alpha MOs
 -- Occupied --
-19.3706 -19.3628 -19.3592 -19.3507 -10.4791 -10.4561  -1.2341  -1.2032
 -1.1567  -1.1398  -0.8367  -0.7429  -0.6922  -0.6555  -0.6506  -0.6044
 -0.5811  -0.5361  -0.4995  -0.4838  -0.4645  -0.4560  -0.4322  -0.4168
 -0.3636
 -- Virtual --
  0.0257   0.0428   0.0511   0.0559   0.0785   0.0932   0.1068   0.1093
  0.1244   0.1436   0.1460   0.1526   0.1708   0.2085   0.2292   0.2356
  0.2456   0.2514   0.2566   0.2668   0.2802   0.2824   0.2885   0.3031
  0.3195   0.3218   0.3362   0.3383   0.3456   0.3545   0.3613   0.3633
  0.3683   0.3942   0.4028   0.4250   0.4499   0.4635   0.4755   0.5633
  0.5784   0.5950   0.6021   0.6321   0.6367   0.6510   0.6788   0.6810
  0.7092   0.7326   0.7485   0.7813   0.8262   0.8457   0.8878   0.9234
  0.9655   0.9697   1.0046   1.0246   1.0514   1.0757   1.0837   1.1035
  1.1221   1.1369   1.1429   1.1723   1.1846   1.2005   1.2069   1.2330
  1.2422   1.2561   1.2642   1.2740   1.3321   1.3493   1.3856   1.3970
  1.4119   1.4411   1.4837   1.5042   1.5315   1.5382   1.5770   1.6007
  1.6084   1.6299   1.6748   1.7243   1.7703   1.7748   1.8417   1.9031
  1.9156   1.9283   2.0129   2.0568   2.1130   2.1521   2.2113   2.2426
  2.2919   2.3207   2.3578   2.3685   2.4071   2.4252   2.4701   2.4929
  2.5125   2.6424   2.6851   2.7671   2.8121   2.8377   2.9252   3.0137
  3.0760   3.1985   3.2185   3.2333   3.2902   3.3485   3.3514   3.3770
  3.4523   3.4710   3.5111   3.5399   3.5656   3.5932   3.6110   3.6641
  3.6712   3.7602   3.7907   3.8006   3.8159   3.8377   3.8580   3.8875
  3.9096   3.9573   3.9828   4.0481   4.0779   4.1493   4.1633   4.2291
  4.2514   4.2581   4.2911   4.3360   4.3680   4.3823   4.4555   4.5651
  4.6277   5.0924   5.1146   5.1710   5.1852   5.1937   5.2043   5.2268
  5.2339   5.2557   5.2717   5.2806   5.2871   5.2968   5.3266   5.3444
  5.3996   5.4228   5.4454   5.4728   5.4953   5.4988   5.5498   5.5798
  5.6211   5.6582   5.6932   5.7580   5.9104   5.9424   5.9730   5.9951
  6.0262   6.1421   6.1943   6.3748   6.5188   6.5731   6.7694   6.9032
  6.9287   6.9700   7.0517   7.0999   7.1197   7.1954   7.2563   7.2599
  7.3068   7.3222   7.3278   7.3866   7.3951   7.4193   7.4577   7.4660
  7.6438   7.6806   7.6962   7.7602   7.8012   7.8280   7.8649  24.7548
 24.9047  50.5425  50.5754  50.6109  50.6626
 
 Beta MOs
 -- Occupied --
-19.3615 -19.3591 -19.3532 -19.3501 -10.4749 -10.4564  -1.2279  -1.1918
 -1.1541  -1.1191  -0.8230  -0.7319  -0.6891  -0.6461  -0.6441  -0.5867
 -0.5622  -0.5317  -0.4940  -0.4750  -0.4515  -0.4289  -0.4057  -0.3884
 -- Virtual --
 -0.0745   0.0257   0.0425   0.0511   0.0560   0.0783   0.0936   0.1072
  0.1103   0.1251   0.1437   0.1469   0.1523   0.1710   0.2098   0.2310
  0.2366   0.2473   0.2520   0.2567   0.2703   0.2806   0.2858   0.2909
  0.3083   0.3218   0.3232   0.3366   0.3401   0.3512   0.3555   0.3642
  0.3659   0.3722   0.3977   0.4037   0.4277   0.4540   0.4655   0.4768
  0.5672   0.5830   0.5975   0.6055   0.6331   0.6424   0.6526   0.6826
  0.6842   0.7116   0.7349   0.7526   0.7827   0.8289   0.8470   0.8898
  0.9247   0.9664   0.9709   1.0075   1.0252   1.0559   1.0786   1.0866
  1.1070   1.1238   1.1404   1.1503   1.1770   1.1939   1.2024   1.2098
  1.2348   1.2539   1.2587   1.2675   1.2805   1.3361   1.3532   1.3936
  1.4017   1.4177   1.4433   1.4909   1.5071   1.5354   1.5408   1.5844
  1.6039   1.6116   1.6368   1.6776   1.7366   1.7804   1.7860   1.8532
  1.9095   1.9212   1.9342   2.0212   2.0616   2.1179   2.1608   2.2160
  2.2487   2.2939   2.3247   2.3593   2.3705   2.4106   2.4298   2.4756
  2.5026   2.5174   2.6516   2.6931   2.7748   2.8156   2.8437   2.9357
  3.0193   3.0886   3.2057   3.2258   3.2429   3.2959   3.3557   3.3576
  3.3828   3.4587   3.4780   3.5156   3.5469   3.5705   3.6034   3.6168
  3.6713   3.6763   3.7660   3.7942   3.8046   3.8207   3.8428   3.8618
  3.8898   3.9142   3.9645   3.9933   4.0541   4.0840   4.1566   4.1666
  4.2366   4.2605   4.2625   4.2937   4.3420   4.3822   4.3939   4.4640
  4.5790   4.6395   5.1330   5.1613   5.1923   5.1984   5.2177   5.2253
  5.2400   5.2445   5.2634   5.2796   5.2910   5.2997   5.3162   5.3426
  5.3653   5.4091   5.4275   5.4561   5.4905   5.5023   5.5137   5.5532
  5.5897   5.6279   5.6658   5.6977   5.7636   5.9185   5.9484   5.9778
  5.9983   6.0324   6.1517   6.2249   6.3836   6.5235   6.5784   6.7746
  6.9463   6.9932   7.0120   7.0557   7.1149   7.1286   7.2023   7.2625
  7.2647   7.3132   7.3262   7.3298   7.4008   7.4103   7.4241   7.4721
  7.5055   7.6489   7.6910   7.7096   7.7656   7.8052   7.8389   7.8669
 24.7584  24.9044  50.5461  50.5767  50.6168  50.6656
 --------------------------------------------------------------
 
          Ground-State Mulliken Net Atomic Charges

     Atom                 Charge (a.u.)    Spin (a.u.)
  --------------------------------------------------------
      1 C                    -0.048212       0.012057
      2 C                     0.027002       0.155998
      3 O                    -0.397624       0.044303
      4 O                    -0.418462       0.008872
      5 O                    -0.410892       0.025902
      6 H                     0.335749      -0.000294
      7 H                     0.357886       0.003522
      8 H                     0.293224       0.089945
      9 H                     0.267491      -0.001123
     10 O                    -0.333686       0.663280
     11 H                     0.327526      -0.002462
  --------------------------------------------------------
  Sum of atomic charges =     0.000000
  Sum of spin   charges =     1.000000

 -----------------------------------------------------------------
                    Cartesian Multipole Moments
 -----------------------------------------------------------------
    Charge (ESU x 10^10)
                 0.0000
    Dipole Moment (Debye)
         X      -3.1897      Y      -5.7530      Z       3.0444
       Tot       7.2484
    Quadrupole Moments (Debye-Ang)
        XX     -37.3671     XY     -10.0765     YY     -45.1502
        XZ      15.0758     YZ       8.0861     ZZ     -48.8328
    Octopole Moments (Debye-Ang^2)
       XXX    -138.0230    XXY     -37.5314    XYY     -57.5708
       YYY     -70.5890    XXZ      94.5333    XYZ      21.1725
       YYZ     109.5362    XZZ    -101.0140    YZZ     -23.5881
       ZZZ     302.7457
    Hexadecapole Moments (Debye-Ang^3)
      XXXX    -527.3691   XXXY    -142.6980   XXYY    -165.5671
      XYYY    -104.6897   YYYY    -343.5277   XXXZ     309.0060
      XXYZ      74.5234   XYYZ     132.6812   YYYZ     110.8756
      XXZZ    -347.4106   XYZZ     -72.8942   YYZZ    -346.5165
      XZZZ     500.7484   YZZZ      72.6932   ZZZZ   -1539.4907
 -----------------------------------------------------------------
 Calculating analytic gradient of the SCF energy
 Gradient of CDS energy
            1           2           3           4           5           6
    1   0.0017642   0.0008646  -0.0017188   0.0007346  -0.0032051   0.0000561
    2   0.0038597  -0.0025426   0.0042128  -0.0019036   0.0000695  -0.0004691
    3  -0.0004745  -0.0050173   0.0001528   0.0046904   0.0012890   0.0001780
            7           8           9          10          11
    1  -0.0003097  -0.0000516  -0.0000478   0.0014631   0.0004505
    2   0.0001451  -0.0002338   0.0001156  -0.0030617  -0.0001920
    3  -0.0003593  -0.0000519   0.0000950  -0.0004074  -0.0000948
 Gradient of SCF Energy
            1           2           3           4           5           6
    1  -0.0016548   0.0134466   0.0008408   0.0205218  -0.0045963  -0.0016222
    2   0.0061326   0.0008653   0.0113384   0.0021702   0.0140847  -0.0101935
    3  -0.0097196  -0.0075372  -0.0259459   0.0017196  -0.0025877   0.0238950
            7           8           9          10          11
    1  -0.0174771  -0.0005831  -0.0141075   0.0024834   0.0027484
    2  -0.0015338  -0.0095819  -0.0024440   0.0009250  -0.0117631
    3  -0.0006805   0.0100938   0.0083471  -0.0016074   0.0040227
 Max gradient component =       2.595E-02
 RMS gradient           =       1.023E-02
 Computing fast CPCM-SWIG gradient
 Updating gradient with PCM contributions...
 -- total gradient after adding PCM contribution --
---------------------------------------------------
  Atom         X              Y              Z     
---------------------------------------------------
   1       0.000960      -0.000525      -0.000537
   2      -0.000030       0.000134       0.000099
   3       0.000082      -0.000001       0.000025
   4      -0.000062      -0.000007      -0.000001
   5      -0.000559      -0.000146       0.000263
   6       0.000012      -0.000025       0.000002
   7      -0.000033      -0.000026       0.000036
   8       0.000006       0.000045       0.000002
   9      -0.000032      -0.000018       0.000001
  10      -0.000380       0.000494       0.000148
  11       0.000034       0.000074      -0.000039
---------------------------------------------------
 Number of fixed atoms: 0
 Gradient time:  CPU 86.10 s  wall 7.39 s
 ----------------------------------------------------------------
             Standard Nuclear Orientation (Angstroms)
    I     Atom           X                Y                Z
 ----------------------------------------------------------------
    1      C       1.5652520000     0.8598144000    -1.6713106000
    2      C       0.5281843000    -0.0999606000    -2.4924856000
    3      O       1.1056629000    -1.3649253000    -2.5775764000
    4      O       0.4010119000     0.4041601000    -3.7757623000
    5      O       2.8203201000     0.8474601000    -2.3043673000
    6      H       1.0133814000    -1.8109574000    -1.7256154000
    7      H      -0.5341476000     0.4332163000    -4.0070180000
    8      H       1.6050243000     0.3461009000    -0.6907037000
    9      H      -0.4038029000    -0.0970360000    -1.9324527000
   10      O       1.0323368000     2.0390039000    -1.5911066000
   11      H       3.1273872000    -0.0675986000    -2.3488875000
 ----------------------------------------------------------------
 Nuclear Repulsion Energy =         261.34657971 hartrees
 There are       25 alpha and       24 beta electrons
 Discretize the solute cavity surface with Lebedev spheres
	Using 110 Lebedev grid points for each H atom
	Using 194 Lebedev grid points for other atoms
	Atomic van der Waals radii will be scaled by 1.20
 Remove points where switching function is < 1.0e-08
 Keep 923 surface tesserae and discard 791 interior tesserae
 Molecular Surface Area = 106.371 Angst**2

                       Distance Matrix (Angstroms)
             C (  1)   C (  2)   O (  3)   O (  4)   O (  5)   H (  6)
   C (  2)  1.634321
   O (  3)  2.445814  1.393147
   O (  4)  2.447814  1.384597  2.249855
   O (  5)  1.405742  2.487344  2.812355  2.866107
   H (  6)  2.727734  1.936754  0.966074  3.079747  3.266063
   H (  7)  3.169384  1.925262  2.822339  0.963767  3.784583  3.554709
   H (  8)  1.107733  2.145920  2.595623  3.312190  2.081397  2.464545
   H (  9)  2.204753  1.087311  2.074178  2.072852  3.380142  2.233544
   O ( 10)  1.296503  2.375252  3.544747  2.800715  2.263935  3.852357
   H ( 11)  1.938936  2.603368  2.413032  3.113142  0.966232  2.810123
             H (  7)   H (  8)   H (  9)   O ( 10)
   H (  8)  3.947352
   H (  9)  2.145222  2.402852
   O ( 10)  3.296825  2.001154  2.596475
   H ( 11)  4.050562  2.288735  3.555782  3.066145
 
 Requested basis set is 6-311++G(2df,2p)
 There are 78 shells and 254 basis functions
 A cutoff of  1.0D-12 yielded   2947 shell pairs
 There are     31592 function pairs (     39583 Cartesian)
 Smallest overlap matrix eigenvalue = 1.03E-04
 Guess MOs from SCF MO coefficient file

 -----------------------------------------------------------------------
  General SCF calculation program by
  Eric Jon Sundstrom, Paul Horn, Yuezhi Mao, Dmitri Zuev, Alec White,
  David Stuck, Shaama M.S., Shane Yost, Joonho Lee, David Small,
  Daniel Levine, Susi Lehtola, Hugh Burton, Evgeny Epifanovsky,
  Bang C. Huynh
 -----------------------------------------------------------------------
 Exchange:     0.1500 Hartree-Fock + 1.0000 wB97M-V + LR-HF
 Correlation:  1.0000 wB97M-V
 Using SG-2 standard quadrature grid
 Nonlocal Correlation:  VV10 with C = 0.0100 and b = 6.00 and scale = 1.00000
 Grid used for NLC:  SG-1 standard quadrature
 
 Citation of the SMD model:
 Marenich, A.V.; Cramer, C.J.; Truhlar, D.G.
 J. Phys. Chem. B 2009, 113, 6378-6396.
 iSolventCode=           1
 Solvent: water                                                           
 
 vradii
            1           2           3           4           5           6
    1   1.8500000   1.8500000   1.5200000   1.5200000   1.5200000   1.2000000
            7           8           9          10          11
    1   1.2000000   1.2000000   1.2000000   1.5200000   1.2000000
 -------------------------------------------------------
 OpenMP BLAS3 based DFT computing Module                
 Release: version 1.0, May 2013, Q-Chem Inc. Pittsburgh 
 -------------------------------------------------------
 A unrestricted SCF calculation will be
 performed using Roothaan-Hall, DIIS, GDM
 SCF converges when RMS gradient is below 1.0e-07
 ---------------------------------------
  Cycle       Energy         DIIS error
 ---------------------------------------
    1    -380.0319928332      4.81e-04  Roothaan Step
 ---------------------------------------
  Cycle       Energy         DIIS error
 ---------------------------------------
    1    -380.0709140885      5.63e-04  
    2    -380.0805779459      4.82e-04  Done DIIS. Switching to GDM
 ---------------------------------------
  Cycle       Energy        RMS Gradient
 ---------------------------------------
    1    -380.0805779459      1.42e-02   Normal BFGS step
    2    -380.0803592424      2.17e-02  Line search: overstep
    3    -380.0854083427      4.58e-03   Normal BFGS step
    4    -380.0857071454      1.46e-03   Normal BFGS step
    5    -380.0857588014      2.39e-03   Normal BFGS step
    6    -380.0857710987      6.73e-04   Normal BFGS step
    7    -380.0857765975      6.73e-04   Normal BFGS step
    8    -380.0857798361      2.93e-04   Normal BFGS step
    9    -380.0857803679      8.27e-05   Normal BFGS step
   10    -380.0857804179      4.87e-05   Normal BFGS step
   11    -380.0857804303      1.72e-05   Normal BFGS step
   12    -380.0857804336      9.44e-06   Normal BFGS step
   13    -380.0857804340      5.12e-06   Normal BFGS step
   14    -380.0857804341      3.80e-06   Normal BFGS step
   15    -380.0857804342      3.16e-06   Normal BFGS step
   16    -380.0857804342      2.02e-06   Normal BFGS step
   17    -380.0857804343      9.99e-07   Normal BFGS step
   18    -380.0857804343      7.26e-07   Normal BFGS step
   19    -380.0857804343      3.60e-07   Normal BFGS step
   20    -380.0857804343      1.47e-07   Normal BFGS step
   21    -380.0857804343      5.70e-08  Convergence criterion met
 ---------------------------------------
 SCF time:   CPU 810.93s  wall 54.00s 
<S^2> =          0.756497094
(3)  G-ENP(liq) elect-nuc-pol free energy of system     -380.085780434 a.u.
(4)  G-CDS(liq) cavity-dispersion-solvent structure 
     free energy                                                3.4177 kcal/mol
(6)  G-S(liq) free energy of system                     -380.080333994 a.u.
 SCF   energy in the final basis set =     -380.0803339935
 Total energy in the final basis set =     -380.0803339935
 
 --------------------------------------------------------------
 
                    Orbital Energies (a.u.)
 --------------------------------------------------------------
 
 Alpha MOs
 -- Occupied --
-19.3709 -19.3628 -19.3592 -19.3504 -10.4791 -10.4561  -1.2341  -1.2032
 -1.1567  -1.1397  -0.8369  -0.7428  -0.6921  -0.6556  -0.6503  -0.6045
 -0.5813  -0.5360  -0.4995  -0.4838  -0.4646  -0.4558  -0.4322  -0.4168
 -0.3639
 -- Virtual --
  0.0257   0.0428   0.0511   0.0559   0.0785   0.0932   0.1069   0.1093
  0.1244   0.1436   0.1460   0.1526   0.1708   0.2085   0.2292   0.2356
  0.2456   0.2514   0.2566   0.2670   0.2802   0.2825   0.2884   0.3030
  0.3195   0.3218   0.3361   0.3383   0.3455   0.3546   0.3613   0.3632
  0.3683   0.3943   0.4027   0.4248   0.4500   0.4635   0.4755   0.5633
  0.5786   0.5950   0.6022   0.6322   0.6366   0.6509   0.6788   0.6810
  0.7093   0.7325   0.7487   0.7813   0.8261   0.8457   0.8880   0.9235
  0.9655   0.9698   1.0047   1.0246   1.0514   1.0755   1.0837   1.1035
  1.1220   1.1369   1.1428   1.1723   1.1845   1.2006   1.2069   1.2331
  1.2422   1.2561   1.2640   1.2742   1.3321   1.3493   1.3861   1.3970
  1.4120   1.4410   1.4838   1.5043   1.5316   1.5382   1.5766   1.6009
  1.6085   1.6299   1.6749   1.7242   1.7704   1.7749   1.8418   1.9033
  1.9155   1.9285   2.0128   2.0565   2.1130   2.1523   2.2110   2.2424
  2.2917   2.3209   2.3576   2.3680   2.4071   2.4256   2.4702   2.4934
  2.5126   2.6424   2.6853   2.7673   2.8121   2.8377   2.9254   3.0140
  3.0757   3.1981   3.2185   3.2334   3.2894   3.3487   3.3514   3.3771
  3.4523   3.4710   3.5117   3.5405   3.5653   3.5935   3.6114   3.6642
  3.6712   3.7603   3.7903   3.7999   3.8159   3.8378   3.8581   3.8874
  3.9101   3.9581   3.9836   4.0488   4.0789   4.1498   4.1635   4.2294
  4.2516   4.2582   4.2910   4.3358   4.3676   4.3820   4.4556   4.5655
  4.6283   5.0922   5.1142   5.1712   5.1851   5.1936   5.2042   5.2265
  5.2339   5.2558   5.2717   5.2807   5.2874   5.2969   5.3267   5.3444
  5.3999   5.4227   5.4459   5.4729   5.4955   5.4989   5.5494   5.5804
  5.6212   5.6580   5.6927   5.7582   5.9107   5.9399   5.9724   5.9953
  6.0265   6.1424   6.1957   6.3731   6.5180   6.5718   6.7695   6.9028
  6.9286   6.9700   7.0516   7.1000   7.1198   7.1954   7.2561   7.2598
  7.3067   7.3222   7.3276   7.3868   7.3948   7.4194   7.4579   7.4662
  7.6437   7.6806   7.6961   7.7601   7.8010   7.8277   7.8650  24.7555
 24.9039  50.5425  50.5752  50.6112  50.6624
 
 Beta MOs
 -- Occupied --
-19.3615 -19.3591 -19.3535 -19.3499 -10.4749 -10.4564  -1.2278  -1.1916
 -1.1541  -1.1192  -0.8232  -0.7318  -0.6891  -0.6459  -0.6441  -0.5867
 -0.5623  -0.5316  -0.4941  -0.4750  -0.4515  -0.4289  -0.4058  -0.3885
 -- Virtual --
 -0.0747   0.0257   0.0425   0.0511   0.0560   0.0783   0.0936   0.1072
  0.1103   0.1251   0.1437   0.1469   0.1523   0.1711   0.2097   0.2309
  0.2366   0.2472   0.2521   0.2566   0.2704   0.2806   0.2859   0.2909
  0.3082   0.3218   0.3232   0.3366   0.3402   0.3511   0.3555   0.3641
  0.3659   0.3723   0.3979   0.4037   0.4275   0.4540   0.4655   0.4768
  0.5671   0.5832   0.5975   0.6057   0.6331   0.6423   0.6525   0.6826
  0.6842   0.7117   0.7348   0.7528   0.7827   0.8287   0.8470   0.8900
  0.9248   0.9664   0.9710   1.0075   1.0252   1.0559   1.0784   1.0867
  1.1069   1.1237   1.1404   1.1503   1.1769   1.1938   1.2025   1.2098
  1.2350   1.2539   1.2586   1.2673   1.2807   1.3361   1.3531   1.3941
  1.4017   1.4177   1.4432   1.4909   1.5072   1.5355   1.5407   1.5841
  1.6041   1.6117   1.6369   1.6777   1.7365   1.7806   1.7860   1.8533
  1.9097   1.9211   1.9344   2.0212   2.0613   2.1179   2.1610   2.2157
  2.2485   2.2938   2.3249   2.3590   2.3701   2.4106   2.4302   2.4756
  2.5031   2.5175   2.6517   2.6933   2.7750   2.8156   2.8437   2.9358
  3.0196   3.0884   3.2052   3.2259   3.2430   3.2951   3.3559   3.3576
  3.3828   3.4587   3.4780   3.5162   3.5474   3.5703   3.6037   3.6172
  3.6713   3.6764   3.7661   3.7939   3.8038   3.8206   3.8428   3.8619
  3.8897   3.9146   3.9652   3.9941   4.0547   4.0849   4.1572   4.1668
  4.2369   4.2606   4.2627   4.2937   4.3419   4.3816   4.3937   4.4642
  4.5794   4.6401   5.1329   5.1609   5.1924   5.1985   5.2175   5.2255
  5.2399   5.2445   5.2635   5.2796   5.2911   5.2997   5.3163   5.3426
  5.3653   5.4094   5.4275   5.4565   5.4903   5.5024   5.5141   5.5529
  5.5902   5.6281   5.6657   5.6971   5.7638   5.9187   5.9461   5.9771
  5.9985   6.0326   6.1518   6.2267   6.3819   6.5227   6.5771   6.7747
  6.9462   6.9935   7.0118   7.0556   7.1150   7.1286   7.2023   7.2623
  7.2646   7.3130   7.3262   7.3296   7.4004   7.4104   7.4243   7.4722
  7.5058   7.6488   7.6911   7.7094   7.7656   7.8050   7.8385   7.8670
 24.7590  24.9035  50.5461  50.5765  50.6171  50.6655
 --------------------------------------------------------------
 
          Ground-State Mulliken Net Atomic Charges

     Atom                 Charge (a.u.)    Spin (a.u.)
  --------------------------------------------------------
      1 C                    -0.047765       0.012040
      2 C                     0.027017       0.155225
      3 O                    -0.397762       0.044085
      4 O                    -0.418495       0.008866
      5 O                    -0.412267       0.025762
      6 H                     0.335728      -0.000294
      7 H                     0.357880       0.003509
      8 H                     0.293414       0.090367
      9 H                     0.267357      -0.001115
     10 O                    -0.332439       0.664017
     11 H                     0.327333      -0.002462
  --------------------------------------------------------
  Sum of atomic charges =     0.000000
  Sum of spin   charges =     1.000000

 -----------------------------------------------------------------
                    Cartesian Multipole Moments
 -----------------------------------------------------------------
    Charge (ESU x 10^10)
                 0.0000
    Dipole Moment (Debye)
         X      -3.2046      Y      -5.7432      Z       3.0522
       Tot       7.2505
    Quadrupole Moments (Debye-Ang)
        XX     -37.4291     XY     -10.0804     YY     -45.1271
        XZ      15.1177     YZ       8.0725     ZZ     -48.8603
    Octopole Moments (Debye-Ang^2)
       XXX    -138.2099    XXY     -37.5693    XYY     -57.5574
       YYY     -70.5166    XXZ      94.6844    XYZ      21.1875
       YYZ     109.5019    XZZ    -101.1152    YZZ     -23.5627
       ZZZ     302.8381
    Hexadecapole Moments (Debye-Ang^3)
      XXXX    -527.9366   XXXY    -142.8248   XXYY    -165.5838
      XYYY    -104.6191   YYYY    -343.3311   XXXZ     309.4587
      XXYZ      74.6128   XYYZ     132.6722   YYYZ     110.7501
      XXZZ    -347.7663   XYZZ     -72.9282   YYZZ    -346.4478
      XZZZ     501.0183   YZZZ      72.6462   ZZZZ   -1539.8092
 -----------------------------------------------------------------
 Calculating analytic gradient of the SCF energy
 Gradient of CDS energy
            1           2           3           4           5           6
    1   0.0013724   0.0008659  -0.0017189   0.0007353  -0.0028237   0.0000561
    2   0.0038529  -0.0025420   0.0042129  -0.0019037   0.0000566  -0.0004691
    3  -0.0002981  -0.0050169   0.0001528   0.0046903   0.0011094   0.0001780
            7           8           9          10          11
    1  -0.0003098  -0.0000287  -0.0000479   0.0014473   0.0004521
    2   0.0001451  -0.0002404   0.0001151  -0.0030354  -0.0001919
    3  -0.0003593  -0.0000513   0.0000944  -0.0004054  -0.0000941
 Gradient of SCF Energy
            1           2           3           4           5           6
    1  -0.0035342   0.0136136   0.0008411   0.0205671  -0.0035972  -0.0016295
    2   0.0066435   0.0008685   0.0113531   0.0021355   0.0140401  -0.0101857
    3  -0.0091759  -0.0076172  -0.0259644   0.0017702  -0.0030488   0.0239011
            7           8           9          10          11
    1  -0.0174934  -0.0003870  -0.0140509   0.0028932   0.0027771
    2  -0.0015157  -0.0096413  -0.0023799   0.0004128  -0.0117309
    3  -0.0006722   0.0100944   0.0084130  -0.0017137   0.0040136
 Max gradient component =       2.596E-02
 RMS gradient           =       1.025E-02
 Computing fast CPCM-SWIG gradient
 Updating gradient with PCM contributions...
 -- total gradient after adding PCM contribution --
---------------------------------------------------
  Atom         X              Y              Z     
---------------------------------------------------
   1      -0.000870      -0.000000       0.000006
   2       0.000123       0.000138       0.000039
   3       0.000068       0.000013       0.000010
   4      -0.000035      -0.000031       0.000051
   5       0.000391      -0.000151      -0.000166
   6       0.000013      -0.000023       0.000006
   7      -0.000038      -0.000016       0.000040
   8       0.000185      -0.000011      -0.000018
   9       0.000030       0.000032       0.000050
  10       0.000041      -0.000018       0.000038
  11       0.000093       0.000066      -0.000056
---------------------------------------------------
 Number of fixed atoms: 0
 Gradient time:  CPU 86.49 s  wall 7.38 s
 ----------------------------------------------------------------
             Standard Nuclear Orientation (Angstroms)
    I     Atom           X                Y                Z
 ----------------------------------------------------------------
    1      C       1.5662520000     0.8608144000    -1.6713106000
    2      C       0.5281843000    -0.0999606000    -2.4924856000
    3      O       1.1056629000    -1.3649253000    -2.5775764000
    4      O       0.4010119000     0.4041601000    -3.7757623000
    5      O       2.8203201000     0.8474601000    -2.3043673000
    6      H       1.0133814000    -1.8109574000    -1.7256154000
    7      H      -0.5341476000     0.4332163000    -4.0070180000
    8      H       1.6050243000     0.3461009000    -0.6907037000
    9      H      -0.4038029000    -0.0970360000    -1.9324527000
   10      O       1.0323368000     2.0390039000    -1.5911066000
   11      H       3.1273872000    -0.0675986000    -2.3488875000
 ----------------------------------------------------------------
 Nuclear Repulsion Energy =         261.34684089 hartrees
 There are       25 alpha and       24 beta electrons
 Discretize the solute cavity surface with Lebedev spheres
	Using 110 Lebedev grid points for each H atom
	Using 194 Lebedev grid points for other atoms
	Atomic van der Waals radii will be scaled by 1.20
 Remove points where switching function is < 1.0e-08
 Keep 923 surface tesserae and discard 791 interior tesserae
 Molecular Surface Area = 106.374 Angst**2

                       Distance Matrix (Angstroms)
             C (  1)   C (  2)   O (  3)   O (  4)   O (  5)   H (  6)
   C (  2)  1.635543
   O (  3)  2.446912  1.393147
   O (  4)  2.448476  1.384597  2.249855
   O (  5)  1.404858  2.487344  2.812355  2.866107
   H (  6)  2.728915  1.936754  0.966074  3.079747  3.266063
   H (  7)  3.170181  1.925262  2.822339  0.963767  3.784583  3.554709
   H (  8)  1.108162  2.145920  2.595623  3.312190  2.081397  2.464545
   H (  9)  2.206080  1.087311  2.074178  2.072852  3.380142  2.233544
   O ( 10)  1.296005  2.375252  3.544747  2.800715  2.263935  3.852357
   H ( 11)  1.938609  2.603368  2.413032  3.113142  0.966232  2.810123
             H (  7)   H (  8)   H (  9)   O ( 10)
   H (  8)  3.947352
   H (  9)  2.145222  2.402852
   O ( 10)  3.296825  2.001154  2.596475
   H ( 11)  4.050562  2.288735  3.555782  3.066145
 
 Requested basis set is 6-311++G(2df,2p)
 There are 78 shells and 254 basis functions
 A cutoff of  1.0D-12 yielded   2947 shell pairs
 There are     31592 function pairs (     39583 Cartesian)
 Smallest overlap matrix eigenvalue = 1.03E-04
 Guess MOs from SCF MO coefficient file

 -----------------------------------------------------------------------
  General SCF calculation program by
  Eric Jon Sundstrom, Paul Horn, Yuezhi Mao, Dmitri Zuev, Alec White,
  David Stuck, Shaama M.S., Shane Yost, Joonho Lee, David Small,
  Daniel Levine, Susi Lehtola, Hugh Burton, Evgeny Epifanovsky,
  Bang C. Huynh
 -----------------------------------------------------------------------
 Exchange:     0.1500 Hartree-Fock + 1.0000 wB97M-V + LR-HF
 Correlation:  1.0000 wB97M-V
 Using SG-2 standard quadrature grid
 Nonlocal Correlation:  VV10 with C = 0.0100 and b = 6.00 and scale = 1.00000
 Grid used for NLC:  SG-1 standard quadrature
 
 Citation of the SMD model:
 Marenich, A.V.; Cramer, C.J.; Truhlar, D.G.
 J. Phys. Chem. B 2009, 113, 6378-6396.
 iSolventCode=           1
 Solvent: water                                                           
 
 vradii
            1           2           3           4           5           6
    1   1.8500000   1.8500000   1.5200000   1.5200000   1.5200000   1.2000000
            7           8           9          10          11
    1   1.2000000   1.2000000   1.2000000   1.5200000   1.2000000
 -------------------------------------------------------
 OpenMP BLAS3 based DFT computing Module                
 Release: version 1.0, May 2013, Q-Chem Inc. Pittsburgh 
 -------------------------------------------------------
 A unrestricted SCF calculation will be
 performed using Roothaan-Hall, DIIS, GDM
 SCF converges when RMS gradient is below 1.0e-07
 ---------------------------------------
  Cycle       Energy         DIIS error
 ---------------------------------------
    1    -380.0320457679      4.81e-04  Roothaan Step
 ---------------------------------------
  Cycle       Energy         DIIS error
 ---------------------------------------
    1    -380.0709541757      5.62e-04  
    2    -380.0806286371      4.79e-04  Done DIIS. Switching to GDM
 ---------------------------------------
  Cycle       Energy        RMS Gradient
 ---------------------------------------
    1    -380.0806286371      1.40e-02   Normal BFGS step
    2    -380.0804277796      2.16e-02  Line search: overstep
    3    -380.0854121414      4.93e-03   Normal BFGS step
    4    -380.0857135558      1.60e-03   Normal BFGS step
    5    -380.0857673988      2.59e-03   Normal BFGS step
    6    -380.0857805913      8.22e-04   Normal BFGS step
    7    -380.0857868970      7.18e-04   Normal BFGS step
    8    -380.0857905444      3.05e-04   Normal BFGS step
    9    -380.0857910444      9.36e-05   Normal BFGS step
   10    -380.0857911015      4.85e-05   Normal BFGS step
   11    -380.0857911198      4.81e-05   Normal BFGS step
   12    -380.0857911278      3.84e-05   Normal BFGS step
   13    -380.0857911347      2.55e-05   Normal BFGS step
   14    -380.0857911388      1.50e-05   Normal BFGS step
   15    -380.0857911412      1.26e-05   Normal BFGS step
   16    -380.0857911419      4.65e-06   Normal BFGS step
   17    -380.0857911421      1.74e-06   Normal BFGS step
   18    -380.0857911421      6.01e-07   Normal BFGS step
   19    -380.0857911421      3.45e-07   Normal BFGS step
   20    -380.0857911421      1.26e-07   Normal BFGS step
   21    -380.0857911421      4.49e-08  Convergence criterion met
 ---------------------------------------
 SCF time:   CPU 815.20s  wall 53.00s 
<S^2> =          0.756518507
(3)  G-ENP(liq) elect-nuc-pol free energy of system     -380.085791142 a.u.
(4)  G-CDS(liq) cavity-dispersion-solvent structure 
     free energy                                                3.4240 kcal/mol
(6)  G-S(liq) free energy of system                     -380.080334657 a.u.
 SCF   energy in the final basis set =     -380.0803346568
 Total energy in the final basis set =     -380.0803346568
 
 --------------------------------------------------------------
 
                    Orbital Energies (a.u.)
 --------------------------------------------------------------
 
 Alpha MOs
 -- Occupied --
-19.3705 -19.3629 -19.3592 -19.3505 -10.4792 -10.4562  -1.2341  -1.2033
 -1.1567  -1.1398  -0.8368  -0.7428  -0.6922  -0.6556  -0.6505  -0.6044
 -0.5813  -0.5361  -0.4995  -0.4838  -0.4645  -0.4559  -0.4322  -0.4167
 -0.3636
 -- Virtual --
  0.0257   0.0428   0.0511   0.0559   0.0785   0.0932   0.1068   0.1093
  0.1244   0.1436   0.1460   0.1525   0.1708   0.2085   0.2292   0.2356
  0.2456   0.2514   0.2566   0.2668   0.2802   0.2824   0.2885   0.3030
  0.3194   0.3218   0.3362   0.3382   0.3456   0.3546   0.3613   0.3633
  0.3683   0.3944   0.4027   0.4249   0.4502   0.4635   0.4755   0.5633
  0.5785   0.5950   0.6023   0.6321   0.6366   0.6510   0.6788   0.6810
  0.7093   0.7326   0.7486   0.7813   0.8261   0.8456   0.8877   0.9235
  0.9655   0.9698   1.0046   1.0246   1.0514   1.0756   1.0838   1.1035
  1.1220   1.1369   1.1428   1.1723   1.1845   1.2005   1.2069   1.2330
  1.2422   1.2560   1.2640   1.2740   1.3319   1.3492   1.3859   1.3970
  1.4120   1.4410   1.4837   1.5043   1.5316   1.5383   1.5765   1.6009
  1.6085   1.6299   1.6747   1.7244   1.7704   1.7749   1.8419   1.9031
  1.9156   1.9284   2.0129   2.0567   2.1130   2.1524   2.2111   2.2427
  2.2918   2.3207   2.3577   2.3683   2.4071   2.4254   2.4705   2.4936
  2.5126   2.6426   2.6851   2.7671   2.8120   2.8376   2.9253   3.0136
  3.0756   3.1983   3.2183   3.2334   3.2896   3.3483   3.3514   3.3769
  3.4523   3.4711   3.5114   3.5402   3.5651   3.5934   3.6109   3.6642
  3.6712   3.7600   3.7904   3.8000   3.8157   3.8378   3.8579   3.8874
  3.9096   3.9570   3.9832   4.0481   4.0780   4.1494   4.1633   4.2292
  4.2511   4.2581   4.2910   4.3358   4.3675   4.3818   4.4553   4.5649
  4.6276   5.0921   5.1146   5.1712   5.1851   5.1936   5.2044   5.2267
  5.2339   5.2556   5.2717   5.2804   5.2872   5.2967   5.3266   5.3446
  5.3998   5.4228   5.4457   5.4731   5.4956   5.4990   5.5495   5.5802
  5.6212   5.6582   5.6930   5.7582   5.9108   5.9414   5.9729   5.9952
  6.0264   6.1430   6.1965   6.3769   6.5182   6.5725   6.7694   6.9036
  6.9292   6.9714   7.0516   7.1002   7.1197   7.1954   7.2562   7.2598
  7.3069   7.3222   7.3276   7.3871   7.3949   7.4194   7.4581   7.4661
  7.6438   7.6808   7.6963   7.7604   7.8011   7.8277   7.8649  24.7547
 24.9054  50.5427  50.5753  50.6115  50.6627
 
 Beta MOs
 -- Occupied --
-19.3615 -19.3591 -19.3531 -19.3500 -10.4750 -10.4564  -1.2279  -1.1918
 -1.1542  -1.1194  -0.8230  -0.7318  -0.6891  -0.6461  -0.6441  -0.5867
 -0.5624  -0.5317  -0.4941  -0.4750  -0.4515  -0.4290  -0.4057  -0.3885
 -- Virtual --
 -0.0746   0.0257   0.0425   0.0511   0.0560   0.0783   0.0936   0.1072
  0.1103   0.1251   0.1437   0.1469   0.1522   0.1711   0.2098   0.2309
  0.2366   0.2473   0.2520   0.2566   0.2703   0.2806   0.2858   0.2909
  0.3083   0.3217   0.3233   0.3366   0.3401   0.3511   0.3555   0.3642
  0.3659   0.3722   0.3979   0.4037   0.4276   0.4542   0.4655   0.4768
  0.5672   0.5831   0.5975   0.6057   0.6331   0.6423   0.6526   0.6826
  0.6842   0.7117   0.7349   0.7528   0.7827   0.8288   0.8469   0.8897
  0.9248   0.9664   0.9709   1.0074   1.0252   1.0559   1.0785   1.0868
  1.1069   1.1237   1.1404   1.1503   1.1769   1.1938   1.2024   1.2098
  1.2349   1.2539   1.2586   1.2674   1.2805   1.3359   1.3531   1.3938
  1.4018   1.4178   1.4432   1.4908   1.5072   1.5355   1.5409   1.5839
  1.6041   1.6117   1.6368   1.6776   1.7367   1.7806   1.7861   1.8533
  1.9095   1.9212   1.9344   2.0212   2.0615   2.1179   2.1611   2.2159
  2.2488   2.2938   2.3248   2.3592   2.3703   2.4107   2.4300   2.4759
  2.5033   2.5176   2.6519   2.6931   2.7749   2.8156   2.8436   2.9358
  3.0193   3.0883   3.2055   3.2257   3.2431   3.2954   3.3555   3.3576
  3.3827   3.4588   3.4782   3.5160   3.5471   3.5702   3.6036   3.6168
  3.6714   3.6763   3.7659   3.7940   3.8040   3.8204   3.8428   3.8618
  3.8897   3.9142   3.9642   3.9938   4.0541   4.0842   4.1568   4.1666
  4.2367   4.2604   4.2624   4.2937   4.3420   4.3816   4.3935   4.4639
  4.5788   4.6395   5.1325   5.1611   5.1923   5.1984   5.2177   5.2253
  5.2399   5.2445   5.2633   5.2796   5.2908   5.2997   5.3163   5.3427
  5.3653   5.4093   5.4276   5.4563   5.4906   5.5025   5.5142   5.5529
  5.5900   5.6281   5.6659   5.6975   5.7637   5.9188   5.9475   5.9776
  5.9984   6.0326   6.1521   6.2277   6.3857   6.5229   6.5778   6.7746
  6.9475   6.9939   7.0122   7.0556   7.1152   7.1286   7.2023   7.2624
  7.2646   7.3132   7.3262   7.3297   7.4005   7.4104   7.4243   7.4722
  7.5059   7.6489   7.6910   7.7099   7.7658   7.8051   7.8386   7.8669
 24.7583  24.9051  50.5462  50.5767  50.6174  50.6659
 --------------------------------------------------------------
 
          Ground-State Mulliken Net Atomic Charges

     Atom                 Charge (a.u.)    Spin (a.u.)
  --------------------------------------------------------
      1 C                    -0.048003       0.012252
      2 C                     0.027251       0.156534
      3 O                    -0.397406       0.044428
      4 O                    -0.418312       0.008974
      5 O                    -0.411468       0.026078
      6 H                     0.335744      -0.000297
      7 H                     0.357904       0.003537
      8 H                     0.293236       0.090562
      9 H                     0.267509      -0.001096
     10 O                    -0.333923       0.661492
     11 H                     0.327468      -0.002464
  --------------------------------------------------------
  Sum of atomic charges =    -0.000000
  Sum of spin   charges =     1.000000

 -----------------------------------------------------------------
                    Cartesian Multipole Moments
 -----------------------------------------------------------------
    Charge (ESU x 10^10)
                 0.0000
    Dipole Moment (Debye)
         X      -3.1976      Y      -5.7561      Z       3.0442
       Tot       7.2543
    Quadrupole Moments (Debye-Ang)
        XX     -37.3959     XY     -10.0858     YY     -45.1496
        XZ      15.0938     YZ       8.0930     ZZ     -48.8293
    Octopole Moments (Debye-Ang^2)
       XXX    -138.1115    XXY     -37.5643    XYY     -57.5746
       YYY     -70.6164    XXZ      94.5989    XYZ      21.1916
       YYZ     109.5293    XZZ    -101.0539    YZZ     -23.6094
       ZZZ     302.7224
    Hexadecapole Moments (Debye-Ang^3)
      XXXX    -527.6399   XXXY    -142.8029   XXYY    -165.5946
      XYYY    -104.7256   YYYY    -343.5637   XXXZ     309.2173
      XXYZ      74.5937   XYYZ     132.6834   YYYZ     110.9201
      XXZZ    -347.5620   XYZZ     -72.9462   YYZZ    -346.4968
      XZZZ     500.8470   YZZZ      72.7620   ZZZZ   -1539.3681
 -----------------------------------------------------------------
 Calculating analytic gradient of the SCF energy
 Gradient of CDS energy
            1           2           3           4           5           6
    1   0.0015738   0.0008649  -0.0017187   0.0007349  -0.0030148   0.0000561
    2   0.0038304  -0.0025429   0.0042129  -0.0019040   0.0000615  -0.0004691
    3  -0.0003953  -0.0050173   0.0001529   0.0046902   0.0012051   0.0001780
            7           8           9          10          11
    1  -0.0003097  -0.0000320  -0.0000478   0.0014422   0.0004512
    2   0.0001451  -0.0002400   0.0001152  -0.0030170  -0.0001922
    3  -0.0003593  -0.0000513   0.0000947  -0.0004039  -0.0000938
 Gradient of SCF Energy
            1           2           3           4           5           6
    1  -0.0028665   0.0136513   0.0008443   0.0205188  -0.0041372  -0.0016286
    2   0.0070528   0.0010097   0.0112070   0.0021873   0.0139329  -0.0102027
    3  -0.0097166  -0.0074164  -0.0259885   0.0017054  -0.0027501   0.0238960
            7           8           9          10          11
    1  -0.0174827  -0.0004500  -0.0141116   0.0028358   0.0028263
    2  -0.0015399  -0.0097034  -0.0024375   0.0002466  -0.0117529
    3  -0.0006866   0.0102579   0.0083577  -0.0016409   0.0039821
 Max gradient component =       2.599E-02
 RMS gradient           =       1.027E-02
 Computing fast CPCM-SWIG gradient
 Updating gradient with PCM contributions...
 -- total gradient after adding PCM contribution --
---------------------------------------------------
  Atom         X              Y              Z     
---------------------------------------------------
   1      -0.000217       0.000385      -0.000541
   2       0.000156       0.000274       0.000228
   3       0.000077      -0.000134      -0.000011
   4      -0.000077       0.000011      -0.000020
   5      -0.000113      -0.000288       0.000104
   6       0.000010      -0.000026      -0.000006
   7      -0.000026      -0.000032       0.000033
   8       0.000130      -0.000069       0.000174
   9      -0.000024      -0.000012       0.000002
  10      -0.000041      -0.000184       0.000119
  11       0.000125       0.000074      -0.000081
---------------------------------------------------
 Number of fixed atoms: 0
 Gradient time:  CPU 87.21 s  wall 7.46 s
 ----------------------------------------------------------------
             Standard Nuclear Orientation (Angstroms)
    I     Atom           X                Y                Z
 ----------------------------------------------------------------
    1      C       1.5662520000     0.8588144000    -1.6713106000
    2      C       0.5281843000    -0.0999606000    -2.4924856000
    3      O       1.1056629000    -1.3649253000    -2.5775764000
    4      O       0.4010119000     0.4041601000    -3.7757623000
    5      O       2.8203201000     0.8474601000    -2.3043673000
    6      H       1.0133814000    -1.8109574000    -1.7256154000
    7      H      -0.5341476000     0.4332163000    -4.0070180000
    8      H       1.6050243000     0.3461009000    -0.6907037000
    9      H      -0.4038029000    -0.0970360000    -1.9324527000
   10      O       1.0323368000     2.0390039000    -1.5911066000
   11      H       3.1273872000    -0.0675986000    -2.3488875000
 ----------------------------------------------------------------
 Nuclear Repulsion Energy =         261.34196920 hartrees
 There are       25 alpha and       24 beta electrons
 Discretize the solute cavity surface with Lebedev spheres
	Using 110 Lebedev grid points for each H atom
	Using 194 Lebedev grid points for other atoms
	Atomic van der Waals radii will be scaled by 1.20
 Remove points where switching function is < 1.0e-08
 Keep 923 surface tesserae and discard 791 interior tesserae
 Molecular Surface Area = 106.369 Angst**2

                       Distance Matrix (Angstroms)
             C (  1)   C (  2)   O (  3)   O (  4)   O (  5)   H (  6)
   C (  2)  1.634369
   O (  3)  2.445093  1.393147
   O (  4)  2.448104  1.384597  2.249855
   O (  5)  1.404840  2.487344  2.812355  2.866107
   H (  6)  2.726957  1.936754  0.966074  3.079747  3.266063
   H (  7)  3.169912  1.925262  2.822339  0.963767  3.784583  3.554709
   H (  8)  1.107235  2.145920  2.595623  3.312190  2.081397  2.464545
   H (  9)  2.205212  1.087311  2.074178  2.072852  3.380142  2.233544
   O ( 10)  1.297823  2.375252  3.544747  2.800715  2.263935  3.852357
   H ( 11)  1.937652  2.603368  2.413032  3.113142  0.966232  2.810123
             H (  7)   H (  8)   H (  9)   O ( 10)
   H (  8)  3.947352
   H (  9)  2.145222  2.402852
   O ( 10)  3.296825  2.001154  2.596475
   H ( 11)  4.050562  2.288735  3.555782  3.066145
 
 Requested basis set is 6-311++G(2df,2p)
 There are 78 shells and 254 basis functions
 A cutoff of  1.0D-12 yielded   2947 shell pairs
 There are     31592 function pairs (     39583 Cartesian)
 Smallest overlap matrix eigenvalue = 1.03E-04
 Guess MOs from SCF MO coefficient file

 -----------------------------------------------------------------------
  General SCF calculation program by
  Eric Jon Sundstrom, Paul Horn, Yuezhi Mao, Dmitri Zuev, Alec White,
  David Stuck, Shaama M.S., Shane Yost, Joonho Lee, David Small,
  Daniel Levine, Susi Lehtola, Hugh Burton, Evgeny Epifanovsky,
  Bang C. Huynh
 -----------------------------------------------------------------------
 Exchange:     0.1500 Hartree-Fock + 1.0000 wB97M-V + LR-HF
 Correlation:  1.0000 wB97M-V
 Using SG-2 standard quadrature grid
 Nonlocal Correlation:  VV10 with C = 0.0100 and b = 6.00 and scale = 1.00000
 Grid used for NLC:  SG-1 standard quadrature
 
 Citation of the SMD model:
 Marenich, A.V.; Cramer, C.J.; Truhlar, D.G.
 J. Phys. Chem. B 2009, 113, 6378-6396.
 iSolventCode=           1
 Solvent: water                                                           
 
 vradii
            1           2           3           4           5           6
    1   1.8500000   1.8500000   1.5200000   1.5200000   1.5200000   1.2000000
            7           8           9          10          11
    1   1.2000000   1.2000000   1.2000000   1.5200000   1.2000000
 -------------------------------------------------------
 OpenMP BLAS3 based DFT computing Module                
 Release: version 1.0, May 2013, Q-Chem Inc. Pittsburgh 
 -------------------------------------------------------
 A unrestricted SCF calculation will be
 performed using Roothaan-Hall, DIIS, GDM
 SCF converges when RMS gradient is below 1.0e-07
 ---------------------------------------
  Cycle       Energy         DIIS error
 ---------------------------------------
    1    -380.0319453761      4.81e-04  Roothaan Step
 ---------------------------------------
  Cycle       Energy         DIIS error
 ---------------------------------------
    1    -380.0708650660      5.65e-04  
    2    -380.0805200997      4.84e-04  Done DIIS. Switching to GDM
 ---------------------------------------
  Cycle       Energy        RMS Gradient
 ---------------------------------------
    1    -380.0805200997      1.46e-02   Normal BFGS step
    2    -380.0802688222      2.22e-02  Line search: overstep
    3    -380.0854092499      4.45e-03   Normal BFGS step
    4    -380.0857058342      1.25e-03   Normal BFGS step
    5    -380.0857555509      2.33e-03   Normal BFGS step
    6    -380.0857672338      6.52e-04   Normal BFGS step
    7    -380.0857720355      6.47e-04   Normal BFGS step
    8    -380.0857749167      3.41e-04   Normal BFGS step
    9    -380.0857755080      7.55e-05   Normal BFGS step
   10    -380.0857755579      4.63e-05   Normal BFGS step
   11    -380.0857755706      2.05e-05   Normal BFGS step
   12    -380.0857755743      1.01e-05   Normal BFGS step
   13    -380.0857755750      1.04e-05   Normal BFGS step
   14    -380.0857755754      7.72e-06   Normal BFGS step
   15    -380.0857755757      5.28e-06   Normal BFGS step
   16    -380.0857755759      4.12e-06   Normal BFGS step
   17    -380.0857755760      1.73e-06   Normal BFGS step
   18    -380.0857755760      6.32e-07   Normal BFGS step
   19    -380.0857755761      3.49e-07   Normal BFGS step
   20    -380.0857755761      1.43e-07   Normal BFGS step
   21    -380.0857755761      4.84e-08  Convergence criterion met
 ---------------------------------------
 SCF time:   CPU 815.86s  wall 54.00s 
<S^2> =          0.756490296
(3)  G-ENP(liq) elect-nuc-pol free energy of system     -380.085775576 a.u.
(4)  G-CDS(liq) cavity-dispersion-solvent structure 
     free energy                                                3.4148 kcal/mol
(6)  G-S(liq) free energy of system                     -380.080333671 a.u.
 SCF   energy in the final basis set =     -380.0803336714
 Total energy in the final basis set =     -380.0803336714
 
 --------------------------------------------------------------
 
                    Orbital Energies (a.u.)
 --------------------------------------------------------------
 
 Alpha MOs
 -- Occupied --
-19.3710 -19.3627 -19.3592 -19.3505 -10.4790 -10.4561  -1.2340  -1.2031
 -1.1566  -1.1397  -0.8369  -0.7429  -0.6921  -0.6555  -0.6504  -0.6044
 -0.5811  -0.5360  -0.4995  -0.4838  -0.4646  -0.4559  -0.4322  -0.4169
 -0.3639
 -- Virtual --
  0.0257   0.0428   0.0511   0.0559   0.0785   0.0932   0.1069   0.1093
  0.1244   0.1436   0.1460   0.1526   0.1708   0.2085   0.2292   0.2356
  0.2456   0.2514   0.2566   0.2670   0.2802   0.2825   0.2884   0.3031
  0.3196   0.3218   0.3361   0.3383   0.3456   0.3545   0.3613   0.3633
  0.3683   0.3942   0.4028   0.4249   0.4498   0.4635   0.4755   0.5633
  0.5785   0.5950   0.6021   0.6322   0.6367   0.6509   0.6788   0.6810
  0.7092   0.7326   0.7486   0.7813   0.8262   0.8457   0.8881   0.9235
  0.9655   0.9698   1.0048   1.0246   1.0514   1.0756   1.0836   1.1036
  1.1221   1.1370   1.1429   1.1723   1.1846   1.2007   1.2069   1.2331
  1.2421   1.2561   1.2642   1.2742   1.3323   1.3494   1.3858   1.3970
  1.4119   1.4411   1.4838   1.5042   1.5316   1.5381   1.5771   1.6008
  1.6083   1.6299   1.6749   1.7241   1.7702   1.7747   1.8416   1.9032
  1.9156   1.9284   2.0129   2.0565   2.1130   2.1520   2.2112   2.2423
  2.2918   2.3209   2.3577   2.3683   2.4071   2.4254   2.4698   2.4927
  2.5124   2.6422   2.6854   2.7672   2.8122   2.8378   2.9253   3.0140
  3.0761   3.1982   3.2186   3.2333   3.2899   3.3489   3.3515   3.3772
  3.4522   3.4709   3.5113   3.5402   3.5659   3.5933   3.6115   3.6642
  3.6712   3.7604   3.7907   3.8004   3.8161   3.8377   3.8582   3.8875
  3.9101   3.9584   3.9832   4.0488   4.0788   4.1497   4.1635   4.2293
  4.2520   4.2581   4.2911   4.3360   4.3680   4.3825   4.4557   4.5657
  4.6284   5.0925   5.1142   5.1709   5.1852   5.1937   5.2041   5.2267
  5.2339   5.2559   5.2717   5.2808   5.2872   5.2970   5.3267   5.3442
  5.3998   5.4227   5.4456   5.4725   5.4952   5.4987   5.5498   5.5800
  5.6211   5.6580   5.6929   5.7581   5.9103   5.9409   5.9725   5.9952
  6.0263   6.1415   6.1936   6.3709   6.5186   6.5724   6.7695   6.9024
  6.9282   6.9686   7.0517   7.0997   7.1198   7.1954   7.2562   7.2599
  7.3067   7.3222   7.3277   7.3864   7.3950   7.4193   7.4575   7.4662
  7.6437   7.6804   7.6960   7.7599   7.8011   7.8279   7.8650  24.7556
[...]
    2   0.0001911  -0.0003252   0.0002510  -0.0015333  -0.0001718
    3  -0.0003713  -0.0003620   0.0000980  -0.0002540  -0.0000610
 Gradient of SCF Energy
            1           2           3           4           5           6
    1  -0.0024736   0.0123608  -0.0002651   0.0198141  -0.0066598   0.0002348
    2   0.0073443   0.0000794   0.0120121  -0.0044069   0.0160500  -0.0098212
    3  -0.0087047  -0.0113082  -0.0283349   0.0025804  -0.0022353   0.0272441
            7           8           9          10          11
    1  -0.0183438  -0.0013040  -0.0125407   0.0052074   0.0039700
    2   0.0033227  -0.0125852   0.0007486   0.0035620  -0.0163059
    3  -0.0013577   0.0070936   0.0112200  -0.0010759   0.0048786
 Max gradient component =       2.833E-02
 RMS gradient           =       1.117E-02
 Computing fast CPCM-SWIG gradient
 Updating gradient with PCM contributions...
 -- total gradient after adding PCM contribution --
---------------------------------------------------
  Atom         X              Y              Z     
---------------------------------------------------
   1       0.000805      -0.004134       0.000880
   2       0.000508       0.001639      -0.000057
   3       0.000741       0.000935       0.000118
   4       0.001883       0.001117       0.001012
   5       0.000088       0.000191      -0.000228
   6      -0.000272       0.000301       0.000007
   7      -0.002018      -0.001967      -0.000765
   8      -0.000361      -0.000061      -0.000493
   9       0.000840       0.001130       0.000302
  10      -0.001652       0.001541      -0.000230
  11      -0.000561      -0.000692      -0.000545
---------------------------------------------------
 Number of fixed atoms: 0
 Gradient time:  CPU 82.89 s  wall 7.24 s
rPathMan2.  file_steps = 952
 IRC --- Status = 3.  Assess initial corrector step
 IRC --- bisector search: b =  0.000000 E =     -380.087516 G.B =  -0.004834
 IRC --- bisector search: b =  0.007971 E =     -380.087515 G.B =   0.005185
 IRC --- performed gradient/energy interpolation
 IRC --- bisector search:  estimate b(min) =   3.831989483274934E-003
 ----------------------------------------------------------------
             Standard Nuclear Orientation (Angstroms)
    I     Atom           X                Y                Z
 ----------------------------------------------------------------
    1      C       1.6816795290     1.0326934822    -1.5585809378
    2      C       0.4033809660    -0.2880254224    -2.6118365993
    3      O       1.0863459081    -1.4531112428    -2.5835975194
    4      O       0.3247168452     0.1854221036    -3.8679588132
    5      O       2.8027511626     0.8827639772    -2.3371594431
    6      H       1.0468509691    -1.8212261567    -1.6908447136
    7      H      -0.4913756249     0.6896679824    -3.9737635194
    8      H       1.6363252200     0.3381926344    -0.7107214315
    9      H      -0.4613865115    -0.1759773386    -1.9659952999
   10      O       1.1010693627     2.1213498132    -1.5702067272
   11      H       3.1312492611    -0.0223061519    -2.2467727146
 ----------------------------------------------------------------
 Nuclear Repulsion Energy =         253.62970388 hartrees
 There are       25 alpha and       24 beta electrons
 Discretize the solute cavity surface with Lebedev spheres
	Using 110 Lebedev grid points for each H atom
	Using 194 Lebedev grid points for other atoms
	Atomic van der Waals radii will be scaled by 1.20
 Remove points where switching function is < 1.0e-08
 Keep 948 surface tesserae and discard 766 interior tesserae
 Molecular Surface Area = 110.441 Angst**2

                       Distance Matrix (Angstroms)
             C (  1)   C (  2)   O (  3)   O (  4)   O (  5)   H (  6)
   C (  2)  2.118418
   O (  3)  2.753962  1.350801
   O (  4)  2.809349  1.344687  2.216857
   O (  5)  1.373122  2.683873  2.909139  2.995044
   H (  6)  2.926663  1.900785  0.966476  3.047612  3.288232
   H (  7)  3.266947  1.900347  3.002211  0.965125  3.683345  3.725916
   H (  8)  1.096929  2.350859  2.649323  3.422251  2.074225  2.443606
   H (  9)  2.493913  1.085121  2.099519  2.089506  3.451564  2.248851
   O ( 10)  1.233862  2.716036  3.715367  3.103257  2.240096  3.944794
   H ( 11)  1.920387  2.764985  2.518389  3.247771  0.967074  2.808894
             H (  7)   H (  8)   H (  9)   O ( 10)
   H (  8)  3.911277
   H (  9)  2.186635  2.498095
   O ( 10)  3.219112  2.050576  2.806355
   H ( 11)  4.075882  2.173525  3.606866  3.028966
 
 Applying Cartesian multipole field
    Component          Value
    ---------          -----
     (2,0,0)        1.00000E-11
     (0,2,0)        2.00000E-11
     (0,0,2)       -3.00000E-11
 Nucleus-field energy     =    -0.0000000252 hartrees
 Requested basis set is 6-311++G(2df,2p)
 There are 78 shells and 254 basis functions
 A cutoff of  1.0D-12 yielded   2923 shell pairs
 There are     31363 function pairs (     39257 Cartesian)
 Smallest overlap matrix eigenvalue = 2.20E-04
 Guess MOs from SCF MO coefficient file

 -----------------------------------------------------------------------
  General SCF calculation program by
  Eric Jon Sundstrom, Paul Horn, Yuezhi Mao, Dmitri Zuev, Alec White,
  David Stuck, Shaama M.S., Shane Yost, Joonho Lee, David Small,
  Daniel Levine, Susi Lehtola, Hugh Burton, Evgeny Epifanovsky,
  Bang C. Huynh
 -----------------------------------------------------------------------
 Exchange:     0.1500 Hartree-Fock + 1.0000 wB97M-V + LR-HF
 Correlation:  1.0000 wB97M-V
 Using SG-2 standard quadrature grid
 Nonlocal Correlation:  VV10 with C = 0.0100 and b = 6.00 and scale = 1.00000
 Grid used for NLC:  SG-1 standard quadrature
 
 Citation of the SMD model:
 Marenich, A.V.; Cramer, C.J.; Truhlar, D.G.
 J. Phys. Chem. B 2009, 113, 6378-6396.
 iSolventCode=           1
 Solvent: water                                                           
 
 vradii
            1           2           3           4           5           6
    1   1.8500000   1.8500000   1.5200000   1.5200000   1.5200000   1.2000000
            7           8           9          10          11
    1   1.2000000   1.2000000   1.2000000   1.5200000   1.2000000
 -------------------------------------------------------
 OpenMP BLAS3 based DFT computing Module                
 Release: version 1.0, May 2013, Q-Chem Inc. Pittsburgh 
 -------------------------------------------------------
 A unrestricted SCF calculation will be
 performed using Roothaan-Hall, DIIS, GDM
 SCF converges when RMS gradient is below 1.0e-07
 ---------------------------------------
  Cycle       Energy         DIIS error
 ---------------------------------------
    1    -380.0325120978      5.01e-04  Roothaan Step
 ---------------------------------------
  Cycle       Energy         DIIS error
 ---------------------------------------
    1    -380.0781553335      6.10e-04  
    2    -380.0874561915      6.12e-04  Done DIIS. Switching to GDM
 ---------------------------------------
  Cycle       Energy        RMS Gradient
 ---------------------------------------
    1    -380.0874561915      2.31e-02   Normal BFGS step
    2    -380.0847465394      4.13e-02  Line search: overstep
    3    -380.0950809466      6.50e-03   Normal BFGS step
    4    -380.0954694536      2.17e-03   Normal BFGS step
    5    -380.0955477970      2.02e-03   Normal BFGS step
    6    -380.0955715606      3.89e-04   Normal BFGS step
    7    -380.0955751682      3.34e-04   Normal BFGS step
    8    -380.0955763135      1.25e-04   Normal BFGS step
    9    -380.0955764575      3.90e-05   Normal BFGS step
   10    -380.0955764674      1.65e-05   Normal BFGS step
   11    -380.0955764727      6.91e-06   Normal BFGS step
   12    -380.0955764732      5.26e-06   Normal BFGS step
   13    -380.0955764733      2.23e-06   Normal BFGS step
   14    -380.0955764734      7.16e-07   Normal BFGS step
   15    -380.0955764734      2.22e-07   Normal BFGS step
   16    -380.0955764734      1.02e-07   Normal BFGS step
   17    -380.0955764734      4.27e-08  Convergence criterion met
 ---------------------------------------
 SCF time:   CPU 660.64s  wall 43.00s 
<S^2> =          0.754220989
(3)  G-ENP(liq) elect-nuc-pol free energy of system     -380.095576473 a.u.
(4)  G-CDS(liq) cavity-dispersion-solvent structure 
     free energy                                                5.0522 kcal/mol
(6)  G-S(liq) free energy of system                     -380.087525320 a.u.
 SCF   energy in the final basis set =     -380.0875253199
 Total energy in the final basis set =     -380.0875253199
 
 --------------------------------------------------------------
 
                    Orbital Energies (a.u.)
 --------------------------------------------------------------
 
 Alpha MOs
 -- Occupied --
-19.3808 -19.3796 -19.3645 -19.3148 -10.4691 -10.4674  -1.2470  -1.2142
 -1.1790  -1.1366  -0.8065  -0.7437  -0.6995  -0.6679  -0.6430  -0.6026
 -0.5661  -0.5497  -0.5159  -0.4999  -0.4768  -0.4640  -0.4351  -0.3917
 -0.2730
 -- Virtual --
  0.0271   0.0419   0.0504   0.0566   0.0783   0.0927   0.1030   0.1047
  0.1178   0.1296   0.1453   0.1493   0.1533   0.1732   0.2115   0.2340
  0.2362   0.2474   0.2553   0.2570   0.2682   0.2813   0.2957   0.3008
  0.3163   0.3234   0.3335   0.3362   0.3498   0.3503   0.3556   0.3632
  0.3661   0.3992   0.4108   0.4229   0.4309   0.4563   0.4798   0.5764
  0.5879   0.6047   0.6196   0.6233   0.6514   0.6594   0.6828   0.6891
  0.6968   0.7035   0.7261   0.7704   0.8256   0.8674   0.8904   0.8977
  0.9229   0.9624   0.9834   1.0089   1.0532   1.0712   1.0741   1.0988
  1.1181   1.1265   1.1437   1.1477   1.1690   1.1780   1.1903   1.2019
  1.2176   1.2322   1.2554   1.2677   1.2795   1.3297   1.3406   1.3859
  1.4038   1.4204   1.4598   1.4957   1.5062   1.5309   1.5436   1.5808
  1.6117   1.6255   1.6850   1.7178   1.7913   1.8246   1.8602   1.8689
  1.8913   1.9354   1.9541   2.0568   2.0945   2.1046   2.1946   2.2330
  2.2676   2.3286   2.3464   2.3776   2.3907   2.4366   2.4775   2.5091
  2.5380   2.6380   2.6846   2.7360   2.7774   2.7931   2.8971   3.0218
  3.0818   3.1440   3.1875   3.1934   3.2137   3.2663   3.2850   3.3119
  3.3399   3.3775   3.4000   3.4646   3.4743   3.5194   3.5354   3.5824
  3.6254   3.6588   3.7172   3.7325   3.7645   3.7771   3.8120   3.8217
  3.8692   3.8779   3.8980   3.9336   3.9554   4.0769   4.0978   4.1238
  4.1730   4.2010   4.2732   4.2929   4.3229   4.3764   4.4464   4.4619
  4.5027   5.0656   5.1450   5.1742   5.1838   5.1870   5.1984   5.2114
  5.2188   5.2460   5.2528   5.2617   5.2775   5.2921   5.3039   5.3205
  5.4161   5.4361   5.4594   5.5082   5.5348   5.5451   5.5497   5.6033
  5.6226   5.6430   5.7765   5.7873   5.9498   5.9988   6.0081   6.0593
  6.1229   6.3225   6.3462   6.5587   6.6148   6.7734   6.8849   6.9498
  7.0060   7.0327   7.0497   7.0733   7.1344   7.2005   7.2625   7.2668
  7.3011   7.3215   7.3345   7.3639   7.3742   7.4076   7.4295   7.4829
  7.6292   7.6908   7.7493   7.7692   7.8016   7.8237   7.8316  24.8884
 25.0512  50.5501  50.5676  50.6455  50.7326
 
 Beta MOs
 -- Occupied --
-19.3776 -19.3771 -19.3633 -19.3099 -10.4669 -10.4601  -1.2394  -1.2100
 -1.1724  -1.1297  -0.7916  -0.7358  -0.6913  -0.6618  -0.6351  -0.5816
 -0.5594  -0.5444  -0.5025  -0.4932  -0.4670  -0.4454  -0.4131  -0.3853
 -- Virtual --
 -0.0025   0.0273   0.0411   0.0500   0.0562   0.0776   0.0933   0.1028
  0.1053   0.1220   0.1385   0.1461   0.1507   0.1685   0.1830   0.2136
  0.2349   0.2374   0.2476   0.2562   0.2589   0.2690   0.2813   0.2981
  0.3027   0.3184   0.3245   0.3352   0.3420   0.3510   0.3521   0.3565
  0.3638   0.3694   0.4010   0.4201   0.4270   0.4312   0.4574   0.4859
  0.5803   0.5959   0.6099   0.6217   0.6272   0.6563   0.6637   0.6918
  0.6967   0.7046   0.7087   0.7305   0.7779   0.8282   0.8702   0.8930
  0.9006   0.9311   0.9648   0.9859   1.0154   1.0575   1.0740   1.0781
  1.1049   1.1225   1.1300   1.1476   1.1532   1.1731   1.1828   1.1938
  1.2043   1.2230   1.2404   1.2618   1.2729   1.2849   1.3353   1.3453
  1.3956   1.4127   1.4248   1.4636   1.5005   1.5086   1.5350   1.5496
  1.5879   1.6208   1.6311   1.6915   1.7266   1.7957   1.8311   1.8684
  1.8747   1.8976   1.9423   1.9617   2.0628   2.1039   2.1135   2.2008
  2.2382   2.2719   2.3333   2.3507   2.3853   2.3947   2.4475   2.4836
  2.5153   2.5450   2.6636   2.7001   2.7501   2.7898   2.8064   2.9170
  3.0443   3.1071   3.1622   3.2131   3.2142   3.2308   3.2929   3.3179
  3.3289   3.3606   3.4053   3.4199   3.4774   3.4962   3.5428   3.5505
  3.6146   3.6417   3.6785   3.7407   3.7439   3.7769   3.7920   3.8226
  3.8310   3.8818   3.8860   3.9074   3.9486   3.9828   4.0921   4.1084
  4.1506   4.1789   4.2059   4.2947   4.2973   4.3286   4.3898   4.4647
  4.4757   4.5224   5.0793   5.1611   5.1838   5.1972   5.1999   5.2093
  5.2234   5.2339   5.2540   5.2605   5.2704   5.2860   5.2976   5.3186
  5.3404   5.4226   5.4452   5.4658   5.5169   5.5433   5.5546   5.5568
  5.6087   5.6295   5.6480   5.7893   5.7996   5.9664   6.0072   6.0182
  6.0644   6.1295   6.3306   6.3603   6.5690   6.6181   6.7789   6.8941
  6.9691   7.0232   7.0443   7.0619   7.0808   7.1416   7.2071   7.2680
  7.2747   7.3065   7.3300   7.3451   7.3766   7.3825   7.4124   7.4458
  7.4893   7.6356   7.6969   7.7536   7.7767   7.8078   7.8281   7.8370
 24.8963  25.0518  50.5523  50.5694  50.6478  50.7360
 --------------------------------------------------------------
 
          Ground-State Mulliken Net Atomic Charges

     Atom                 Charge (a.u.)    Spin (a.u.)
  --------------------------------------------------------
      1 C                     0.013994       0.093186
      2 C                    -0.048969       0.511998
      3 O                    -0.335893       0.085757
      4 O                    -0.350730       0.071279
      5 O                    -0.336535       0.037203
      6 H                     0.344335      -0.002005
      7 H                     0.362010      -0.000132
      8 H                     0.279975       0.022720
      9 H                     0.293686       0.007901
     10 O                    -0.548778       0.173539
     11 H                     0.326905      -0.001447
  --------------------------------------------------------
  Sum of atomic charges =     0.000000
  Sum of spin   charges =     1.000000

 -----------------------------------------------------------------
                    Cartesian Multipole Moments
 -----------------------------------------------------------------
    Charge (ESU x 10^10)
                -0.0000
    Dipole Moment (Debye)
         X      -2.5836      Y      -6.7594      Z       2.3282
       Tot       7.6017
    Quadrupole Moments (Debye-Ang)
        XX     -34.5721     XY     -11.9453     YY     -48.1144
        XZ      13.3876     YZ       7.0850     ZZ     -46.2763
    Octopole Moments (Debye-Ang^2)
       XXX    -126.2673    XXY     -36.7589    XYY     -61.4864
       YYY     -79.5261    XXZ      91.2085    XYZ      24.2594
       YYZ     111.1781    XZZ     -95.7492    YZZ     -12.4140
       ZZZ     296.2573
    Hexadecapole Moments (Debye-Ang^3)
      XXXX    -497.3777   XXXY    -145.9266   XXYY    -174.5944
      XYYY    -127.5745   YYYY    -409.1406   XXXZ     286.6048
      XXYZ      67.6202   XYYZ     136.7580   YYYZ     106.4447
      XXZZ    -350.5688   XYZZ     -83.2714   YYZZ    -348.2621
      XZZZ     473.1492   YZZZ       3.0300   ZZZZ   -1549.0651
 -----------------------------------------------------------------
 Calculating analytic gradient of the SCF energy
 Gradient of CDS energy
            1           2           3           4           5           6
    1   0.0037605   0.0008750  -0.0018014   0.0005099  -0.0045619   0.0001302
    2   0.0019744  -0.0027259   0.0035875  -0.0013781   0.0004894  -0.0004020
    3  -0.0017593  -0.0037939  -0.0001672   0.0037420   0.0027355   0.0001922
            7           8           9          10          11
    1  -0.0002469  -0.0000549   0.0001140   0.0008666   0.0004090
    2   0.0001911  -0.0003262   0.0002515  -0.0014903  -0.0001714
    3  -0.0003723  -0.0003594   0.0000972  -0.0002546  -0.0000602
 Gradient of SCF Energy
            1           2           3           4           5           6
    1  -0.0039135   0.0126904  -0.0003934   0.0188625  -0.0067228   0.0002280
    2   0.0106196  -0.0003544   0.0121957  -0.0036946   0.0155327  -0.0097630
    3  -0.0099057  -0.0108198  -0.0281836   0.0021757  -0.0019060   0.0271166
            7           8           9          10          11
    1  -0.0174743  -0.0012696  -0.0125214   0.0064989   0.0040153
    2   0.0028477  -0.0130845   0.0008029   0.0009328  -0.0160349
    3  -0.0012798   0.0077519   0.0111736  -0.0008792   0.0047564
 Max gradient component =       2.818E-02
 RMS gradient           =       1.116E-02
 Computing fast CPCM-SWIG gradient
 Updating gradient with PCM contributions...
 -- total gradient after adding PCM contribution --
---------------------------------------------------
  Atom         X              Y              Z     
---------------------------------------------------
   1      -0.000627      -0.000822      -0.000351
   2       0.000832       0.001223       0.000384
   3       0.000620       0.001109       0.000247
   4       0.000958       0.001829       0.000631
   5       0.000020      -0.000295       0.000102
   6      -0.000276       0.000355      -0.000094
   7      -0.001182      -0.002448      -0.000707
   8      -0.000330      -0.000604       0.000198
   9       0.000842       0.001164       0.000272
  10      -0.000347      -0.001057      -0.000021
  11      -0.000509      -0.000453      -0.000660
---------------------------------------------------
 Number of fixed atoms: 0
 Gradient time:  CPU 83.91 s  wall 7.41 s
rPathMan2.  file_steps = 952
 IRC --- Status = 4.  Checking bisector search.
 IRC --- Bisector search finished successfully.
 ------------------------------------------------------------------------
 Reaction path following.  The coordinates are cartesian              
 Step  16 E=    -380.087525 |G|=  0.004781 S_lin= 1.0381 S_tot= 1.1529
 ------------------------------------------------------------------------
  IRC -- convergence criterion reached.
 ----------------------------------------------------------------
             Standard Nuclear Orientation (Angstroms)
    I     Atom           X                Y                Z
 ----------------------------------------------------------------
    1      C       1.5662520000     0.8598144000    -1.6713106000
    2      C       0.5281843000    -0.0999606000    -2.4924856000
    3      O       1.1056629000    -1.3649253000    -2.5775764000
    4      O       0.4010119000     0.4041601000    -3.7757623000
    5      O       2.8203201000     0.8474601000    -2.3043673000
    6      H       1.0133814000    -1.8109574000    -1.7256154000
    7      H      -0.5341476000     0.4332163000    -4.0070180000
    8      H       1.6050243000     0.3461009000    -0.6907037000
    9      H      -0.4038029000    -0.0970360000    -1.9324527000
   10      O       1.0323368000     2.0390039000    -1.5911066000
   11      H       3.1273872000    -0.0675986000    -2.3488875000
 ----------------------------------------------------------------
 Nuclear Repulsion Energy =         261.34440087 hartrees
 There are       25 alpha and       24 beta electrons
 Here is where we should summarize the reaction path
 Total job time:  5478.35s(wall), 80240.64s(cpu) 
 Fri Feb  2 18:23:05 2024

        *************************************************************
        *                                                           *
        *  Thank you very much for using Q-Chem.  Have a nice day.  *
        *                                                           *
        *************************************************************


