
Running Job 1 of 2 Q_in.in
qchem Q_in.in_114108.0 /scratch/ari.fischer/qChem1789413.hpc-mn1/qchem114108/ 0
/usr/local/qchem-5.4.1/exe/qcprog.exe_s Q_in.in_114108.0 /scratch/ari.fischer/qChem1789413.hpc-mn1/qchem114108/
                  Welcome to Q-Chem
     A Quantum Leap Into The Future Of Chemistry


 Q-Chem 5.4, Q-Chem, Inc., Pleasanton, CA (2021)

 License issued to: Nanyang Technological University (site)

 E. Epifanovsky,  A. T. B. Gilbert,  Xintian Feng,  Joonho Lee,  Yuezhi Mao,  
 N. Mardirossian,  P. Pokhilko,  A. White,  M. Wormit,  M. P. Coons,  
 A. L. Dempwolff,  Zhengting Gan,  D. Hait,  P. R. Horn,  L. D. Jacobson,  
 I. Kaliman,  J. Kussmann,  A. W. Lange,  Ka Un Lao,  D. S. Levine,  Jie Liu,  
 S. C. McKenzie,  A. F. Morrison,  K. Nanda,  F. Plasser,  D. R. Rehn,  
 M. L. Vidal,  Zhi-Qiang You,  Ying Zhu,  B. Alam,  B. Albrecht,  
 A. Aldossary,  E. Alguire,  J. H. Andersen,  D. Barton,  K. Begam,  A. Behn,  
 Y. A. Bernard,  E. J. Berquist,  H. Burton,  A. Carreras,  K. Carter-Fenk,  
 R. Chakraborty,  A. D. Chien,  K. D. Closser,  V. Cofer-Shabica,  
 S. Dasgupta,  Jia Deng,  M. de Wergifosse,  M. Diedenhofen,  Hainam Do,  
 S. Ehlert,  Po-Tung Fang,  S. Fatehi,  Qingguo Feng,  T. Friedhoff,  
 J. Gayvert,  Qinghui Ge,  G. Gidofalvi,  M. Goldey,  J. Gomes,  
 C. Gonzalez-Espinoza,  S. Gulania,  A. Gunina,  M. W. D. Hanson-Heine,  
 P. H. P. Harbach,  A. W. Hauser,  M. F. Herbst,  M. Hernandez Vera,  
 M. Hodecker,  Z. C. Holden,  S. Houck,  Xunkun Huang,  Kerwin Hui,  
 B. C. Huynh,  M. Ivanov,  Hyunjun Ji,  Hanjie Jiang,  B. Kaduk,  S. Kaehler,  
 K. Khistyaev,  Jaehoon Kim,  P. Klunzinger,  Z. Koczor-Benda,  
 Joong Hoon Koh,  D. Kosenkov,  L. Koulias,  T. Kowalczyk,  C. M. Krauter,  
 K. Kue,  A. Kunitsa,  T. Kus,  A. Landau,  K. V. Lawler,  D. Lefrancois,  
 S. Lehtola,  Rain Li,  Yi-Pei Li,  Jiashu Liang,  M. Liebenthal,  
 Hung-Hsuan Lin,  You-Sheng Lin,  Fenglai Liu,  Kuan-Yu Liu,  
 M. Loipersberger,  A. Luenser,  A. Manjanath,  P. Manohar,  E. Mansoor,  
 S. F. Manzer,  Shan-Ping Mao,  A. V. Marenich,  T. Markovich,  S. Mason,  
 S. A. Maurer,  P. F. McLaughlin,  M. F. S. J. Menger,  J.-M. Mewes,  
 S. A. Mewes,  P. Morgante,  J. W. Mullinax,  K. J. Oosterbaan,  G. Paran,  
 Alexander C. Paul,  Suranjan K. Paul,  F. Pavosevic,  Zheng Pei,  S. Prager,  
 E. I. Proynov,  E. Ramos,  B. Rana,  A. E. Rask,  A. Rettig,  R. M. Richard,  
 F. Rob,  E. Rossomme,  T. Scheele,  M. Scheurer,  M. Schneider,  
 N. Sergueev,  S. M. Sharada,  W. Skomorowski,  D. W. Small,  C. J. Stein,  
 Yu-Chuan Su,  E. J. Sundstrom,  Zhen Tao,  J. Thirman,  T. Tsuchimochi,  
 N. M. Tubman,  S. P. Veccham,  O. Vydrov,  J. Wenzel,  J. Witte,  A. Yamada,  
 Kun Yao,  S. Yeganeh,  S. R. Yost,  A. Zech,  Igor Ying Zhang,  Xing Zhang,  
 Yu Zhang,  D. Zuev,  A. Aspuru-Guzik,  A. T. Bell,  N. A. Besley,  
 K. B. Bravaya,  B. R. Brooks,  D. Casanova,  Jeng-Da Chai,  S. Coriani,  
 C. J. Cramer,  A. E. DePrince, III,  R. A. DiStasio Jr.,  A. Dreuw,  
 B. D. Dunietz,  T. R. Furlani,  W. A. Goddard III,  S. Grimme,  
 S. Hammes-Schiffer,  T. Head-Gordon,  W. J. Hehre,  Chao-Ping Hsu,  
 T.-C. Jagau,  Yousung Jung,  A. Klamt,  Jing Kong,  D. S. Lambrecht,  
 WanZhen Liang,  N. J. Mayhall,  C. W. McCurdy,  J. B. Neaton,  
 C. Ochsenfeld,  J. A. Parkhill,  R. Peverati,  V. A. Rassolov,  Yihan Shao,  
 L. V. Slipchenko,  T. Stauch,  R. P. Steele,  J. E. Subotnik,  
 A. J. W. Thom,  A. Tkatchenko,  D. G. Truhlar,  T. Van Voorhis,  
 T. A. Wesolowski,  K. B. Whaley,  H. L. Woodcock III,  P. M. Zimmerman,  
 S. Faraji,  P. M. W. Gill,  M. Head-Gordon,  J. M. Herbert,  A. I. Krylov

 Additional authors for Version 5.4.1: 
 S. Kotaru,  Shaozhi Li,  Xiangyuan Li,  F. Matz,  A. Molle,  Haisheng Ren,  
 Yingli Su,  Hung-Yi Tsai,  C. Utku,  Fang Wang

 Contributors to earlier versions of Q-Chem not listed above: 
 R. D. Adamson,  B. Austin,  R. Baer,  J. Baker,  G. J. O. Beran,  
 K. Brandhorst,  S. T. Brown,  E. F. C. Byrd,  A. K. Chakraborty,  
 G. K. L. Chan,  Chun-Min Chang,  Yunqing Chen,  C.-L. Cheng,  
 Siu Hung Chien,  D. M. Chipman,  D. L. Crittenden,  H. Dachsel,  
 R. J. Doerksen,  A. D. Dutoi,  R. G. Edgar,  J. Fosso-Tande,  
 L. Fusti-Molnar,  D. Ghosh,  A. Ghysels,  A. Golubeva-Zadorozhnaya,  
 J. Gonthier,  M. S. Gordon,  S. R. Gwaltney,  G. Hawkins,  J. E. Herr,  
 A. Heyden,  S. Hirata,  E. G. Hohenstein,  G. Kedziora,  F. J. Keil,  
 C. Kelley,  Jihan Kim,  R. A. King,  R. Z. Khaliullin,  P. P. Korambath,  
 W. Kurlancheek,  A. Laurent,  A. M. Lee,  M. S. Lee,  S. V. Levchenko,  
 Ching Yeh Lin,  D. Liotard,  E. Livshits,  R. C. Lochan,  I. Lotan,  
 L. A. Martinez-Martinez,  P. E. Maslen,  N. Nair,  D. P. O'Neill,  
 D. Neuhauser,  E. Neuscamman,  C. M. Oana,  R. Olivares-Amaya,  R. Olson,  
 T. M. Perrine,  B. Peters,  P. A. Pieniazek,  A. Prociuk,  Y. M. Rhee,  
 J. Ritchie,  M. A. Rohrdanz,  E. Rosta,  N. J. Russ,  H. F. Schaefer III,  
 M. W. Schmidt,  N. E. Schultz,  S. Sharma,  N. Shenvi,  C. D. Sherrill,  
 A. C. Simmonett,  A. Sodt,  T. Stein,  D. Stuck,  K. S. Thanthiriwatte,  
 V. Vanovschi,  L. Vogt,  Tao Wang,  A. Warshel,  M. A. Watson,  
 C. F. Williams,  Q. Wu,  X. Xu,  Jun Yang,  W. Zhang,  Yan Zhao

 Please cite Q-Chem as follows:
 Y. Shao et al., Mol. Phys. 113, 184-215 (2015)
 DOI: 10.1080/00268976.2014.952696

 Q-Chem 5.4.1 for Intel X86 EM64T Linux

 Parts of Q-Chem use Armadillo 9.800.1 (Horizon Scraper).
 http://arma.sourceforge.net/

 Q-Chem begins on Tue Oct  3 07:35:39 2023  

 Host: 
0

     Scratch files written to /scratch/ari.fischer/qChem1789413.hpc-mn1/qchem114108//
 Aug1521 |scratch|qcdevops|jenkins|workspace|build_RNUM 8249   
 Processing $rem in /usr/local/qchem-5.4.1/config/preferences:
 Processing $rem in /home/ari.fischer/.qchemrc:
 Symmetry turned off for PCM/SM12/SMD calculation


!!********************************************.
!!******************Warning*******************.
!!Desired Analytical derivatives not available.
!!Finite difference job might take a long time.
!!********************************************.
!!********************************************.


 2-order derivative to be evaluated numerically with 1-order analytical derivatives

 Checking the input file for inconsistencies... 	...done.

--------------------------------------------------------------
User input:
--------------------------------------------------------------
$molecule
0 2
C    1.7915018    0.7787258   -1.6499056
C    0.5047291   -0.1586104   -2.3877816
O    0.9026162   -1.5070129   -2.3517700
O    0.3279893    0.3108408   -3.7013314
O    2.8446525    0.7002618   -2.5085847
H    0.1186379   -2.0574259   -2.4581527
H   -0.5554425    0.0622694   -3.9954950
H    1.9138586    0.3846879   -0.6942128
H   -0.4063340   -0.0138652   -1.8063719
O    1.2033134    2.0899974   -1.5983904
H    3.6160882    0.8994091   -1.9652902
$end

$rem
BASIS = 6-311++G(2df,2p)
GUI = 2
JOB_TYPE = Frequency
METHOD = wB97M-V
SCF_ALGORITHM = DIIS_GDM
MAX_SCF_CYCLES = 400
SCF_CONVERGENCE = 6
THRESH = 11
solvent_method = SMD
$end

--------------------------------------------------------------
 ----------------------------------------------------------------
             Standard Nuclear Orientation (Angstroms)
    I     Atom           X                Y                Z
 ----------------------------------------------------------------
    1      C       1.7915018000     0.7787258000    -1.6499056000
    2      C       0.5047291000    -0.1586104000    -2.3877816000
    3      O       0.9026162000    -1.5070129000    -2.3517700000
    4      O       0.3279893000     0.3108408000    -3.7013314000
    5      O       2.8446525000     0.7002618000    -2.5085847000
    6      H       0.1186379000    -2.0574259000    -2.4581527000
    7      H      -0.5554425000     0.0622694000    -3.9954950000
    8      H       1.9138586000     0.3846879000    -0.6942128000
    9      H      -0.4063340000    -0.0138652000    -1.8063719000
   10      O       1.2033134000     2.0899974000    -1.5983904000
   11      H       3.6160882000     0.8994091000    -1.9652902000
 ----------------------------------------------------------------
 Nuclear Repulsion Energy =         253.71444858 hartrees
 There are       25 alpha and       24 beta electrons
 Requested basis set is 6-311++G(2df,2p)
 There are 78 shells and 254 basis functions

 Total QAlloc Memory Limit 288000 MB
 Mega-Array Size       188 MB
 MEM_STATIC part       192 MB
 
 Citation of the SMD model:
 Marenich, A.V.; Cramer, C.J.; Truhlar, D.G.
 J. Phys. Chem. B 2009, 113, 6378-6396.
 iSolventCode=           1
 Solvent: water                                                           
 
 vradii
            1           2           3           4           5           6
    1   1.8500000   1.8500000   1.5200000   1.5200000   1.5200000   1.2000000
            7           8           9          10          11
    1   1.2000000   1.2000000   1.2000000   1.5200000   1.2000000
 Changing PCM_VDW_RADII to SMD_RADIUS
 Discretize the solute cavity surface with Lebedev spheres
	Using 110 Lebedev grid points for each H atom
	Using 194 Lebedev grid points for other atoms
	Atomic van der Waals radii will be scaled by 1.20
 Remove points where switching function is < 1.0e-08
 Keep 942 surface tesserae and discard 772 interior tesserae
 Molecular Surface Area = 109.235 Angst**2

                       Distance Matrix (Angstroms)
             C (  1)   C (  2)   O (  3)   O (  4)   O (  5)   H (  6)
   C (  2)  1.754664
   O (  3)  2.550947  1.406343
   O (  4)  2.563032  1.406071  2.335830
   O (  5)  1.361107  2.495495  2.944173  2.812097
   H (  6)  3.390500  1.938948  0.963791  2.682910  3.877956
   H (  7)  3.394591  1.938426  2.700077  0.963728  3.765446  2.703870
   H (  8)  1.040954  2.269140  2.710837  3.400470  2.063470  3.506882
   H (  9)  2.341616  1.090424  2.059199  2.058042  3.401763  2.208292
   O ( 10)  1.438073  2.483424  3.687341  2.890320  2.335340  4.372280
   H ( 11)  1.855572  3.313376  3.647350  3.764551  0.964335  4.606294
             H (  7)   H (  8)   H (  9)   O ( 10)
   H (  8)  4.135198
   H (  9)  2.195516  2.603658
   O ( 10)  3.598752  2.056816  2.657152
   H ( 11)  4.714255  2.185901  4.127857  2.715437
 
 A cutoff of  1.0D-11 yielded   2891 shell pairs
 There are     31101 function pairs (     38957 Cartesian)
 Smallest overlap matrix eigenvalue = 1.27E-04
 Guess from superposition of atomic densities
 Warning:  Energy on first SCF cycle will be non-variational
 SAD guess density has 49.000000 electrons

 -----------------------------------------------------------------------
  General SCF calculation program by
  Eric Jon Sundstrom, Paul Horn, Yuezhi Mao, Dmitri Zuev, Alec White,
  David Stuck, Shaama M.S., Shane Yost, Joonho Lee, David Small,
  Daniel Levine, Susi Lehtola, Hugh Burton, Evgeny Epifanovsky,
  Bang C. Huynh
 -----------------------------------------------------------------------
 Exchange:     0.1500 Hartree-Fock + 1.0000 wB97M-V + LR-HF
 Correlation:  1.0000 wB97M-V
 Using SG-2 standard quadrature grid
 Nonlocal Correlation:  VV10 with C = 0.0100 and b = 6.00 and scale = 1.00000
 Grid used for NLC:  SG-1 standard quadrature
 using 16 threads for integral computing
 -------------------------------------------------------
 OpenMP Integral computing Module                
 Release: version 1.0, May 2013, Q-Chem Inc. Pittsburgh 
 -------------------------------------------------------
 
 Citation of the SMD model:
 Marenich, A.V.; Cramer, C.J.; Truhlar, D.G.
 J. Phys. Chem. B 2009, 113, 6378-6396.
 iSolventCode=           1
 Solvent: water                                                           
 
 vradii
            1           2           3           4           5           6
    1   1.8500000   1.8500000   1.5200000   1.5200000   1.5200000   1.2000000
            7           8           9          10          11
    1   1.2000000   1.2000000   1.2000000   1.5200000   1.2000000
 -------------------------------------------------------
 OpenMP BLAS3 based DFT computing Module                
 Release: version 1.0, May 2013, Q-Chem Inc. Pittsburgh 
 -------------------------------------------------------
 A unrestricted SCF calculation will be
 performed using DIIS, GDM
 SCF converges when RMS gradient is below 1.0e-06
 ---------------------------------------
  Cycle       Energy         DIIS error
 ---------------------------------------
    1    -380.7668234592      1.48e-02  
    2    -379.8261021589      2.81e-03  Done DIIS. Switching to GDM
 ---------------------------------------
  Cycle       Energy        RMS Gradient
 ---------------------------------------
    1    -379.8261021589      3.48e-01   Descent step
    2    -380.0211053963      4.72e-02   Normal BFGS step
    3    -380.0468684780      6.57e-02   Normal BFGS step
    4    -380.0572618993      1.12e-02   Normal BFGS step
    5    -380.0605629896      1.24e-02   Normal BFGS step
    6    -380.0618364448      6.50e-03   Normal BFGS step
    7    -380.0619841574      2.45e-03   Normal BFGS step
    8    -380.0620328788      1.67e-03   Normal BFGS step
    9    -380.0620462894      1.14e-03   Normal BFGS step
   10    -380.0620518115      4.59e-04   Normal BFGS step
   11    -380.0620531441      2.85e-04   Normal BFGS step
   12    -380.0620536163      3.09e-04   Normal BFGS step
   13    -380.0620539360      3.16e-04   Normal BFGS step
   14    -380.0620542568      2.93e-04   Normal BFGS step
   15    -380.0620547764      2.01e-04   Normal BFGS step
   16    -380.0620551000      1.14e-04   Normal BFGS step
   17    -380.0620552782      8.08e-05   Normal BFGS step
   18    -380.0620553118      1.06e-05   Normal BFGS step
   19    -380.0620553145      4.47e-06   Normal BFGS step
   20    -380.0620553147      2.05e-06   Normal BFGS step
   21    -380.0620553145      5.57e-07  Convergence criterion met
 ---------------------------------------
 SCF time:   CPU 693.28s  wall 46.00s 
<S^2> =          0.755956748
(3)  G-ENP(liq) elect-nuc-pol free energy of system     -380.062055315 a.u.
(4)  G-CDS(liq) cavity-dispersion-solvent structure 
     free energy                                                2.8849 kcal/mol
(6)  G-S(liq) free energy of system                     -380.057457963 a.u.
 SCF   energy in the final basis set =     -380.0574579634
 Total energy in the final basis set =     -380.0574579634
 
 --------------------------------------------------------------
 
                    Orbital Energies (a.u.)
 --------------------------------------------------------------
 
 Alpha MOs
 -- Occupied --
-19.3929 -19.3607 -19.3536 -19.3529 -10.4750 -10.4644  -1.2202  -1.1992
 -1.1436  -1.1277  -0.8283  -0.7425  -0.6846  -0.6531  -0.6344  -0.5949
 -0.5789  -0.5294  -0.5129  -0.5055  -0.4431  -0.4293  -0.4245  -0.4183
 -0.3992
 -- Virtual --
  0.0254   0.0401   0.0521   0.0559   0.0740   0.0923   0.1028   0.1229
  0.1316   0.1364   0.1476   0.1630   0.1686   0.1968   0.2086   0.2301
  0.2335   0.2353   0.2453   0.2580   0.2787   0.2828   0.2890   0.2982
  0.3071   0.3157   0.3259   0.3396   0.3420   0.3472   0.3537   0.3693
  0.3729   0.3915   0.4023   0.4198   0.4374   0.4659   0.4708   0.5417
  0.5652   0.5817   0.6118   0.6221   0.6429   0.6659   0.6790   0.6883
  0.7062   0.7316   0.7384   0.7877   0.8253   0.8457   0.8613   0.9039
  0.9355   0.9448   0.9944   1.0188   1.0333   1.0756   1.1092   1.1272
  1.1289   1.1438   1.1539   1.1639   1.1800   1.1942   1.2038   1.2125
  1.2200   1.2374   1.2480   1.2755   1.2906   1.3380   1.3440   1.3732
  1.4144   1.4243   1.4726   1.4943   1.5348   1.5586   1.5670   1.5846
  1.6360   1.6535   1.6720   1.7223   1.7387   1.7712   1.7909   1.8310
  1.9023   1.9102   1.9233   2.0098   2.0581   2.0796   2.2205   2.2373
  2.2794   2.3129   2.3393   2.3574   2.3834   2.3898   2.4032   2.4572
  2.5024   2.5815   2.6566   2.7037   2.7558   2.7931   2.9194   2.9522
  3.0074   3.1367   3.1823   3.2356   3.3136   3.3223   3.3402   3.3678
  3.3958   3.4315   3.4703   3.4954   3.5446   3.5805   3.6084   3.6301
  3.6378   3.7288   3.7515   3.7715   3.7909   3.8282   3.8428   3.8604
  3.8847   3.9229   3.9373   4.0032   4.0412   4.0652   4.1472   4.1734
  4.2064   4.2664   4.2889   4.3196   4.3568   4.4241   4.4806   4.5708
  4.5826   5.0839   5.0877   5.1475   5.1588   5.1786   5.1865   5.2139
  5.2260   5.2315   5.2569   5.2655   5.2759   5.2899   5.3125   5.3423
  5.3490   5.3629   5.4012   5.4402   5.4598   5.5038   5.5409   5.6100
  5.6286   5.6415   5.6506   5.6672   5.7628   5.8060   5.8284   5.9937
  6.0143   6.0552   6.1437   6.2439   6.4516   6.4658   6.6946   6.7385
  6.8592   6.8872   7.0468   7.0747   7.1173   7.1626   7.2191   7.2350
  7.2483   7.2614   7.3129   7.3386   7.3544   7.3780   7.4930   7.5292
  7.5586   7.6582   7.6774   7.7245   7.7744   7.8409   7.8652  24.6337
 24.7831  50.4674  50.5752  50.5868  50.6320
 
 Beta MOs
 -- Occupied --
-19.3708 -19.3609 -19.3533 -19.3529 -10.4721 -10.4652  -1.2159  -1.1968
 -1.1426  -1.0807  -0.8180  -0.7356  -0.6807  -0.6487  -0.6317  -0.5828
 -0.5607  -0.5260  -0.5100  -0.4505  -0.4254  -0.4185  -0.4135  -0.4074
 -- Virtual --
 -0.0687   0.0255   0.0402   0.0522   0.0563   0.0739   0.0936   0.1039
  0.1244   0.1320   0.1371   0.1488   0.1636   0.1689   0.1984   0.2162
  0.2336   0.2342   0.2373   0.2462   0.2583   0.2799   0.2848   0.2897
  0.3011   0.3098   0.3186   0.3265   0.3416   0.3492   0.3494   0.3550
  0.3700   0.3773   0.3932   0.4059   0.4210   0.4384   0.4670   0.4708
  0.5437   0.5672   0.5837   0.6135   0.6254   0.6439   0.6682   0.6813
  0.6901   0.7066   0.7334   0.7405   0.7886   0.8270   0.8478   0.8627
  0.9045   0.9377   0.9457   0.9952   1.0218   1.0359   1.0773   1.1105
  1.1296   1.1319   1.1476   1.1614   1.1662   1.1880   1.2025   1.2076
  1.2204   1.2261   1.2436   1.2568   1.2796   1.2930   1.3418   1.3485
  1.3786   1.4168   1.4325   1.4755   1.4990   1.5439   1.5605   1.5687
  1.5891   1.6390   1.6647   1.6872   1.7331   1.7490   1.7776   1.8038
  1.8487   1.9060   1.9117   1.9301   2.0198   2.0625   2.0896   2.2253
  2.2437   2.2812   2.3154   2.3487   2.3599   2.3901   2.3911   2.4075
  2.4599   2.5047   2.5857   2.6613   2.7057   2.7567   2.7965   2.9231
  2.9558   3.0146   3.1436   3.1848   3.2386   3.3172   3.3284   3.3429
  3.3708   3.3986   3.4354   3.4758   3.4980   3.5426   3.5875   3.6112
  3.6372   3.6399   3.7332   3.7545   3.7753   3.7957   3.8294   3.8453
  3.8624   3.8867   3.9255   3.9418   4.0083   4.0437   4.0702   4.1487
  4.1761   4.2084   4.2677   4.2905   4.3216   4.3612   4.4276   4.4878
  4.5770   4.5888   5.1474   5.1617   5.1884   5.1941   5.2023   5.2073
  5.2235   5.2436   5.2560   5.2660   5.2702   5.2793   5.3047   5.3309
  5.3515   5.3590   5.3757   5.4108   5.4488   5.4851   5.5094   5.5429
  5.6129   5.6305   5.6465   5.6523   5.6762   5.7798   5.8282   5.8375
  5.9982   6.0173   6.0585   6.1457   6.2512   6.4582   6.4782   6.6984
  6.7427   6.9522   6.9915   7.0485   7.0807   7.1238   7.1834   7.2280
  7.2412   7.2624   7.2788   7.3174   7.3431   7.3603   7.4146   7.4958
  7.5383   7.5634   7.6672   7.7042   7.7289   7.7754   7.8455   7.8673
 24.6359  24.7827  50.4811  50.5762  50.5870  50.6327
 --------------------------------------------------------------
 
          Ground-State Mulliken Net Atomic Charges

     Atom                 Charge (a.u.)    Spin (a.u.)
  --------------------------------------------------------
      1 C                    -0.044195      -0.026761
      2 C                    -0.047036       0.121074
      3 O                    -0.427745       0.004063
      4 O                    -0.417309       0.002905
      5 O                    -0.382036      -0.000567
      6 H                     0.349070       0.004694
      7 H                     0.349656       0.002177
      8 H                     0.281260       0.028506
      9 H                     0.251460      -0.003864
     10 O                    -0.260969       0.866941
     11 H                     0.347844       0.000832
  --------------------------------------------------------
  Sum of atomic charges =     0.000000
  Sum of spin   charges =     1.000000

 -----------------------------------------------------------------
                    Cartesian Multipole Moments
 -----------------------------------------------------------------
    Charge (ESU x 10^10)
                 0.0000
    Dipole Moment (Debye)
         X      -2.5525      Y      -3.2168      Z       2.6328
       Tot       4.8780
    Quadrupole Moments (Debye-Ang)
        XX     -27.6662     XY       3.8703     YY     -42.1593
        XZ      17.1247     YZ       9.1530     ZZ     -47.4162
    Octopole Moments (Debye-Ang^2)
       XXX     -90.5147    XXY       2.7387    XYY     -57.3005
       YYY     -62.2000    XXZ      88.6797    XYZ      -4.0637
       YYZ      96.1795    XZZ    -112.6315    YZZ     -38.8899
       ZZZ     295.5083
    Hexadecapole Moments (Debye-Ang^3)
      XXXX    -346.1983   XXXY     -21.4875   XXYY    -150.5644
      XYYY     -88.5874   YYYY    -340.2392   XXXZ     260.7298
      XXYZ       2.3874   XYYZ     128.6472   YYYZ     113.0627
      XXZZ    -367.8297   XYZZ     -26.8302   YYZZ    -304.5010
      XZZZ     538.2318   YZZZ     138.6027   ZZZZ   -1487.7964
 -----------------------------------------------------------------
 Calculating analytic gradient of the SCF energy
 Gradient of CDS energy
            1           2           3           4           5           6
    1   0.0040393   0.0000179  -0.0006451   0.0005804  -0.0037858  -0.0000942
    2   0.0000456  -0.0018611   0.0027448  -0.0009163   0.0003559  -0.0005214
    3  -0.0019633  -0.0021313  -0.0002612   0.0025115   0.0027449   0.0000451
            7           8           9          10          11
    1  -0.0003011  -0.0000471  -0.0000978  -0.0001454   0.0004789
    2   0.0001253  -0.0001961   0.0001109   0.0001066   0.0000059
    3  -0.0004194  -0.0001134   0.0000167  -0.0003437  -0.0000858
 Gradient of SCF Energy
            1           2           3           4           5           6
    1   0.0862889  -0.0114607   0.0138852   0.0132967  -0.0291636  -0.0167234
    2  -0.0288399  -0.0175379  -0.0019326   0.0070162  -0.0029297  -0.0088841
    3   0.0588791  -0.0185885  -0.0019200  -0.0059329  -0.0192918  -0.0015081
            7           8           9          10          11
    1  -0.0168776  -0.0053266  -0.0146854  -0.0214133   0.0021799
    2  -0.0063360   0.0089293  -0.0034052   0.0509349   0.0029852
    3  -0.0021106  -0.0256560   0.0030369  -0.0047441   0.0178359
 Max gradient component =       8.629E-02
 RMS gradient           =       2.420E-02
 Computing fast CPCM-SWIG gradient
 Updating gradient with PCM contributions...
 -- total gradient after adding PCM contribution --
---------------------------------------------------
  Atom         X              Y              Z     
---------------------------------------------------
   1       0.089225      -0.031521       0.063674
   2      -0.018725      -0.018055      -0.016222
   3      -0.007207      -0.011691      -0.000887
   4      -0.009173      -0.001037      -0.008155
   5      -0.016947       0.000758      -0.004912
   6       0.001648      -0.000217      -0.000524
   7       0.001162       0.000839      -0.000696
   8      -0.007561       0.012082      -0.034116
   9      -0.003928      -0.001812      -0.001577
  10      -0.020660       0.049835      -0.002748
  11      -0.007836       0.000819       0.006162
---------------------------------------------------
 Number of fixed atoms: 0
 Gradient time:  CPU 70.65 s  wall 5.96 s
 ######################################################
 ######################################################
 # Starting finite difference calculation for IDERIV  #
 Finite diff step size:  1.88973e-03 a.u.
 ----------------------------------------------------------------
             Standard Nuclear Orientation (Angstroms)
    I     Atom           X                Y                Z
 ----------------------------------------------------------------
    1      C       1.7925018000     0.7787258000    -1.6499056000
    2      C       0.5047291000    -0.1586104000    -2.3877816000
    3      O       0.9026162000    -1.5070129000    -2.3517700000
    4      O       0.3279893000     0.3108408000    -3.7013314000
    5      O       2.8446525000     0.7002618000    -2.5085847000
    6      H       0.1186379000    -2.0574259000    -2.4581527000
    7      H      -0.5554425000     0.0622694000    -3.9954950000
    8      H       1.9138586000     0.3846879000    -0.6942128000
    9      H      -0.4063340000    -0.0138652000    -1.8063719000
   10      O       1.2033134000     2.0899974000    -1.5983904000
   11      H       3.6160882000     0.8994091000    -1.9652902000
 ----------------------------------------------------------------
 Nuclear Repulsion Energy =         253.71231059 hartrees
 There are       25 alpha and       24 beta electrons
 Discretize the solute cavity surface with Lebedev spheres
	Using 110 Lebedev grid points for each H atom
	Using 194 Lebedev grid points for other atoms
	Atomic van der Waals radii will be scaled by 1.20
 Remove points where switching function is < 1.0e-08
 Keep 942 surface tesserae and discard 772 interior tesserae
 Molecular Surface Area = 109.236 Angst**2

                       Distance Matrix (Angstroms)
             C (  1)   C (  2)   O (  3)   O (  4)   O (  5)   H (  6)
   C (  2)  1.755397
   O (  3)  2.551296  1.406343
   O (  4)  2.563603  1.406071  2.335830
   O (  5)  1.360334  2.495495  2.944173  2.812097
   H (  6)  3.390994  1.938948  0.963791  2.682910  3.877956
   H (  7)  3.395282  1.938426  2.700077  0.963728  3.765446  2.703870
   H (  8)  1.040837  2.269140  2.710837  3.400470  2.063470  3.506882
   H (  9)  2.342554  1.090424  2.059199  2.058042  3.401763  2.208292
   O ( 10)  1.438482  2.483424  3.687341  2.890320  2.335340  4.372280
   H ( 11)  1.854589  3.313376  3.647350  3.764551  0.964335  4.606294
             H (  7)   H (  8)   H (  9)   O ( 10)
   H (  8)  4.135198
   H (  9)  2.195516  2.603658
   O ( 10)  3.598752  2.056816  2.657152
   H ( 11)  4.714255  2.185901  4.127857  2.715437
 
 Requested basis set is 6-311++G(2df,2p)
 There are 78 shells and 254 basis functions
 A cutoff of  1.0D-11 yielded   2891 shell pairs
 There are     31101 function pairs (     38957 Cartesian)
 Smallest overlap matrix eigenvalue = 1.28E-04
 Guess MOs from SCF MO coefficient file

 -----------------------------------------------------------------------
  General SCF calculation program by
  Eric Jon Sundstrom, Paul Horn, Yuezhi Mao, Dmitri Zuev, Alec White,
  David Stuck, Shaama M.S., Shane Yost, Joonho Lee, David Small,
  Daniel Levine, Susi Lehtola, Hugh Burton, Evgeny Epifanovsky,
  Bang C. Huynh
 -----------------------------------------------------------------------
 Exchange:     0.1500 Hartree-Fock + 1.0000 wB97M-V + LR-HF
 Correlation:  1.0000 wB97M-V
 Using SG-2 standard quadrature grid
 Nonlocal Correlation:  VV10 with C = 0.0100 and b = 6.00 and scale = 1.00000
 Grid used for NLC:  SG-1 standard quadrature
 
 Citation of the SMD model:
 Marenich, A.V.; Cramer, C.J.; Truhlar, D.G.
 J. Phys. Chem. B 2009, 113, 6378-6396.
 iSolventCode=           1
 Solvent: water                                                           
 
 vradii
            1           2           3           4           5           6
    1   1.8500000   1.8500000   1.5200000   1.5200000   1.5200000   1.2000000
            7           8           9          10          11
    1   1.2000000   1.2000000   1.2000000   1.5200000   1.2000000
 -------------------------------------------------------
 OpenMP BLAS3 based DFT computing Module                
 Release: version 1.0, May 2013, Q-Chem Inc. Pittsburgh 
 -------------------------------------------------------
 A unrestricted SCF calculation will be
 performed using Roothaan-Hall, DIIS, GDM
 SCF converges when RMS gradient is below 1.0e-06
 ---------------------------------------
  Cycle       Energy         DIIS error
 ---------------------------------------
    1    -380.0100415559      4.57e-04  Roothaan Step
 ---------------------------------------
  Cycle       Energy         DIIS error
 ---------------------------------------
    1    -380.0495575982      5.15e-04  
    2    -380.0588280726      3.68e-04  Done DIIS. Switching to GDM
 ---------------------------------------
  Cycle       Energy        RMS Gradient
 ---------------------------------------
    1    -380.0588280726      9.47e-03   Normal BFGS step
    2    -380.0593863012      7.93e-03   Normal BFGS step
    3    -380.0618516872      1.22e-03   Normal BFGS step
    4    -380.0618828268      1.20e-03   Normal BFGS step
    5    -380.0618916535      6.70e-04   Normal BFGS step
    6    -380.0618927105      3.99e-04   Normal BFGS step
    7    -380.0618933096      2.24e-04   Normal BFGS step
    8    -380.0618935184      7.08e-05   Normal BFGS step
    9    -380.0618935499      7.40e-05   Normal BFGS step
   10    -380.0618935768      7.70e-05   Normal BFGS step
   11    -380.0618935991      7.33e-05   Normal BFGS step
   12    -380.0618936227      5.92e-05   Normal BFGS step
   13    -380.0618936404      4.78e-05   Normal BFGS step
   14    -380.0618936547      4.74e-05   Normal BFGS step
   15    -380.0618936634      1.54e-05   Normal BFGS step
   16    -380.0618936659      6.12e-06   Normal BFGS step
   17    -380.0618936662      2.96e-06   Normal BFGS step
   18    -380.0618936663      9.64e-07  Convergence criterion met
 ---------------------------------------
 SCF time:   CPU 629.79s  wall 41.00s 
<S^2> =          0.755971799
(3)  G-ENP(liq) elect-nuc-pol free energy of system     -380.061893666 a.u.
(4)  G-CDS(liq) cavity-dispersion-solvent structure 
     free energy                                                2.8897 kcal/mol
(6)  G-S(liq) free energy of system                     -380.057288702 a.u.
 SCF   energy in the final basis set =     -380.0572887019
 Total energy in the final basis set =     -380.0572887019
 
 --------------------------------------------------------------
 
                    Orbital Energies (a.u.)
 --------------------------------------------------------------
 
 Alpha MOs
 -- Occupied --
-19.3928 -19.3608 -19.3536 -19.3529 -10.4750 -10.4644  -1.2204  -1.1993
 -1.1436  -1.1276  -0.8282  -0.7425  -0.6847  -0.6531  -0.6345  -0.5949
 -0.5789  -0.5295  -0.5129  -0.5054  -0.4431  -0.4294  -0.4245  -0.4183
 -0.3990
 -- Virtual --
  0.0254   0.0401   0.0521   0.0559   0.0740   0.0923   0.1028   0.1229
  0.1316   0.1364   0.1476   0.1630   0.1686   0.1967   0.2084   0.2301
  0.2335   0.2354   0.2453   0.2579   0.2787   0.2828   0.2890   0.2983
  0.3072   0.3157   0.3259   0.3396   0.3420   0.3471   0.3537   0.3694
  0.3728   0.3915   0.4024   0.4198   0.4376   0.4659   0.4708   0.5417
  0.5653   0.5816   0.6118   0.6220   0.6429   0.6660   0.6790   0.6883
  0.7063   0.7316   0.7383   0.7877   0.8253   0.8457   0.8612   0.9039
  0.9354   0.9448   0.9944   1.0188   1.0333   1.0755   1.1092   1.1273
  1.1289   1.1438   1.1539   1.1640   1.1800   1.1942   1.2038   1.2124
  1.2200   1.2374   1.2480   1.2756   1.2905   1.3380   1.3439   1.3733
  1.4143   1.4243   1.4725   1.4942   1.5348   1.5586   1.5670   1.5846
  1.6360   1.6535   1.6721   1.7223   1.7387   1.7712   1.7909   1.8311
  1.9023   1.9102   1.9233   2.0100   2.0581   2.0796   2.2206   2.2371
  2.2794   2.3129   2.3392   2.3574   2.3835   2.3898   2.4031   2.4572
  2.5023   2.5816   2.6564   2.7038   2.7558   2.7929   2.9197   2.9521
  3.0073   3.1366   3.1823   3.2357   3.3136   3.3222   3.3405   3.3677
  3.3957   3.4312   3.4703   3.4955   3.5442   3.5803   3.6081   3.6302
  3.6378   3.7286   3.7514   3.7713   3.7907   3.8282   3.8428   3.8605
  3.8852   3.9227   3.9371   4.0031   4.0413   4.0647   4.1470   4.1733
  4.2062   4.2663   4.2889   4.3195   4.3568   4.4242   4.4807   4.5708
  4.5823   5.0840   5.0878   5.1476   5.1588   5.1786   5.1864   5.2138
  5.2260   5.2314   5.2567   5.2654   5.2759   5.2899   5.3123   5.3423
  5.3491   5.3627   5.4013   5.4403   5.4597   5.5040   5.5409   5.6099
  5.6287   5.6419   5.6506   5.6674   5.7628   5.8060   5.8287   5.9941
  6.0144   6.0556   6.1439   6.2455   6.4515   6.4653   6.6946   6.7399
  6.8593   6.8874   7.0468   7.0747   7.1173   7.1626   7.2190   7.2351
  7.2483   7.2614   7.3131   7.3387   7.3543   7.3779   7.4930   7.5292
  7.5587   7.6583   7.6775   7.7244   7.7744   7.8409   7.8652  24.6337
 24.7840  50.4674  50.5753  50.5869  50.6323
 
 Beta MOs
 -- Occupied --
-19.3706 -19.3610 -19.3533 -19.3529 -10.4721 -10.4652  -1.2161  -1.1969
 -1.1426  -1.0805  -0.8179  -0.7357  -0.6808  -0.6487  -0.6318  -0.5828
 -0.5607  -0.5261  -0.5100  -0.4505  -0.4254  -0.4185  -0.4134  -0.4074
 -- Virtual --
 -0.0687   0.0255   0.0402   0.0522   0.0563   0.0739   0.0936   0.1039
  0.1244   0.1320   0.1371   0.1488   0.1636   0.1689   0.1984   0.2159
  0.2336   0.2342   0.2373   0.2462   0.2583   0.2798   0.2848   0.2896
  0.3011   0.3099   0.3186   0.3265   0.3416   0.3491   0.3494   0.3550
  0.3701   0.3772   0.3932   0.4059   0.4210   0.4385   0.4670   0.4708
  0.5436   0.5672   0.5836   0.6135   0.6254   0.6439   0.6683   0.6813
  0.6902   0.7066   0.7334   0.7404   0.7886   0.8271   0.8478   0.8627
  0.9045   0.9377   0.9457   0.9951   1.0218   1.0359   1.0773   1.1105
  1.1297   1.1319   1.1476   1.1614   1.1662   1.1880   1.2025   1.2075
  1.2204   1.2261   1.2436   1.2569   1.2797   1.2929   1.3418   1.3484
  1.3787   1.4167   1.4325   1.4754   1.4990   1.5439   1.5606   1.5687
  1.5890   1.6390   1.6647   1.6873   1.7331   1.7490   1.7777   1.8038
  1.8488   1.9060   1.9116   1.9301   2.0199   2.0626   2.0895   2.2254
  2.2436   2.2813   2.3154   2.3487   2.3599   2.3901   2.3911   2.4074
  2.4599   2.5047   2.5858   2.6611   2.7058   2.7567   2.7964   2.9233
  2.9557   3.0145   3.1435   3.1848   3.2387   3.3171   3.3283   3.3431
  3.3708   3.3985   3.4351   3.4758   3.4981   3.5422   3.5873   3.6110
  3.6372   3.6399   3.7330   3.7545   3.7750   3.7955   3.8294   3.8453
  3.8624   3.8871   3.9253   3.9416   4.0082   4.0438   4.0697   4.1486
  4.1760   4.2082   4.2677   4.2905   4.3215   4.3611   4.4277   4.4878
  4.5770   4.5885   5.1475   5.1618   5.1883   5.1942   5.2022   5.2073
  5.2235   5.2435   5.2560   5.2659   5.2701   5.2792   5.3046   5.3309
  5.3514   5.3590   5.3757   5.4109   5.4488   5.4851   5.5096   5.5429
  5.6128   5.6305   5.6469   5.6525   5.6765   5.7800   5.8281   5.8375
  5.9987   6.0173   6.0589   6.1458   6.2528   6.4582   6.4776   6.6983
  6.7441   6.9523   6.9916   7.0485   7.0807   7.1237   7.1834   7.2280
  7.2413   7.2624   7.2789   7.3177   7.3432   7.3602   7.4145   7.4958
  7.5384   7.5635   7.6672   7.7043   7.7288   7.7753   7.8455   7.8674
 24.6358  24.7836  50.4811  50.5762  50.5871  50.6330
 --------------------------------------------------------------
 
          Ground-State Mulliken Net Atomic Charges

     Atom                 Charge (a.u.)    Spin (a.u.)
  --------------------------------------------------------
      1 C                    -0.044368      -0.026829
      2 C                    -0.047109       0.121442
      3 O                    -0.427739       0.004072
      4 O                    -0.417300       0.002900
      5 O                    -0.381417      -0.000571
      6 H                     0.349064       0.004710
      7 H                     0.349647       0.002185
      8 H                     0.281281       0.028383
      9 H                     0.251487      -0.003870
     10 O                    -0.261444       0.866739
     11 H                     0.347897       0.000839
  --------------------------------------------------------
  Sum of atomic charges =     0.000000
  Sum of spin   charges =     1.000000

 -----------------------------------------------------------------
                    Cartesian Multipole Moments
 -----------------------------------------------------------------
    Charge (ESU x 10^10)
                 0.0000
    Dipole Moment (Debye)
         X      -2.5454      Y      -3.2202      Z       2.6299
       Tot       4.8750
    Quadrupole Moments (Debye-Ang)
        XX     -27.6369     XY       3.8723     YY     -42.1685
        XZ      17.1040     YZ       9.1569     ZZ     -47.4057
    Octopole Moments (Debye-Ang^2)
       XXX     -90.4257    XXY       2.7567    XYY     -57.3053
       YYY     -62.2241    XXZ      88.6037    XYZ      -4.0726
       YYZ      96.1936    XZZ    -112.5784    YZZ     -38.8964
       ZZZ     295.4733
    Hexadecapole Moments (Debye-Ang^3)
      XXXX    -345.9443   XXXY     -21.4273   XXYY    -150.5559
      XYYY     -88.6096   YYYY    -340.3128   XXXZ     260.4965
      XXYZ       2.3399   XYYZ     128.6467   YYYZ     113.1035
      XXZZ    -367.6437   XYZZ     -26.8076   YYZZ    -304.5321
      XZZZ     538.0825   YZZZ     138.6110   ZZZZ   -1487.6795
 -----------------------------------------------------------------
 Calculating analytic gradient of the SCF energy
 Gradient of CDS energy
            1           2           3           4           5           6
    1   0.0040181   0.0000168  -0.0006456   0.0005799  -0.0037594  -0.0000942
    2   0.0000476  -0.0018615   0.0027446  -0.0009165   0.0003543  -0.0005214
    3  -0.0019447  -0.0021311  -0.0002613   0.0025116   0.0027266   0.0000452
            7           8           9          10          11
    1  -0.0003010  -0.0000488  -0.0000978  -0.0001461   0.0004781
    2   0.0001253  -0.0001961   0.0001110   0.0001064   0.0000062
    3  -0.0004194  -0.0001140   0.0000166  -0.0003434  -0.0000860
 Gradient of SCF Energy
            1           2           3           4           5           6
    1   0.0869961  -0.0115023   0.0138800   0.0132766  -0.0295263  -0.0167178
    2  -0.0289671  -0.0175180  -0.0019399   0.0070249  -0.0029384  -0.0088797
    3   0.0587336  -0.0185508  -0.0019141  -0.0059458  -0.0191658  -0.0015095
            7           8           9          10          11
    1  -0.0168686  -0.0054150  -0.0146971  -0.0215393   0.0021137
    2  -0.0063377   0.0089722  -0.0034251   0.0510161   0.0029927
    3  -0.0021098  -0.0257319   0.0030169  -0.0047218   0.0178989
 Max gradient component =       8.700E-02
 RMS gradient           =       2.429E-02
 Computing fast CPCM-SWIG gradient
 Updating gradient with PCM contributions...
 -- total gradient after adding PCM contribution --
---------------------------------------------------
  Atom         X              Y              Z     
---------------------------------------------------
   1       0.089913      -0.031654       0.063529
   2      -0.018759      -0.018036      -0.016190
   3      -0.007205      -0.011694      -0.000882
   4      -0.009185      -0.001032      -0.008168
   5      -0.017287       0.000746      -0.004788
   6       0.001650      -0.000213      -0.000524
   7       0.001165       0.000839      -0.000695
   8      -0.007640       0.012129      -0.034187
   9      -0.003947      -0.001827      -0.001591
  10      -0.020784       0.049916      -0.002723
  11      -0.007923       0.000827       0.006220
---------------------------------------------------
 Number of fixed atoms: 0
 Gradient time:  CPU 69.18 s  wall 5.92 s
 ----------------------------------------------------------------
             Standard Nuclear Orientation (Angstroms)
    I     Atom           X                Y                Z
 ----------------------------------------------------------------
    1      C       1.7905018000     0.7787258000    -1.6499056000
    2      C       0.5047291000    -0.1586104000    -2.3877816000
    3      O       0.9026162000    -1.5070129000    -2.3517700000
    4      O       0.3279893000     0.3108408000    -3.7013314000
    5      O       2.8446525000     0.7002618000    -2.5085847000
    6      H       0.1186379000    -2.0574259000    -2.4581527000
    7      H      -0.5554425000     0.0622694000    -3.9954950000
    8      H       1.9138586000     0.3846879000    -0.6942128000
    9      H      -0.4063340000    -0.0138652000    -1.8063719000
   10      O       1.2033134000     2.0899974000    -1.5983904000
   11      H       3.6160882000     0.8994091000    -1.9652902000
 ----------------------------------------------------------------
 Nuclear Repulsion Energy =         253.71659016 hartrees
 There are       25 alpha and       24 beta electrons
 Discretize the solute cavity surface with Lebedev spheres
	Using 110 Lebedev grid points for each H atom
	Using 194 Lebedev grid points for other atoms
	Atomic van der Waals radii will be scaled by 1.20
 Remove points where switching function is < 1.0e-08
 Keep 943 surface tesserae and discard 771 interior tesserae
 Molecular Surface Area = 109.235 Angst**2

                       Distance Matrix (Angstroms)
             C (  1)   C (  2)   O (  3)   O (  4)   O (  5)   H (  6)
   C (  2)  1.753930
   O (  3)  2.550599  1.406343
   O (  4)  2.562461  1.406071  2.335830
   O (  5)  1.361881  2.495495  2.944173  2.812097
   H (  6)  3.390007  1.938948  0.963791  2.682910  3.877956
   H (  7)  3.393900  1.938426  2.700077  0.963728  3.765446  2.703870
   H (  8)  1.041072  2.269140  2.710837  3.400470  2.063470  3.506882
   H (  9)  2.340677  1.090424  2.059199  2.058042  3.401763  2.208292
   O ( 10)  1.437664  2.483424  3.687341  2.890320  2.335340  4.372280
   H ( 11)  1.856555  3.313376  3.647350  3.764551  0.964335  4.606294
             H (  7)   H (  8)   H (  9)   O ( 10)
   H (  8)  4.135198
   H (  9)  2.195516  2.603658
   O ( 10)  3.598752  2.056816  2.657152
   H ( 11)  4.714255  2.185901  4.127857  2.715437
 
 Requested basis set is 6-311++G(2df,2p)
 There are 78 shells and 254 basis functions
 A cutoff of  1.0D-11 yielded   2891 shell pairs
 There are     31101 function pairs (     38957 Cartesian)
 Smallest overlap matrix eigenvalue = 1.27E-04
 Guess MOs from SCF MO coefficient file

 -----------------------------------------------------------------------
  General SCF calculation program by
  Eric Jon Sundstrom, Paul Horn, Yuezhi Mao, Dmitri Zuev, Alec White,
  David Stuck, Shaama M.S., Shane Yost, Joonho Lee, David Small,
  Daniel Levine, Susi Lehtola, Hugh Burton, Evgeny Epifanovsky,
  Bang C. Huynh
 -----------------------------------------------------------------------
 Exchange:     0.1500 Hartree-Fock + 1.0000 wB97M-V + LR-HF
 Correlation:  1.0000 wB97M-V
 Using SG-2 standard quadrature grid
 Nonlocal Correlation:  VV10 with C = 0.0100 and b = 6.00 and scale = 1.00000
 Grid used for NLC:  SG-1 standard quadrature
 
 Citation of the SMD model:
 Marenich, A.V.; Cramer, C.J.; Truhlar, D.G.
 J. Phys. Chem. B 2009, 113, 6378-6396.
 iSolventCode=           1
 Solvent: water                                                           
 
 vradii
            1           2           3           4           5           6
    1   1.8500000   1.8500000   1.5200000   1.5200000   1.5200000   1.2000000
            7           8           9          10          11
    1   1.2000000   1.2000000   1.2000000   1.5200000   1.2000000
 -------------------------------------------------------
 OpenMP BLAS3 based DFT computing Module                
 Release: version 1.0, May 2013, Q-Chem Inc. Pittsburgh 
 -------------------------------------------------------
 A unrestricted SCF calculation will be
 performed using Roothaan-Hall, DIIS, GDM
 SCF converges when RMS gradient is below 1.0e-06
 ---------------------------------------
  Cycle       Energy         DIIS error
 ---------------------------------------
    1    -380.0103526573      4.57e-04  Roothaan Step
 ---------------------------------------
  Cycle       Energy         DIIS error
 ---------------------------------------
    1    -380.0498712491      5.16e-04  
    2    -380.0591393777      3.69e-04  Done DIIS. Switching to GDM
 ---------------------------------------
  Cycle       Energy        RMS Gradient
 ---------------------------------------
    1    -380.0591393777      9.47e-03   Normal BFGS step
    2    -380.0596939169      7.94e-03   Normal BFGS step
    3    -380.0621745901      1.27e-03   Normal BFGS step
    4    -380.0622054023      1.06e-03   Normal BFGS step
    5    -380.0622139945      5.75e-04   Normal BFGS step
    6    -380.0622149166      3.28e-04   Normal BFGS step
    7    -380.0622154236      1.89e-04   Normal BFGS step
    8    -380.0622155862      5.62e-05   Normal BFGS step
    9    -380.0622156037      3.93e-05   Normal BFGS step
   10    -380.0622156110      2.61e-05   Normal BFGS step
   11    -380.0622156147      2.38e-05   Normal BFGS step
   12    -380.0622156172      2.29e-05   Normal BFGS step
   13    -380.0622156186      2.20e-05   Normal BFGS step
   14    -380.0622156204      1.76e-05   Normal BFGS step
   15    -380.0622156229      9.48e-06   Normal BFGS step
   16    -380.0622156240      5.63e-06   Normal BFGS step
   17    -380.0622156243      2.48e-06   Normal BFGS step
   18    -380.0622156244      8.02e-07  Convergence criterion met
 ---------------------------------------
 SCF time:   CPU 626.29s  wall 41.00s 
<S^2> =          0.755941472
(3)  G-ENP(liq) elect-nuc-pol free energy of system     -380.062215624 a.u.
(4)  G-CDS(liq) cavity-dispersion-solvent structure 
     free energy                                                2.8801 kcal/mol
(6)  G-S(liq) free energy of system                     -380.057625926 a.u.
 SCF   energy in the final basis set =     -380.0576259262
 Total energy in the final basis set =     -380.0576259262
 
 --------------------------------------------------------------
 
                    Orbital Energies (a.u.)
 --------------------------------------------------------------
 
 Alpha MOs
 -- Occupied --
-19.3930 -19.3606 -19.3536 -19.3529 -10.4750 -10.4644  -1.2201  -1.1991
 -1.1437  -1.1278  -0.8284  -0.7425  -0.6845  -0.6531  -0.6343  -0.5949
 -0.5789  -0.5293  -0.5129  -0.5055  -0.4431  -0.4293  -0.4246  -0.4183
 -0.3993
 -- Virtual --
  0.0254   0.0401   0.0521   0.0559   0.0740   0.0923   0.1028   0.1229
  0.1316   0.1364   0.1476   0.1630   0.1686   0.1969   0.2088   0.2301
  0.2334   0.2353   0.2453   0.2580   0.2788   0.2828   0.2890   0.2982
  0.3070   0.3157   0.3259   0.3396   0.3420   0.3472   0.3537   0.3693
  0.3730   0.3916   0.4022   0.4199   0.4373   0.4659   0.4708   0.5418
  0.5652   0.5817   0.6118   0.6221   0.6429   0.6658   0.6790   0.6882
  0.7062   0.7316   0.7385   0.7877   0.8253   0.8457   0.8613   0.9039
  0.9355   0.9448   0.9945   1.0188   1.0334   1.0756   1.1093   1.1272
  1.1289   1.1438   1.1540   1.1639   1.1800   1.1941   1.2038   1.2126
  1.2199   1.2374   1.2479   1.2753   1.2907   1.3379   1.3440   1.3732
  1.4146   1.4242   1.4727   1.4943   1.5347   1.5585   1.5670   1.5847
  1.6360   1.6536   1.6719   1.7223   1.7387   1.7712   1.7909   1.8309
  1.9023   1.9103   1.9233   2.0097   2.0581   2.0796   2.2204   2.2374
  2.2793   2.3129   2.3394   2.3574   2.3834   2.3899   2.4034   2.4572
  2.5024   2.5813   2.6568   2.7037   2.7558   2.7932   2.9192   2.9523
  3.0075   3.1369   3.1822   3.2354   3.3136   3.3224   3.3400   3.3678
  3.3959   3.4318   3.4703   3.4954   3.5450   3.5807   3.6086   3.6301
  3.6378   3.7290   3.7516   3.7718   3.7911   3.8283   3.8428   3.8604
  3.8843   3.9231   3.9375   4.0033   4.0410   4.0656   4.1473   4.1734
  4.2066   4.2664   4.2890   4.3196   4.3568   4.4240   4.4806   4.5708
  4.5828   5.0838   5.0876   5.1474   5.1589   5.1787   5.1865   5.2139
  5.2260   5.2316   5.2570   5.2655   5.2760   5.2899   5.3126   5.3424
  5.3489   5.3630   5.4011   5.4402   5.4599   5.5036   5.5409   5.6101
  5.6285   5.6410   5.6505   5.6670   5.7627   5.8061   5.8282   5.9933
  6.0143   6.0548   6.1436   6.2423   6.4517   6.4663   6.6947   6.7371
  6.8591   6.8871   7.0468   7.0747   7.1174   7.1626   7.2191   7.2350
  7.2483   7.2614   7.3127   7.3385   7.3544   7.3780   7.4930   7.5291
  7.5584   7.6581   7.6774   7.7245   7.7745   7.8408   7.8652  24.6338
 24.7822  50.4674  50.5752  50.5867  50.6318
 
 Beta MOs
 -- Occupied --
-19.3709 -19.3608 -19.3533 -19.3529 -10.4721 -10.4652  -1.2158  -1.1967
 -1.1426  -1.0809  -0.8181  -0.7356  -0.6806  -0.6488  -0.6316  -0.5828
 -0.5607  -0.5259  -0.5100  -0.4506  -0.4254  -0.4185  -0.4136  -0.4075
 -- Virtual --
 -0.0688   0.0255   0.0402   0.0522   0.0563   0.0739   0.0936   0.1039
  0.1243   0.1320   0.1371   0.1488   0.1636   0.1690   0.1985   0.2164
  0.2337   0.2342   0.2372   0.2462   0.2583   0.2799   0.2848   0.2897
  0.3010   0.3097   0.3186   0.3265   0.3416   0.3492   0.3494   0.3550
  0.3700   0.3774   0.3932   0.4058   0.4210   0.4382   0.4670   0.4708
  0.5437   0.5671   0.5837   0.6135   0.6255   0.6439   0.6680   0.6813
  0.6901   0.7066   0.7334   0.7406   0.7886   0.8270   0.8478   0.8628
  0.9045   0.9377   0.9457   0.9952   1.0218   1.0359   1.0774   1.1106
  1.1296   1.1319   1.1476   1.1615   1.1661   1.1880   1.2025   1.2076
  1.2204   1.2261   1.2435   1.2568   1.2794   1.2931   1.3417   1.3486
  1.3786   1.4170   1.4325   1.4755   1.4990   1.5439   1.5605   1.5687
  1.5891   1.6391   1.6648   1.6871   1.7331   1.7490   1.7776   1.8038
  1.8486   1.9060   1.9117   1.9301   2.0197   2.0625   2.0897   2.2252
  2.2439   2.2812   2.3154   2.3487   2.3599   2.3902   2.3912   2.4077
  2.4599   2.5047   2.5856   2.6614   2.7056   2.7567   2.7966   2.9228
  2.9559   3.0147   3.1438   3.1847   3.2384   3.3172   3.3285   3.3426
  3.3709   3.3987   3.4358   3.4758   3.4980   3.5430   3.5877   3.6114
  3.6371   3.6399   3.7334   3.7546   3.7755   3.7959   3.8294   3.8453
  3.8623   3.8863   3.9257   3.9420   4.0084   4.0436   4.0706   4.1489
  4.1762   4.2086   4.2678   4.2905   4.3216   4.3612   4.4275   4.4878
  4.5770   4.5890   5.1474   5.1616   5.1884   5.1941   5.2025   5.2074
  5.2235   5.2437   5.2560   5.2661   5.2702   5.2793   5.3047   5.3309
  5.3515   5.3590   5.3758   5.4107   5.4487   5.4850   5.5093   5.5429
  5.6130   5.6304   5.6461   5.6522   5.6758   5.7796   5.8283   5.8375
  5.9977   6.0173   6.0582   6.1455   6.2496   6.4582   6.4789   6.6984
  6.7412   6.9522   6.9914   7.0485   7.0807   7.1238   7.1833   7.2280
  7.2412   7.2624   7.2788   7.3172   7.3431   7.3603   7.4148   7.4958
  7.5383   7.5632   7.6672   7.7040   7.7290   7.7754   7.8454   7.8673
 24.6359  24.7818  50.4811  50.5761  50.5869  50.6325
 --------------------------------------------------------------
 
          Ground-State Mulliken Net Atomic Charges

     Atom                 Charge (a.u.)    Spin (a.u.)
  --------------------------------------------------------
      1 C                    -0.044021      -0.026687
      2 C                    -0.046961       0.120702
      3 O                    -0.427752       0.004055
      4 O                    -0.417320       0.002911
      5 O                    -0.382655      -0.000563
      6 H                     0.349077       0.004678
      7 H                     0.349665       0.002168
      8 H                     0.281239       0.028629
      9 H                     0.251433      -0.003857
     10 O                    -0.260496       0.867141
     11 H                     0.347792       0.000824
  --------------------------------------------------------
  Sum of atomic charges =     0.000000
  Sum of spin   charges =     1.000000

 -----------------------------------------------------------------
                    Cartesian Multipole Moments
 -----------------------------------------------------------------
    Charge (ESU x 10^10)
                 0.0000
    Dipole Moment (Debye)
         X      -2.5595      Y      -3.2134      Z       2.6357
       Tot       4.8810
    Quadrupole Moments (Debye-Ang)
        XX     -27.6955     XY       3.8684     YY     -42.1502
        XZ      17.1454     YZ       9.1490     ZZ     -47.4267
    Octopole Moments (Debye-Ang^2)
       XXX     -90.6037    XXY       2.7208    XYY     -57.2957
       YYY     -62.1759    XXZ      88.7556    XYZ      -4.0548
       YYZ      96.1654    XZZ    -112.6845    YZZ     -38.8835
       ZZZ     295.5431
    Hexadecapole Moments (Debye-Ang^3)
      XXXX    -346.4521   XXXY     -21.5478   XXYY    -150.5730
      XYYY     -88.5652   YYYY    -340.1657   XXXZ     260.9629
      XXYZ       2.4348   XYYZ     128.6477   YYYZ     113.0219
      XXZZ    -368.0154   XYZZ     -26.8527   YYZZ    -304.4699
      XZZZ     538.3809   YZZZ     138.5944   ZZZZ   -1487.9129
 -----------------------------------------------------------------
 Calculating analytic gradient of the SCF energy
 Gradient of CDS energy
            1           2           3           4           5           6
    1   0.0040602   0.0000190  -0.0006446   0.0005809  -0.0038121  -0.0000943
    2   0.0000436  -0.0018608   0.0027450  -0.0009162   0.0003575  -0.0005213
    3  -0.0019817  -0.0021316  -0.0002612   0.0025114   0.0027629   0.0000451
            7           8           9          10          11
    1  -0.0003011  -0.0000454  -0.0000978  -0.0001446   0.0004797
    2   0.0001253  -0.0001962   0.0001108   0.0001068   0.0000055
    3  -0.0004194  -0.0001128   0.0000168  -0.0003440  -0.0000856
 Gradient of SCF Energy
            1           2           3           4           5           6
    1   0.0855825  -0.0114187   0.0138902   0.0133167  -0.0288024  -0.0167288
    2  -0.0287126  -0.0175578  -0.0019255   0.0070075  -0.0029209  -0.0088884
    3   0.0590225  -0.0186263  -0.0019258  -0.0059199  -0.0194165  -0.0015066
            7           8           9          10          11
    1  -0.0168864  -0.0052382  -0.0146737  -0.0212870   0.0022458
    2  -0.0063343   0.0088861  -0.0033853   0.0508534   0.0029776
    3  -0.0021113  -0.0255796   0.0030570  -0.0047664   0.0177729
 Max gradient component =       8.558E-02
 RMS gradient           =       2.410E-02
 Computing fast CPCM-SWIG gradient
 Updating gradient with PCM contributions...
 -- total gradient after adding PCM contribution --
---------------------------------------------------
  Atom         X              Y              Z     
---------------------------------------------------
   1       0.088539      -0.031387       0.063817
   2      -0.018690      -0.018074      -0.016255
   3      -0.007209      -0.011688      -0.000891
   4      -0.009162      -0.001042      -0.008142
   5      -0.016608       0.000770      -0.005034
   6       0.001646      -0.000222      -0.000523
   7       0.001158       0.000839      -0.000697
   8      -0.007481       0.012034      -0.034043
   9      -0.003909      -0.001797      -0.001564
  10      -0.020536       0.049754      -0.002772
  11      -0.007749       0.000812       0.006103
---------------------------------------------------
 Number of fixed atoms: 0
 Gradient time:  CPU 70.63 s  wall 5.99 s
 ----------------------------------------------------------------
             Standard Nuclear Orientation (Angstroms)
    I     Atom           X                Y                Z
 ----------------------------------------------------------------
    1      C       1.7915018000     0.7797258000    -1.6499056000
    2      C       0.5047291000    -0.1586104000    -2.3877816000
    3      O       0.9026162000    -1.5070129000    -2.3517700000
    4      O       0.3279893000     0.3108408000    -3.7013314000
    5      O       2.8446525000     0.7002618000    -2.5085847000
    6      H       0.1186379000    -2.0574259000    -2.4581527000
    7      H      -0.5554425000     0.0622694000    -3.9954950000
    8      H       1.9138586000     0.3846879000    -0.6942128000
    9      H      -0.4063340000    -0.0138652000    -1.8063719000
   10      O       1.2033134000     2.0899974000    -1.5983904000
   11      H       3.6160882000     0.8994091000    -1.9652902000
 ----------------------------------------------------------------
 Nuclear Repulsion Energy =         253.71581483 hartrees
 There are       25 alpha and       24 beta electrons
 Discretize the solute cavity surface with Lebedev spheres
	Using 110 Lebedev grid points for each H atom
	Using 194 Lebedev grid points for other atoms
	Atomic van der Waals radii will be scaled by 1.20
 Remove points where switching function is < 1.0e-08
 Keep 942 surface tesserae and discard 772 interior tesserae
 Molecular Surface Area = 109.236 Angst**2

                       Distance Matrix (Angstroms)
             C (  1)   C (  2)   O (  3)   O (  4)   O (  5)   H (  6)
   C (  2)  1.755198
   O (  3)  2.551843  1.406343
   O (  4)  2.563215  1.406071  2.335830
   O (  5)  1.361165  2.495495  2.944173  2.812097
   H (  6)  3.391337  1.938948  0.963791  2.682910  3.877956
   H (  7)  3.394802  1.938426  2.700077  0.963728  3.765446  2.703870
   H (  8)  1.041333  2.269140  2.710837  3.400470  2.063470  3.506882
   H (  9)  2.341954  1.090424  2.059199  2.058042  3.401763  2.208292
   O ( 10)  1.437161  2.483424  3.687341  2.890320  2.335340  4.372280
   H ( 11)  1.855507  3.313376  3.647350  3.764551  0.964335  4.606294
             H (  7)   H (  8)   H (  9)   O ( 10)
   H (  8)  4.135198
   H (  9)  2.195516  2.603658
   O ( 10)  3.598752  2.056816  2.657152
   H ( 11)  4.714255  2.185901  4.127857  2.715437
 
 Requested basis set is 6-311++G(2df,2p)
 There are 78 shells and 254 basis functions
 A cutoff of  1.0D-11 yielded   2891 shell pairs
 There are     31101 function pairs (     38957 Cartesian)
 Smallest overlap matrix eigenvalue = 1.28E-04
 Guess MOs from SCF MO coefficient file

 -----------------------------------------------------------------------
  General SCF calculation program by
  Eric Jon Sundstrom, Paul Horn, Yuezhi Mao, Dmitri Zuev, Alec White,
  David Stuck, Shaama M.S., Shane Yost, Joonho Lee, David Small,
  Daniel Levine, Susi Lehtola, Hugh Burton, Evgeny Epifanovsky,
  Bang C. Huynh
 -----------------------------------------------------------------------
 Exchange:     0.1500 Hartree-Fock + 1.0000 wB97M-V + LR-HF
 Correlation:  1.0000 wB97M-V
 Using SG-2 standard quadrature grid
 Nonlocal Correlation:  VV10 with C = 0.0100 and b = 6.00 and scale = 1.00000
 Grid used for NLC:  SG-1 standard quadrature
 
 Citation of the SMD model:
 Marenich, A.V.; Cramer, C.J.; Truhlar, D.G.
 J. Phys. Chem. B 2009, 113, 6378-6396.
 iSolventCode=           1
 Solvent: water                                                           
 
 vradii
            1           2           3           4           5           6
    1   1.8500000   1.8500000   1.5200000   1.5200000   1.5200000   1.2000000
            7           8           9          10          11
    1   1.2000000   1.2000000   1.2000000   1.5200000   1.2000000
 -------------------------------------------------------
 OpenMP BLAS3 based DFT computing Module                
 Release: version 1.0, May 2013, Q-Chem Inc. Pittsburgh 
 -------------------------------------------------------
 A unrestricted SCF calculation will be
 performed using Roothaan-Hall, DIIS, GDM
 SCF converges when RMS gradient is below 1.0e-06
 ---------------------------------------
  Cycle       Energy         DIIS error
 ---------------------------------------
    1    -380.0102719019      4.57e-04  Roothaan Step
 ---------------------------------------
  Cycle       Energy         DIIS error
 ---------------------------------------
    1    -380.0497793230      5.15e-04  
    2    -380.0590518486      3.68e-04  Done DIIS. Switching to GDM
 ---------------------------------------
  Cycle       Energy        RMS Gradient
 ---------------------------------------
    1    -380.0590518486      9.43e-03   Normal BFGS step
    2    -380.0596114203      7.89e-03   Normal BFGS step
    3    -380.0620718822      1.28e-03   Normal BFGS step
    4    -380.0621034211      1.25e-03   Normal BFGS step
    5    -380.0621124759      7.06e-04   Normal BFGS step
    6    -380.0621136313      4.14e-04   Normal BFGS step
    7    -380.0621142815      2.24e-04   Normal BFGS step
    8    -380.0621145017      7.85e-05   Normal BFGS step
    9    -380.0621145358      7.99e-05   Normal BFGS step
   10    -380.0621145668      8.20e-05   Normal BFGS step
   11    -380.0621145925      7.75e-05   Normal BFGS step
   12    -380.0621146191      6.23e-05   Normal BFGS step
   13    -380.0621146392      5.08e-05   Normal BFGS step
   14    -380.0621146550      4.86e-05   Normal BFGS step
   15    -380.0621146644      1.46e-05   Normal BFGS step
   16    -380.0621146670      6.09e-06   Normal BFGS step
   17    -380.0621146673      2.83e-06   Normal BFGS step
   18    -380.0621146673      9.47e-07  Convergence criterion met
 ---------------------------------------
 SCF time:   CPU 627.47s  wall 42.00s 
<S^2> =          0.755984975
(3)  G-ENP(liq) elect-nuc-pol free energy of system     -380.062114667 a.u.
(4)  G-CDS(liq) cavity-dispersion-solvent structure 
     free energy                                                2.8849 kcal/mol
(6)  G-S(liq) free energy of system                     -380.057517232 a.u.
 SCF   energy in the final basis set =     -380.0575172316
 Total energy in the final basis set =     -380.0575172316
 
 --------------------------------------------------------------
 
                    Orbital Energies (a.u.)
 --------------------------------------------------------------
 
 Alpha MOs
 -- Occupied --
-19.3929 -19.3607 -19.3537 -19.3530 -10.4751 -10.4644  -1.2202  -1.1992
 -1.1437  -1.1279  -0.8282  -0.7425  -0.6845  -0.6531  -0.6344  -0.5950
 -0.5790  -0.5294  -0.5129  -0.5055  -0.4430  -0.4294  -0.4246  -0.4183
 -0.3990
 -- Virtual --
  0.0254   0.0401   0.0521   0.0559   0.0740   0.0923   0.1028   0.1229
  0.1316   0.1364   0.1476   0.1630   0.1686   0.1968   0.2085   0.2301
  0.2334   0.2354   0.2453   0.2579   0.2788   0.2828   0.2890   0.2982
  0.3071   0.3157   0.3259   0.3396   0.3420   0.3471   0.3537   0.3694
  0.3730   0.3915   0.4023   0.4199   0.4374   0.4659   0.4708   0.5417
  0.5652   0.5817   0.6118   0.6221   0.6429   0.6659   0.6789   0.6883
  0.7062   0.7315   0.7382   0.7877   0.8252   0.8457   0.8613   0.9039
  0.9354   0.9448   0.9944   1.0188   1.0334   1.0755   1.1092   1.1272
  1.1289   1.1438   1.1539   1.1639   1.1800   1.1941   1.2037   1.2125
  1.2200   1.2374   1.2480   1.2754   1.2905   1.3378   1.3440   1.3733
  1.4144   1.4242   1.4726   1.4943   1.5348   1.5586   1.5669   1.5845
  1.6360   1.6536   1.6720   1.7224   1.7387   1.7710   1.7909   1.8312
  1.9023   1.9102   1.9233   2.0098   2.0582   2.0798   2.2206   2.2373
  2.2794   2.3128   2.3397   2.3575   2.3837   2.3897   2.4033   2.4574
  2.5024   2.5818   2.6565   2.7037   2.7557   2.7929   2.9194   2.9523
  3.0071   3.1369   3.1822   3.2355   3.3137   3.3221   3.3402   3.3676
  3.3959   3.4314   3.4702   3.4956   3.5446   3.5804   3.6083   3.6300
  3.6375   3.7286   3.7514   3.7717   3.7912   3.8282   3.8428   3.8605
  3.8844   3.9226   3.9371   4.0032   4.0408   4.0645   4.1471   4.1731
  4.2063   4.2663   4.2889   4.3195   4.3562   4.4239   4.4801   4.5704
  4.5820   5.0840   5.0878   5.1477   5.1591   5.1788   5.1865   5.2138
  5.2260   5.2315   5.2567   5.2654   5.2759   5.2895   5.3125   5.3423
  5.3490   5.3628   5.4012   5.4403   5.4601   5.5039   5.5409   5.6100
  5.6286   5.6419   5.6506   5.6673   5.7635   5.8067   5.8283   5.9939
  6.0142   6.0550   6.1438   6.2455   6.4520   6.4669   6.6946   6.7387
  6.8594   6.8874   7.0468   7.0748   7.1173   7.1628   7.2192   7.2351
  7.2484   7.2614   7.3130   7.3386   7.3544   7.3780   7.4930   7.5293
  7.5585   7.6584   7.6775   7.7244   7.7744   7.8409   7.8652  24.6335
 24.7835  50.4677  50.5752  50.5867  50.6321
 
 Beta MOs
 -- Occupied --
-19.3707 -19.3608 -19.3534 -19.3529 -10.4722 -10.4652  -1.2159  -1.1968
 -1.1426  -1.0810  -0.8179  -0.7356  -0.6807  -0.6488  -0.6317  -0.5828
 -0.5608  -0.5260  -0.5100  -0.4505  -0.4255  -0.4185  -0.4135  -0.4075
 -- Virtual --
 -0.0688   0.0255   0.0402   0.0522   0.0563   0.0739   0.0936   0.1039
  0.1243   0.1320   0.1371   0.1488   0.1636   0.1689   0.1984   0.2161
  0.2336   0.2342   0.2373   0.2462   0.2582   0.2799   0.2849   0.2897
  0.3011   0.3099   0.3186   0.3265   0.3416   0.3492   0.3494   0.3550
  0.3700   0.3774   0.3932   0.4059   0.4211   0.4383   0.4670   0.4708
  0.5437   0.5672   0.5837   0.6135   0.6254   0.6439   0.6682   0.6812
  0.6902   0.7065   0.7334   0.7403   0.7885   0.8269   0.8478   0.8627
  0.9045   0.9377   0.9458   0.9951   1.0218   1.0359   1.0773   1.1105
  1.1296   1.1319   1.1476   1.1614   1.1662   1.1880   1.2024   1.2075
  1.2203   1.2261   1.2435   1.2568   1.2795   1.2930   1.3416   1.3484
  1.3787   1.4169   1.4325   1.4755   1.4990   1.5439   1.5605   1.5686
  1.5889   1.6390   1.6647   1.6872   1.7331   1.7489   1.7774   1.8038
  1.8488   1.9060   1.9117   1.9301   2.0198   2.0625   2.0898   2.2253
  2.2438   2.2812   2.3153   2.3490   2.3600   2.3904   2.3911   2.4076
  2.4601   2.5047   2.5860   2.6612   2.7057   2.7566   2.7964   2.9231
  2.9559   3.0143   3.1439   3.1848   3.2385   3.3173   3.3283   3.3429
  3.3707   3.3987   3.4354   3.4757   3.4982   3.5425   3.5875   3.6112
  3.6370   3.6396   3.7331   3.7544   3.7754   3.7960   3.8293   3.8453
  3.8624   3.8864   3.9252   3.9416   4.0083   4.0434   4.0696   4.1487
  4.1758   4.2083   4.2677   4.2905   4.3216   4.3606   4.4275   4.4874
  4.5767   4.5883   5.1475   5.1616   5.1883   5.1941   5.2025   5.2074
  5.2235   5.2436   5.2560   5.2659   5.2702   5.2792   5.3043   5.3309
  5.3514   5.3590   5.3757   5.4108   5.4487   5.4854   5.5096   5.5429
  5.6129   5.6305   5.6469   5.6524   5.6761   5.7800   5.8284   5.8384
  5.9984   6.0172   6.0584   6.1457   6.2528   6.4582   6.4796   6.6983
  6.7429   6.9523   6.9916   7.0484   7.0807   7.1238   7.1835   7.2280
  7.2413   7.2623   7.2790   7.3175   7.3431   7.3603   7.4149   7.4958
  7.5384   7.5634   7.6672   7.7044   7.7289   7.7753   7.8455   7.8674
 24.6357  24.7832  50.4814  50.5762  50.5869  50.6328
 --------------------------------------------------------------
 
          Ground-State Mulliken Net Atomic Charges

     Atom                 Charge (a.u.)    Spin (a.u.)
  --------------------------------------------------------
      1 C                    -0.044194      -0.026783
      2 C                    -0.046865       0.121979
      3 O                    -0.427701       0.004084
      4 O                    -0.417240       0.002905
      5 O                    -0.382146      -0.000546
      6 H                     0.349107       0.004724
      7 H                     0.349670       0.002204
      8 H                     0.281195       0.028656
      9 H                     0.251475      -0.003878
     10 O                    -0.261164       0.865816
     11 H                     0.347863       0.000840
  --------------------------------------------------------
  Sum of atomic charges =     0.000000
  Sum of spin   charges =     1.000000

 -----------------------------------------------------------------
                    Cartesian Multipole Moments
 -----------------------------------------------------------------
    Charge (ESU x 10^10)
                 0.0000
    Dipole Moment (Debye)
         X      -2.5545      Y      -3.2186      Z       2.6317
       Tot       4.8796
    Quadrupole Moments (Debye-Ang)
        XX     -27.6720     XY       3.8687     YY     -42.1587
        XZ      17.1276     YZ       9.1567     ZZ     -47.4121
    Octopole Moments (Debye-Ang^2)
       XXX     -90.5354    XXY       2.7300    XYY     -57.3021
       YYY     -62.2241    XXZ      88.6898    XYZ      -4.0611
       YYZ      96.1762    XZZ    -112.6391    YZZ     -38.9053
       ZZZ     295.4923
    Hexadecapole Moments (Debye-Ang^3)
      XXXX    -346.2696   XXXY     -21.5305   XXYY    -150.5754
      XYYY     -88.6230   YYYY    -340.2772   XXXZ     260.7717
      XXYZ       2.4043   XYYZ     128.6466   YYYZ     113.1070
      XXZZ    -367.8573   XYZZ     -26.8501   YYZZ    -304.5002
      XZZZ     538.2545   YZZZ     138.6577   ZZZZ   -1487.7315
 -----------------------------------------------------------------
 Calculating analytic gradient of the SCF energy
 Gradient of CDS energy
            1           2           3           4           5           6
    1   0.0040412   0.0000174  -0.0006448   0.0005804  -0.0037877  -0.0000942
    2   0.0000439  -0.0018617   0.0027449  -0.0009164   0.0003592  -0.0005214
    3  -0.0019650  -0.0021312  -0.0002611   0.0025114   0.0027464   0.0000452
            7           8           9          10          11
    1  -0.0003011  -0.0000467  -0.0000978  -0.0001458   0.0004789
    2   0.0001253  -0.0001967   0.0001109   0.0001065   0.0000054
    3  -0.0004194  -0.0001131   0.0000166  -0.0003439  -0.0000857
 Gradient of SCF Energy
            1           2           3           4           5           6
    1   0.0861543  -0.0112981   0.0138397   0.0132874  -0.0291650  -0.0167190
    2  -0.0285150  -0.0175184  -0.0020036   0.0070275  -0.0030180  -0.0088958
    3   0.0584915  -0.0184954  -0.0019317  -0.0059453  -0.0192534  -0.0015163
            7           8           9          10          11
    1  -0.0168774  -0.0052637  -0.0146981  -0.0214235   0.0021633
    2  -0.0063347   0.0088081  -0.0034101   0.0508674   0.0029926
    3  -0.0021113  -0.0253985   0.0030305  -0.0047096   0.0178395
 Max gradient component =       8.615E-02
 RMS gradient           =       2.412E-02
 Computing fast CPCM-SWIG gradient
 Updating gradient with PCM contributions...
 -- total gradient after adding PCM contribution --
---------------------------------------------------
  Atom         X              Y              Z     
---------------------------------------------------
   1       0.089091      -0.031206       0.063277
   2      -0.018562      -0.018036      -0.016129
   3      -0.007259      -0.011771      -0.000900
   4      -0.009186      -0.001027      -0.008170
   5      -0.016953       0.000669      -0.004879
   6       0.001659      -0.000223      -0.000530
   7       0.001166       0.000843      -0.000695
   8      -0.007495       0.011967      -0.033848
   9      -0.003936      -0.001817      -0.001585
  10      -0.020677       0.049775      -0.002711
  11      -0.007847       0.000827       0.006169
---------------------------------------------------
 Number of fixed atoms: 0
 Gradient time:  CPU 70.48 s  wall 5.94 s
 ----------------------------------------------------------------
             Standard Nuclear Orientation (Angstroms)
    I     Atom           X                Y                Z
 ----------------------------------------------------------------
    1      C       1.7915018000     0.7777258000    -1.6499056000
    2      C       0.5047291000    -0.1586104000    -2.3877816000
    3      O       0.9026162000    -1.5070129000    -2.3517700000
    4      O       0.3279893000     0.3108408000    -3.7013314000
    5      O       2.8446525000     0.7002618000    -2.5085847000
    6      H       0.1186379000    -2.0574259000    -2.4581527000
    7      H      -0.5554425000     0.0622694000    -3.9954950000
    8      H       1.9138586000     0.3846879000    -0.6942128000
    9      H      -0.4063340000    -0.0138652000    -1.8063719000
   10      O       1.2033134000     2.0899974000    -1.5983904000
   11      H       3.6160882000     0.8994091000    -1.9652902000
 ----------------------------------------------------------------
 Nuclear Repulsion Energy =         253.71308318 hartrees
 There are       25 alpha and       24 beta electrons
 Discretize the solute cavity surface with Lebedev spheres
	Using 110 Lebedev grid points for each H atom
	Using 194 Lebedev grid points for other atoms
	Atomic van der Waals radii will be scaled by 1.20
 Remove points where switching function is < 1.0e-08
 Keep 942 surface tesserae and discard 772 interior tesserae
 Molecular Surface Area = 109.234 Angst**2

                       Distance Matrix (Angstroms)
             C (  1)   C (  2)   O (  3)   O (  4)   O (  5)   H (  6)
   C (  2)  1.754130
   O (  3)  2.550051  1.406343
   O (  4)  2.562850  1.406071  2.335830
   O (  5)  1.361050  2.495495  2.944173  2.812097
   H (  6)  3.389664  1.938948  0.963791  2.682910  3.877956
   H (  7)  3.394380  1.938426  2.700077  0.963728  3.765446  2.703870
   H (  8)  1.040576  2.269140  2.710837  3.400470  2.063470  3.506882
   H (  9)  2.341277  1.090424  2.059199  2.058042  3.401763  2.208292
   O ( 10)  1.438984  2.483424  3.687341  2.890320  2.335340  4.372280
   H ( 11)  1.855637  3.313376  3.647350  3.764551  0.964335  4.606294
             H (  7)   H (  8)   H (  9)   O ( 10)
   H (  8)  4.135198
   H (  9)  2.195516  2.603658
   O ( 10)  3.598752  2.056816  2.657152
   H ( 11)  4.714255  2.185901  4.127857  2.715437
 
 Requested basis set is 6-311++G(2df,2p)
 There are 78 shells and 254 basis functions
 A cutoff of  1.0D-11 yielded   2891 shell pairs
 There are     31101 function pairs (     38957 Cartesian)
 Smallest overlap matrix eigenvalue = 1.27E-04
 Guess MOs from SCF MO coefficient file

 -----------------------------------------------------------------------
  General SCF calculation program by
  Eric Jon Sundstrom, Paul Horn, Yuezhi Mao, Dmitri Zuev, Alec White,
  David Stuck, Shaama M.S., Shane Yost, Joonho Lee, David Small,
  Daniel Levine, Susi Lehtola, Hugh Burton, Evgeny Epifanovsky,
  Bang C. Huynh
 -----------------------------------------------------------------------
 Exchange:     0.1500 Hartree-Fock + 1.0000 wB97M-V + LR-HF
 Correlation:  1.0000 wB97M-V
 Using SG-2 standard quadrature grid
 Nonlocal Correlation:  VV10 with C = 0.0100 and b = 6.00 and scale = 1.00000
 Grid used for NLC:  SG-1 standard quadrature
 
 Citation of the SMD model:
 Marenich, A.V.; Cramer, C.J.; Truhlar, D.G.
 J. Phys. Chem. B 2009, 113, 6378-6396.
 iSolventCode=           1
 Solvent: water                                                           
 
 vradii
            1           2           3           4           5           6
    1   1.8500000   1.8500000   1.5200000   1.5200000   1.5200000   1.2000000
            7           8           9          10          11
    1   1.2000000   1.2000000   1.2000000   1.5200000   1.2000000
 -------------------------------------------------------
 OpenMP BLAS3 based DFT computing Module                
 Release: version 1.0, May 2013, Q-Chem Inc. Pittsburgh 
 -------------------------------------------------------
 A unrestricted SCF calculation will be
 performed using Roothaan-Hall, DIIS, GDM
 SCF converges when RMS gradient is below 1.0e-06
 ---------------------------------------
  Cycle       Energy         DIIS error
 ---------------------------------------
    1    -380.0101213877      4.57e-04  Roothaan Step
 ---------------------------------------
  Cycle       Energy         DIIS error
 ---------------------------------------
    1    -380.0496442871      5.16e-04  
    2    -380.0589170886      3.69e-04  Done DIIS. Switching to GDM
 ---------------------------------------
  Cycle       Energy        RMS Gradient
 ---------------------------------------
    1    -380.0589170886      9.51e-03   Normal BFGS step
    2    -380.0594708056      7.98e-03   Normal BFGS step
    3    -380.0619551498      1.13e-03   Normal BFGS step
    4    -380.0619854812      1.05e-03   Normal BFGS step
    5    -380.0619938201      5.64e-04   Normal BFGS step
    6    -380.0619946534      3.38e-04   Normal BFGS step
    7    -380.0619951235      2.06e-04   Normal BFGS step
    8    -380.0619952893      6.90e-05   Normal BFGS step
    9    -380.0619953113      4.78e-05   Normal BFGS step
   10    -380.0619953237      4.85e-05   Normal BFGS step
   11    -380.0619953329      4.82e-05   Normal BFGS step
   12    -380.0619953425      4.18e-05   Normal BFGS step
   13    -380.0619953495      3.47e-05   Normal BFGS step
   14    -380.0619953565      3.33e-05   Normal BFGS step
   15    -380.0619953620      1.53e-05   Normal BFGS step
   16    -380.0619953642      5.80e-06   Normal BFGS step
   17    -380.0619953645      2.55e-06   Normal BFGS step
   18    -380.0619953646      1.08e-06   Normal BFGS step
   19    -380.0619953644      3.63e-07  Convergence criterion met
 ---------------------------------------
 SCF time:   CPU 652.39s  wall 43.00s 
<S^2> =          0.755928665
(3)  G-ENP(liq) elect-nuc-pol free energy of system     -380.061995364 a.u.
(4)  G-CDS(liq) cavity-dispersion-solvent structure 
     free energy                                                2.8848 kcal/mol
(6)  G-S(liq) free energy of system                     -380.057398101 a.u.
 SCF   energy in the final basis set =     -380.0573981010
 Total energy in the final basis set =     -380.0573981010
 
 --------------------------------------------------------------
 
                    Orbital Energies (a.u.)
 --------------------------------------------------------------
 
 Alpha MOs
 -- Occupied --
-19.3930 -19.3607 -19.3536 -19.3529 -10.4749 -10.4644  -1.2202  -1.1992
 -1.1436  -1.1275  -0.8283  -0.7425  -0.6846  -0.6531  -0.6344  -0.5949
 -0.5788  -0.5294  -0.5129  -0.5055  -0.4432  -0.4293  -0.4245  -0.4183
 -0.3993
 -- Virtual --
  0.0254   0.0401   0.0521   0.0559   0.0740   0.0923   0.1028   0.1230
  0.1316   0.1364   0.1476   0.1630   0.1686   0.1969   0.2087   0.2300
  0.2335   0.2353   0.2453   0.2580   0.2787   0.2827   0.2889   0.2982
  0.3071   0.3157   0.3259   0.3396   0.3420   0.3472   0.3537   0.3693
  0.3728   0.3916   0.4023   0.4198   0.4375   0.4659   0.4708   0.5418
  0.5653   0.5816   0.6118   0.6221   0.6429   0.6659   0.6790   0.6883
  0.7063   0.7316   0.7386   0.7878   0.8254   0.8457   0.8613   0.9039
  0.9355   0.9448   0.9945   1.0188   1.0333   1.0756   1.1093   1.1272
  1.1289   1.1438   1.1540   1.1639   1.1800   1.1942   1.2039   1.2125
  1.2200   1.2375   1.2479   1.2755   1.2907   1.3381   1.3440   1.3732
  1.4144   1.4243   1.4726   1.4942   1.5347   1.5586   1.5671   1.5848
  1.6361   1.6535   1.6720   1.7223   1.7387   1.7714   1.7909   1.8308
  1.9022   1.9102   1.9233   2.0099   2.0581   2.0794   2.2205   2.2372
  2.2794   2.3130   2.3389   2.3573   2.3832   2.3899   2.4032   2.4570
  2.5023   2.5812   2.6567   2.7038   2.7559   2.7932   2.9195   2.9521
  3.0076   3.1365   3.1823   3.2356   3.3135   3.3225   3.3402   3.3679
  3.3957   3.4316   3.4704   3.4953   3.5447   3.5806   3.6085   3.6303
  3.6382   3.7289   3.7516   3.7714   3.7906   3.8283   3.8428   3.8604
  3.8851   3.9231   3.9375   4.0033   4.0415   4.0658   4.1473   4.1737
  4.2065   4.2664   4.2890   4.3196   4.3574   4.4242   4.4811   4.5712
  4.5831   5.0839   5.0877   5.1473   5.1585   5.1785   5.1864   5.2139
  5.2260   5.2315   5.2570   5.2655   5.2760   5.2903   5.3124   5.3423
  5.3490   5.3629   5.4012   5.4402   5.4596   5.5037   5.5409   5.6100
  5.6285   5.6410   5.6506   5.6672   5.7620   5.8054   5.8286   5.9936
  6.0144   6.0553   6.1437   6.2424   6.4512   6.4648   6.6947   6.7383
  6.8591   6.8870   7.0469   7.0747   7.1173   7.1624   7.2189   7.2350
  7.2481   7.2615   7.3128   7.3386   7.3544   7.3779   7.4929   7.5290
  7.5586   7.6580   7.6774   7.7246   7.7745   7.8408   7.8652  24.6339
 24.7827  50.4671  50.5752  50.5868  50.6320
 
 Beta MOs
 -- Occupied --
-19.3708 -19.3609 -19.3533 -19.3529 -10.4720 -10.4652  -1.2159  -1.1968
 -1.1426  -1.0804  -0.8181  -0.7356  -0.6808  -0.6487  -0.6317  -0.5828
 -0.5606  -0.5259  -0.5100  -0.4505  -0.4254  -0.4185  -0.4135  -0.4074
 -- Virtual --
 -0.0686   0.0255   0.0402   0.0522   0.0563   0.0739   0.0936   0.1039
  0.1244   0.1320   0.1371   0.1488   0.1636   0.1689   0.1985   0.2162
  0.2337   0.2342   0.2372   0.2461   0.2583   0.2798   0.2848   0.2896
  0.3010   0.3098   0.3186   0.3265   0.3416   0.3492   0.3494   0.3550
  0.3700   0.3772   0.3932   0.4059   0.4210   0.4384   0.4670   0.4708
[...]
  2.2918   2.3208   2.3577   2.3683   2.4071   2.4254   2.4702   2.4932
  2.5125   2.6424   2.6852   2.7672   2.8121   2.8377   2.9253   3.0138
  3.0759   3.1983   3.2185   3.2333   3.2898   3.3486   3.3514   3.3771
  3.4523   3.4710   3.5114   3.5402   3.5655   3.5934   3.6112   3.6642
  3.6712   3.7602   3.7905   3.8002   3.8159   3.8378   3.8581   3.8874
  3.9098   3.9577   3.9832   4.0485   4.0784   4.1495   4.1634   4.2293
  4.2515   4.2581   4.2910   4.3359   4.3678   4.3821   4.4555   4.5653
  4.6280   5.0923   5.1144   5.1711   5.1851   5.1936   5.2043   5.2267
  5.2339   5.2557   5.2717   5.2806   5.2872   5.2968   5.3266   5.3444
  5.3998   5.4228   5.4457   5.4728   5.4954   5.4989   5.5496   5.5801
  5.6212   5.6581   5.6930   5.7581   5.9106   5.9411   5.9727   5.9952
  6.0263   6.1423   6.1950   6.3739   6.5184   6.5724   6.7695   6.9030
  6.9287   6.9700   7.0517   7.0999   7.1197   7.1954   7.2562   7.2599
  7.3068   7.3222   7.3277   7.3867   7.3950   7.4194   7.4578   7.4661
  7.6437   7.6806   7.6961   7.7601   7.8011   7.8278   7.8649  24.7551
 24.9043  50.5425  50.5753  50.6110  50.6625
 
 Beta MOs
 -- Occupied --
-19.3615 -19.3591 -19.3534 -19.3500 -10.4749 -10.4564  -1.2278  -1.1917
 -1.1541  -1.1192  -0.8231  -0.7318  -0.6891  -0.6460  -0.6441  -0.5867
 -0.5623  -0.5317  -0.4940  -0.4750  -0.4515  -0.4289  -0.4057  -0.3884
 -- Virtual --
 -0.0746   0.0257   0.0425   0.0511   0.0560   0.0783   0.0936   0.1072
  0.1103   0.1251   0.1437   0.1469   0.1523   0.1711   0.2098   0.2309
  0.2366   0.2472   0.2521   0.2566   0.2704   0.2806   0.2858   0.2909
  0.3083   0.3218   0.3232   0.3366   0.3401   0.3511   0.3555   0.3642
  0.3659   0.3723   0.3978   0.4037   0.4276   0.4540   0.4655   0.4768
  0.5672   0.5831   0.5975   0.6056   0.6331   0.6423   0.6525   0.6826
  0.6842   0.7116   0.7349   0.7527   0.7827   0.8288   0.8470   0.8899
  0.9247   0.9664   0.9709   1.0075   1.0252   1.0559   1.0785   1.0867
  1.1070   1.1238   1.1404   1.1503   1.1769   1.1938   1.2025   1.2098
  1.2349   1.2539   1.2587   1.2674   1.2806   1.3361   1.3531   1.3939
  1.4017   1.4177   1.4433   1.4909   1.5072   1.5355   1.5408   1.5842
  1.6040   1.6117   1.6369   1.6777   1.7366   1.7805   1.7860   1.8533
  1.9096   1.9212   1.9343   2.0212   2.0614   2.1179   2.1609   2.2159
  2.2486   2.2938   2.3248   2.3591   2.3703   2.4106   2.4300   2.4756
  2.5028   2.5175   2.6517   2.6932   2.7749   2.8156   2.8437   2.9358
  3.0194   3.0885   3.2054   3.2258   3.2430   3.2955   3.3558   3.3576
  3.3828   3.4587   3.4780   3.5159   3.5472   3.5704   3.6035   3.6170
  3.6713   3.6763   3.7661   3.7941   3.8042   3.8206   3.8428   3.8619
  3.8897   3.9144   3.9649   3.9937   4.0544   4.0845   4.1569   4.1667
  4.2367   4.2606   4.2626   4.2937   4.3420   4.3819   4.3938   4.4641
  4.5792   4.6398   5.1330   5.1611   5.1923   5.1984   5.2176   5.2254
  5.2400   5.2445   5.2634   5.2796   5.2910   5.2997   5.3162   5.3426
  5.3653   5.4093   5.4275   5.4563   5.4904   5.5023   5.5139   5.5530
  5.5899   5.6280   5.6657   5.6974   5.7637   5.9186   5.9472   5.9774
  5.9984   6.0325   6.1517   6.2258   6.3827   6.5231   6.5777   6.7746
  6.9463   6.9934   7.0119   7.0557   7.1150   7.1286   7.2023   7.2624
  7.2646   7.3131   7.3262   7.3297   7.4006   7.4104   7.4242   7.4721
  7.5057   7.6489   7.6911   7.7095   7.7656   7.8051   7.8387   7.8670
 24.7587  24.9040  50.5461  50.5766  50.6170  50.6656
 --------------------------------------------------------------
 
          Ground-State Mulliken Net Atomic Charges

     Atom                 Charge (a.u.)    Spin (a.u.)
  --------------------------------------------------------
      1 C                    -0.047989       0.012048
      2 C                     0.027010       0.155611
      3 O                    -0.397694       0.044194
      4 O                    -0.418479       0.008869
      5 O                    -0.411580       0.025832
      6 H                     0.335738      -0.000294
      7 H                     0.357883       0.003516
      8 H                     0.293319       0.090156
      9 H                     0.267424      -0.001119
     10 O                    -0.333062       0.663650
     11 H                     0.327430      -0.002462
  --------------------------------------------------------
  Sum of atomic charges =     0.000000
  Sum of spin   charges =     1.000000

 -----------------------------------------------------------------
                    Cartesian Multipole Moments
 -----------------------------------------------------------------
    Charge (ESU x 10^10)
                -0.0000
    Dipole Moment (Debye)
         X      -3.1971      Y      -5.7481      Z       3.0483
       Tot       7.2494
    Quadrupole Moments (Debye-Ang)
        XX     -37.3981     XY     -10.0785     YY     -45.1386
        XZ      15.0968     YZ       8.0793     ZZ     -48.8465
    Octopole Moments (Debye-Ang^2)
       XXX    -138.1165    XXY     -37.5504    XYY     -57.5641
       YYY     -70.5527    XXZ      94.6089    XYZ      21.1800
       YYZ     109.5191    XZZ    -101.0646    YZZ     -23.5754
       ZZZ     302.7919
    Hexadecapole Moments (Debye-Ang^3)
      XXXX    -527.6530   XXXY    -142.7614   XXYY    -165.5754
      XYYY    -104.6543   YYYY    -343.4293   XXXZ     309.2324
      XXYZ      74.5681   XYYZ     132.6767   YYYZ     110.8128
      XXZZ    -347.5885   XYZZ     -72.9112   YYZZ    -346.4822
      XZZZ     500.8835   YZZZ      72.6697   ZZZZ   -1539.6501
 -----------------------------------------------------------------
 Calculating analytic gradient of the SCF energy
 Gradient of CDS energy
            1           2           3           4           5           6
    1   0.0015691   0.0008652  -0.0017189   0.0007349  -0.0030177   0.0000561
    2   0.0038580  -0.0025423   0.0042128  -0.0019037   0.0000621  -0.0004691
    3  -0.0003899  -0.0050171   0.0001528   0.0046904   0.0012028   0.0001780
            7           8           9          10          11
    1  -0.0003097  -0.0000377  -0.0000479   0.0014552   0.0004513
    2   0.0001451  -0.0002378   0.0001153  -0.0030485  -0.0001919
    3  -0.0003593  -0.0000515   0.0000947  -0.0004064  -0.0000944
 Gradient of SCF Energy
            1           2           3           4           5           6
    1  -0.0025947   0.0135299   0.0008410   0.0205445  -0.0040991  -0.0016259
    2   0.0063898   0.0008667   0.0113458   0.0021529   0.0140613  -0.0101896
    3  -0.0094504  -0.0075774  -0.0259551   0.0017449  -0.0028152   0.0238981
            7           8           9          10          11
    1  -0.0174852  -0.0004825  -0.0140793   0.0026884   0.0027629
    2  -0.0015247  -0.0096122  -0.0024120   0.0006691  -0.0117470
    3  -0.0006763   0.0100940   0.0083800  -0.0016605   0.0040181
 Max gradient component =       2.596E-02
 RMS gradient           =       1.024E-02
 Computing fast CPCM-SWIG gradient
 Updating gradient with PCM contributions...
 -- total gradient after adding PCM contribution --
---------------------------------------------------
  Atom         X              Y              Z     
---------------------------------------------------
   1       0.000045      -0.000261      -0.000268
   2       0.000046       0.000136       0.000069
   3       0.000075       0.000006       0.000018
   4      -0.000048      -0.000019       0.000025
   5      -0.000086      -0.000150       0.000051
   6       0.000012      -0.000024       0.000004
   7      -0.000036      -0.000021       0.000038
   8       0.000098       0.000016      -0.000008
   9      -0.000001       0.000007       0.000025
  10      -0.000169       0.000239       0.000093
  11       0.000064       0.000070      -0.000047
---------------------------------------------------
 Number of fixed atoms: 0
 Gradient time:  CPU 89.48 s  wall 7.77 s
 Geometry Optimization Parameters
   NAtoms,    NIC,     NZ,  NCons,   NDum,   NFix, NCnnct, MaxDiis
       11      65       0       0       0       0       0       0

 Cartesian Hessian Update
 Hessian updated using Powell/Murtagh-Sargent update
  Mixing factors:     0.969679 Powell                      0.030321 Murtagh-Sargent


** GEOMETRY OPTIMIZATION IN DELOCALIZED INTERNAL COORDINATES **
   Searching for a Transition State

   Optimization Cycle:  76

                       Coordinates (Angstroms)
     ATOM                X               Y               Z
      1  C         1.5662519825    0.8598143635   -1.6713106419
      2  C         0.5281843322   -0.0999606250   -2.4924856126
      3  O         1.1056629188   -1.3649253021   -2.5775764273
      4  O         0.4010118601    0.4041600638   -3.7757623497
      5  O         2.8203201158    0.8474601196   -2.3043672781
      6  H         1.0133814358   -1.8109574045   -1.7256154262
      7  H        -0.5341476189    0.4332163298   -4.0070180106
      8  H         1.6050243229    0.3461009284   -0.6907037390
      9  H        -0.4038028699   -0.0970359742   -1.9324526909
     10  O         1.0323367984    2.0390039492   -1.5911066181
     11  H         3.1273872223   -0.0675986486   -2.3488875057
   Point Group: c1    Number of degrees of freedom:    27


   Energy is   -380.080334773

 Hessian updated using Powell/Murtagh-Sargent update
  Mixing factors:     0.992904 Powell                      0.007096 Murtagh-Sargent

 27 Hessian modes will be used to form the next step
  Hessian Eigenvalues:
    -0.025137    0.000961    0.001694    0.003483    0.007417    0.053604
     0.060710    0.062151    0.076501    0.095715    0.110587    0.155187
     0.158790    0.173533    0.176733    0.181660    0.205357    0.216763
     0.284985    0.337784    0.405155    0.438830    0.461845    0.512744
     0.525998    0.526608    0.527743

 Transition state search - taking P-RFO step
 Searching for Lamda that Maximizes Along the Lowest mode
 Value Taken    Lamda =   0.00000123
 Searching for Lamda that Minimizes Along All other modes
 Value Taken    Lamda =  -0.00000277
 Step Taken.  Stepsize is  0.031774

                             Maximum     Tolerance    Cnvgd?
         Gradient           0.000166      0.000300     YES
         Displacement       0.016034      0.001200      NO
         Energy change     -0.000001      0.000001     YES


                       Distance Matrix (Angstroms)
             C (  1)   C (  2)   O (  3)   O (  4)   O (  5)   H (  6)
   C (  2)  1.634956
   O (  3)  2.446002  1.393147
   O (  4)  2.448290  1.384597  2.249855
   O (  5)  1.404849  2.487344  2.812355  2.866107
   H (  6)  2.727936  1.936754  0.966074  3.079747  3.266063
   H (  7)  3.170046  1.925262  2.822339  0.963767  3.784583  3.554710
   H (  8)  1.107698  2.145920  2.595623  3.312190  2.081397  2.464545
   H (  9)  2.205646  1.087311  2.074178  2.072852  3.380142  2.233544
   O ( 10)  1.296914  2.375252  3.544747  2.800715  2.263935  3.852357
   H ( 11)  1.938130  2.603368  2.413032  3.113142  0.966232  2.810122
             H (  7)   H (  8)   H (  9)   O ( 10)
   H (  8)  3.947352
   H (  9)  2.145222  2.402852
   O ( 10)  3.296825  2.001154  2.596475
   H ( 11)  4.050562  2.288735  3.555782  3.066145
 
 Final energy is   -380.080334773066     


 ******************************
 **  OPTIMIZATION CONVERGED  **
 ******************************

                       Coordinates (Angstroms)
     ATOM                X               Y               Z
      1  C         1.5662519825    0.8598143635   -1.6713106419
      2  C         0.5281843322   -0.0999606250   -2.4924856126
      3  O         1.1056629188   -1.3649253021   -2.5775764273
      4  O         0.4010118601    0.4041600638   -3.7757623497
      5  O         2.8203201158    0.8474601196   -2.3043672781
      6  H         1.0133814358   -1.8109574045   -1.7256154262
      7  H        -0.5341476189    0.4332163298   -4.0070180106
      8  H         1.6050243229    0.3461009284   -0.6907037390
      9  H        -0.4038028699   -0.0970359742   -1.9324526909
     10  O         1.0323367984    2.0390039492   -1.5911066181
     11  H         3.1273872223   -0.0675986486   -2.3488875057

Z-matrix Print:
$molecule
0 2
C 
H  1 1.107698
O  1 1.296914 2 112.416243
O  1 1.404849 2 111.321234 3 129.005215 0
H  4 0.966232 1 108.226890 2 53.744809 0
C  1 1.634956 2 101.222035 3 -114.611610 0
H  6 1.087311 1 106.495899 2 59.313678 0
O  6 1.384597 1 108.064601 2 -178.489576 0
H  8 0.963767 6 108.813548 1 -133.450278 0
O  6 1.393147 1 107.488565 2 -61.943901 0
H  10 0.966074 6 109.011431 1 76.588912 0
$end

 
 --------------------------------------------------------------
 
                    Orbital Energies (a.u.)
 --------------------------------------------------------------
 
 Alpha MOs
 -- Occupied --
-19.3707 -19.3628 -19.3592 -19.3505 -10.4791 -10.4561  -1.2341  -1.2032
 -1.1567  -1.1398  -0.8368  -0.7429  -0.6921  -0.6556  -0.6504  -0.6044
 -0.5812  -0.5361  -0.4995  -0.4838  -0.4645  -0.4559  -0.4322  -0.4168
 -0.3637
 -- Virtual --
  0.0257   0.0428   0.0511   0.0559   0.0785   0.0932   0.1068   0.1093
  0.1244   0.1436   0.1460   0.1526   0.1708   0.2085   0.2292   0.2356
  0.2456   0.2514   0.2566   0.2669   0.2802   0.2824   0.2885   0.3030
  0.3195   0.3218   0.3361   0.3383   0.3456   0.3545   0.3613   0.3633
  0.3683   0.3943   0.4028   0.4249   0.4500   0.4635   0.4755   0.5633
  0.5785   0.5950   0.6022   0.6322   0.6367   0.6509   0.6788   0.6810
  0.7092   0.7326   0.7486   0.7813   0.8261   0.8457   0.8879   0.9235
  0.9655   0.9698   1.0047   1.0246   1.0514   1.0756   1.0837   1.1035
  1.1220   1.1369   1.1429   1.1723   1.1846   1.2006   1.2069   1.2331
  1.2422   1.2561   1.2641   1.2741   1.3321   1.3493   1.3858   1.3970
  1.4119   1.4411   1.4838   1.5043   1.5316   1.5382   1.5768   1.6008
  1.6084   1.6299   1.6748   1.7243   1.7703   1.7748   1.8417   1.9032
  1.9156   1.9284   2.0129   2.0566   2.1130   2.1522   2.2111   2.2425
  2.2918   2.3208   2.3577   2.3683   2.4071   2.4254   2.4702   2.4932
  2.5125   2.6424   2.6852   2.7672   2.8121   2.8377   2.9253   3.0138
  3.0759   3.1983   3.2185   3.2333   3.2898   3.3486   3.3514   3.3771
  3.4523   3.4710   3.5114   3.5402   3.5655   3.5934   3.6112   3.6642
  3.6712   3.7602   3.7905   3.8002   3.8159   3.8378   3.8581   3.8874
  3.9098   3.9577   3.9832   4.0485   4.0784   4.1495   4.1634   4.2293
  4.2515   4.2581   4.2910   4.3359   4.3678   4.3821   4.4555   4.5653
  4.6280   5.0923   5.1144   5.1711   5.1851   5.1936   5.2043   5.2267
  5.2339   5.2557   5.2717   5.2806   5.2872   5.2968   5.3266   5.3444
  5.3998   5.4228   5.4457   5.4728   5.4954   5.4989   5.5496   5.5801
  5.6212   5.6581   5.6930   5.7581   5.9106   5.9411   5.9727   5.9952
  6.0263   6.1423   6.1950   6.3739   6.5184   6.5724   6.7695   6.9030
  6.9287   6.9700   7.0517   7.0999   7.1197   7.1954   7.2562   7.2599
  7.3068   7.3222   7.3277   7.3867   7.3950   7.4194   7.4578   7.4661
  7.6437   7.6806   7.6961   7.7601   7.8011   7.8278   7.8649  24.7551
 24.9043  50.5425  50.5753  50.6110  50.6625
 
 Beta MOs
 -- Occupied --
-19.3615 -19.3591 -19.3534 -19.3500 -10.4749 -10.4564  -1.2278  -1.1917
 -1.1541  -1.1192  -0.8231  -0.7318  -0.6891  -0.6460  -0.6441  -0.5867
 -0.5623  -0.5317  -0.4940  -0.4750  -0.4515  -0.4289  -0.4057  -0.3884
 -- Virtual --
 -0.0746   0.0257   0.0425   0.0511   0.0560   0.0783   0.0936   0.1072
  0.1103   0.1251   0.1437   0.1469   0.1523   0.1711   0.2098   0.2309
  0.2366   0.2472   0.2521   0.2566   0.2704   0.2806   0.2858   0.2909
  0.3083   0.3218   0.3232   0.3366   0.3401   0.3511   0.3555   0.3642
  0.3659   0.3723   0.3978   0.4037   0.4276   0.4540   0.4655   0.4768
  0.5672   0.5831   0.5975   0.6056   0.6331   0.6423   0.6525   0.6826
  0.6842   0.7116   0.7349   0.7527   0.7827   0.8288   0.8470   0.8899
  0.9247   0.9664   0.9709   1.0075   1.0252   1.0559   1.0785   1.0867
  1.1070   1.1238   1.1404   1.1503   1.1769   1.1938   1.2025   1.2098
  1.2349   1.2539   1.2587   1.2674   1.2806   1.3361   1.3531   1.3939
  1.4017   1.4177   1.4433   1.4909   1.5072   1.5355   1.5408   1.5842
  1.6040   1.6117   1.6369   1.6777   1.7366   1.7805   1.7860   1.8533
  1.9096   1.9212   1.9343   2.0212   2.0614   2.1179   2.1609   2.2159
  2.2486   2.2938   2.3248   2.3591   2.3703   2.4106   2.4300   2.4756
  2.5028   2.5175   2.6517   2.6932   2.7749   2.8156   2.8437   2.9358
  3.0194   3.0885   3.2054   3.2258   3.2430   3.2955   3.3558   3.3576
  3.3828   3.4587   3.4780   3.5159   3.5472   3.5704   3.6035   3.6170
  3.6713   3.6763   3.7661   3.7941   3.8042   3.8206   3.8428   3.8619
  3.8897   3.9144   3.9649   3.9937   4.0544   4.0845   4.1569   4.1667
  4.2367   4.2606   4.2626   4.2937   4.3420   4.3819   4.3938   4.4641
  4.5792   4.6398   5.1330   5.1611   5.1923   5.1984   5.2176   5.2254
  5.2400   5.2445   5.2634   5.2796   5.2910   5.2997   5.3162   5.3426
  5.3653   5.4093   5.4275   5.4563   5.4904   5.5023   5.5139   5.5530
  5.5899   5.6280   5.6657   5.6974   5.7637   5.9186   5.9472   5.9774
  5.9984   6.0325   6.1517   6.2258   6.3827   6.5231   6.5777   6.7746
  6.9463   6.9934   7.0119   7.0557   7.1150   7.1286   7.2023   7.2624
  7.2646   7.3131   7.3262   7.3297   7.4006   7.4104   7.4242   7.4721
  7.5057   7.6489   7.6911   7.7095   7.7656   7.8051   7.8387   7.8670
 24.7587  24.9040  50.5461  50.5766  50.6170  50.6656
 --------------------------------------------------------------
 
          Ground-State Mulliken Net Atomic Charges

     Atom                 Charge (a.u.)    Spin (a.u.)
  --------------------------------------------------------
      1 C                    -0.047989       0.012048
      2 C                     0.027010       0.155611
      3 O                    -0.397694       0.044194
      4 O                    -0.418479       0.008869
      5 O                    -0.411580       0.025832
      6 H                     0.335738      -0.000294
      7 H                     0.357883       0.003516
      8 H                     0.293319       0.090156
      9 H                     0.267424      -0.001119
     10 O                    -0.333062       0.663650
     11 H                     0.327430      -0.002462
  --------------------------------------------------------
  Sum of atomic charges =     0.000000
  Sum of spin   charges =     1.000000

 -----------------------------------------------------------------
                    Cartesian Multipole Moments
 -----------------------------------------------------------------
    Charge (ESU x 10^10)
                -0.0000
    Dipole Moment (Debye)
         X      -3.1971      Y      -5.7481      Z       3.0483
       Tot       7.2494
    Quadrupole Moments (Debye-Ang)
        XX     -37.3981     XY     -10.0785     YY     -45.1386
        XZ      15.0968     YZ       8.0793     ZZ     -48.8465
    Octopole Moments (Debye-Ang^2)
       XXX    -138.1165    XXY     -37.5504    XYY     -57.5641
       YYY     -70.5527    XXZ      94.6089    XYZ      21.1800
       YYZ     109.5191    XZZ    -101.0646    YZZ     -23.5754
       ZZZ     302.7919
    Hexadecapole Moments (Debye-Ang^3)
      XXXX    -527.6530   XXXY    -142.7614   XXYY    -165.5754
      XYYY    -104.6543   YYYY    -343.4293   XXXZ     309.2324
      XXYZ      74.5681   XYYZ     132.6767   YYYZ     110.8128
      XXZZ    -347.5885   XYZZ     -72.9112   YYZZ    -346.4822
      XZZZ     500.8835   YZZZ      72.6697   ZZZZ   -1539.6501
 -----------------------------------------------------------------
 Total job time:  4277.19s(wall), 62874.81s(cpu) 
 Tue Oct  3 09:40:48 2023

        *************************************************************
        *                                                           *
        *  Thank you very much for using Q-Chem.  Have a nice day.  *
        *                                                           *
        *************************************************************


