
Running Job 1 of 1 Q_in.in
qchem Q_in.in_232811.0 /scratch/ari.fischer/qChem1853801.hpc-mn1/qchem232811/ 0
/usr/local/qchem-5.4.1/exe/qcprog.exe_s Q_in.in_232811.0 /scratch/ari.fischer/qChem1853801.hpc-mn1/qchem232811/
                  Welcome to Q-Chem
     A Quantum Leap Into The Future Of Chemistry


 Q-Chem 5.4, Q-Chem, Inc., Pleasanton, CA (2021)

 License issued to: Nanyang Technological University (site)

 E. Epifanovsky,  A. T. B. Gilbert,  Xintian Feng,  Joonho Lee,  Yuezhi Mao,  
 N. Mardirossian,  P. Pokhilko,  A. White,  M. Wormit,  M. P. Coons,  
 A. L. Dempwolff,  Zhengting Gan,  D. Hait,  P. R. Horn,  L. D. Jacobson,  
 I. Kaliman,  J. Kussmann,  A. W. Lange,  Ka Un Lao,  D. S. Levine,  Jie Liu,  
 S. C. McKenzie,  A. F. Morrison,  K. Nanda,  F. Plasser,  D. R. Rehn,  
 M. L. Vidal,  Zhi-Qiang You,  Ying Zhu,  B. Alam,  B. Albrecht,  
 A. Aldossary,  E. Alguire,  J. H. Andersen,  D. Barton,  K. Begam,  A. Behn,  
 Y. A. Bernard,  E. J. Berquist,  H. Burton,  A. Carreras,  K. Carter-Fenk,  
 R. Chakraborty,  A. D. Chien,  K. D. Closser,  V. Cofer-Shabica,  
 S. Dasgupta,  Jia Deng,  M. de Wergifosse,  M. Diedenhofen,  Hainam Do,  
 S. Ehlert,  Po-Tung Fang,  S. Fatehi,  Qingguo Feng,  T. Friedhoff,  
 J. Gayvert,  Qinghui Ge,  G. Gidofalvi,  M. Goldey,  J. Gomes,  
 C. Gonzalez-Espinoza,  S. Gulania,  A. Gunina,  M. W. D. Hanson-Heine,  
 P. H. P. Harbach,  A. W. Hauser,  M. F. Herbst,  M. Hernandez Vera,  
 M. Hodecker,  Z. C. Holden,  S. Houck,  Xunkun Huang,  Kerwin Hui,  
 B. C. Huynh,  M. Ivanov,  Hyunjun Ji,  Hanjie Jiang,  B. Kaduk,  S. Kaehler,  
 K. Khistyaev,  Jaehoon Kim,  P. Klunzinger,  Z. Koczor-Benda,  
 Joong Hoon Koh,  D. Kosenkov,  L. Koulias,  T. Kowalczyk,  C. M. Krauter,  
 K. Kue,  A. Kunitsa,  T. Kus,  A. Landau,  K. V. Lawler,  D. Lefrancois,  
 S. Lehtola,  Rain Li,  Yi-Pei Li,  Jiashu Liang,  M. Liebenthal,  
 Hung-Hsuan Lin,  You-Sheng Lin,  Fenglai Liu,  Kuan-Yu Liu,  
 M. Loipersberger,  A. Luenser,  A. Manjanath,  P. Manohar,  E. Mansoor,  
 S. F. Manzer,  Shan-Ping Mao,  A. V. Marenich,  T. Markovich,  S. Mason,  
 S. A. Maurer,  P. F. McLaughlin,  M. F. S. J. Menger,  J.-M. Mewes,  
 S. A. Mewes,  P. Morgante,  J. W. Mullinax,  K. J. Oosterbaan,  G. Paran,  
 Alexander C. Paul,  Suranjan K. Paul,  F. Pavosevic,  Zheng Pei,  S. Prager,  
 E. I. Proynov,  E. Ramos,  B. Rana,  A. E. Rask,  A. Rettig,  R. M. Richard,  
 F. Rob,  E. Rossomme,  T. Scheele,  M. Scheurer,  M. Schneider,  
 N. Sergueev,  S. M. Sharada,  W. Skomorowski,  D. W. Small,  C. J. Stein,  
 Yu-Chuan Su,  E. J. Sundstrom,  Zhen Tao,  J. Thirman,  T. Tsuchimochi,  
 N. M. Tubman,  S. P. Veccham,  O. Vydrov,  J. Wenzel,  J. Witte,  A. Yamada,  
 Kun Yao,  S. Yeganeh,  S. R. Yost,  A. Zech,  Igor Ying Zhang,  Xing Zhang,  
 Yu Zhang,  D. Zuev,  A. Aspuru-Guzik,  A. T. Bell,  N. A. Besley,  
 K. B. Bravaya,  B. R. Brooks,  D. Casanova,  Jeng-Da Chai,  S. Coriani,  
 C. J. Cramer,  A. E. DePrince, III,  R. A. DiStasio Jr.,  A. Dreuw,  
 B. D. Dunietz,  T. R. Furlani,  W. A. Goddard III,  S. Grimme,  
 S. Hammes-Schiffer,  T. Head-Gordon,  W. J. Hehre,  Chao-Ping Hsu,  
 T.-C. Jagau,  Yousung Jung,  A. Klamt,  Jing Kong,  D. S. Lambrecht,  
 WanZhen Liang,  N. J. Mayhall,  C. W. McCurdy,  J. B. Neaton,  
 C. Ochsenfeld,  J. A. Parkhill,  R. Peverati,  V. A. Rassolov,  Yihan Shao,  
 L. V. Slipchenko,  T. Stauch,  R. P. Steele,  J. E. Subotnik,  
 A. J. W. Thom,  A. Tkatchenko,  D. G. Truhlar,  T. Van Voorhis,  
 T. A. Wesolowski,  K. B. Whaley,  H. L. Woodcock III,  P. M. Zimmerman,  
 S. Faraji,  P. M. W. Gill,  M. Head-Gordon,  J. M. Herbert,  A. I. Krylov

 Additional authors for Version 5.4.1: 
 S. Kotaru,  Shaozhi Li,  Xiangyuan Li,  F. Matz,  A. Molle,  Haisheng Ren,  
 Yingli Su,  Hung-Yi Tsai,  C. Utku,  Fang Wang

 Contributors to earlier versions of Q-Chem not listed above: 
 R. D. Adamson,  B. Austin,  R. Baer,  J. Baker,  G. J. O. Beran,  
 K. Brandhorst,  S. T. Brown,  E. F. C. Byrd,  A. K. Chakraborty,  
 G. K. L. Chan,  Chun-Min Chang,  Yunqing Chen,  C.-L. Cheng,  
 Siu Hung Chien,  D. M. Chipman,  D. L. Crittenden,  H. Dachsel,  
 R. J. Doerksen,  A. D. Dutoi,  R. G. Edgar,  J. Fosso-Tande,  
 L. Fusti-Molnar,  D. Ghosh,  A. Ghysels,  A. Golubeva-Zadorozhnaya,  
 J. Gonthier,  M. S. Gordon,  S. R. Gwaltney,  G. Hawkins,  J. E. Herr,  
 A. Heyden,  S. Hirata,  E. G. Hohenstein,  G. Kedziora,  F. J. Keil,  
 C. Kelley,  Jihan Kim,  R. A. King,  R. Z. Khaliullin,  P. P. Korambath,  
 W. Kurlancheek,  A. Laurent,  A. M. Lee,  M. S. Lee,  S. V. Levchenko,  
 Ching Yeh Lin,  D. Liotard,  E. Livshits,  R. C. Lochan,  I. Lotan,  
 L. A. Martinez-Martinez,  P. E. Maslen,  N. Nair,  D. P. O'Neill,  
 D. Neuhauser,  E. Neuscamman,  C. M. Oana,  R. Olivares-Amaya,  R. Olson,  
 T. M. Perrine,  B. Peters,  P. A. Pieniazek,  A. Prociuk,  Y. M. Rhee,  
 J. Ritchie,  M. A. Rohrdanz,  E. Rosta,  N. J. Russ,  H. F. Schaefer III,  
 M. W. Schmidt,  N. E. Schultz,  S. Sharma,  N. Shenvi,  C. D. Sherrill,  
 A. C. Simmonett,  A. Sodt,  T. Stein,  D. Stuck,  K. S. Thanthiriwatte,  
 V. Vanovschi,  L. Vogt,  Tao Wang,  A. Warshel,  M. A. Watson,  
 C. F. Williams,  Q. Wu,  X. Xu,  Jun Yang,  W. Zhang,  Yan Zhao

 Please cite Q-Chem as follows:
 Y. Shao et al., Mol. Phys. 113, 184-215 (2015)
 DOI: 10.1080/00268976.2014.952696

 Q-Chem 5.4.1 for Intel X86 EM64T Linux

 Parts of Q-Chem use Armadillo 9.800.1 (Horizon Scraper).
 http://arma.sourceforge.net/

 Q-Chem begins on Wed Dec  6 11:00:19 2023  

 Host: 
0

     Scratch files written to /scratch/ari.fischer/qChem1853801.hpc-mn1/qchem232811//
 Aug1521 |scratch|qcdevops|jenkins|workspace|build_RNUM 8249   
 Processing $rem in /usr/local/qchem-5.4.1/config/preferences:
 Processing $rem in /home/ari.fischer/.qchemrc:
 Symmetry turned off for PCM/SM12/SMD calculation

 Checking the input file for inconsistencies... 	...done.

--------------------------------------------------------------
User input:
--------------------------------------------------------------
$molecule
-1 2
O        -0.5898693698    1.4364167686   -0.2011324283
C        -0.0505459724    0.4558973035    0.6364534286
O        -0.9992020981   -0.4709441896    1.0550590018
C         1.1382211719   -0.2198854210   -0.0797845773
O         2.1150602176    0.5155082449   -0.3422678855
O         1.0091565412   -1.4439638257   -0.3063138284
H        -1.2923185257    1.8935755434    0.2782478755
H        -0.6832252495   -1.3229325128    0.7021992984
H         0.3900654810    0.9778650496    1.5657085859
O         1.5169367837    1.7843143470    2.2297602170
H         2.0821964203    1.6320557921    1.4474164122
$end

$rem
BASIS = 6-31G(d)
JOB_TYPE = SP
METHOD = wB97M-V
SCF_ALGORITHM = DIIS_GDM
MAX_SCF_CYCLES = 400
SCF_CONVERGENCE = 7
THRESH = 12
Solvent_method = SMD
$end
--------------------------------------------------------------
 ----------------------------------------------------------------
             Standard Nuclear Orientation (Angstroms)
    I     Atom           X                Y                Z
 ----------------------------------------------------------------
    1      O      -0.5898693698     1.4364167686    -0.2011324283
    2      C      -0.0505459724     0.4558973035     0.6364534286
    3      O      -0.9992020981    -0.4709441896     1.0550590018
    4      C       1.1382211719    -0.2198854210    -0.0797845773
    5      O       2.1150602176     0.5155082449    -0.3422678855
    6      O       1.0091565412    -1.4439638257    -0.3063138284
    7      H      -1.2923185257     1.8935755434     0.2782478755
    8      H      -0.6832252495    -1.3229325128     0.7021992984
    9      H       0.3900654810     0.9778650496     1.5657085859
   10      O       1.5169367837     1.7843143470     2.2297602170
   11      H       2.0821964203     1.6320557921     1.4474164122
 ----------------------------------------------------------------
 Nuclear Repulsion Energy =         316.74259526 hartrees
 There are       29 alpha and       28 beta electrons
 Requested basis set is 6-31G(d)
 There are 36 shells and 113 basis functions

 Total QAlloc Memory Limit 288000 MB
 Mega-Array Size       188 MB
 MEM_STATIC part       192 MB
 
 Citation of the SMD model:
 Marenich, A.V.; Cramer, C.J.; Truhlar, D.G.
 J. Phys. Chem. B 2009, 113, 6378-6396.
 iSolventCode=           1
 Solvent: water                                                           
 
 vradii
            1           2           3           4           5           6
    1   1.5200000   1.8500000   1.5200000   1.8500000   1.5200000   1.5200000
            7           8           9          10          11
    1   1.2000000   1.2000000   1.2000000   1.5200000   1.2000000
 Changing PCM_VDW_RADII to SMD_RADIUS
 Discretize the solute cavity surface with Lebedev spheres
	Using 110 Lebedev grid points for each H atom
	Using 194 Lebedev grid points for other atoms
	Atomic van der Waals radii will be scaled by 1.20
 Remove points where switching function is < 1.0e-08
 Keep 976 surface tesserae and discard 822 interior tesserae
 Molecular Surface Area = 115.136 Angst**2

                       Distance Matrix (Angstroms)
             O (  1)   C (  2)   O (  3)   C (  4)   O (  5)   O (  6)
   C (  2)  1.397798
   O (  3)  2.320258  1.390760
   C (  4)  2.396739  1.543647  2.432998
   O (  5)  2.860880  2.377246  3.553061  1.250566
   O (  6)  3.296140  2.370918  2.614117  1.251536  2.250299
   H (  7)  0.965523  1.933191  2.506054  3.240745  3.727511  4.096055
   H (  8)  2.904950  1.889138  0.974800  2.268453  3.507303  1.973804
   H (  9)  2.071779  1.153301  2.071201  2.168407  2.613380  3.122979
   O ( 10)  3.235569  2.600062  3.577299  3.081272  2.929667  4.136580
   H ( 11)  3.145779  2.567022  3.751209  2.579364  2.109675  3.699849
             H (  7)   H (  8)   H (  9)   O ( 10)
   H (  8)  3.301008
   H (  9)  2.307920  2.681654
   O ( 10)  3.422317  4.102333  1.536608
   H ( 11)  3.580880  4.115199  1.818039  0.977120
 
 A cutoff of  1.0D-12 yielded    628 shell pairs
 There are      6517 function pairs
 Smallest overlap matrix eigenvalue = 2.37E-03

 Scale SEOQF with 1.000000e-01/1.000000e-01/1.000000e-01

 Standard Electronic Orientation quadrupole field applied
 Nucleus-field energy     =     0.0000000021 hartrees
 Guess from superposition of atomic densities
 Warning:  Energy on first SCF cycle will be non-variational
 SAD guess density has 56.000000 electrons

 -----------------------------------------------------------------------
  General SCF calculation program by
  Eric Jon Sundstrom, Paul Horn, Yuezhi Mao, Dmitri Zuev, Alec White,
  David Stuck, Shaama M.S., Shane Yost, Joonho Lee, David Small,
  Daniel Levine, Susi Lehtola, Hugh Burton, Evgeny Epifanovsky,
  Bang C. Huynh
 -----------------------------------------------------------------------
 Exchange:     0.1500 Hartree-Fock + 1.0000 wB97M-V + LR-HF
 Correlation:  1.0000 wB97M-V
 Using SG-2 standard quadrature grid
 Nonlocal Correlation:  VV10 with C = 0.0100 and b = 6.00 and scale = 1.00000
 Grid used for NLC:  SG-1 standard quadrature
 
 Citation of the SMD model:
 Marenich, A.V.; Cramer, C.J.; Truhlar, D.G.
 J. Phys. Chem. B 2009, 113, 6378-6396.
 iSolventCode=           1
 Solvent: water                                                           
 
 vradii
            1           2           3           4           5           6
    1   1.5200000   1.8500000   1.5200000   1.8500000   1.5200000   1.5200000
            7           8           9          10          11
    1   1.2000000   1.2000000   1.2000000   1.5200000   1.2000000
 using 4 threads for integral computing
 -------------------------------------------------------
 OpenMP Integral computing Module                
 Release: version 1.0, May 2013, Q-Chem Inc. Pittsburgh 
 -------------------------------------------------------
 -------------------------------------------------------
 OpenMP BLAS3 based DFT computing Module                
 Release: version 1.0, May 2013, Q-Chem Inc. Pittsburgh 
 -------------------------------------------------------
 A unrestricted SCF calculation will be
 performed using DIIS, GDM
 SCF converges when RMS gradient is below 1.0e-07
 ---------------------------------------
  Cycle       Energy         DIIS error
 ---------------------------------------
    1    -455.4498345911      3.48e-02  
    2    -454.3502345045      7.58e-03  Done DIIS. Switching to GDM
 ---------------------------------------
  Cycle       Energy        RMS Gradient
 ---------------------------------------
    1    -454.3502345045      3.29e-01   Descent step
    2    -454.6038860375      6.34e-02   Normal BFGS step
    3    -454.6545353609      5.82e-02   Normal BFGS step
    4    -454.6597068386      2.28e-02   Normal BFGS step
    5    -454.6629505776      1.37e-02   Normal BFGS step
    6    -454.6638639972      6.41e-03   Normal BFGS step
    7    -454.6640485493      2.60e-03   Normal BFGS step
    8    -454.6640780980      8.64e-04   Normal BFGS step
    9    -454.6640831104      2.81e-04   Normal BFGS step
   10    -454.6640843085      1.62e-04   Normal BFGS step
   11    -454.6640845397      1.12e-04   Normal BFGS step
   12    -454.6640846056      8.72e-05   Normal BFGS step
   13    -454.6640846403      8.83e-05   Normal BFGS step
   14    -454.6640846596      7.26e-05   Normal BFGS step
   15    -454.6640846749      4.82e-05   Normal BFGS step
   16    -454.6640846845      3.07e-05   Normal BFGS step
   17    -454.6640846903      2.10e-05   Normal BFGS step
   18    -454.6640846922      6.47e-06   Normal BFGS step
   19    -454.6640846924      1.97e-06   Normal BFGS step
   20    -454.6640846924      8.27e-07   Normal BFGS step
   21    -454.6640846925      2.66e-07   Normal BFGS step
   22    -454.6640846925      1.13e-07   Normal BFGS step
   23    -454.6640846925      3.78e-08  Convergence criterion met
 ---------------------------------------
 SCF time:   CPU 174.25s  wall 45.00s 
<S^2> =          0.755919382
(3)  G-ENP(liq) elect-nuc-pol free energy of system     -454.664084692 a.u.
(4)  G-CDS(liq) cavity-dispersion-solvent structure 
     free energy                                                4.1292 kcal/mol
(6)  G-S(liq) free energy of system                     -454.657504337 a.u.
 SCF   energy in the final basis set =     -454.6575043367
 Total energy in the final basis set =     -454.6575043367
 
 --------------------------------------------------------------
 
                    Orbital Energies (a.u.)
 --------------------------------------------------------------
 
 Alpha MOs
 -- Occupied --
-19.3706 -19.3591 -19.3520 -19.3023 -19.2977 -10.4495 -10.4459  -1.2000
 -1.1535  -1.1283  -1.0995  -1.0700  -0.8017  -0.6747  -0.6343  -0.6044
 -0.5737  -0.5501  -0.5177  -0.5057  -0.4986  -0.4777  -0.4670  -0.4183
 -0.4012  -0.3716  -0.3570  -0.3472  -0.3342
 -- Virtual --
  0.1354   0.2092   0.2310   0.2383   0.3005   0.3655   0.3760   0.3899
  0.4498   0.5341   0.6447   0.6748   0.7043   0.7352   0.7825   0.7948
  0.8308   0.8610   0.9018   0.9107   0.9286   0.9684   0.9728   1.0121
  1.0372   1.0638   1.0956   1.1020   1.1196   1.1419   1.1608   1.1964
  1.2216   1.2367   1.3061   1.3251   1.3652   1.4463   1.4593   1.5365
  1.5731   1.6207   1.6798   1.7060   1.7919   1.7958   1.8519   1.8672
  1.8727   1.8960   1.9181   1.9615   1.9672   1.9891   1.9974   2.0302
  2.0796   2.1129   2.1548   2.2036   2.2192   2.2963   2.3334   2.3582
  2.5289   2.5720   2.5938   2.6041   2.6601   2.7678   2.8424   2.8860
  2.9473   3.0269   3.0571   3.1408   3.2723   3.7457   3.8484   3.9394
  4.1405   4.3180   4.4985   4.6970
 
 Beta MOs
 -- Occupied --
-19.3581 -19.3509 -19.3508 -19.3021 -19.2977 -10.4459 -10.4454  -1.1971
 -1.1527  -1.1256  -1.0713  -1.0469  -0.7942  -0.6682  -0.6290  -0.5911
 -0.5682  -0.5316  -0.5154  -0.5007  -0.4957  -0.4697  -0.4031  -0.3931
 -0.3884  -0.3560  -0.3491  -0.3413
 -- Virtual --
 -0.0388   0.1379   0.2104   0.2331   0.2460   0.3091   0.3693   0.3809
  0.4104   0.4515   0.5361   0.6474   0.6824   0.7065   0.7384   0.7876
  0.7960   0.8320   0.8704   0.9033   0.9200   0.9449   0.9714   0.9772
  1.0170   1.0470   1.0680   1.0984   1.1065   1.1234   1.1467   1.1705
  1.2019   1.2232   1.2421   1.3148   1.3400   1.3688   1.4532   1.4689
  1.5409   1.5770   1.6241   1.6851   1.7109   1.8003   1.8089   1.8618
  1.8795   1.8980   1.9155   1.9351   1.9675   1.9725   1.9983   2.0083
  2.0314   2.0840   2.1235   2.1614   2.2097   2.2237   2.3063   2.3359
  2.3626   2.5318   2.5760   2.6036   2.6202   2.6655   2.7719   2.8434
  2.8885   2.9506   3.0283   3.0592   3.1433   3.2744   3.7823   3.8521
  3.9428   4.1429   4.3219   4.4994   4.7052
 --------------------------------------------------------------
 
          Ground-State Mulliken Net Atomic Charges

     Atom                 Charge (a.u.)    Spin (a.u.)
  --------------------------------------------------------
      1 O                    -0.653472       0.032638
      2 C                     0.226271       0.206581
      3 O                    -0.685094       0.032504
      4 C                     0.526747      -0.001094
      5 O                    -0.658813       0.002147
      6 O                    -0.658120       0.006471
      7 H                     0.455971      -0.000195
      8 H                     0.436352       0.004967
      9 H                     0.200904      -0.054000
     10 O                    -0.624783       0.789428
     11 H                     0.434038      -0.019448
  --------------------------------------------------------
  Sum of atomic charges =    -1.000000
  Sum of spin   charges =     1.000000

 -----------------------------------------------------------------
                    Cartesian Multipole Moments
 -----------------------------------------------------------------
    Charge (ESU x 10^10)
                -4.8032
    Dipole Moment (Debye)
         X      -7.0386      Y       0.2264      Z      -0.5563
       Tot       7.0642
    Quadrupole Moments (Debye-Ang)
        XX     -53.2985     XY      -2.8457     YY     -47.9460
        XZ       0.8672     YZ      -4.1507     ZZ     -52.2414
    Octopole Moments (Debye-Ang^2)
       XXX     -95.2490    XXY      -7.2593    XYY     -43.3701
       YYY     -38.0925    XXZ     -15.2755    XYZ      -9.0631
       YYZ     -22.1889    XZZ     -33.9727    YZZ     -28.1667
       ZZZ     -83.9001
    Hexadecapole Moments (Debye-Ang^3)
      XXXX    -449.3966   XXXY     -39.3801   XXYY    -116.9777
      XYYY     -41.8688   YYYY    -351.7980   XXXZ      -5.5167
      XXYZ     -21.5301   XYYZ     -22.1056   YYYZ     -94.0394
      XXZZ    -132.8320   XYZZ     -32.7388   YYZZ    -132.7880
      XZZZ     -56.6125   YZZZ    -110.0585   ZZZZ    -347.4862
 -----------------------------------------------------------------
 Total job time:  45.29s(wall), 175.93s(cpu) 
 Wed Dec  6 11:01:05 2023

        *************************************************************
        *                                                           *
        *  Thank you very much for using Q-Chem.  Have a nice day.  *
        *                                                           *
        *************************************************************


