
Running Job 1 of 1 Q_in.in
qchem Q_in.in_12219.0 /scratch/ari.fischer/qChem1912876.hpc-mn1/qchem12219/ 0
/usr/local/qchem-5.4.1/exe/qcprog.exe_s Q_in.in_12219.0 /scratch/ari.fischer/qChem1912876.hpc-mn1/qchem12219/
                  Welcome to Q-Chem
     A Quantum Leap Into The Future Of Chemistry


 Q-Chem 5.4, Q-Chem, Inc., Pleasanton, CA (2021)

 License issued to: Nanyang Technological University (site)

 E. Epifanovsky,  A. T. B. Gilbert,  Xintian Feng,  Joonho Lee,  Yuezhi Mao,  
 N. Mardirossian,  P. Pokhilko,  A. White,  M. Wormit,  M. P. Coons,  
 A. L. Dempwolff,  Zhengting Gan,  D. Hait,  P. R. Horn,  L. D. Jacobson,  
 I. Kaliman,  J. Kussmann,  A. W. Lange,  Ka Un Lao,  D. S. Levine,  Jie Liu,  
 S. C. McKenzie,  A. F. Morrison,  K. Nanda,  F. Plasser,  D. R. Rehn,  
 M. L. Vidal,  Zhi-Qiang You,  Ying Zhu,  B. Alam,  B. Albrecht,  
 A. Aldossary,  E. Alguire,  J. H. Andersen,  D. Barton,  K. Begam,  A. Behn,  
 Y. A. Bernard,  E. J. Berquist,  H. Burton,  A. Carreras,  K. Carter-Fenk,  
 R. Chakraborty,  A. D. Chien,  K. D. Closser,  V. Cofer-Shabica,  
 S. Dasgupta,  Jia Deng,  M. de Wergifosse,  M. Diedenhofen,  Hainam Do,  
 S. Ehlert,  Po-Tung Fang,  S. Fatehi,  Qingguo Feng,  T. Friedhoff,  
 J. Gayvert,  Qinghui Ge,  G. Gidofalvi,  M. Goldey,  J. Gomes,  
 C. Gonzalez-Espinoza,  S. Gulania,  A. Gunina,  M. W. D. Hanson-Heine,  
 P. H. P. Harbach,  A. W. Hauser,  M. F. Herbst,  M. Hernandez Vera,  
 M. Hodecker,  Z. C. Holden,  S. Houck,  Xunkun Huang,  Kerwin Hui,  
 B. C. Huynh,  M. Ivanov,  Hyunjun Ji,  Hanjie Jiang,  B. Kaduk,  S. Kaehler,  
 K. Khistyaev,  Jaehoon Kim,  P. Klunzinger,  Z. Koczor-Benda,  
 Joong Hoon Koh,  D. Kosenkov,  L. Koulias,  T. Kowalczyk,  C. M. Krauter,  
 K. Kue,  A. Kunitsa,  T. Kus,  A. Landau,  K. V. Lawler,  D. Lefrancois,  
 S. Lehtola,  Rain Li,  Yi-Pei Li,  Jiashu Liang,  M. Liebenthal,  
 Hung-Hsuan Lin,  You-Sheng Lin,  Fenglai Liu,  Kuan-Yu Liu,  
 M. Loipersberger,  A. Luenser,  A. Manjanath,  P. Manohar,  E. Mansoor,  
 S. F. Manzer,  Shan-Ping Mao,  A. V. Marenich,  T. Markovich,  S. Mason,  
 S. A. Maurer,  P. F. McLaughlin,  M. F. S. J. Menger,  J.-M. Mewes,  
 S. A. Mewes,  P. Morgante,  J. W. Mullinax,  K. J. Oosterbaan,  G. Paran,  
 Alexander C. Paul,  Suranjan K. Paul,  F. Pavosevic,  Zheng Pei,  S. Prager,  
 E. I. Proynov,  E. Ramos,  B. Rana,  A. E. Rask,  A. Rettig,  R. M. Richard,  
 F. Rob,  E. Rossomme,  T. Scheele,  M. Scheurer,  M. Schneider,  
 N. Sergueev,  S. M. Sharada,  W. Skomorowski,  D. W. Small,  C. J. Stein,  
 Yu-Chuan Su,  E. J. Sundstrom,  Zhen Tao,  J. Thirman,  T. Tsuchimochi,  
 N. M. Tubman,  S. P. Veccham,  O. Vydrov,  J. Wenzel,  J. Witte,  A. Yamada,  
 Kun Yao,  S. Yeganeh,  S. R. Yost,  A. Zech,  Igor Ying Zhang,  Xing Zhang,  
 Yu Zhang,  D. Zuev,  A. Aspuru-Guzik,  A. T. Bell,  N. A. Besley,  
 K. B. Bravaya,  B. R. Brooks,  D. Casanova,  Jeng-Da Chai,  S. Coriani,  
 C. J. Cramer,  A. E. DePrince, III,  R. A. DiStasio Jr.,  A. Dreuw,  
 B. D. Dunietz,  T. R. Furlani,  W. A. Goddard III,  S. Grimme,  
 S. Hammes-Schiffer,  T. Head-Gordon,  W. J. Hehre,  Chao-Ping Hsu,  
 T.-C. Jagau,  Yousung Jung,  A. Klamt,  Jing Kong,  D. S. Lambrecht,  
 WanZhen Liang,  N. J. Mayhall,  C. W. McCurdy,  J. B. Neaton,  
 C. Ochsenfeld,  J. A. Parkhill,  R. Peverati,  V. A. Rassolov,  Yihan Shao,  
 L. V. Slipchenko,  T. Stauch,  R. P. Steele,  J. E. Subotnik,  
 A. J. W. Thom,  A. Tkatchenko,  D. G. Truhlar,  T. Van Voorhis,  
 T. A. Wesolowski,  K. B. Whaley,  H. L. Woodcock III,  P. M. Zimmerman,  
 S. Faraji,  P. M. W. Gill,  M. Head-Gordon,  J. M. Herbert,  A. I. Krylov

 Additional authors for Version 5.4.1: 
 S. Kotaru,  Shaozhi Li,  Xiangyuan Li,  F. Matz,  A. Molle,  Haisheng Ren,  
 Yingli Su,  Hung-Yi Tsai,  C. Utku,  Fang Wang

 Contributors to earlier versions of Q-Chem not listed above: 
 R. D. Adamson,  B. Austin,  R. Baer,  J. Baker,  G. J. O. Beran,  
 K. Brandhorst,  S. T. Brown,  E. F. C. Byrd,  A. K. Chakraborty,  
 G. K. L. Chan,  Chun-Min Chang,  Yunqing Chen,  C.-L. Cheng,  
 Siu Hung Chien,  D. M. Chipman,  D. L. Crittenden,  H. Dachsel,  
 R. J. Doerksen,  A. D. Dutoi,  R. G. Edgar,  J. Fosso-Tande,  
 L. Fusti-Molnar,  D. Ghosh,  A. Ghysels,  A. Golubeva-Zadorozhnaya,  
 J. Gonthier,  M. S. Gordon,  S. R. Gwaltney,  G. Hawkins,  J. E. Herr,  
 A. Heyden,  S. Hirata,  E. G. Hohenstein,  G. Kedziora,  F. J. Keil,  
 C. Kelley,  Jihan Kim,  R. A. King,  R. Z. Khaliullin,  P. P. Korambath,  
 W. Kurlancheek,  A. Laurent,  A. M. Lee,  M. S. Lee,  S. V. Levchenko,  
 Ching Yeh Lin,  D. Liotard,  E. Livshits,  R. C. Lochan,  I. Lotan,  
 L. A. Martinez-Martinez,  P. E. Maslen,  N. Nair,  D. P. O'Neill,  
 D. Neuhauser,  E. Neuscamman,  C. M. Oana,  R. Olivares-Amaya,  R. Olson,  
 T. M. Perrine,  B. Peters,  P. A. Pieniazek,  A. Prociuk,  Y. M. Rhee,  
 J. Ritchie,  M. A. Rohrdanz,  E. Rosta,  N. J. Russ,  H. F. Schaefer III,  
 M. W. Schmidt,  N. E. Schultz,  S. Sharma,  N. Shenvi,  C. D. Sherrill,  
 A. C. Simmonett,  A. Sodt,  T. Stein,  D. Stuck,  K. S. Thanthiriwatte,  
 V. Vanovschi,  L. Vogt,  Tao Wang,  A. Warshel,  M. A. Watson,  
 C. F. Williams,  Q. Wu,  X. Xu,  Jun Yang,  W. Zhang,  Yan Zhao

 Please cite Q-Chem as follows:
 Y. Shao et al., Mol. Phys. 113, 184-215 (2015)
 DOI: 10.1080/00268976.2014.952696

 Q-Chem 5.4.1 for Intel X86 EM64T Linux

 Parts of Q-Chem use Armadillo 9.800.1 (Horizon Scraper).
 http://arma.sourceforge.net/

 Q-Chem begins on Mon Feb  5 12:38:30 2024  

 Host: 
0

     Scratch files written to /scratch/ari.fischer/qChem1912876.hpc-mn1/qchem12219//
 Aug1521 |scratch|qcdevops|jenkins|workspace|build_RNUM 8249   
 Processing $rem in /usr/local/qchem-5.4.1/config/preferences:
 Processing $rem in /home/ari.fischer/.qchemrc:
 Symmetry turned off for PCM/SM12/SMD calculation

 Checking the input file for inconsistencies... 	...done.

--------------------------------------------------------------
User input:
--------------------------------------------------------------
$molecule
0 2
C         0.5259361465    0.2043921395    0.4740676009
O         1.2874533448   -0.5711169147    0.9869908096
H        -2.5875831013    0.7760436896   -0.2342908893
C        -0.9933530291   -0.0778802264    0.4538855820
O        -1.1924198531   -1.3245821325   -0.0584423260
O        -1.6382660789    0.9534424243   -0.1592693111
O         0.9252740252    1.3236119123   -0.1025326688
H         0.1686586019    1.8175050908   -0.4603742573
O        -1.4339563021   -0.1633635542    1.8680049276
O        -1.1076507085    0.9154251556    2.5200574009
H        -2.1404694451   -1.4927940843   -0.1674083686
$end

$rem
BASIS = def2-TZVPD
JOB_TYPE = SP
METHOD = wB97M-V
SCF_ALGORITHM = DIIS_GDM
MAX_SCF_CYCLES = 400
SCF_CONVERGENCE = 7
THRESH = 12
Solvent_method = SMD
$end
--------------------------------------------------------------
 ----------------------------------------------------------------
             Standard Nuclear Orientation (Angstroms)
    I     Atom           X                Y                Z
 ----------------------------------------------------------------
    1      C       0.5259361465     0.2043921395     0.4740676009
    2      O       1.2874533448    -0.5711169147     0.9869908096
    3      H      -2.5875831013     0.7760436896    -0.2342908893
    4      C      -0.9933530291    -0.0778802264     0.4538855820
    5      O      -1.1924198531    -1.3245821325    -0.0584423260
    6      O      -1.6382660789     0.9534424243    -0.1592693111
    7      O       0.9252740252     1.3236119123    -0.1025326688
    8      H       0.1686586019     1.8175050908    -0.4603742573
    9      O      -1.4339563021    -0.1633635542     1.8680049276
   10      O      -1.1076507085     0.9154251556     2.5200574009
   11      H      -2.1404694451    -1.4927940843    -0.1674083686
 ----------------------------------------------------------------
 Nuclear Repulsion Energy =         417.95628510 hartrees
 There are       32 alpha and       31 beta electrons
 Requested basis set is def2-TZVPD
 There are 125 shells and 341 basis functions

 Total QAlloc Memory Limit 288000 MB
 Mega-Array Size       188 MB
 MEM_STATIC part       192 MB
 
 Citation of the SMD model:
 Marenich, A.V.; Cramer, C.J.; Truhlar, D.G.
 J. Phys. Chem. B 2009, 113, 6378-6396.
 iSolventCode=           1
 Solvent: water                                                           
 
 vradii
            1           2           3           4           5           6
    1   1.8500000   1.5200000   1.2000000   1.8500000   1.5200000   1.5200000
            7           8           9          10          11
    1   1.5200000   1.2000000   1.5200000   1.5200000   1.2000000
 Changing PCM_VDW_RADII to SMD_RADIUS
 Discretize the solute cavity surface with Lebedev spheres
	Using 110 Lebedev grid points for each H atom
	Using 194 Lebedev grid points for other atoms
	Atomic van der Waals radii will be scaled by 1.20
 Remove points where switching function is < 1.0e-08
 Keep 1006 surface tesserae and discard 876 interior tesserae
 Molecular Surface Area = 117.604 Angst**2

                       Distance Matrix (Angstroms)
             C (  1)   O (  2)   H (  3)   C (  4)   O (  5)   O (  6)
   O (  2)  1.201837
   H (  3)  3.243849  4.280453
   C (  4)  1.545421  2.393650  1.935030
   O (  5)  2.360948  2.794711  2.527851  1.362488
   O (  6)  2.376124  3.492567  0.968660  1.362167  2.323433
   O (  7)  1.320830  2.215453  3.557718  2.440269  3.391092  2.590749
   H (  8)  1.898147  3.008668  2.955101  2.403878  3.447723  2.025400
   O (  9)  2.432999  2.889380  2.575459  1.483635  2.262293  2.323540
   O ( 10)  2.712978  3.208835  3.129866  2.295384  3.416647  2.731628
   H ( 11)  3.225159  3.732664  2.313441  1.924542  0.969003  2.497268
             O (  7)   H (  8)   O (  9)   O ( 10)
   H (  8)  0.971827
   O (  9)  3.414686  3.451603
   O ( 10)  3.343259  3.365366  1.302088
   H ( 11)  4.163548  4.046725  2.531690  3.753493
 
 A cutoff of  1.0D-12 yielded   7475 shell pairs
 There are     56555 function pairs (     73608 Cartesian)
 Smallest overlap matrix eigenvalue = 5.19E-06

 Scale SEOQF with 1.000000e-01/1.000000e-01/1.000000e-01

 Standard Electronic Orientation quadrupole field applied
 Nucleus-field energy     =    -0.0000000024 hartrees
 Guess from superposition of atomic densities
 Warning:  Energy on first SCF cycle will be non-variational
 SAD guess density has 63.000000 electrons

 -----------------------------------------------------------------------
  General SCF calculation program by
  Eric Jon Sundstrom, Paul Horn, Yuezhi Mao, Dmitri Zuev, Alec White,
  David Stuck, Shaama M.S., Shane Yost, Joonho Lee, David Small,
  Daniel Levine, Susi Lehtola, Hugh Burton, Evgeny Epifanovsky,
  Bang C. Huynh
 -----------------------------------------------------------------------
 Exchange:     0.1500 Hartree-Fock + 1.0000 wB97M-V + LR-HF
 Correlation:  1.0000 wB97M-V
 Using SG-2 standard quadrature grid
 Nonlocal Correlation:  VV10 with C = 0.0100 and b = 6.00 and scale = 1.00000
 Grid used for NLC:  SG-1 standard quadrature
 
 Citation of the SMD model:
 Marenich, A.V.; Cramer, C.J.; Truhlar, D.G.
 J. Phys. Chem. B 2009, 113, 6378-6396.
 iSolventCode=           1
 Solvent: water                                                           
 
 vradii
            1           2           3           4           5           6
    1   1.8500000   1.5200000   1.2000000   1.8500000   1.5200000   1.5200000
            7           8           9          10          11
    1   1.5200000   1.2000000   1.5200000   1.5200000   1.2000000
 using 4 threads for integral computing
 -------------------------------------------------------
 OpenMP Integral computing Module                
 Release: version 1.0, May 2013, Q-Chem Inc. Pittsburgh 
 -------------------------------------------------------
 -------------------------------------------------------
 OpenMP BLAS3 based DFT computing Module                
 Release: version 1.0, May 2013, Q-Chem Inc. Pittsburgh 
 -------------------------------------------------------
 A unrestricted SCF calculation will be
 performed using DIIS, GDM
 SCF converges when RMS gradient is below 1.0e-07
 ---------------------------------------
  Cycle       Energy         DIIS error
 ---------------------------------------
    1    -530.8094785895      1.33e-02  
    2    -529.1169084110      2.28e-03  Done DIIS. Switching to GDM
 ---------------------------------------
  Cycle       Energy        RMS Gradient
 ---------------------------------------
    1    -529.1169084110      1.62e-01   Descent step
    2    -529.3182948685      4.11e-02   Normal BFGS step
    3    -529.3474369383      2.95e-02   Normal BFGS step
    4    -529.3494916198      1.47e-02   Normal BFGS step
    5    -529.3514825573      7.07e-03   Normal BFGS step
    6    -529.3516399064      3.44e-03   Normal BFGS step
    7    -529.3517446496      2.78e-03   Normal BFGS step
    8    -529.3517683563      1.10e-03   Normal BFGS step
    9    -529.3517737889      9.23e-04   Normal BFGS step
   10    -529.3517766783      8.94e-04   Normal BFGS step
   11    -529.3517793336      7.18e-04   Normal BFGS step
   12    -529.3517814252      3.76e-04   Normal BFGS step
   13    -529.3517821903      1.88e-04   Normal BFGS step
   14    -529.3517823339      3.70e-05   Normal BFGS step
   15    -529.3517823606      9.57e-06   Normal BFGS step
   16    -529.3517823644      5.72e-06   Normal BFGS step
   17    -529.3517823649      1.62e-06   Normal BFGS step
   18    -529.3517823650      8.96e-07   Normal BFGS step
   19    -529.3517823651      5.57e-07   Normal BFGS step
   20    -529.3517823651      1.85e-07   Normal BFGS step
   21    -529.3517823652      9.40e-08  Convergence criterion met
 ---------------------------------------
 SCF time:   CPU 1742.98s  wall 439.00s 
<S^2> =          0.753810409
(3)  G-ENP(liq) elect-nuc-pol free energy of system     -529.351782365 a.u.
(4)  G-CDS(liq) cavity-dispersion-solvent structure 
     free energy                                                4.2101 kcal/mol
(6)  G-S(liq) free energy of system                     -529.345073159 a.u.
 SCF   energy in the final basis set =     -529.3450731585
 Total energy in the final basis set =     -529.3450731585
 
 --------------------------------------------------------------
 
                    Orbital Energies (a.u.)
 --------------------------------------------------------------
 
 Alpha MOs
 -- Occupied --
-19.4708 -19.4303 -19.3990 -19.3831 -19.3795 -19.3480 -10.5439 -10.5092
 -1.3622  -1.2714  -1.2424  -1.1907  -1.1720  -1.0095  -0.8590  -0.7538
 -0.7165  -0.7085  -0.6880  -0.6238  -0.6143  -0.5976  -0.5752  -0.5721
 -0.5311  -0.5062  -0.4943  -0.4530  -0.4489  -0.4267  -0.4119  -0.4034
 -- Virtual --
  0.0333   0.0521   0.0554   0.0575   0.0625   0.0862   0.0906   0.1003
  0.1042   0.1089   0.1371   0.1387   0.1406   0.1456   0.1517   0.1600
  0.1616   0.1719   0.1883   0.1935   0.2009   0.2170   0.2187   0.2316
  0.2371   0.2451   0.2531   0.2655   0.2718   0.2793   0.2893   0.2935
  0.3090   0.3177   0.3226   0.3264   0.3362   0.3559   0.3585   0.3631
  0.3673   0.3828   0.3860   0.3967   0.4012   0.4033   0.4148   0.4172
  0.4306   0.4400   0.4469   0.4504   0.4585   0.4703   0.4803   0.4957
  0.5073   0.5247   0.5277   0.5313   0.5436   0.5494   0.5620   0.5650
  0.5721   0.5862   0.5977   0.6096   0.6131   0.6254   0.6332   0.6453
  0.6573   0.6638   0.6734   0.6866   0.6953   0.7005   0.7060   0.7183
  0.7272   0.7388   0.7420   0.7525   0.7695   0.7819   0.7836   0.7892
  0.8058   0.8217   0.8335   0.8518   0.8629   0.8827   0.8932   0.9062
  0.9368   0.9418   0.9503   0.9545   0.9833   1.0000   1.0034   1.0356
  1.0384   1.0611   1.0856   1.0971   1.1094   1.1165   1.1238   1.1519
  1.1572   1.1768   1.1902   1.2048   1.2259   1.2633   1.2882   1.3002
  1.3177   1.3243   1.3309   1.3447   1.3716   1.4091   1.4102   1.4273
  1.4766   1.5556   1.6033   1.6731   1.6793   1.7196   1.7498   1.7707
  1.7994   1.8092   1.8240   1.8275   1.8629   1.8787   1.9039   1.9079
  1.9447   1.9573   1.9858   2.0169   2.0496   2.0831   2.0971   2.1363
  2.1647   2.1894   2.2357   2.2527   2.2711   2.2750   2.3084   2.3370
  2.3520   2.3606   2.3939   2.3983   2.4235   2.4675   2.4759   2.5044
  2.5063   2.5306   2.5752   2.5901   2.6846   2.7093   2.7444   2.7713
  2.8538   2.8810   2.9205   2.9369   2.9809   2.9943   3.0332   3.0691
  3.0790   3.0959   3.1130   3.1346   3.1959   3.2124   3.2498   3.2814
  3.2845   3.3367   3.3462   3.3664   3.3786   3.4092   3.4224   3.4579
  3.4887   3.5099   3.5397   3.5634   3.5785   3.6048   3.6197   3.6334
  3.6834   3.7020   3.7490   3.7739   3.8088   3.8368   3.8685   3.9929
  4.0294   4.0536   4.1308   4.1559   4.3337   4.3729   4.4482   4.6043
  4.6634   4.7708   4.7908   4.8484   4.8826   4.9526   4.9571   5.0797
  5.1288   5.2110   5.2179   5.2617   5.2628   5.2977   5.3096   5.3678
  5.3927   5.4286   5.4528   5.4684   5.5124   5.5302   5.5520   5.5988
  5.6348   5.6825   5.6913   5.6993   5.7955   5.8841   5.9155   5.9536
  6.0321   6.0703   6.1538   6.1875   6.2237   6.2954   6.3103   6.3286
  6.3797   6.4494   6.4641   6.4866   6.5074   6.5395   6.5787   6.6129
  6.6168   6.6414   6.6747   6.6922   6.7033   6.7399   6.7711   6.8005
  6.8400   6.8571   6.8947   6.9367   6.9932   7.0293   7.0385   7.0865
  7.1734   7.1996   7.2160   7.2492   7.2999   7.3357   7.3598   7.4261
  7.4541   7.4954   7.5303   7.6932   8.6767  23.2707  23.8697  44.4312
 44.6113  44.6640  44.7417  44.8692  44.9575
 
 Beta MOs
 -- Occupied --
-19.4612 -19.4108 -19.3990 -19.3829 -19.3795 -19.3481 -10.5443 -10.5091
 -1.3392  -1.2690  -1.2402  -1.1905  -1.1718  -0.9749  -0.8539  -0.7532
 -0.7144  -0.6955  -0.6823  -0.6006  -0.5969  -0.5816  -0.5720  -0.5493
 -0.5285  -0.4960  -0.4872  -0.4511  -0.4478  -0.4202  -0.3906
 -- Virtual --
 -0.0404   0.0335   0.0524   0.0559   0.0580   0.0631   0.0863   0.0910
  0.1004   0.1046   0.1103   0.1373   0.1392   0.1409   0.1464   0.1519
  0.1614   0.1623   0.1725   0.1916   0.1945   0.2027   0.2175   0.2243
  0.2351   0.2381   0.2463   0.2543   0.2674   0.2735   0.2804   0.2900
  0.2945   0.3121   0.3179   0.3232   0.3274   0.3368   0.3570   0.3601
  0.3651   0.3683   0.3849   0.3862   0.3969   0.4013   0.4036   0.4150
  0.4190   0.4319   0.4405   0.4474   0.4512   0.4599   0.4725   0.4809
  0.4968   0.5082   0.5255   0.5291   0.5322   0.5450   0.5504   0.5634
  0.5660   0.5737   0.5870   0.5993   0.6097   0.6134   0.6259   0.6335
  0.6459   0.6588   0.6639   0.6741   0.6868   0.6961   0.7014   0.7065
  0.7189   0.7273   0.7393   0.7429   0.7535   0.7699   0.7824   0.7837
  0.7897   0.8065   0.8224   0.8357   0.8524   0.8637   0.8833   0.8950
  0.9073   0.9397   0.9431   0.9514   0.9557   0.9841   1.0029   1.0042
  1.0375   1.0414   1.0649   1.0872   1.0983   1.1147   1.1181   1.1252
  1.1525   1.1585   1.1782   1.1922   1.2056   1.2271   1.2654   1.2892
  1.3005   1.3184   1.3262   1.3321   1.3452   1.3722   1.4104   1.4116
  1.4336   1.4776   1.5589   1.6050   1.6778   1.6930   1.7230   1.7540
  1.7760   1.8027   1.8223   1.8273   1.8347   1.8675   1.8805   1.9087
  1.9132   1.9511   1.9619   1.9894   2.0207   2.0525   2.0907   2.1053
  2.1400   2.1681   2.1949   2.2382   2.2535   2.2735   2.2799   2.3187
  2.3380   2.3557   2.3636   2.3949   2.3995   2.4295   2.4702   2.4769
  2.5071   2.5097   2.5362   2.5767   2.5932   2.6873   2.7122   2.7448
  2.7719   2.8566   2.8852   2.9222   2.9406   2.9829   3.0067   3.0368
  3.0775   3.0971   3.1057   3.1178   3.1727   3.1991   3.2168   3.2534
  3.2851   3.2936   3.3407   3.3548   3.3672   3.3813   3.4149   3.4240
  3.4600   3.4952   3.5186   3.5434   3.5669   3.5812   3.6112   3.6260
  3.6366   3.6861   3.7047   3.7519   3.7771   3.8125   3.8388   3.8690
  3.9938   4.0300   4.0543   4.1319   4.1565   4.3349   4.3743   4.4644
  4.6112   4.6663   4.7737   4.8038   4.8635   4.8992   4.9697   4.9779
  5.0931   5.1558   5.2188   5.2591   5.2761   5.2988   5.3087   5.3132
  5.3729   5.3964   5.4324   5.4553   5.4724   5.5139   5.5355   5.5557
  5.6124   5.6465   5.6884   5.6936   5.7059   5.8144   5.8867   5.9187
  5.9583   6.0332   6.0716   6.1579   6.1932   6.2362   6.3092   6.3244
  6.3546   6.3821   6.4624   6.4705   6.5078   6.5639   6.5726   6.5953
  6.6258   6.6393   6.6730   6.6771   6.6953   6.7251   6.7608   6.7834
  6.8227   6.8419   6.8634   6.8964   6.9389   6.9960   7.0329   7.0498
  7.0947   7.1873   7.2177   7.2360   7.2516   7.3034   7.3370   7.3609
  7.4319   7.4551   7.4981   7.5403   7.7081   8.6943  23.2704  23.8698
 44.4460  44.6116  44.6645  44.7424  44.8740  44.9616
 --------------------------------------------------------------
 
          Ground-State Mulliken Net Atomic Charges

     Atom                 Charge (a.u.)    Spin (a.u.)
  --------------------------------------------------------
      1 C                     0.251001       0.014368
      2 O                    -0.639757      -0.000584
      3 H                     0.379602      -0.002210
      4 C                     1.160244      -0.010039
      5 O                    -0.567934      -0.000680
      6 O                    -0.609104       0.004667
      7 O                    -0.477640       0.001825
      8 H                     0.432635      -0.000181
      9 O                     0.002582       0.275484
     10 O                    -0.329591       0.715730
     11 H                     0.397963       0.001620
  --------------------------------------------------------
  Sum of atomic charges =     0.000000
  Sum of spin   charges =     1.000000

 -----------------------------------------------------------------
                    Cartesian Multipole Moments
 -----------------------------------------------------------------
    Charge (ESU x 10^10)
                 0.0000
    Dipole Moment (Debye)
         X      -7.3750      Y       1.4125      Z      -4.5946
       Tot       8.8032
    Quadrupole Moments (Debye-Ang)
        XX     -34.5167     XY       3.2257     YY     -44.6959
        XZ       1.9979     YZ      -1.2774     ZZ     -53.8261
    Octopole Moments (Debye-Ang^2)
       XXX       6.9858    XXY     -13.6900    XYY      13.8007
       YYY     -15.6622    XXZ     -43.9800    XYZ       3.2452
       YYZ     -39.9160    XZZ      29.0132    YZZ      -9.4433
       ZZZ    -118.7922
    Hexadecapole Moments (Debye-Ang^3)
      XXXX    -311.6353   XXXY       8.1092   XXYY    -100.0888
      XYYY       9.1597   YYYY    -230.7639   XXXZ      76.7444
      XXYZ      -4.0965   XYYZ      25.7169   YYYZ     -25.7659
      XXZZ    -158.0900   XYZZ       7.4204   YYZZ    -115.2606
      XZZZ      90.5652   YZZZ     -32.7836   ZZZZ    -471.9688
 -----------------------------------------------------------------
 Total job time:  440.02s(wall), 1745.31s(cpu) 
 Mon Feb  5 12:45:50 2024

        *************************************************************
        *                                                           *
        *  Thank you very much for using Q-Chem.  Have a nice day.  *
        *                                                           *
        *************************************************************


