
Running Job 1 of 1 Q_in.in
qchem Q_in.in_97644.0 /scratch/ari.fischer/qChem1912886.hpc-mn1/qchem97644/ 0
/usr/local/qchem-5.4.1/exe/qcprog.exe_s Q_in.in_97644.0 /scratch/ari.fischer/qChem1912886.hpc-mn1/qchem97644/
                  Welcome to Q-Chem
     A Quantum Leap Into The Future Of Chemistry


 Q-Chem 5.4, Q-Chem, Inc., Pleasanton, CA (2021)

 License issued to: Nanyang Technological University (site)

 E. Epifanovsky,  A. T. B. Gilbert,  Xintian Feng,  Joonho Lee,  Yuezhi Mao,  
 N. Mardirossian,  P. Pokhilko,  A. White,  M. Wormit,  M. P. Coons,  
 A. L. Dempwolff,  Zhengting Gan,  D. Hait,  P. R. Horn,  L. D. Jacobson,  
 I. Kaliman,  J. Kussmann,  A. W. Lange,  Ka Un Lao,  D. S. Levine,  Jie Liu,  
 S. C. McKenzie,  A. F. Morrison,  K. Nanda,  F. Plasser,  D. R. Rehn,  
 M. L. Vidal,  Zhi-Qiang You,  Ying Zhu,  B. Alam,  B. Albrecht,  
 A. Aldossary,  E. Alguire,  J. H. Andersen,  D. Barton,  K. Begam,  A. Behn,  
 Y. A. Bernard,  E. J. Berquist,  H. Burton,  A. Carreras,  K. Carter-Fenk,  
 R. Chakraborty,  A. D. Chien,  K. D. Closser,  V. Cofer-Shabica,  
 S. Dasgupta,  Jia Deng,  M. de Wergifosse,  M. Diedenhofen,  Hainam Do,  
 S. Ehlert,  Po-Tung Fang,  S. Fatehi,  Qingguo Feng,  T. Friedhoff,  
 J. Gayvert,  Qinghui Ge,  G. Gidofalvi,  M. Goldey,  J. Gomes,  
 C. Gonzalez-Espinoza,  S. Gulania,  A. Gunina,  M. W. D. Hanson-Heine,  
 P. H. P. Harbach,  A. W. Hauser,  M. F. Herbst,  M. Hernandez Vera,  
 M. Hodecker,  Z. C. Holden,  S. Houck,  Xunkun Huang,  Kerwin Hui,  
 B. C. Huynh,  M. Ivanov,  Hyunjun Ji,  Hanjie Jiang,  B. Kaduk,  S. Kaehler,  
 K. Khistyaev,  Jaehoon Kim,  P. Klunzinger,  Z. Koczor-Benda,  
 Joong Hoon Koh,  D. Kosenkov,  L. Koulias,  T. Kowalczyk,  C. M. Krauter,  
 K. Kue,  A. Kunitsa,  T. Kus,  A. Landau,  K. V. Lawler,  D. Lefrancois,  
 S. Lehtola,  Rain Li,  Yi-Pei Li,  Jiashu Liang,  M. Liebenthal,  
 Hung-Hsuan Lin,  You-Sheng Lin,  Fenglai Liu,  Kuan-Yu Liu,  
 M. Loipersberger,  A. Luenser,  A. Manjanath,  P. Manohar,  E. Mansoor,  
 S. F. Manzer,  Shan-Ping Mao,  A. V. Marenich,  T. Markovich,  S. Mason,  
 S. A. Maurer,  P. F. McLaughlin,  M. F. S. J. Menger,  J.-M. Mewes,  
 S. A. Mewes,  P. Morgante,  J. W. Mullinax,  K. J. Oosterbaan,  G. Paran,  
 Alexander C. Paul,  Suranjan K. Paul,  F. Pavosevic,  Zheng Pei,  S. Prager,  
 E. I. Proynov,  E. Ramos,  B. Rana,  A. E. Rask,  A. Rettig,  R. M. Richard,  
 F. Rob,  E. Rossomme,  T. Scheele,  M. Scheurer,  M. Schneider,  
 N. Sergueev,  S. M. Sharada,  W. Skomorowski,  D. W. Small,  C. J. Stein,  
 Yu-Chuan Su,  E. J. Sundstrom,  Zhen Tao,  J. Thirman,  T. Tsuchimochi,  
 N. M. Tubman,  S. P. Veccham,  O. Vydrov,  J. Wenzel,  J. Witte,  A. Yamada,  
 Kun Yao,  S. Yeganeh,  S. R. Yost,  A. Zech,  Igor Ying Zhang,  Xing Zhang,  
 Yu Zhang,  D. Zuev,  A. Aspuru-Guzik,  A. T. Bell,  N. A. Besley,  
 K. B. Bravaya,  B. R. Brooks,  D. Casanova,  Jeng-Da Chai,  S. Coriani,  
 C. J. Cramer,  A. E. DePrince, III,  R. A. DiStasio Jr.,  A. Dreuw,  
 B. D. Dunietz,  T. R. Furlani,  W. A. Goddard III,  S. Grimme,  
 S. Hammes-Schiffer,  T. Head-Gordon,  W. J. Hehre,  Chao-Ping Hsu,  
 T.-C. Jagau,  Yousung Jung,  A. Klamt,  Jing Kong,  D. S. Lambrecht,  
 WanZhen Liang,  N. J. Mayhall,  C. W. McCurdy,  J. B. Neaton,  
 C. Ochsenfeld,  J. A. Parkhill,  R. Peverati,  V. A. Rassolov,  Yihan Shao,  
 L. V. Slipchenko,  T. Stauch,  R. P. Steele,  J. E. Subotnik,  
 A. J. W. Thom,  A. Tkatchenko,  D. G. Truhlar,  T. Van Voorhis,  
 T. A. Wesolowski,  K. B. Whaley,  H. L. Woodcock III,  P. M. Zimmerman,  
 S. Faraji,  P. M. W. Gill,  M. Head-Gordon,  J. M. Herbert,  A. I. Krylov

 Additional authors for Version 5.4.1: 
 S. Kotaru,  Shaozhi Li,  Xiangyuan Li,  F. Matz,  A. Molle,  Haisheng Ren,  
 Yingli Su,  Hung-Yi Tsai,  C. Utku,  Fang Wang

 Contributors to earlier versions of Q-Chem not listed above: 
 R. D. Adamson,  B. Austin,  R. Baer,  J. Baker,  G. J. O. Beran,  
 K. Brandhorst,  S. T. Brown,  E. F. C. Byrd,  A. K. Chakraborty,  
 G. K. L. Chan,  Chun-Min Chang,  Yunqing Chen,  C.-L. Cheng,  
 Siu Hung Chien,  D. M. Chipman,  D. L. Crittenden,  H. Dachsel,  
 R. J. Doerksen,  A. D. Dutoi,  R. G. Edgar,  J. Fosso-Tande,  
 L. Fusti-Molnar,  D. Ghosh,  A. Ghysels,  A. Golubeva-Zadorozhnaya,  
 J. Gonthier,  M. S. Gordon,  S. R. Gwaltney,  G. Hawkins,  J. E. Herr,  
 A. Heyden,  S. Hirata,  E. G. Hohenstein,  G. Kedziora,  F. J. Keil,  
 C. Kelley,  Jihan Kim,  R. A. King,  R. Z. Khaliullin,  P. P. Korambath,  
 W. Kurlancheek,  A. Laurent,  A. M. Lee,  M. S. Lee,  S. V. Levchenko,  
 Ching Yeh Lin,  D. Liotard,  E. Livshits,  R. C. Lochan,  I. Lotan,  
 L. A. Martinez-Martinez,  P. E. Maslen,  N. Nair,  D. P. O'Neill,  
 D. Neuhauser,  E. Neuscamman,  C. M. Oana,  R. Olivares-Amaya,  R. Olson,  
 T. M. Perrine,  B. Peters,  P. A. Pieniazek,  A. Prociuk,  Y. M. Rhee,  
 J. Ritchie,  M. A. Rohrdanz,  E. Rosta,  N. J. Russ,  H. F. Schaefer III,  
 M. W. Schmidt,  N. E. Schultz,  S. Sharma,  N. Shenvi,  C. D. Sherrill,  
 A. C. Simmonett,  A. Sodt,  T. Stein,  D. Stuck,  K. S. Thanthiriwatte,  
 V. Vanovschi,  L. Vogt,  Tao Wang,  A. Warshel,  M. A. Watson,  
 C. F. Williams,  Q. Wu,  X. Xu,  Jun Yang,  W. Zhang,  Yan Zhao

 Please cite Q-Chem as follows:
 Y. Shao et al., Mol. Phys. 113, 184-215 (2015)
 DOI: 10.1080/00268976.2014.952696

 Q-Chem 5.4.1 for Intel X86 EM64T Linux

 Parts of Q-Chem use Armadillo 9.800.1 (Horizon Scraper).
 http://arma.sourceforge.net/

 Q-Chem begins on Mon Feb  5 12:38:32 2024  

 Host: 
0

     Scratch files written to /scratch/ari.fischer/qChem1912886.hpc-mn1/qchem97644//
 Aug1521 |scratch|qcdevops|jenkins|workspace|build_RNUM 8249   
 Processing $rem in /usr/local/qchem-5.4.1/config/preferences:
 Processing $rem in /home/ari.fischer/.qchemrc:
 Symmetry turned off for PCM/SM12/SMD calculation

 Checking the input file for inconsistencies... 	...done.

--------------------------------------------------------------
User input:
--------------------------------------------------------------
$molecule
0 1
C         1.8235784383   -0.0637334893    0.0002473030
O         2.3417852248    1.1510612460    0.0007760691
O         2.4376891661   -1.0978774708    0.0006843887
C         0.2881145663   -0.0022133723   -0.0008982110
O        -0.3258508336    1.0319556106   -0.0015152341
O        -0.2300177268   -1.2169567043   -0.0008235433
H         3.3109425424    1.0843720479    0.0015034206
H        -1.1991530757   -1.1507164572   -0.0014270296
$end

$rem
BASIS = def2-TZVPPD
JOB_TYPE = SP
METHOD = wB97M-V
SCF_ALGORITHM = DIIS_GDM
MAX_SCF_CYCLES = 400
SCF_CONVERGENCE = 7
THRESH = 12
Solvent_method = SMD
$end
--------------------------------------------------------------
 ----------------------------------------------------------------
             Standard Nuclear Orientation (Angstroms)
    I     Atom           X                Y                Z
 ----------------------------------------------------------------
    1      C       1.8235784383    -0.0637334893     0.0002473030
    2      O       2.3417852248     1.1510612460     0.0007760691
    3      O       2.4376891661    -1.0978774708     0.0006843887
    4      C       0.2881145663    -0.0022133723    -0.0008982110
    5      O      -0.3258508336     1.0319556106    -0.0015152341
    6      O      -0.2300177268    -1.2169567043    -0.0008235433
    7      H       3.3109425424     1.0843720479     0.0015034206
    8      H      -1.1991530757    -1.1507164572    -0.0014270296
 ----------------------------------------------------------------
 Nuclear Repulsion Energy =         232.69010695 hartrees
 There are       23 alpha and       23 beta electrons
 Requested basis set is def2-TZVPPD
 There are 96 shells and 268 basis functions

 Total QAlloc Memory Limit 288000 MB
 Mega-Array Size       188 MB
 MEM_STATIC part       192 MB
 
 Citation of the SMD model:
 Marenich, A.V.; Cramer, C.J.; Truhlar, D.G.
 J. Phys. Chem. B 2009, 113, 6378-6396.
 iSolventCode=           1
 Solvent: water                                                           
 
 vradii
            1           2           3           4           5           6
    1   1.8500000   1.5200000   1.5200000   1.8500000   1.5200000   1.5200000
            7           8
    1   1.2000000   1.2000000
 Changing PCM_VDW_RADII to SMD_RADIUS
 Discretize the solute cavity surface with Lebedev spheres
	Using 110 Lebedev grid points for each H atom
	Using 194 Lebedev grid points for other atoms
	Atomic van der Waals radii will be scaled by 1.20
 Remove points where switching function is < 1.0e-08
 Keep 774 surface tesserae and discard 610 interior tesserae
 Molecular Surface Area = 95.717 Angst**2

                       Distance Matrix (Angstroms)
             C (  1)   O (  2)   O (  3)   C (  4)   O (  5)   O (  6)
   O (  2)  1.320706
   O (  3)  1.202741  2.250983
   C (  4)  1.536696  2.355336  2.412707
   O (  5)  2.412589  2.670295  3.489032  1.202688
   O (  6)  2.355246  3.495952  2.670364  1.320630  2.250953
   H (  7)  1.878936  0.971449  2.350486  3.212190  3.637172  4.223094
   H (  8)  3.212233  4.223320  3.637227  1.879102  2.350896  0.971397
             H (  7)
   H (  8)  5.033547
 
 A cutoff of  1.0D-12 yielded   4436 shell pairs
 There are     34964 function pairs (     45590 Cartesian)
 Smallest overlap matrix eigenvalue = 5.19E-06

 Scale SEOQF with 1.000000e-01/1.000000e-01/1.000000e-01

 Standard Electronic Orientation quadrupole field applied
 Nucleus-field energy     =     0.0000000076 hartrees
 Guess from superposition of atomic densities
 Warning:  Energy on first SCF cycle will be non-variational
 SAD guess density has 46.000000 electrons

 -----------------------------------------------------------------------
  General SCF calculation program by
  Eric Jon Sundstrom, Paul Horn, Yuezhi Mao, Dmitri Zuev, Alec White,
  David Stuck, Shaama M.S., Shane Yost, Joonho Lee, David Small,
  Daniel Levine, Susi Lehtola, Hugh Burton, Evgeny Epifanovsky,
  Bang C. Huynh
 -----------------------------------------------------------------------
 Exchange:     0.1500 Hartree-Fock + 1.0000 wB97M-V + LR-HF
 Correlation:  1.0000 wB97M-V
 Using SG-2 standard quadrature grid
 Nonlocal Correlation:  VV10 with C = 0.0100 and b = 6.00 and scale = 1.00000
 Grid used for NLC:  SG-1 standard quadrature
 
 Citation of the SMD model:
 Marenich, A.V.; Cramer, C.J.; Truhlar, D.G.
 J. Phys. Chem. B 2009, 113, 6378-6396.
 iSolventCode=           1
 Solvent: water                                                           
 
 vradii
            1           2           3           4           5           6
    1   1.8500000   1.5200000   1.5200000   1.8500000   1.5200000   1.5200000
            7           8
    1   1.2000000   1.2000000
 using 4 threads for integral computing
 -------------------------------------------------------
 OpenMP Integral computing Module                
 Release: version 1.0, May 2013, Q-Chem Inc. Pittsburgh 
 -------------------------------------------------------
 -------------------------------------------------------
 OpenMP BLAS3 based DFT computing Module                
 Release: version 1.0, May 2013, Q-Chem Inc. Pittsburgh 
 -------------------------------------------------------
 A restricted SCF calculation will be
 performed using DIIS, GDM
 SCF converges when RMS gradient is below 1.0e-07
 ---------------------------------------
  Cycle       Energy         DIIS error
 ---------------------------------------
    1    -379.6074700324      3.08e-02  
    2    -378.2159877738      5.43e-03  Done DIIS. Switching to GDM
 ---------------------------------------
  Cycle       Energy        RMS Gradient
 ---------------------------------------
    1    -378.2159877738      2.01e-01   Descent step
    2    -378.4036772960      3.37e-02   Normal BFGS step
    3    -378.4163855252      2.14e-02   Normal BFGS step
    4    -378.4175724459      8.67e-03   Normal BFGS step
    5    -378.4183801107      6.48e-04   Normal BFGS step
    6    -378.4183895707      4.13e-04   Normal BFGS step
    7    -378.4183905834      1.74e-04   Normal BFGS step
    8    -378.4183906796      2.22e-05   Normal BFGS step
    9    -378.4183906887      9.50e-06   Normal BFGS step
   10    -378.4183906895      2.31e-06   Normal BFGS step
   11    -378.4183906895      3.08e-06   Normal BFGS step
   12    -378.4183906896      9.80e-08  Convergence criterion met
 ---------------------------------------
 SCF time:   CPU 408.93s  wall 105.00s 
(3)  G-ENP(liq) elect-nuc-pol free energy of system     -378.418390690 a.u.
(4)  G-CDS(liq) cavity-dispersion-solvent structure 
     free energy                                                5.8506 kcal/mol
(6)  G-S(liq) free energy of system                     -378.409067095 a.u.
 SCF   energy in the final basis set =     -378.4090670954
 Total energy in the final basis set =     -378.4090670954
 
 --------------------------------------------------------------
 
                    Orbital Energies (a.u.)
 --------------------------------------------------------------
 
 Alpha MOs
 -- Occupied --
-19.3990 -19.3990 -19.3524 -19.3524 -10.5108 -10.5107  -1.2787  -1.2533
 -1.1874  -1.1705  -0.8515  -0.7525  -0.6554  -0.6325  -0.6258  -0.6160
 -0.5606  -0.5571  -0.5187  -0.4618  -0.4578  -0.4490  -0.3948
 -- Virtual --
  0.0112   0.0346   0.0494   0.0673   0.0805   0.0878   0.1012   0.1073
  0.1088   0.1165   0.1355   0.1455   0.1556   0.1562   0.1707   0.1835
  0.1974   0.1989   0.2261   0.2542   0.2564   0.2814   0.2918   0.3015
  0.3118   0.3121   0.3245   0.3375   0.3471   0.3573   0.3575   0.3736
  0.3739   0.3793   0.3992   0.4015   0.4201   0.4233   0.4285   0.4330
  0.4453   0.4700   0.4765   0.4900   0.5068   0.5105   0.5245   0.5340
  0.5347   0.5535   0.5735   0.5848   0.6015   0.6257   0.6429   0.6476
  0.6488   0.6491   0.6592   0.6635   0.6671   0.6814   0.6935   0.7002
  0.7068   0.7594   0.7754   0.7809   0.8083   0.8163   0.8376   0.8500
  0.8644   0.8718   0.9222   0.9363   0.9383   0.9480   0.9633   0.9948
  1.0262   1.0310   1.0782   1.1070   1.1120   1.1140   1.1462   1.1678
  1.1852   1.1868   1.2544   1.2573   1.2585   1.2943   1.2952   1.2978
  1.3191   1.3591   1.4446   1.4571   1.4699   1.5280   1.5980   1.6487
  1.7008   1.7282   1.7431   1.8107   1.8222   1.8598   1.8905   1.9195
  1.9298   2.0148   2.0291   2.0575   2.0632   2.0915   2.1719   2.1787
  2.2351   2.2729   2.2960   2.3111   2.3302   2.3911   2.4382   2.4653
  2.4715   2.5697   2.6262   2.6801   2.7414   2.7622   2.8015   2.8349
  2.8753   2.9395   3.0333   3.0570   3.0750   3.1156   3.1470   3.1495
  3.1981   3.2158   3.2657   3.2692   3.3173   3.3181   3.3258   3.3616
  3.3779   3.3783   3.4357   3.4510   3.4948   3.5187   3.5217   3.5484
  3.5827   3.5881   3.6318   3.6515   3.6681   3.7145   3.7331   3.7634
  3.8036   3.8156   3.9046   3.9542   4.0180   4.1294   4.1511   4.1565
  4.1884   4.2041   4.3056   4.3741   4.4245   4.5395   4.5765   4.6090
  4.8015   4.8352   4.9546   5.0036   5.0382   5.1355   5.1844   5.2405
  5.2649   5.3199   5.3250   5.4304   5.5285   5.5928   5.6333   5.7041
  5.7321   5.7412   5.7534   6.0203   6.0839   6.0989   6.2764   6.2785
  6.3207   6.3458   6.5211   6.5264   6.5680   6.5919   6.6109   6.6122
  6.6143   6.6988   6.7025   6.7114   6.7392   6.8197   6.8323   6.8744
  6.9324   6.9337   7.0104   7.0422   7.0745   7.1572   7.2332   7.3194
  7.3696   7.4605   7.4632   7.6220   7.6600   7.7846   7.9043  23.7192
 23.8708  44.5457  44.5488  44.6644  44.9241
 --------------------------------------------------------------
 
          Ground-State Mulliken Net Atomic Charges

     Atom                 Charge (a.u.)
  ----------------------------------------
      1 C                     0.640147
      2 O                    -0.287480
      3 O                    -0.603114
      4 C                     0.640049
      5 O                    -0.603051
      6 O                    -0.287383
      7 H                     0.250462
      8 H                     0.250369
  ----------------------------------------
  Sum of atomic charges =     0.000000

 -----------------------------------------------------------------
                    Cartesian Multipole Moments
 -----------------------------------------------------------------
    Charge (ESU x 10^10)
                 0.0000
    Dipole Moment (Debye)
         X      -0.0010      Y      -0.0011      Z       0.0007
       Tot       0.0017
    Quadrupole Moments (Debye-Ang)
        XX     -23.7311     XY      11.7013     YY     -40.7418
        XZ       0.0053     YZ       0.0091     ZZ     -32.2123
    Octopole Moments (Debye-Ang^2)
       XXX     -75.1727    XXY      25.4880    XYY     -43.7966
       YYY       4.0250    XXZ       0.0229    XYZ       0.0070
       YYZ       0.0110    XZZ     -34.0133    YZZ       1.0617
       ZZZ       0.0234
    Hexadecapole Moments (Debye-Ang^3)
      XXXX    -398.1999   XXXY     104.8474   XXYY    -128.1339
      XYYY      12.9307   YYYY    -224.6872   XXXZ       0.0029
      XXYZ       0.0538   XYYZ      -0.0191   YYYZ       0.0154
      XXZZ     -95.4896   XYZZ      -1.0051   YYZZ     -40.8745
      XZZZ      -0.0831   YZZZ       0.0045   ZZZZ     -27.8622
 -----------------------------------------------------------------
 Total job time:  105.09s(wall), 411.14s(cpu) 
 Mon Feb  5 12:40:17 2024

        *************************************************************
        *                                                           *
        *  Thank you very much for using Q-Chem.  Have a nice day.  *
        *                                                           *
        *************************************************************


