
Running Job 1 of 1 Q_in.in
qchem Q_in.in_231297.0 /scratch/ari.fischer/qChem1525672.hpc-mn1/qchem231297/ 0
/usr/local/qchem-5.4.1/exe/qcprog.exe_s Q_in.in_231297.0 /scratch/ari.fischer/qChem1525672.hpc-mn1/qchem231297/
                  Welcome to Q-Chem
     A Quantum Leap Into The Future Of Chemistry


 Q-Chem 5.4, Q-Chem, Inc., Pleasanton, CA (2021)

 License issued to: Nanyang Technological University (site)

 E. Epifanovsky,  A. T. B. Gilbert,  Xintian Feng,  Joonho Lee,  Yuezhi Mao,  
 N. Mardirossian,  P. Pokhilko,  A. White,  M. Wormit,  M. P. Coons,  
 A. L. Dempwolff,  Zhengting Gan,  D. Hait,  P. R. Horn,  L. D. Jacobson,  
 I. Kaliman,  J. Kussmann,  A. W. Lange,  Ka Un Lao,  D. S. Levine,  Jie Liu,  
 S. C. McKenzie,  A. F. Morrison,  K. Nanda,  F. Plasser,  D. R. Rehn,  
 M. L. Vidal,  Zhi-Qiang You,  Ying Zhu,  B. Alam,  B. Albrecht,  
 A. Aldossary,  E. Alguire,  J. H. Andersen,  D. Barton,  K. Begam,  A. Behn,  
 Y. A. Bernard,  E. J. Berquist,  H. Burton,  A. Carreras,  K. Carter-Fenk,  
 R. Chakraborty,  A. D. Chien,  K. D. Closser,  V. Cofer-Shabica,  
 S. Dasgupta,  Jia Deng,  M. de Wergifosse,  M. Diedenhofen,  Hainam Do,  
 S. Ehlert,  Po-Tung Fang,  S. Fatehi,  Qingguo Feng,  T. Friedhoff,  
 J. Gayvert,  Qinghui Ge,  G. Gidofalvi,  M. Goldey,  J. Gomes,  
 C. Gonzalez-Espinoza,  S. Gulania,  A. Gunina,  M. W. D. Hanson-Heine,  
 P. H. P. Harbach,  A. W. Hauser,  M. F. Herbst,  M. Hernandez Vera,  
 M. Hodecker,  Z. C. Holden,  S. Houck,  Xunkun Huang,  Kerwin Hui,  
 B. C. Huynh,  M. Ivanov,  Hyunjun Ji,  Hanjie Jiang,  B. Kaduk,  S. Kaehler,  
 K. Khistyaev,  Jaehoon Kim,  P. Klunzinger,  Z. Koczor-Benda,  
 Joong Hoon Koh,  D. Kosenkov,  L. Koulias,  T. Kowalczyk,  C. M. Krauter,  
 K. Kue,  A. Kunitsa,  T. Kus,  A. Landau,  K. V. Lawler,  D. Lefrancois,  
 S. Lehtola,  Rain Li,  Yi-Pei Li,  Jiashu Liang,  M. Liebenthal,  
 Hung-Hsuan Lin,  You-Sheng Lin,  Fenglai Liu,  Kuan-Yu Liu,  
 M. Loipersberger,  A. Luenser,  A. Manjanath,  P. Manohar,  E. Mansoor,  
 S. F. Manzer,  Shan-Ping Mao,  A. V. Marenich,  T. Markovich,  S. Mason,  
 S. A. Maurer,  P. F. McLaughlin,  M. F. S. J. Menger,  J.-M. Mewes,  
 S. A. Mewes,  P. Morgante,  J. W. Mullinax,  K. J. Oosterbaan,  G. Paran,  
 Alexander C. Paul,  Suranjan K. Paul,  F. Pavosevic,  Zheng Pei,  S. Prager,  
 E. I. Proynov,  E. Ramos,  B. Rana,  A. E. Rask,  A. Rettig,  R. M. Richard,  
 F. Rob,  E. Rossomme,  T. Scheele,  M. Scheurer,  M. Schneider,  
 N. Sergueev,  S. M. Sharada,  W. Skomorowski,  D. W. Small,  C. J. Stein,  
 Yu-Chuan Su,  E. J. Sundstrom,  Zhen Tao,  J. Thirman,  T. Tsuchimochi,  
 N. M. Tubman,  S. P. Veccham,  O. Vydrov,  J. Wenzel,  J. Witte,  A. Yamada,  
 Kun Yao,  S. Yeganeh,  S. R. Yost,  A. Zech,  Igor Ying Zhang,  Xing Zhang,  
 Yu Zhang,  D. Zuev,  A. Aspuru-Guzik,  A. T. Bell,  N. A. Besley,  
 K. B. Bravaya,  B. R. Brooks,  D. Casanova,  Jeng-Da Chai,  S. Coriani,  
 C. J. Cramer,  A. E. DePrince, III,  R. A. DiStasio Jr.,  A. Dreuw,  
 B. D. Dunietz,  T. R. Furlani,  W. A. Goddard III,  S. Grimme,  
 S. Hammes-Schiffer,  T. Head-Gordon,  W. J. Hehre,  Chao-Ping Hsu,  
 T.-C. Jagau,  Yousung Jung,  A. Klamt,  Jing Kong,  D. S. Lambrecht,  
 WanZhen Liang,  N. J. Mayhall,  C. W. McCurdy,  J. B. Neaton,  
 C. Ochsenfeld,  J. A. Parkhill,  R. Peverati,  V. A. Rassolov,  Yihan Shao,  
 L. V. Slipchenko,  T. Stauch,  R. P. Steele,  J. E. Subotnik,  
 A. J. W. Thom,  A. Tkatchenko,  D. G. Truhlar,  T. Van Voorhis,  
 T. A. Wesolowski,  K. B. Whaley,  H. L. Woodcock III,  P. M. Zimmerman,  
 S. Faraji,  P. M. W. Gill,  M. Head-Gordon,  J. M. Herbert,  A. I. Krylov

 Additional authors for Version 5.4.1: 
 S. Kotaru,  Shaozhi Li,  Xiangyuan Li,  F. Matz,  A. Molle,  Haisheng Ren,  
 Yingli Su,  Hung-Yi Tsai,  C. Utku,  Fang Wang

 Contributors to earlier versions of Q-Chem not listed above: 
 R. D. Adamson,  B. Austin,  R. Baer,  J. Baker,  G. J. O. Beran,  
 K. Brandhorst,  S. T. Brown,  E. F. C. Byrd,  A. K. Chakraborty,  
 G. K. L. Chan,  Chun-Min Chang,  Yunqing Chen,  C.-L. Cheng,  
 Siu Hung Chien,  D. M. Chipman,  D. L. Crittenden,  H. Dachsel,  
 R. J. Doerksen,  A. D. Dutoi,  R. G. Edgar,  J. Fosso-Tande,  
 L. Fusti-Molnar,  D. Ghosh,  A. Ghysels,  A. Golubeva-Zadorozhnaya,  
 J. Gonthier,  M. S. Gordon,  S. R. Gwaltney,  G. Hawkins,  J. E. Herr,  
 A. Heyden,  S. Hirata,  E. G. Hohenstein,  G. Kedziora,  F. J. Keil,  
 C. Kelley,  Jihan Kim,  R. A. King,  R. Z. Khaliullin,  P. P. Korambath,  
 W. Kurlancheek,  A. Laurent,  A. M. Lee,  M. S. Lee,  S. V. Levchenko,  
 Ching Yeh Lin,  D. Liotard,  E. Livshits,  R. C. Lochan,  I. Lotan,  
 L. A. Martinez-Martinez,  P. E. Maslen,  N. Nair,  D. P. O'Neill,  
 D. Neuhauser,  E. Neuscamman,  C. M. Oana,  R. Olivares-Amaya,  R. Olson,  
 T. M. Perrine,  B. Peters,  P. A. Pieniazek,  A. Prociuk,  Y. M. Rhee,  
 J. Ritchie,  M. A. Rohrdanz,  E. Rosta,  N. J. Russ,  H. F. Schaefer III,  
 M. W. Schmidt,  N. E. Schultz,  S. Sharma,  N. Shenvi,  C. D. Sherrill,  
 A. C. Simmonett,  A. Sodt,  T. Stein,  D. Stuck,  K. S. Thanthiriwatte,  
 V. Vanovschi,  L. Vogt,  Tao Wang,  A. Warshel,  M. A. Watson,  
 C. F. Williams,  Q. Wu,  X. Xu,  Jun Yang,  W. Zhang,  Yan Zhao

 Please cite Q-Chem as follows:
 Y. Shao et al., Mol. Phys. 113, 184-215 (2015)
 DOI: 10.1080/00268976.2014.952696

 Q-Chem 5.4.1 for Intel X86 EM64T Linux

 Parts of Q-Chem use Armadillo 9.800.1 (Horizon Scraper).
 http://arma.sourceforge.net/

 Q-Chem begins on Sat May  6 18:11:21 2023  

 Host: 
0

     Scratch files written to /scratch/ari.fischer/qChem1525672.hpc-mn1/qchem231297//
 Aug1521 |scratch|qcdevops|jenkins|workspace|build_RNUM 8249   
 Processing $rem in /usr/local/qchem-5.4.1/config/preferences:
 Processing $rem in /home/ari.fischer/.qchemrc:
 Symmetry turned off for PCM/SM12/SMD calculation


!!********************************************.
!!******************Warning*******************.
!!Desired Analytical derivatives not available.
!!Finite difference job might take a long time.
!!********************************************.
!!********************************************.


 2-order derivative to be evaluated numerically with 1-order analytical derivatives

 Checking the input file for inconsistencies... 	...done.

--------------------------------------------------------------
User input:
--------------------------------------------------------------
$molecule
-1 1
C         0.5976906250    0.1829920034    0.0003836046
O        -0.2116925879    1.0809780819    0.0002834213
C         2.1394850490    0.4145355110    0.0005056157
O         2.4827968949    1.6120878250    0.0005925006
O         2.8556453186   -0.6050976549    0.0004820653
O         0.2596265223   -1.1065494245    0.0003349708
H        -0.7087105219   -1.1729699418    0.0002458218
$end

$rem
BASIS = 6-311++G(2df,2p)
GUI = 2
JOB_TYPE = Frequency
METHOD = wB97M-V
SOLVENT_METHOD = SMD
SCF_ALGORITHM = DIIS_GDM
MAX_SCF_CYCLES = 400
SCF_CONVERGENCE = 7
THRESH = 12
UNRESTRICTED = 1
SYMMETRY_IGNORE = 1
$end
--------------------------------------------------------------
 ----------------------------------------------------------------
             Standard Nuclear Orientation (Angstroms)
    I     Atom           X                Y                Z
 ----------------------------------------------------------------
    1      C       0.5976906250     0.1829920034     0.0003836046
    2      O      -0.2116925879     1.0809780819     0.0002834213
    3      C       2.1394850490     0.4145355110     0.0005056157
    4      O       2.4827968949     1.6120878250     0.0005925006
    5      O       2.8556453186    -0.6050976549     0.0004820653
    6      O       0.2596265223    -1.1065494245     0.0003349708
    7      H      -0.7087105219    -1.1729699418     0.0002458218
 ----------------------------------------------------------------
 Nuclear Repulsion Energy =         221.00090303 hartrees
 There are       23 alpha and       23 beta electrons
 Requested basis set is 6-311++G(2df,2p)
 There are 54 shells and 214 basis functions

 Total QAlloc Memory Limit 288000 MB
 Mega-Array Size       188 MB
 MEM_STATIC part       192 MB
 
 Citation of the SMD model:
 Marenich, A.V.; Cramer, C.J.; Truhlar, D.G.
 J. Phys. Chem. B 2009, 113, 6378-6396.
 iSolventCode=           1
 Solvent: water                                                           
 
 vradii
            1           2           3           4           5           6
    1   1.8500000   1.5200000   1.8500000   1.5200000   1.5200000   1.5200000
            7
    1   1.2000000
 Changing PCM_VDW_RADII to SMD_RADIUS
 Discretize the solute cavity surface with Lebedev spheres
	Using 110 Lebedev grid points for each H atom
	Using 194 Lebedev grid points for other atoms
	Atomic van der Waals radii will be scaled by 1.20
 Remove points where switching function is < 1.0e-08
 Keep 748 surface tesserae and discard 526 interior tesserae
 Molecular Surface Area = 92.634 Angst**2

                       Distance Matrix (Angstroms)
             C (  1)   O (  2)   C (  3)   O (  4)   O (  5)   O (  6)
   O (  2)  1.208917
   C (  3)  1.559084  2.443805
   O (  4)  2.365574  2.746334  1.245791
   O (  5)  2.391536  3.500202  1.246009  2.248317
   O (  6)  1.333118  2.237726  2.418174  3.511905  2.644006
   H (  7)  1.882901  2.308096  3.260735  4.235831  3.609309  0.970612

 
 A cutoff of  1.0D-12 yielded   1398 shell pairs
 There are     22352 function pairs (     29060 Cartesian)
 Smallest overlap matrix eigenvalue = 9.31E-05
 Guess from superposition of atomic densities
 Warning:  Energy on first SCF cycle will be non-variational
 SAD guess density has 45.000000 electrons

 -----------------------------------------------------------------------
  General SCF calculation program by
  Eric Jon Sundstrom, Paul Horn, Yuezhi Mao, Dmitri Zuev, Alec White,
  David Stuck, Shaama M.S., Shane Yost, Joonho Lee, David Small,
  Daniel Levine, Susi Lehtola, Hugh Burton, Evgeny Epifanovsky,
  Bang C. Huynh
 -----------------------------------------------------------------------
 Exchange:     0.1500 Hartree-Fock + 1.0000 wB97M-V + LR-HF
 Correlation:  1.0000 wB97M-V
 Using SG-2 standard quadrature grid
 Nonlocal Correlation:  VV10 with C = 0.0100 and b = 6.00 and scale = 1.00000
 Grid used for NLC:  SG-1 standard quadrature
 using 8 threads for integral computing
 -------------------------------------------------------
 OpenMP Integral computing Module                
 Release: version 1.0, May 2013, Q-Chem Inc. Pittsburgh 
 -------------------------------------------------------
 
 Citation of the SMD model:
 Marenich, A.V.; Cramer, C.J.; Truhlar, D.G.
 J. Phys. Chem. B 2009, 113, 6378-6396.
 iSolventCode=           1
 Solvent: water                                                           
 
 vradii
            1           2           3           4           5           6
    1   1.8500000   1.5200000   1.8500000   1.5200000   1.5200000   1.5200000
            7
    1   1.2000000
 -------------------------------------------------------
 OpenMP BLAS3 based DFT computing Module                
 Release: version 1.0, May 2013, Q-Chem Inc. Pittsburgh 
 -------------------------------------------------------
 A unrestricted SCF calculation will be
 performed using DIIS, GDM
 SCF converges when RMS gradient is below 1.0e-07
 ---------------------------------------
  Cycle       Energy         DIIS error
 ---------------------------------------
    1    -378.7452546009      1.80e-02  
    2    -377.7091057795      3.71e-03  Done DIIS. Switching to GDM
 ---------------------------------------
  Cycle       Energy        RMS Gradient
 ---------------------------------------
    1    -377.7091057795      1.90e-01   Descent step
    2    -377.9219528817      5.63e-02   Normal BFGS step
    3    -377.9481719189      1.15e-02   Normal BFGS step
    4    -377.9487050218      1.35e-02   Normal BFGS step
    5    -377.9493615508      1.16e-03   Normal BFGS step
    6    -377.9493749527      7.49e-04   Normal BFGS step
    7    -377.9493798140      8.94e-05   Normal BFGS step
    8    -377.9493799156      7.09e-05   Normal BFGS step
    9    -377.9493799928      2.14e-05   Normal BFGS step
   10    -377.9493799950      1.42e-05   Normal BFGS step
   11    -377.9493799967      2.81e-06   Normal BFGS step
   12    -377.9493799968      1.53e-06   Normal BFGS step
   13    -377.9493799969      5.75e-07   Normal BFGS step
   14    -377.9493799969      1.25e-07   Normal BFGS step
   15    -377.9493799969      1.02e-08  Convergence criterion met
 ---------------------------------------
 SCF time:   CPU 204.81s  wall 26.00s 
<S^2> =         -0.000000000
(3)  G-ENP(liq) elect-nuc-pol free energy of system     -377.949379997 a.u.
(4)  G-CDS(liq) cavity-dispersion-solvent structure 
     free energy                                                5.6630 kcal/mol
(6)  G-S(liq) free energy of system                     -377.940355451 a.u.
 SCF   energy in the final basis set =     -377.9403554505
 Total energy in the final basis set =     -377.9403554505
 
 --------------------------------------------------------------
 
                    Orbital Energies (a.u.)
 --------------------------------------------------------------
 
 Alpha MOs
 -- Occupied --
-19.3841 -19.3363 -19.2962 -19.2958 -10.4850 -10.4562  -1.2507  -1.1803
 -1.1596  -1.0937  -0.7975  -0.6733  -0.6177  -0.5943  -0.5840  -0.5424
 -0.5257  -0.5145  -0.4405  -0.4359  -0.3805  -0.3740  -0.3592
 -- Virtual --
  0.0391   0.0457   0.0663   0.0804   0.0894   0.1039   0.1176   0.1177
  0.1469   0.1653   0.1990   0.2126   0.2277   0.2297   0.2532   0.2836
  0.2857   0.3032   0.3085   0.3151   0.3201   0.3328   0.3460   0.3542
  0.3629   0.3642   0.3951   0.4187   0.4324   0.4462   0.4970   0.5716
  0.6066   0.6140   0.6678   0.7089   0.7195   0.7229   0.7564   0.7692
  0.7797   0.8285   0.8700   0.8847   0.8902   0.9375   1.0407   1.0630
  1.0858   1.1035   1.1162   1.1226   1.1369   1.1577   1.1676   1.1743
  1.2054   1.2250   1.2727   1.2782   1.2899   1.3744   1.3988   1.4401
  1.5200   1.5982   1.6082   1.6262   1.6270   1.6293   1.6897   1.7536
  1.7649   1.8135   1.8487   1.8957   1.9360   1.9965   2.0026   2.0675
  2.1092   2.1986   2.3448   2.3682   2.4643   2.4910   2.5073   2.6240
  2.6487   2.6705   2.7027   2.8014   2.8420   2.8747   2.8859   2.8980
  3.0911   3.1164   3.1302   3.2190   3.2624   3.3021   3.3602   3.3739
  3.4101   3.4493   3.4829   3.4973   3.5099   3.6083   3.6442   3.6472
  3.6598   3.7524   3.7624   3.8050   3.9678   4.0132   4.0331   4.0759
  4.1584   4.2190   4.3445   4.3942   4.7545   5.1214   5.1362   5.1645
  5.1659   5.1776   5.1820   5.1940   5.2003   5.2100   5.2184   5.2226
  5.2754   5.2814   5.3011   5.3142   5.3844   5.4070   5.4359   5.5003
  5.5878   5.5990   5.5997   5.6216   5.6268   5.7100   5.8532   5.8891
  5.9292   6.0382   6.1503   6.2592   6.4290   6.5286   6.6731   6.8582
  6.9053   6.9198   6.9221   6.9933   6.9988   7.0070   7.0512   7.0533
  7.1191   7.2156   7.2492   7.3017   7.3166   7.3466   7.3845   7.4808
  7.5152   7.5466   7.6243   7.7266   7.7796   7.7918   7.8730   7.9043
  7.9405  25.0637  25.2239  50.5649  50.6671  50.7213  50.7699
 
 Beta MOs
 -- Occupied --
-19.3841 -19.3363 -19.2962 -19.2958 -10.4850 -10.4562  -1.2507  -1.1803
 -1.1596  -1.0937  -0.7975  -0.6733  -0.6177  -0.5943  -0.5840  -0.5424
 -0.5257  -0.5145  -0.4405  -0.4359  -0.3805  -0.3740  -0.3592
 -- Virtual --
  0.0391   0.0457   0.0663   0.0804   0.0894   0.1039   0.1176   0.1177
  0.1469   0.1653   0.1990   0.2126   0.2277   0.2297   0.2532   0.2836
  0.2857   0.3032   0.3085   0.3151   0.3201   0.3328   0.3460   0.3542
  0.3629   0.3642   0.3951   0.4187   0.4324   0.4462   0.4970   0.5716
  0.6066   0.6140   0.6678   0.7089   0.7195   0.7229   0.7564   0.7692
  0.7797   0.8285   0.8700   0.8847   0.8902   0.9375   1.0407   1.0630
  1.0858   1.1035   1.1162   1.1226   1.1369   1.1577   1.1676   1.1743
  1.2054   1.2250   1.2727   1.2782   1.2899   1.3744   1.3988   1.4401
  1.5200   1.5982   1.6082   1.6262   1.6270   1.6293   1.6897   1.7536
  1.7649   1.8135   1.8487   1.8957   1.9360   1.9965   2.0026   2.0675
  2.1092   2.1986   2.3448   2.3682   2.4643   2.4910   2.5073   2.6240
  2.6487   2.6705   2.7027   2.8014   2.8420   2.8747   2.8859   2.8980
  3.0911   3.1164   3.1302   3.2190   3.2624   3.3021   3.3602   3.3739
  3.4101   3.4493   3.4829   3.4973   3.5099   3.6083   3.6442   3.6472
  3.6598   3.7524   3.7624   3.8050   3.9678   4.0132   4.0331   4.0759
  4.1584   4.2190   4.3445   4.3942   4.7545   5.1214   5.1362   5.1645
  5.1659   5.1776   5.1820   5.1940   5.2003   5.2100   5.2184   5.2226
  5.2754   5.2814   5.3011   5.3142   5.3844   5.4070   5.4359   5.5003
  5.5878   5.5990   5.5997   5.6216   5.6268   5.7100   5.8532   5.8891
  5.9292   6.0382   6.1503   6.2592   6.4290   6.5286   6.6731   6.8582
  6.9053   6.9198   6.9221   6.9933   6.9988   7.0070   7.0512   7.0533
  7.1191   7.2156   7.2492   7.3017   7.3166   7.3466   7.3845   7.4808
  7.5152   7.5466   7.6243   7.7266   7.7796   7.7918   7.8730   7.9043
  7.9405  25.0637  25.2239  50.5649  50.6671  50.7213  50.7699
 --------------------------------------------------------------
 
          Ground-State Mulliken Net Atomic Charges

     Atom                 Charge (a.u.)    Spin (a.u.)
  --------------------------------------------------------
      1 C                     0.361870       0.000000
      2 O                    -0.502675       0.000000
      3 C                     0.371087       0.000000
      4 O                    -0.633110       0.000000
      5 O                    -0.636326       0.000000
      6 O                    -0.321703       0.000000
      7 H                     0.360857       0.000000
  --------------------------------------------------------
  Sum of atomic charges =    -1.000000
  Sum of spin   charges =     0.000000

 -----------------------------------------------------------------
                    Cartesian Multipole Moments
 -----------------------------------------------------------------
    Charge (ESU x 10^10)
                -4.8032
    Dipole Moment (Debye)
         X     -13.2169      Y      -4.7794      Z      -0.0025
       Tot      14.0545
    Quadrupole Moments (Debye-Ang)
        XX     -71.8813     XY      -1.9927     YY     -49.3340
        XZ      -0.0071     YZ      -0.0022     ZZ     -33.9015
    Octopole Moments (Debye-Ang^2)
       XXX    -259.3881    XXY     -23.7047    XYY     -78.0524
       YYY     -46.0575    XXZ      -0.0357    XYZ      -0.0035
       YYZ      -0.0228    XZZ     -46.8232    YZZ      -8.5908
       ZZZ      -0.0439
    Hexadecapole Moments (Debye-Ang^3)
      XXXX   -1089.7932   XXXY     -79.8392   XXYY    -232.7370
      XYYY     -81.7853   YYYY    -278.6144   XXXZ      -0.1378
      XXYZ      -0.0163   XYYZ      -0.0416   YYYZ      -0.0255
      XXZZ    -127.8804   XYZZ     -16.3583   YYZZ     -47.0817
      XZZZ      -0.0735   YZZZ      -0.0153   ZZZZ     -31.9176
 -----------------------------------------------------------------
 Calculating analytic gradient of the SCF energy
 Gradient of CDS energy
            1           2           3           4           5           6
    1  -0.0029763   0.0008904   0.0031578  -0.0005755  -0.0011892   0.0010158
    2  -0.0024012  -0.0010016   0.0005576  -0.0019291   0.0015694   0.0034936
    3  -0.0000003   0.0000001   0.0000002  -0.0000001   0.0000000   0.0000001
            7
    1  -0.0003229
    2  -0.0002886
    3  -0.0000000
 Gradient of SCF Energy
            1           2           3           4           5           6
    1  -0.0344638   0.0322623   0.0263194  -0.0147654  -0.0212948   0.0013203
    2   0.0187638  -0.0176576  -0.0006043  -0.0250990   0.0217970   0.0015947
    3   0.0000001   0.0000014   0.0000016  -0.0000021  -0.0000009  -0.0000014
            7
    1   0.0106220
    2   0.0012054
    3   0.0000012
 Max gradient component =       3.446E-02
 RMS gradient           =       1.616E-02
 Computing fast CPCM-SWIG gradient
 Updating gradient with PCM contributions...
 -- total gradient after adding PCM contribution --
---------------------------------------------------
  Atom         X              Y              Z     
---------------------------------------------------
   1      -0.000024       0.000095       0.000006
   2       0.000024      -0.000045      -0.000002
   3       0.000006      -0.000021       0.000000
   4      -0.000002       0.000011      -0.000001
   5       0.000000       0.000016      -0.000001
   6      -0.000013      -0.000053      -0.000002
   7       0.000008      -0.000004       0.000000
---------------------------------------------------
 Number of fixed atoms: 0
 Gradient time:  CPU 37.88 s  wall 6.19 s
 ######################################################
 ######################################################
 # Starting finite difference calculation for IDERIV  #
 Finite diff step size:  1.88973e-03 a.u.
 ----------------------------------------------------------------
             Standard Nuclear Orientation (Angstroms)
    I     Atom           X                Y                Z
 ----------------------------------------------------------------
    1      C       0.5986906250     0.1829920034     0.0003836046
    2      O      -0.2116925879     1.0809780819     0.0002834213
    3      C       2.1394850490     0.4145355110     0.0005056157
    4      O       2.4827968949     1.6120878250     0.0005925006
    5      O       2.8556453186    -0.6050976549     0.0004820653
    6      O       0.2596265223    -1.1065494245     0.0003349708
    7      H      -0.7087105219    -1.1729699418     0.0002458218
 ----------------------------------------------------------------
 Nuclear Repulsion Energy =         221.00058727 hartrees
 There are       23 alpha and       23 beta electrons
 Discretize the solute cavity surface with Lebedev spheres
	Using 110 Lebedev grid points for each H atom
	Using 194 Lebedev grid points for other atoms
	Atomic van der Waals radii will be scaled by 1.20
 Remove points where switching function is < 1.0e-08
 Keep 748 surface tesserae and discard 526 interior tesserae
 Molecular Surface Area = 92.636 Angst**2

                       Distance Matrix (Angstroms)
             C (  1)   O (  2)   C (  3)   O (  4)   O (  5)   O (  6)
   O (  2)  1.209587
   C (  3)  1.558095  2.443805
   O (  4)  2.364777  2.746334  1.245791
   O (  5)  2.390592  3.500202  1.246009  2.248317
   O (  6)  1.333372  2.237726  2.418174  3.511905  2.644006
   H (  7)  1.883595  2.308096  3.260735  4.235831  3.609309  0.970612

 
 Requested basis set is 6-311++G(2df,2p)
 There are 54 shells and 214 basis functions
 A cutoff of  1.0D-12 yielded   1398 shell pairs
 There are     22352 function pairs (     29060 Cartesian)
 Smallest overlap matrix eigenvalue = 9.27E-05
 Guess MOs from SCF MO coefficient file

 -----------------------------------------------------------------------
  General SCF calculation program by
  Eric Jon Sundstrom, Paul Horn, Yuezhi Mao, Dmitri Zuev, Alec White,
  David Stuck, Shaama M.S., Shane Yost, Joonho Lee, David Small,
  Daniel Levine, Susi Lehtola, Hugh Burton, Evgeny Epifanovsky,
  Bang C. Huynh
 -----------------------------------------------------------------------
 Exchange:     0.1500 Hartree-Fock + 1.0000 wB97M-V + LR-HF
 Correlation:  1.0000 wB97M-V
 Using SG-2 standard quadrature grid
 Nonlocal Correlation:  VV10 with C = 0.0100 and b = 6.00 and scale = 1.00000
 Grid used for NLC:  SG-1 standard quadrature
 
 Citation of the SMD model:
 Marenich, A.V.; Cramer, C.J.; Truhlar, D.G.
 J. Phys. Chem. B 2009, 113, 6378-6396.
 iSolventCode=           1
 Solvent: water                                                           
 
 vradii
            1           2           3           4           5           6
    1   1.8500000   1.5200000   1.8500000   1.5200000   1.5200000   1.5200000
            7
    1   1.2000000
 -------------------------------------------------------
 OpenMP BLAS3 based DFT computing Module                
 Release: version 1.0, May 2013, Q-Chem Inc. Pittsburgh 
 -------------------------------------------------------
 A unrestricted SCF calculation will be
 performed using Roothaan-Hall, DIIS, GDM
 SCF converges when RMS gradient is below 1.0e-07
 ---------------------------------------
  Cycle       Energy         DIIS error
 ---------------------------------------
    1    -377.8172950583      4.34e-04  Roothaan Step
 ---------------------------------------
  Cycle       Energy         DIIS error
 ---------------------------------------
    1    -377.9406836203      4.83e-04  
    2    -377.9464919231      4.30e-04  Done DIIS. Switching to GDM
 ---------------------------------------
  Cycle       Energy        RMS Gradient
 ---------------------------------------
    1    -377.9464919231      1.61e-02   Normal BFGS step
    2    -377.9458828820      2.14e-02  Line search: overstep
    3    -377.9491367060      3.86e-03   Normal BFGS step
    4    -377.9493389754      1.97e-03   Normal BFGS step
    5    -377.9493617426      1.35e-03   Normal BFGS step
    6    -377.9493721345      2.17e-04   Normal BFGS step
    7    -377.9493729250      8.12e-05   Normal BFGS step
    8    -377.9493730497      4.32e-05   Normal BFGS step
    9    -377.9493730569      3.36e-05   Normal BFGS step
   10    -377.9493730636      2.97e-06   Normal BFGS step
   11    -377.9493730638      1.64e-06   Normal BFGS step
   12    -377.9493730639      9.09e-07   Normal BFGS step
   13    -377.9493730639      3.24e-07   Normal BFGS step
   14    -377.9493730639      1.32e-07   Normal BFGS step
   15    -377.9493730639      4.62e-08  Convergence criterion met
 ---------------------------------------
 SCF time:   CPU 214.72s  wall 28.00s 
<S^2> =          0.000000000
(3)  G-ENP(liq) elect-nuc-pol free energy of system     -377.949373064 a.u.
(4)  G-CDS(liq) cavity-dispersion-solvent structure 
     free energy                                                5.6595 kcal/mol
(6)  G-S(liq) free energy of system                     -377.940354152 a.u.
 SCF   energy in the final basis set =     -377.9403541516
 Total energy in the final basis set =     -377.9403541516
 
 --------------------------------------------------------------
 
                    Orbital Energies (a.u.)
 --------------------------------------------------------------
 
 Alpha MOs
 -- Occupied --
-19.3841 -19.3363 -19.2962 -19.2958 -10.4851 -10.4562  -1.2505  -1.1803
 -1.1594  -1.0938  -0.7978  -0.6734  -0.6176  -0.5943  -0.5840  -0.5424
 -0.5256  -0.5145  -0.4404  -0.4357  -0.3805  -0.3741  -0.3593
 -- Virtual --
  0.0391   0.0454   0.0663   0.0804   0.0894   0.1039   0.1176   0.1177
  0.1469   0.1653   0.1990   0.2126   0.2276   0.2297   0.2532   0.2836
  0.2857   0.3033   0.3085   0.3151   0.3201   0.3328   0.3460   0.3542
  0.3629   0.3643   0.3952   0.4188   0.4326   0.4459   0.4968   0.5717
  0.6068   0.6140   0.6677   0.7090   0.7196   0.7229   0.7562   0.7692
  0.7796   0.8283   0.8700   0.8847   0.8902   0.9374   1.0407   1.0630
  1.0859   1.1035   1.1162   1.1226   1.1370   1.1577   1.1677   1.1743
  1.2054   1.2249   1.2727   1.2783   1.2899   1.3743   1.3988   1.4399
  1.5201   1.5983   1.6081   1.6262   1.6269   1.6293   1.6897   1.7537
  1.7648   1.8137   1.8486   1.8957   1.9359   1.9964   2.0024   2.0674
  2.1092   2.1987   2.3448   2.3680   2.4643   2.4908   2.5071   2.6240
  2.6488   2.6701   2.7028   2.8013   2.8418   2.8745   2.8859   2.8984
  3.0911   3.1166   3.1299   3.2187   3.2627   3.3020   3.3601   3.3740
  3.4100   3.4497   3.4825   3.4974   3.5092   3.6082   3.6443   3.6476
  3.6597   3.7525   3.7624   3.8050   3.9680   4.0134   4.0348   4.0760
  4.1585   4.2186   4.3452   4.3938   4.7556   5.1214   5.1362   5.1645
  5.1659   5.1776   5.1819   5.1940   5.2003   5.2100   5.2178   5.2225
  5.2754   5.2814   5.3012   5.3144   5.3840   5.4070   5.4353   5.5001
  5.5876   5.5990   5.5995   5.6215   5.6271   5.7099   5.8535   5.8893
  5.9288   6.0367   6.1499   6.2583   6.4281   6.5278   6.6714   6.8575
  6.9053   6.9198   6.9224   6.9932   6.9987   7.0066   7.0512   7.0533
  7.1184   7.2154   7.2491   7.3015   7.3165   7.3467   7.3841   7.4807
  7.5153   7.5464   7.6243   7.7261   7.7796   7.7918   7.8729   7.9043
  7.9406  25.0625  25.2246  50.5647  50.6668  50.7212  50.7694
 
 Beta MOs
 -- Occupied --
-19.3841 -19.3363 -19.2962 -19.2958 -10.4851 -10.4562  -1.2505  -1.1803
 -1.1594  -1.0938  -0.7978  -0.6734  -0.6176  -0.5943  -0.5840  -0.5424
 -0.5256  -0.5145  -0.4404  -0.4357  -0.3805  -0.3741  -0.3593
 -- Virtual --
  0.0391   0.0454   0.0663   0.0804   0.0894   0.1039   0.1176   0.1177
  0.1469   0.1653   0.1990   0.2126   0.2276   0.2297   0.2532   0.2836
  0.2857   0.3033   0.3085   0.3151   0.3201   0.3328   0.3460   0.3542
  0.3629   0.3643   0.3952   0.4188   0.4326   0.4459   0.4968   0.5717
  0.6068   0.6140   0.6677   0.7090   0.7196   0.7229   0.7562   0.7692
  0.7796   0.8283   0.8700   0.8847   0.8902   0.9374   1.0407   1.0630
  1.0859   1.1035   1.1162   1.1226   1.1370   1.1577   1.1677   1.1743
  1.2054   1.2249   1.2727   1.2783   1.2899   1.3743   1.3988   1.4399
  1.5201   1.5983   1.6081   1.6262   1.6269   1.6293   1.6897   1.7537
  1.7648   1.8137   1.8486   1.8957   1.9359   1.9964   2.0024   2.0674
  2.1092   2.1987   2.3448   2.3680   2.4643   2.4908   2.5071   2.6240
  2.6488   2.6701   2.7028   2.8013   2.8418   2.8745   2.8859   2.8984
  3.0911   3.1166   3.1299   3.2187   3.2627   3.3020   3.3601   3.3740
  3.4100   3.4497   3.4825   3.4974   3.5092   3.6082   3.6443   3.6476
  3.6597   3.7525   3.7624   3.8050   3.9680   4.0134   4.0348   4.0760
  4.1585   4.2186   4.3452   4.3938   4.7556   5.1214   5.1362   5.1645
  5.1659   5.1776   5.1819   5.1940   5.2003   5.2100   5.2178   5.2225
  5.2754   5.2814   5.3012   5.3144   5.3840   5.4070   5.4353   5.5001
  5.5876   5.5990   5.5995   5.6215   5.6271   5.7099   5.8535   5.8893
  5.9288   6.0367   6.1499   6.2583   6.4281   6.5278   6.6714   6.8575
  6.9053   6.9198   6.9224   6.9932   6.9987   7.0066   7.0512   7.0533
  7.1184   7.2154   7.2491   7.3015   7.3165   7.3467   7.3841   7.4807
  7.5153   7.5464   7.6243   7.7261   7.7796   7.7918   7.8729   7.9043
  7.9406  25.0625  25.2246  50.5647  50.6668  50.7212  50.7694
 --------------------------------------------------------------
 
          Ground-State Mulliken Net Atomic Charges

     Atom                 Charge (a.u.)    Spin (a.u.)
  --------------------------------------------------------
      1 C                     0.362399       0.000000
      2 O                    -0.503171       0.000000
      3 C                     0.371048       0.000000
      4 O                    -0.633028       0.000000
      5 O                    -0.636245       0.000000
      6 O                    -0.321983       0.000000
      7 H                     0.360979       0.000000
  --------------------------------------------------------
  Sum of atomic charges =    -1.000000
  Sum of spin   charges =     0.000000

 -----------------------------------------------------------------
                    Cartesian Multipole Moments
 -----------------------------------------------------------------
    Charge (ESU x 10^10)
                -4.8032
    Dipole Moment (Debye)
         X     -13.2105      Y      -4.7803      Z      -0.0025
       Tot      14.0488
    Quadrupole Moments (Debye-Ang)
        XX     -71.8686     XY      -1.9898     YY     -49.3361
        XZ      -0.0071     YZ      -0.0022     ZZ     -33.9019
    Octopole Moments (Debye-Ang^2)
       XXX    -259.3666    XXY     -23.7010    XYY     -78.0512
       YYY     -46.0594    XXZ      -0.0357    XYZ      -0.0035
       YYZ      -0.0228    XZZ     -46.8225    YZZ      -8.5919
       ZZZ      -0.0439
    Hexadecapole Moments (Debye-Ang^3)
      XXXX   -1089.7112   XXXY     -79.8291   XXYY    -232.7201
      XYYY     -81.7726   YYYY    -278.6278   XXXZ      -0.1378
      XXYZ      -0.0163   XYYZ      -0.0416   YYYZ      -0.0255
      XXZZ    -127.8734   XYZZ     -16.3568   YYZZ     -47.0832
      XZZZ      -0.0735   YZZZ      -0.0153   ZZZZ     -31.9171
 -----------------------------------------------------------------
 Calculating analytic gradient of the SCF energy
 Gradient of CDS energy
            1           2           3           4           5           6
    1  -0.0029865   0.0008974   0.0031557  -0.0005755  -0.0011893   0.0010211
    2  -0.0024039  -0.0010079   0.0005574  -0.0019292   0.0015694   0.0035029
    3  -0.0000003   0.0000001   0.0000002  -0.0000001   0.0000000   0.0000001
            7
    1  -0.0003230
    2  -0.0002886
    3  -0.0000000
 Gradient of SCF Energy
            1           2           3           4           5           6
    1  -0.0332271   0.0315875   0.0260414  -0.0147866  -0.0213222   0.0011043
    2   0.0184235  -0.0170836  -0.0006449  -0.0251119   0.0217967   0.0015188
    3   0.0000002   0.0000014   0.0000016  -0.0000021  -0.0000009  -0.0000015
            7
    1   0.0106026
    2   0.0011012
    3   0.0000012
 Max gradient component =       3.323E-02
 RMS gradient           =       1.590E-02
 Computing fast CPCM-SWIG gradient
 Updating gradient with PCM contributions...
 -- total gradient after adding PCM contribution --
---------------------------------------------------
  Atom         X              Y              Z     
---------------------------------------------------
   1       0.001399      -0.000240       0.000006
   2      -0.000732       0.000534      -0.000002
   3      -0.000298      -0.000055       0.000000
   4      -0.000018      -0.000005      -0.000001
   5      -0.000028       0.000031      -0.000001
   6      -0.000299      -0.000155      -0.000002
   7      -0.000022      -0.000110       0.000000
---------------------------------------------------
 Number of fixed atoms: 0
 Gradient time:  CPU 38.28 s  wall 5.60 s
 ----------------------------------------------------------------
             Standard Nuclear Orientation (Angstroms)
    I     Atom           X                Y                Z
 ----------------------------------------------------------------
    1      C       0.5966906250     0.1829920034     0.0003836046
    2      O      -0.2116925879     1.0809780819     0.0002834213
    3      C       2.1394850490     0.4145355110     0.0005056157
    4      O       2.4827968949     1.6120878250     0.0005925006
    5      O       2.8556453186    -0.6050976549     0.0004820653
    6      O       0.2596265223    -1.1065494245     0.0003349708
    7      H      -0.7087105219    -1.1729699418     0.0002458218
 ----------------------------------------------------------------
 Nuclear Repulsion Energy =         221.00122987 hartrees
 There are       23 alpha and       23 beta electrons
 Discretize the solute cavity surface with Lebedev spheres
	Using 110 Lebedev grid points for each H atom
	Using 194 Lebedev grid points for other atoms
	Atomic van der Waals radii will be scaled by 1.20
 Remove points where switching function is < 1.0e-08
 Keep 748 surface tesserae and discard 526 interior tesserae
 Molecular Surface Area = 92.632 Angst**2

                       Distance Matrix (Angstroms)
             C (  1)   O (  2)   C (  3)   O (  4)   O (  5)   O (  6)
   O (  2)  1.208248
   C (  3)  1.560073  2.443805
   O (  4)  2.366371  2.746334  1.245791
   O (  5)  2.392480  3.500202  1.246009  2.248317
   O (  6)  1.332865  2.237726  2.418174  3.511905  2.644006
   H (  7)  1.882207  2.308096  3.260735  4.235831  3.609309  0.970612

 
 Requested basis set is 6-311++G(2df,2p)
 There are 54 shells and 214 basis functions
 A cutoff of  1.0D-12 yielded   1398 shell pairs
 There are     22352 function pairs (     29060 Cartesian)
 Smallest overlap matrix eigenvalue = 9.34E-05
 Guess MOs from SCF MO coefficient file

 -----------------------------------------------------------------------
  General SCF calculation program by
  Eric Jon Sundstrom, Paul Horn, Yuezhi Mao, Dmitri Zuev, Alec White,
  David Stuck, Shaama M.S., Shane Yost, Joonho Lee, David Small,
  Daniel Levine, Susi Lehtola, Hugh Burton, Evgeny Epifanovsky,
  Bang C. Huynh
 -----------------------------------------------------------------------
 Exchange:     0.1500 Hartree-Fock + 1.0000 wB97M-V + LR-HF
 Correlation:  1.0000 wB97M-V
 Using SG-2 standard quadrature grid
 Nonlocal Correlation:  VV10 with C = 0.0100 and b = 6.00 and scale = 1.00000
 Grid used for NLC:  SG-1 standard quadrature
 
 Citation of the SMD model:
 Marenich, A.V.; Cramer, C.J.; Truhlar, D.G.
 J. Phys. Chem. B 2009, 113, 6378-6396.
 iSolventCode=           1
 Solvent: water                                                           
 
 vradii
            1           2           3           4           5           6
    1   1.8500000   1.5200000   1.8500000   1.5200000   1.5200000   1.5200000
            7
    1   1.2000000
 -------------------------------------------------------
 OpenMP BLAS3 based DFT computing Module                
 Release: version 1.0, May 2013, Q-Chem Inc. Pittsburgh 
 -------------------------------------------------------
 A unrestricted SCF calculation will be
 performed using Roothaan-Hall, DIIS, GDM
 SCF converges when RMS gradient is below 1.0e-07
 ---------------------------------------
  Cycle       Energy         DIIS error
 ---------------------------------------
    1    -377.8172830671      4.34e-04  Roothaan Step
 ---------------------------------------
  Cycle       Energy         DIIS error
 ---------------------------------------
    1    -377.9407161320      4.82e-04  
    2    -377.9465530642      4.26e-04  Done DIIS. Switching to GDM
 ---------------------------------------
  Cycle       Energy        RMS Gradient
 ---------------------------------------
    1    -377.9465530642      1.59e-02   Normal BFGS step
    2    -377.9459781457      2.12e-02  Line search: overstep
    3    -377.9491478932      3.91e-03   Normal BFGS step
    4    -377.9493503463      1.96e-03   Normal BFGS step
    5    -377.9493730689      1.33e-03   Normal BFGS step
    6    -377.9493832760      2.23e-04   Normal BFGS step
    7    -377.9493840814      8.07e-05   Normal BFGS step
    8    -377.9493842083      4.38e-05   Normal BFGS step
    9    -377.9493842157      3.34e-05   Normal BFGS step
   10    -377.9493842223      3.11e-06   Normal BFGS step
   11    -377.9493842226      1.65e-06   Normal BFGS step
   12    -377.9493842226      9.00e-07   Normal BFGS step
   13    -377.9493842226      3.35e-07   Normal BFGS step
   14    -377.9493842226      1.35e-07   Normal BFGS step
   15    -377.9493842226      4.79e-08  Convergence criterion met
 ---------------------------------------
 SCF time:   CPU 212.99s  wall 26.00s 
<S^2> =         -0.000000000
(3)  G-ENP(liq) elect-nuc-pol free energy of system     -377.949384223 a.u.
(4)  G-CDS(liq) cavity-dispersion-solvent structure 
     free energy                                                5.6665 kcal/mol
(6)  G-S(liq) free energy of system                     -377.940354061 a.u.
 SCF   energy in the final basis set =     -377.9403540614
 Total energy in the final basis set =     -377.9403540614
 
 --------------------------------------------------------------
 
                    Orbital Energies (a.u.)
 --------------------------------------------------------------
 
 Alpha MOs
 -- Occupied --
-19.3841 -19.3363 -19.2962 -19.2958 -10.4849 -10.4562  -1.2508  -1.1802
 -1.1599  -1.0937  -0.7973  -0.6731  -0.6178  -0.5943  -0.5841  -0.5423
 -0.5258  -0.5146  -0.4406  -0.4360  -0.3805  -0.3739  -0.3591
 -- Virtual --
  0.0391   0.0459   0.0663   0.0804   0.0893   0.1039   0.1176   0.1177
  0.1468   0.1653   0.1990   0.2126   0.2277   0.2297   0.2533   0.2836
  0.2857   0.3032   0.3085   0.3151   0.3201   0.3328   0.3461   0.3543
  0.3629   0.3642   0.3950   0.4187   0.4322   0.4465   0.4973   0.5716
  0.6065   0.6141   0.6679   0.7088   0.7193   0.7229   0.7566   0.7693
  0.7799   0.8286   0.8700   0.8848   0.8903   0.9376   1.0408   1.0630
  1.0858   1.1036   1.1162   1.1226   1.1367   1.1577   1.1675   1.1743
  1.2054   1.2250   1.2727   1.2782   1.2898   1.3745   1.3988   1.4402
  1.5199   1.5981   1.6084   1.6262   1.6270   1.6293   1.6898   1.7536
  1.7649   1.8132   1.8489   1.8956   1.9360   1.9965   2.0027   2.0677
  2.1092   2.1984   2.3448   2.3683   2.4643   2.4911   2.5075   2.6241
  2.6486   2.6708   2.7025   2.8015   2.8423   2.8750   2.8860   2.8976
  3.0910   3.1161   3.1305   3.2193   3.2622   3.3022   3.3604   3.3737
  3.4102   3.4489   3.4833   3.4972   3.5106   3.6084   3.6441   3.6469
  3.6599   3.7523   3.7624   3.8049   3.9677   4.0130   4.0313   4.0758
  4.1583   4.2195   4.3437   4.3945   4.7533   5.1213   5.1362   5.1645
  5.1659   5.1776   5.1820   5.1940   5.2003   5.2100   5.2189   5.2227
  5.2754   5.2814   5.3011   5.3139   5.3848   5.4070   5.4364   5.5005
  5.5879   5.5991   5.5998   5.6217   5.6265   5.7101   5.8530   5.8890
  5.9296   6.0397   6.1506   6.2601   6.4299   6.5293   6.6749   6.8589
  6.9053   6.9198   6.9219   6.9934   6.9988   7.0074   7.0511   7.0533
  7.1198   7.2159   7.2493   7.3019   7.3168   7.3466   7.3850   7.4809
  7.5152   7.5468   7.6243   7.7272   7.7795   7.7917   7.8731   7.9043
  7.9405  25.0649  25.2233  50.5652  50.6674  50.7213  50.7705
 
 Beta MOs
 -- Occupied --
-19.3841 -19.3363 -19.2962 -19.2958 -10.4849 -10.4562  -1.2508  -1.1802
 -1.1599  -1.0937  -0.7973  -0.6731  -0.6178  -0.5943  -0.5841  -0.5423
 -0.5258  -0.5146  -0.4406  -0.4360  -0.3805  -0.3739  -0.3591
 -- Virtual --
  0.0391   0.0459   0.0663   0.0804   0.0893   0.1039   0.1176   0.1177
  0.1468   0.1653   0.1990   0.2126   0.2277   0.2297   0.2533   0.2836
  0.2857   0.3032   0.3085   0.3151   0.3201   0.3328   0.3461   0.3543
  0.3629   0.3642   0.3950   0.4187   0.4322   0.4465   0.4973   0.5716
  0.6065   0.6141   0.6679   0.7088   0.7193   0.7229   0.7566   0.7693
  0.7799   0.8286   0.8700   0.8848   0.8903   0.9376   1.0408   1.0630
  1.0858   1.1036   1.1162   1.1226   1.1367   1.1577   1.1675   1.1743
  1.2054   1.2250   1.2727   1.2782   1.2898   1.3745   1.3988   1.4402
  1.5199   1.5981   1.6084   1.6262   1.6270   1.6293   1.6898   1.7536
  1.7649   1.8132   1.8489   1.8956   1.9360   1.9965   2.0027   2.0677
  2.1092   2.1984   2.3448   2.3683   2.4643   2.4911   2.5075   2.6241
  2.6486   2.6708   2.7025   2.8015   2.8423   2.8750   2.8860   2.8976
  3.0910   3.1161   3.1305   3.2193   3.2622   3.3022   3.3604   3.3737
  3.4102   3.4489   3.4833   3.4972   3.5106   3.6084   3.6441   3.6469
  3.6599   3.7523   3.7624   3.8049   3.9677   4.0130   4.0313   4.0758
  4.1583   4.2195   4.3437   4.3945   4.7533   5.1213   5.1362   5.1645
  5.1659   5.1776   5.1820   5.1940   5.2003   5.2100   5.2189   5.2227
  5.2754   5.2814   5.3011   5.3139   5.3848   5.4070   5.4364   5.5005
  5.5879   5.5991   5.5998   5.6217   5.6265   5.7101   5.8530   5.8890
  5.9296   6.0397   6.1506   6.2601   6.4299   6.5293   6.6749   6.8589
  6.9053   6.9198   6.9219   6.9934   6.9988   7.0074   7.0511   7.0533
  7.1198   7.2159   7.2493   7.3019   7.3168   7.3466   7.3850   7.4809
  7.5152   7.5468   7.6243   7.7272   7.7795   7.7917   7.8731   7.9043
  7.9405  25.0649  25.2233  50.5652  50.6674  50.7213  50.7705
 --------------------------------------------------------------
 
          Ground-State Mulliken Net Atomic Charges

     Atom                 Charge (a.u.)    Spin (a.u.)
  --------------------------------------------------------
      1 C                     0.361342       0.000000
      2 O                    -0.502178       0.000000
      3 C                     0.371124       0.000000
      4 O                    -0.633192       0.000000
      5 O                    -0.636408       0.000000
      6 O                    -0.321422       0.000000
      7 H                     0.360734       0.000000
  --------------------------------------------------------
  Sum of atomic charges =    -1.000000
  Sum of spin   charges =     0.000000

 -----------------------------------------------------------------
                    Cartesian Multipole Moments
 -----------------------------------------------------------------
    Charge (ESU x 10^10)
                -4.8032
    Dipole Moment (Debye)
         X     -13.2233      Y      -4.7784      Z      -0.0025
       Tot      14.0602
    Quadrupole Moments (Debye-Ang)
        XX     -71.8939     XY      -1.9956     YY     -49.3318
        XZ      -0.0071     YZ      -0.0022     ZZ     -33.9011
    Octopole Moments (Debye-Ang^2)
       XXX    -259.4096    XXY     -23.7085    XYY     -78.0536
       YYY     -46.0556    XXZ      -0.0357    XYZ      -0.0035
       YYZ      -0.0228    XZZ     -46.8239    YZZ      -8.5897
       ZZZ      -0.0439
    Hexadecapole Moments (Debye-Ang^3)
      XXXX   -1089.8755   XXXY     -79.8493   XXYY    -232.7540
      XYYY     -81.7981   YYYY    -278.6010   XXXZ      -0.1378
      XXYZ      -0.0163   XYYZ      -0.0416   YYYZ      -0.0255
      XXZZ    -127.8874   XYZZ     -16.3599   YYZZ     -47.0801
      XZZZ      -0.0735   YZZZ      -0.0153   ZZZZ     -31.9180
 -----------------------------------------------------------------
 Calculating analytic gradient of the SCF energy
 Gradient of CDS energy
            1           2           3           4           5           6
    1  -0.0029662   0.0008833   0.0031598  -0.0005755  -0.0011892   0.0010104
    2  -0.0023985  -0.0009953   0.0005578  -0.0019291   0.0015694   0.0034843
    3  -0.0000003   0.0000001   0.0000002  -0.0000001   0.0000000   0.0000001
            7
    1  -0.0003227
    2  -0.0002886
    3  -0.0000000
 Gradient of SCF Energy
            1           2           3           4           5           6
    1  -0.0357000   0.0329388   0.0265958  -0.0147443  -0.0212678   0.0015360
    2   0.0191075  -0.0182350  -0.0005640  -0.0250863   0.0217974   0.0016706
    3   0.0000000   0.0000015   0.0000016  -0.0000021  -0.0000008  -0.0000014
            7
    1   0.0106414
    2   0.0013098
    3   0.0000012
 Max gradient component =       3.570E-02
 RMS gradient           =       1.642E-02
 Computing fast CPCM-SWIG gradient
 Updating gradient with PCM contributions...
 -- total gradient after adding PCM contribution --
---------------------------------------------------
  Atom         X              Y              Z     
---------------------------------------------------
   1      -0.001446       0.000435       0.000005
   2       0.000782      -0.000627      -0.000002
   3       0.000310       0.000013       0.000000
   4       0.000014       0.000026      -0.000001
   5       0.000029       0.000001      -0.000001
   6       0.000274       0.000049      -0.000002
   7       0.000037       0.000103       0.000000
---------------------------------------------------
 Number of fixed atoms: 0
 Gradient time:  CPU 37.95 s  wall 5.55 s
 ----------------------------------------------------------------
             Standard Nuclear Orientation (Angstroms)
    I     Atom           X                Y                Z
 ----------------------------------------------------------------
    1      C       0.5976906250     0.1839920034     0.0003836046
    2      O      -0.2116925879     1.0809780819     0.0002834213
    3      C       2.1394850490     0.4145355110     0.0005056157
    4      O       2.4827968949     1.6120878250     0.0005925006
    5      O       2.8556453186    -0.6050976549     0.0004820653
    6      O       0.2596265223    -1.1065494245     0.0003349708
    7      H      -0.7087105219    -1.1729699418     0.0002458218
 ----------------------------------------------------------------
 Nuclear Repulsion Energy =         221.00179704 hartrees
 There are       23 alpha and       23 beta electrons
 Discretize the solute cavity surface with Lebedev spheres
	Using 110 Lebedev grid points for each H atom
	Using 194 Lebedev grid points for other atoms
	Atomic van der Waals radii will be scaled by 1.20
 Remove points where switching function is < 1.0e-08
 Keep 748 surface tesserae and discard 526 interior tesserae
 Molecular Surface Area = 92.634 Angst**2

                       Distance Matrix (Angstroms)
             C (  1)   O (  2)   C (  3)   O (  4)   O (  5)   O (  6)
   O (  2)  1.208174
   C (  3)  1.558936  2.443805
   O (  4)  2.364970  2.746334  1.245791
   O (  5)  2.391866  3.500202  1.246009  2.248317
   O (  6)  1.334086  2.237726  2.418174  3.511905  2.644006
   H (  7)  1.883621  2.308096  3.260735  4.235831  3.609309  0.970612

 
 Requested basis set is 6-311++G(2df,2p)
 There are 54 shells and 214 basis functions
 A cutoff of  1.0D-12 yielded   1398 shell pairs
 There are     22352 function pairs (     29060 Cartesian)
 Smallest overlap matrix eigenvalue = 9.31E-05
 Guess MOs from SCF MO coefficient file

 -----------------------------------------------------------------------
  General SCF calculation program by
  Eric Jon Sundstrom, Paul Horn, Yuezhi Mao, Dmitri Zuev, Alec White,
  David Stuck, Shaama M.S., Shane Yost, Joonho Lee, David Small,
  Daniel Levine, Susi Lehtola, Hugh Burton, Evgeny Epifanovsky,
  Bang C. Huynh
 -----------------------------------------------------------------------
 Exchange:     0.1500 Hartree-Fock + 1.0000 wB97M-V + LR-HF
 Correlation:  1.0000 wB97M-V
 Using SG-2 standard quadrature grid
 Nonlocal Correlation:  VV10 with C = 0.0100 and b = 6.00 and scale = 1.00000
 Grid used for NLC:  SG-1 standard quadrature
 
 Citation of the SMD model:
 Marenich, A.V.; Cramer, C.J.; Truhlar, D.G.
 J. Phys. Chem. B 2009, 113, 6378-6396.
 iSolventCode=           1
 Solvent: water                                                           
 
 vradii
            1           2           3           4           5           6
    1   1.8500000   1.5200000   1.8500000   1.5200000   1.5200000   1.5200000
            7
    1   1.2000000
 -------------------------------------------------------
 OpenMP BLAS3 based DFT computing Module                
 Release: version 1.0, May 2013, Q-Chem Inc. Pittsburgh 
 -------------------------------------------------------
 A unrestricted SCF calculation will be
 performed using Roothaan-Hall, DIIS, GDM
 SCF converges when RMS gradient is below 1.0e-07
 ---------------------------------------
  Cycle       Energy         DIIS error
 ---------------------------------------
    1    -377.8172952797      4.35e-04  Roothaan Step
 ---------------------------------------
  Cycle       Energy         DIIS error
 ---------------------------------------
    1    -377.9406954886      4.83e-04  
    2    -377.9465108928      4.29e-04  Done DIIS. Switching to GDM
 ---------------------------------------
  Cycle       Energy        RMS Gradient
 ---------------------------------------
    1    -377.9465108928      1.61e-02   Normal BFGS step
    2    -377.9459200979      2.14e-02  Line search: overstep
    3    -377.9491382836      3.87e-03   Normal BFGS step
    4    -377.9493400968      1.95e-03   Normal BFGS step
    5    -377.9493627393      1.34e-03   Normal BFGS step
    6    -377.9493730010      2.22e-04   Normal BFGS step
    7    -377.9493738016      8.10e-05   Normal BFGS step
    8    -377.9493739268      4.35e-05   Normal BFGS step
    9    -377.9493739341      3.35e-05   Normal BFGS step
   10    -377.9493739408      3.03e-06   Normal BFGS step
   11    -377.9493739410      1.62e-06   Normal BFGS step
   12    -377.9493739411      8.84e-07   Normal BFGS step
   13    -377.9493739411      3.27e-07   Normal BFGS step
   14    -377.9493739411      1.34e-07   Normal BFGS step
   15    -377.9493739411      4.73e-08  Convergence criterion met
 ---------------------------------------
 SCF time:   CPU 213.10s  wall 27.00s 
<S^2> =          0.000000000
(3)  G-ENP(liq) elect-nuc-pol free energy of system     -377.949373941 a.u.
(4)  G-CDS(liq) cavity-dispersion-solvent structure 
     free energy                                                5.6601 kcal/mol
(6)  G-S(liq) free energy of system                     -377.940353974 a.u.
 SCF   energy in the final basis set =     -377.9403539741
 Total energy in the final basis set =     -377.9403539741
 
 --------------------------------------------------------------
 
                    Orbital Energies (a.u.)
 --------------------------------------------------------------
 
 Alpha MOs
 -- Occupied --
-19.3839 -19.3364 -19.2962 -19.2958 -10.4850 -10.4562  -1.2505  -1.1803
 -1.1598  -1.0937  -0.7974  -0.6731  -0.6177  -0.5943  -0.5840  -0.5424
 -0.5258  -0.5145  -0.4405  -0.4360  -0.3805  -0.3740  -0.3592
 -- Virtual --
  0.0391   0.0457   0.0663   0.0804   0.0894   0.1039   0.1176   0.1178
  0.1468   0.1653   0.1990   0.2126   0.2277   0.2297   0.2532   0.2836
  0.2857   0.3032   0.3085   0.3151   0.3200   0.3328   0.3460   0.3542
  0.3629   0.3642   0.3951   0.4187   0.4324   0.4459   0.4973   0.5717
  0.6067   0.6140   0.6677   0.7089   0.7196   0.7229   0.7566   0.7692
  0.7796   0.8286   0.8699   0.8847   0.8902   0.9377   1.0406   1.0629
  1.0859   1.1035   1.1163   1.1225   1.1367   1.1577   1.1677   1.1743
  1.2054   1.2249   1.2727   1.2782   1.2898   1.3743   1.3988   1.4402
  1.5201   1.5984   1.6082   1.6262   1.6270   1.6293   1.6898   1.7535
  1.7651   1.8135   1.8488   1.8959   1.9359   1.9964   2.0024   2.0676
  2.1095   2.1987   2.3450   2.3676   2.4641   2.4911   2.5074   2.6241
  2.6485   2.6707   2.7028   2.8012   2.8421   2.8750   2.8859   2.8973
  3.0914   3.1162   3.1301   3.2189   3.2626   3.3017   3.3601   3.3738
  3.4099   3.4493   3.4831   3.4972   3.5099   3.6081   3.6443   3.6475
  3.6601   3.7523   3.7626   3.8050   3.9671   4.0132   4.0334   4.0762
  4.1581   4.2196   4.3448   4.3940   4.7547   5.1214   5.1362   5.1644
  5.1659   5.1776   5.1820   5.1941   5.2003   5.2100   5.2182   5.2226
  5.2754   5.2815   5.3012   5.3142   5.3844   5.4070   5.4360   5.5004
  5.5877   5.5991   5.5994   5.6218   5.6270   5.7099   5.8530   5.8892
  5.9294   6.0367   6.1501   6.2594   6.4303   6.5290   6.6726   6.8586
  6.9053   6.9198   6.9220   6.9934   6.9988   7.0071   7.0513   7.0533
  7.1201   7.2157   7.2491   7.3018   7.3166   7.3466   7.3839   7.4808
  7.5154   7.5465   7.6245   7.7263   7.7796   7.7918   7.8730   7.9043
  7.9405  25.0635  25.2239  50.5646  50.6675  50.7213  50.7706
 
 Beta MOs
 -- Occupied --
-19.3839 -19.3364 -19.2962 -19.2958 -10.4850 -10.4562  -1.2505  -1.1803
 -1.1598  -1.0937  -0.7974  -0.6731  -0.6177  -0.5943  -0.5840  -0.5424
 -0.5258  -0.5145  -0.4405  -0.4360  -0.3805  -0.3740  -0.3592
 -- Virtual --
  0.0391   0.0457   0.0663   0.0804   0.0894   0.1039   0.1176   0.1178
  0.1468   0.1653   0.1990   0.2126   0.2277   0.2297   0.2532   0.2836
  0.2857   0.3032   0.3085   0.3151   0.3200   0.3328   0.3460   0.3542
  0.3629   0.3642   0.3951   0.4187   0.4324   0.4459   0.4973   0.5717
  0.6067   0.6140   0.6677   0.7089   0.7196   0.7229   0.7566   0.7692
  0.7796   0.8286   0.8699   0.8847   0.8902   0.9377   1.0406   1.0629
  1.0859   1.1035   1.1163   1.1225   1.1367   1.1577   1.1677   1.1743
  1.2054   1.2249   1.2727   1.2782   1.2898   1.3743   1.3988   1.4402
  1.5201   1.5984   1.6082   1.6262   1.6270   1.6293   1.6898   1.7535
  1.7651   1.8135   1.8488   1.8959   1.9359   1.9964   2.0024   2.0676
  2.1095   2.1987   2.3450   2.3676   2.4641   2.4911   2.5074   2.6241
  2.6485   2.6707   2.7028   2.8012   2.8421   2.8750   2.8859   2.8973
  3.0914   3.1162   3.1301   3.2189   3.2626   3.3017   3.3601   3.3738
  3.4099   3.4493   3.4831   3.4972   3.5099   3.6081   3.6443   3.6475
  3.6601   3.7523   3.7626   3.8050   3.9671   4.0132   4.0334   4.0762
  4.1581   4.2196   4.3448   4.3940   4.7547   5.1214   5.1362   5.1644
  5.1659   5.1776   5.1820   5.1941   5.2003   5.2100   5.2182   5.2226
  5.2754   5.2815   5.3012   5.3142   5.3844   5.4070   5.4360   5.5004
  5.5877   5.5991   5.5994   5.6218   5.6270   5.7099   5.8530   5.8892
  5.9294   6.0367   6.1501   6.2594   6.4303   6.5290   6.6726   6.8586
  6.9053   6.9198   6.9220   6.9934   6.9988   7.0071   7.0513   7.0533
  7.1201   7.2157   7.2491   7.3018   7.3166   7.3466   7.3839   7.4808
  7.5154   7.5465   7.6245   7.7263   7.7796   7.7918   7.8730   7.9043
  7.9405  25.0635  25.2239  50.5646  50.6675  50.7213  50.7706
 --------------------------------------------------------------
 
          Ground-State Mulliken Net Atomic Charges

     Atom                 Charge (a.u.)    Spin (a.u.)
  --------------------------------------------------------
      1 C                     0.361942       0.000000
      2 O                    -0.501813       0.000000
      3 C                     0.371229       0.000000
      4 O                    -0.633048       0.000000
      5 O                    -0.636394       0.000000
      6 O                    -0.322628       0.000000
      7 H                     0.360712       0.000000
  --------------------------------------------------------
  Sum of atomic charges =    -1.000000
  Sum of spin   charges =     0.000000

 -----------------------------------------------------------------
                    Cartesian Multipole Moments
 -----------------------------------------------------------------
    Charge (ESU x 10^10)
                -4.8032
    Dipole Moment (Debye)
         X     -13.2182      Y      -4.7660      Z      -0.0025
       Tot      14.0511
    Quadrupole Moments (Debye-Ang)
        XX     -71.8786     XY      -1.9932     YY     -49.3348
        XZ      -0.0071     YZ      -0.0022     ZZ     -33.9009
    Octopole Moments (Debye-Ang^2)
       XXX    -259.3857    XXY     -23.7066    XYY     -78.0550
       YYY     -46.0403    XXZ      -0.0357    XYZ      -0.0035
       YYZ      -0.0228    XZZ     -46.8244    YZZ      -8.5855
       ZZZ      -0.0439
    Hexadecapole Moments (Debye-Ang^3)
      XXXX   -1089.7632   XXXY     -79.8699   XXYY    -232.7430
      XYYY     -81.7966   YYYY    -278.6331   XXXZ      -0.1378
      XXYZ      -0.0163   XYYZ      -0.0416   YYYZ      -0.0255
      XXZZ    -127.8781   XYZZ     -16.3608   YYZZ     -47.0835
      XZZZ      -0.0735   YZZZ      -0.0153   ZZZZ     -31.9159
 -----------------------------------------------------------------
 Calculating analytic gradient of the SCF energy
 Gradient of CDS energy
            1           2           3           4           5           6
    1  -0.0029791   0.0008841   0.0031575  -0.0005753  -0.0011897   0.0010253
    2  -0.0024454  -0.0009934   0.0005569  -0.0019292   0.0015689   0.0035320
    3  -0.0000003   0.0000001   0.0000002  -0.0000001   0.0000000   0.0000001
            7
    1  -0.0003229
    2  -0.0002899
    3  -0.0000000
 Gradient of SCF Energy
            1           2           3           4           5           6
    1  -0.0347955   0.0328138   0.0262612  -0.0148004  -0.0212675   0.0011843
    2   0.0200649  -0.0184034  -0.0007106  -0.0251009   0.0218019   0.0011523
    3   0.0000001   0.0000015   0.0000016  -0.0000021  -0.0000009  -0.0000015
            7
    1   0.0106041
    2   0.0011958
    3   0.0000012
 Max gradient component =       3.480E-02
 RMS gradient           =       1.635E-02
 Computing fast CPCM-SWIG gradient
 Updating gradient with PCM contributions...
 -- total gradient after adding PCM contribution --
---------------------------------------------------
  Atom         X              Y              Z     
---------------------------------------------------
   1      -0.000364       0.001467       0.000006
   2       0.000536      -0.000785      -0.000002
   3      -0.000040      -0.000142       0.000000
   4      -0.000070      -0.000037      -0.000001
   5       0.000068      -0.000002      -0.000001
   6      -0.000109      -0.000471      -0.000002
   7      -0.000021      -0.000030       0.000000
---------------------------------------------------
 Number of fixed atoms: 0
 Gradient time:  CPU 37.81 s  wall 5.53 s
 ----------------------------------------------------------------
             Standard Nuclear Orientation (Angstroms)
    I     Atom           X                Y                Z
 ----------------------------------------------------------------
    1      C       0.5976906250     0.1819920034     0.0003836046
    2      O      -0.2116925879     1.0809780819     0.0002834213
    3      C       2.1394850490     0.4145355110     0.0005056157
    4      O       2.4827968949     1.6120878250     0.0005925006
    5      O       2.8556453186    -0.6050976549     0.0004820653
    6      O       0.2596265223    -1.1065494245     0.0003349708
    7      H      -0.7087105219    -1.1729699418     0.0002458218
 ----------------------------------------------------------------
 Nuclear Repulsion Energy =         221.00003232 hartrees
 There are       23 alpha and       23 beta electrons
 Discretize the solute cavity surface with Lebedev spheres
	Using 110 Lebedev grid points for each H atom
	Using 194 Lebedev grid points for other atoms
	Atomic van der Waals radii will be scaled by 1.20
 Remove points where switching function is < 1.0e-08
 Keep 748 surface tesserae and discard 526 interior tesserae
 Molecular Surface Area = 92.635 Angst**2

                       Distance Matrix (Angstroms)
             C (  1)   O (  2)   C (  3)   O (  4)   O (  5)   O (  6)
   O (  2)  1.209660
   C (  3)  1.559233  2.443805
   O (  4)  2.366178  2.746334  1.245791
   O (  5)  2.391207  3.500202  1.246009  2.248317
   O (  6)  1.332151  2.237726  2.418174  3.511905  2.644006
   H (  7)  1.882181  2.308096  3.260735  4.235831  3.609309  0.970612

 
 Requested basis set is 6-311++G(2df,2p)
 There are 54 shells and 214 basis functions
 A cutoff of  1.0D-12 yielded   1398 shell pairs
 There are     22352 function pairs (     29060 Cartesian)
 Smallest overlap matrix eigenvalue = 9.31E-05
 Guess MOs from SCF MO coefficient file

 -----------------------------------------------------------------------
  General SCF calculation program by
  Eric Jon Sundstrom, Paul Horn, Yuezhi Mao, Dmitri Zuev, Alec White,
  David Stuck, Shaama M.S., Shane Yost, Joonho Lee, David Small,
  Daniel Levine, Susi Lehtola, Hugh Burton, Evgeny Epifanovsky,
  Bang C. Huynh
 -----------------------------------------------------------------------
 Exchange:     0.1500 Hartree-Fock + 1.0000 wB97M-V + LR-HF
 Correlation:  1.0000 wB97M-V
 Using SG-2 standard quadrature grid
 Nonlocal Correlation:  VV10 with C = 0.0100 and b = 6.00 and scale = 1.00000
 Grid used for NLC:  SG-1 standard quadrature
 
 Citation of the SMD model:
 Marenich, A.V.; Cramer, C.J.; Truhlar, D.G.
 J. Phys. Chem. B 2009, 113, 6378-6396.
 iSolventCode=           1
 Solvent: water                                                           
 
 vradii
            1           2           3           4           5           6
    1   1.8500000   1.5200000   1.8500000   1.5200000   1.5200000   1.5200000
            7
    1   1.2000000
 -------------------------------------------------------
 OpenMP BLAS3 based DFT computing Module                
 Release: version 1.0, May 2013, Q-Chem Inc. Pittsburgh 
 -------------------------------------------------------
 A unrestricted SCF calculation will be
 performed using Roothaan-Hall, DIIS, GDM
 SCF converges when RMS gradient is below 1.0e-07
 ---------------------------------------
  Cycle       Energy         DIIS error
 ---------------------------------------
    1    -377.8173012448      4.33e-04  Roothaan Step
 ---------------------------------------
  Cycle       Energy         DIIS error
 ---------------------------------------
    1    -377.9406785390      4.83e-04  
    2    -377.9464955814      4.31e-04  Done DIIS. Switching to GDM
 ---------------------------------------
  Cycle       Energy        RMS Gradient
 ---------------------------------------
    1    -377.9464955814      1.60e-02   Normal BFGS step
    2    -377.9458796008      2.13e-02  Line search: overstep
    3    -377.9491456337      3.88e-03   Normal BFGS step
    4    -377.9493490537      1.98e-03   Normal BFGS step
    5    -377.9493720411      1.35e-03   Normal BFGS step
    6    -377.9493824441      2.17e-04   Normal BFGS step
    7    -377.9493832367      8.08e-05   Normal BFGS step
    8    -377.9493833622      4.31e-05   Normal BFGS step
    9    -377.9493833694      3.37e-05   Normal BFGS step
   10    -377.9493833760      2.99e-06   Normal BFGS step
   11    -377.9493833763      1.65e-06   Normal BFGS step
   12    -377.9493833763      9.28e-07   Normal BFGS step
   13    -377.9493833763      3.30e-07   Normal BFGS step
   14    -377.9493833763      1.30e-07   Normal BFGS step
   15    -377.9493833763      4.54e-08  Convergence criterion met
 ---------------------------------------
 SCF time:   CPU 213.09s  wall 27.00s 
<S^2> =         -0.000000000
(3)  G-ENP(liq) elect-nuc-pol free energy of system     -377.949383376 a.u.
(4)  G-CDS(liq) cavity-dispersion-solvent structure 
     free energy                                                5.6658 kcal/mol
(6)  G-S(liq) free energy of system                     -377.940354334 a.u.
 SCF   energy in the final basis set =     -377.9403543338
 Total energy in the final basis set =     -377.9403543338
 
 --------------------------------------------------------------
 
                    Orbital Energies (a.u.)
 --------------------------------------------------------------
 
 Alpha MOs
 -- Occupied --
-19.3844 -19.3361 -19.2962 -19.2958 -10.4851 -10.4562  -1.2508  -1.1803
 -1.1595  -1.0937  -0.7977  -0.6734  -0.6177  -0.5943  -0.5840  -0.5424
 -0.5256  -0.5146  -0.4404  -0.4357  -0.3805  -0.3740  -0.3592
 -- Virtual --
  0.0391   0.0456   0.0663   0.0804   0.0893   0.1039   0.1176   0.1177
  0.1469   0.1653   0.1989   0.2125   0.2276   0.2297   0.2533   0.2836
  0.2857   0.3032   0.3085   0.3151   0.3201   0.3328   0.3460   0.3543
  0.3629   0.3642   0.3951   0.4188   0.4324   0.4465   0.4968   0.5716
  0.6066   0.6140   0.6678   0.7089   0.7194   0.7229   0.7562   0.7693
  0.7798   0.8283   0.8701   0.8848   0.8902   0.9372   1.0408   1.0631
  1.0858   1.1035   1.1161   1.1227   1.1370   1.1577   1.1674   1.1743
  1.2054   1.2251   1.2726   1.2783   1.2899   1.3745   1.3987   1.4399
  1.5199   1.5980   1.6083   1.6262   1.6269   1.6293   1.6896   1.7538
  1.7647   1.8134   1.8487   1.8954   1.9360   1.9965   2.0028   2.0674
  2.1089   2.1985   2.3447   2.3687   2.4644   2.4909   2.5072   2.6239
  2.6488   2.6702   2.7025   2.8017   2.8420   2.8745   2.8860   2.8987
  3.0907   3.1166   3.1303   3.2191   3.2623   3.3025   3.3604   3.3740
  3.4103   3.4492   3.4827   3.4974   3.5100   3.6085   3.6441   3.6470
  3.6596   3.7525   3.7623   3.8049   3.9686   4.0132   4.0327   4.0757
  4.1586   4.2184   4.3441   4.3943   4.7542   5.1213   5.1363   5.1646
  5.1659   5.1776   5.1820   5.1939   5.2003   5.2100   5.2186   5.2225
  5.2754   5.2812   5.3011   5.3142   5.3843   5.4070   5.4357   5.5002
  5.5878   5.5990   5.5999   5.6214   5.6266   5.7102   5.8535   5.8891
  5.9290   6.0397   6.1504   6.2590   6.4277   6.5281   6.6737   6.8578
  6.9053   6.9198   6.9222   6.9932   6.9987   7.0069   7.0510   7.0533
  7.1181   7.2156   7.2493   7.3015   7.3167   7.3466   7.3852   7.4808
  7.5150   7.5467   7.6242   7.7270   7.7795   7.7918   7.8730   7.9043
  7.9406  25.0639  25.2240  50.5653  50.6666  50.7213  50.7693
 
 Beta MOs
 -- Occupied --
-19.3844 -19.3361 -19.2962 -19.2958 -10.4851 -10.4562  -1.2508  -1.1803
 -1.1595  -1.0937  -0.7977  -0.6734  -0.6177  -0.5943  -0.5840  -0.5424
 -0.5256  -0.5146  -0.4404  -0.4357  -0.3805  -0.3740  -0.3592
 -- Virtual --
  0.0391   0.0456   0.0663   0.0804   0.0893   0.1039   0.1176   0.1177
  0.1469   0.1653   0.1989   0.2125   0.2276   0.2297   0.2533   0.2836
  0.2857   0.3032   0.3085   0.3151   0.3201   0.3328   0.3460   0.3543
  0.3629   0.3642   0.3951   0.4188   0.4324   0.4465   0.4968   0.5716
  0.6066   0.6140   0.6678   0.7089   0.7194   0.7229   0.7562   0.7693
  0.7798   0.8283   0.8701   0.8848   0.8902   0.9372   1.0408   1.0631
  1.0858   1.1035   1.1161   1.1227   1.1370   1.1577   1.1674   1.1743
  1.2054   1.2251   1.2726   1.2783   1.2899   1.3745   1.3987   1.4399
  1.5199   1.5980   1.6083   1.6262   1.6269   1.6293   1.6896   1.7538
  1.7647   1.8134   1.8487   1.8954   1.9360   1.9965   2.0028   2.0674
  2.1089   2.1985   2.3447   2.3687   2.4644   2.4909   2.5072   2.6239
  2.6488   2.6702   2.7025   2.8017   2.8420   2.8745   2.8860   2.8987
  3.0907   3.1166   3.1303   3.2191   3.2623   3.3025   3.3604   3.3740
  3.4103   3.4492   3.4827   3.4974   3.5100   3.6085   3.6441   3.6470
  3.6596   3.7525   3.7623   3.8049   3.9686   4.0132   4.0327   4.0757
  4.1586   4.2184   4.3441   4.3943   4.7542   5.1213   5.1363   5.1646
  5.1659   5.1776   5.1820   5.1939   5.2003   5.2100   5.2186   5.2225
  5.2754   5.2812   5.3011   5.3142   5.3843   5.4070   5.4357   5.5002
  5.5878   5.5990   5.5999   5.6214   5.6266   5.7102   5.8535   5.8891
  5.9290   6.0397   6.1504   6.2590   6.4277   6.5281   6.6737   6.8578
  6.9053   6.9198   6.9222   6.9932   6.9987   7.0069   7.0510   7.0533
  7.1181   7.2156   7.2493   7.3015   7.3167   7.3466   7.3852   7.4808
  7.5150   7.5467   7.6242   7.7270   7.7795   7.7918   7.8730   7.9043
  7.9406  25.0639  25.2240  50.5653  50.6666  50.7213  50.7693
 --------------------------------------------------------------
 
          Ground-State Mulliken Net Atomic Charges

     Atom                 Charge (a.u.)    Spin (a.u.)
  --------------------------------------------------------
      1 C                     0.361799       0.000000
      2 O                    -0.503537       0.000000
      3 C                     0.370945       0.000000
      4 O                    -0.633172       0.000000
      5 O                    -0.636258       0.000000
      6 O                    -0.320778       0.000000
      7 H                     0.361002       0.000000
  --------------------------------------------------------
  Sum of atomic charges =    -1.000000
  Sum of spin   charges =     0.000000

 -----------------------------------------------------------------
                    Cartesian Multipole Moments
 -----------------------------------------------------------------
    Charge (ESU x 10^10)
                -4.8032
    Dipole Moment (Debye)
         X     -13.2156      Y      -4.7928      Z      -0.0025
       Tot      14.0579
    Quadrupole Moments (Debye-Ang)
        XX     -71.8839     XY      -1.9922     YY     -49.3331
        XZ      -0.0071     YZ      -0.0022     ZZ     -33.9021
    Octopole Moments (Debye-Ang^2)
       XXX    -259.3905    XXY     -23.7029    XYY     -78.0497
       YYY     -46.0747    XXZ      -0.0357    XYZ      -0.0035
       YYZ      -0.0228    XZZ     -46.8219    YZZ      -8.5961
       ZZZ      -0.0439
    Hexadecapole Moments (Debye-Ang^3)
      XXXX   -1089.8231   XXXY     -79.8084   XXYY    -232.7310
      XYYY     -81.7741   YYYY    -278.5956   XXXZ      -0.1378
      XXYZ      -0.0163   XYYZ      -0.0416   YYYZ      -0.0255
      XXZZ    -127.8826   XYZZ     -16.3559   YYZZ     -47.0799
      XZZZ      -0.0735   YZZZ      -0.0153   ZZZZ     -31.9193
 -----------------------------------------------------------------
 Calculating analytic gradient of the SCF energy
 Gradient of CDS energy
            1           2           3           4           5           6
    1  -0.0029736   0.0008967   0.0031580  -0.0005757  -0.0011888   0.0010063
    2  -0.0023573  -0.0010099   0.0005582  -0.0019291   0.0015699   0.0034554
    3  -0.0000003   0.0000001   0.0000002  -0.0000001   0.0000000   0.0000001
            7
    1  -0.0003228
    2  -0.0002874
    3  -0.0000000
 Gradient of SCF Energy
            1           2           3           4           5           6
    1  -0.0341369   0.0317145   0.0263775  -0.0147303  -0.0213221   0.0014575
    2   0.0174608  -0.0169147  -0.0004979  -0.0250971   0.0217921   0.0020417
    3   0.0000002   0.0000014   0.0000016  -0.0000021  -0.0000009  -0.0000014
            7
    1   0.0106399
    2   0.0012151
    3   0.0000012
 Max gradient component =       3.414E-02
 RMS gradient           =       1.597E-02
 Computing fast CPCM-SWIG gradient
 Updating gradient with PCM contributions...
 -- total gradient after adding PCM contribution --
---------------------------------------------------
  Atom         X              Y              Z     
---------------------------------------------------
   1       0.000311      -0.001278       0.000006
   2      -0.000483       0.000693      -0.000002
   3       0.000052       0.000100       0.000000
   4       0.000066       0.000059      -0.000001
   5      -0.000067       0.000034      -0.000001
   6       0.000086       0.000369      -0.000002
   7       0.000036       0.000023       0.000000
---------------------------------------------------
 Number of fixed atoms: 0
 Gradient time:  CPU 37.76 s  wall 5.46 s
 ----------------------------------------------------------------
             Standard Nuclear Orientation (Angstroms)
    I     Atom           X                Y                Z
 ----------------------------------------------------------------
    1      C       0.5976906250     0.1829920034     0.0013836046
    2      O      -0.2116925879     1.0809780819     0.0002834213
    3      C       2.1394850490     0.4145355110     0.0005056157
    4      O       2.4827968949     1.6120878250     0.0005925006
    5      O       2.8556453186    -0.6050976549     0.0004820653
    6      O       0.2596265223    -1.1065494245     0.0003349708
    7      H      -0.7087105219    -1.1729699418     0.0002458218
 ----------------------------------------------------------------
 Nuclear Repulsion Energy =         221.00088501 hartrees
 There are       23 alpha and       23 beta electrons
 Discretize the solute cavity surface with Lebedev spheres
	Using 110 Lebedev grid points for each H atom
	Using 194 Lebedev grid points for other atoms
	Atomic van der Waals radii will be scaled by 1.20
 Remove points where switching function is < 1.0e-08
 Keep 748 surface tesserae and discard 526 interior tesserae
 Molecular Surface Area = 92.634 Angst**2

                       Distance Matrix (Angstroms)
             C (  1)   O (  2)   C (  3)   O (  4)   O (  5)   O (  6)
   O (  2)  1.208917
   C (  3)  1.559084  2.443805
   O (  4)  2.365574  2.746334  1.245791
   O (  5)  2.391536  3.500202  1.246009  2.248317
   O (  6)  1.333119  2.237726  2.418174  3.511905  2.644006
   H (  7)  1.882901  2.308096  3.260735  4.235831  3.609309  0.970612

 
 Requested basis set is 6-311++G(2df,2p)
 There are 54 shells and 214 basis functions
 A cutoff of  1.0D-12 yielded   1398 shell pairs
 There are     22352 function pairs (     29060 Cartesian)
 Smallest overlap matrix eigenvalue = 9.31E-05
 Guess MOs from SCF MO coefficient file

 -----------------------------------------------------------------------
  General SCF calculation program by
  Eric Jon Sundstrom, Paul Horn, Yuezhi Mao, Dmitri Zuev, Alec White,
  David Stuck, Shaama M.S., Shane Yost, Joonho Lee, David Small,
  Daniel Levine, Susi Lehtola, Hugh Burton, Evgeny Epifanovsky,
  Bang C. Huynh
 -----------------------------------------------------------------------
 Exchange:     0.1500 Hartree-Fock + 1.0000 wB97M-V + LR-HF
 Correlation:  1.0000 wB97M-V
 Using SG-2 standard quadrature grid
 Nonlocal Correlation:  VV10 with C = 0.0100 and b = 6.00 and scale = 1.00000
 Grid used for NLC:  SG-1 standard quadrature
 
 Citation of the SMD model:
 Marenich, A.V.; Cramer, C.J.; Truhlar, D.G.
 J. Phys. Chem. B 2009, 113, 6378-6396.
 iSolventCode=           1
 Solvent: water                                                           
 
 vradii
            1           2           3           4           5           6
    1   1.8500000   1.5200000   1.8500000   1.5200000   1.5200000   1.5200000
            7
    1   1.2000000
 -------------------------------------------------------
 OpenMP BLAS3 based DFT computing Module                
 Release: version 1.0, May 2013, Q-Chem Inc. Pittsburgh 
 -------------------------------------------------------
 A unrestricted SCF calculation will be
 performed using Roothaan-Hall, DIIS, GDM
 SCF converges when RMS gradient is below 1.0e-07
 ---------------------------------------
  Cycle       Energy         DIIS error
 ---------------------------------------
    1    -377.8172464489      4.35e-04  Roothaan Step
 ---------------------------------------
  Cycle       Energy         DIIS error
 ---------------------------------------
    1    -377.9406953940      4.83e-04  
    2    -377.9465195518      4.29e-04  Done DIIS. Switching to GDM
 ---------------------------------------
  Cycle       Energy        RMS Gradient
 ---------------------------------------
    1    -377.9465195518      1.60e-02   Normal BFGS step
    2    -377.9459270819      2.14e-02  Line search: overstep
    3    -377.9491435372      3.88e-03   Normal BFGS step
    4    -377.9493457040      1.96e-03   Normal BFGS step
    5    -377.9493684101      1.34e-03   Normal BFGS step
    6    -377.9493787257      2.19e-04   Normal BFGS step
    7    -377.9493795236      8.11e-05   Normal BFGS step
    8    -377.9493796493      4.37e-05   Normal BFGS step
    9    -377.9493796567      3.35e-05   Normal BFGS step
   10    -377.9493796634      3.04e-06   Normal BFGS step
   11    -377.9493796636      1.63e-06   Normal BFGS step
   12    -377.9493796637      8.88e-07   Normal BFGS step
   13    -377.9493796637      3.30e-07   Normal BFGS step
   14    -377.9493796637      1.32e-07   Normal BFGS step
   15    -377.9493796637      4.51e-08  Convergence criterion met
 ---------------------------------------
 SCF time:   CPU 213.96s  wall 27.00s 
<S^2> =          0.000000000
(3)  G-ENP(liq) elect-nuc-pol free energy of system     -377.949379664 a.u.
(4)  G-CDS(liq) cavity-dispersion-solvent structure 
     free energy                                                5.6630 kcal/mol
(6)  G-S(liq) free energy of system                     -377.940355120 a.u.
 SCF   energy in the final basis set =     -377.9403551203
 Total energy in the final basis set =     -377.9403551203
 
 --------------------------------------------------------------
 
                    Orbital Energies (a.u.)
 --------------------------------------------------------------
 
 Alpha MOs
 -- Occupied --
-19.3841 -19.3363 -19.2962 -19.2958 -10.4850 -10.4562  -1.2507  -1.1803
 -1.1596  -1.0937  -0.7975  -0.6733  -0.6177  -0.5943  -0.5840  -0.5424
 -0.5257  -0.5145  -0.4405  -0.4359  -0.3805  -0.3740  -0.3592
 -- Virtual --
  0.0391   0.0457   0.0663   0.0804   0.0894   0.1039   0.1176   0.1177
  0.1469   0.1653   0.1990   0.2126   0.2277   0.2297   0.2532   0.2836
  0.2857   0.3032   0.3085   0.3151   0.3201   0.3328   0.3460   0.3542
  0.3629   0.3642   0.3951   0.4187   0.4324   0.4462   0.4970   0.5716
  0.6066   0.6140   0.6678   0.7089   0.7194   0.7229   0.7564   0.7692
  0.7797   0.8285   0.8700   0.8847   0.8902   0.9375   1.0407   1.0630
  1.0858   1.1035   1.1162   1.1226   1.1369   1.1577   1.1676   1.1743
  1.2054   1.2250   1.2727   1.2782   1.2899   1.3744   1.3988   1.4401
  1.5200   1.5982   1.6082   1.6261   1.6271   1.6293   1.6897   1.7536
  1.7649   1.8135   1.8487   1.8957   1.9360   1.9965   2.0026   2.0675
  2.1092   2.1986   2.3448   2.3682   2.4643   2.4910   2.5073   2.6240
  2.6487   2.6704   2.7027   2.8014   2.8420   2.8747   2.8859   2.8980
  3.0911   3.1164   3.1302   3.2190   3.2624   3.3021   3.3602   3.3739
  3.4101   3.4493   3.4829   3.4973   3.5099   3.6083   3.6442   3.6473
  3.6598   3.7524   3.7624   3.8050   3.9678   4.0132   4.0331   4.0759
  4.1584   4.2190   4.3445   4.3942   4.7545   5.1214   5.1362   5.1645
[...]


     2 Order 1, Length 21
    Atom      X          Y          Z
     1   -4.006598776429050e-01   2.696351879393063e-01  -4.039440814302397e-05
     2    4.012275167642588e-01  -3.478569496788878e-01   4.494546738410459e-05
     3    2.008430767303164e-03   3.167681786248838e-02  -4.727489776616603e-06
     4   -9.921264033571976e-03  -3.462476311417996e-03  -9.791741956100289e-07
     5   -2.541446030795365e-02   8.352687730622751e-03  -3.548385507274732e-07
     6    3.374964837401039e-02   3.852958716132161e-02   7.261865946041024e-07
     7   -9.897576597408932e-04   3.125146456802892e-03   4.045332183768341e-07

Order 1, Length 21
    Atom      X          Y          Z
     1    3.071804564620514e-01  -3.909154705188558e-01   3.785377314267992e-05
     2   -3.478569496788878e-01   5.065574683462024e-01  -4.209006810836240e-05
     3    1.071222100472783e-03  -4.879974021609537e-03   8.957633910908153e-07
     4   -3.239248897097426e-03   6.138636058290707e-03  -4.892809696479467e-07
     5    5.349008964605177e-03   9.904446611850577e-04   2.927385937449154e-07
     6    2.838472429411025e-02  -1.242785344391456e-01   3.193057815768053e-06
     7    9.110585162992244e-03   6.387466836596389e-03   7.773080243116014e-07

Order 1, Length 21
    Atom      X          Y          Z
     1   -4.048366785715841e-05   3.295803652486502e-05  -6.570093955231474e-02
     2    4.494546738410459e-05  -4.209006810836240e-05   2.651147486744898e-02
     3   -6.030413385829196e-07   3.315064596072128e-06   2.358663638679057e-02
     4   -1.424898868147659e-06   2.343783833358818e-07  -2.851146959785625e-03
     5   -3.371512986992760e-06   1.423784142885817e-06  -3.013119024702085e-03
     6    5.982836927579071e-07   3.885907207619453e-06   2.655132177985802e-02
     7    3.680777331518308e-07   2.728672938572179e-07  -5.083999099715454e-03


     3 Order 1, Length 21
    Atom      X          Y          Z
     1   -1.609039795184587e-01  -2.436178856567385e-02  -9.419745437221637e-06
     2    2.008430767303164e-03   1.071222100472783e-03  -6.030413385829196e-07
     3    5.493770310111192e-01  -5.390929539439644e-02   1.840156611270999e-05
     4   -1.429740963528685e-01  -1.456478085355300e-01  -1.165311936011629e-05
     5   -2.569418609570477e-01   2.125284609892297e-01   2.720715047875387e-06
     6    8.203727833175084e-03   7.557948444008986e-03   1.319833915721457e-06
     7    1.230147456373632e-03   2.761233735519377e-03   9.273974192696084e-08

Order 1, Length 21
    Atom      X          Y          Z
     1   -1.803419659943290e-02  -6.398208744440617e-02  -1.438004618522923e-06
     2    3.167681786248838e-02  -4.879974021609537e-03   3.315064596072128e-06
     3   -5.390929539439644e-02   8.624757822552233e-01   3.228016329051452e-05
     4   -1.102606705643540e-01  -4.441459371168150e-01  -2.636984366054092e-05
     5    1.775901918588047e-01  -3.331505924054252e-01  -5.799434041786588e-06
     6   -2.706402556804114e-02  -1.143455471013776e-02  -2.486815837429515e-06
     7    1.429898951355173e-06  -4.882646445845972e-03  -1.932134002185156e-07

Order 1, Length 21
    Atom      X          Y          Z
     1   -2.830158764849836e-06   6.744225659190149e-08  -1.089506651407414e-01
     2   -4.727489776616603e-06   8.957633910908153e-07   2.358663638679057e-02
     3    1.840156611270999e-05   3.228016329051452e-05   2.073075974096477e-01
     4   -1.040369393329092e-05  -2.918271269693063e-05  -7.045961059290803e-02
     5    1.160297044715571e-06  -4.143818673269036e-06  -6.921249904453101e-02
     6   -9.368287409917745e-07   6.140027198531964e-08   1.210039875187542e-02
     7   -7.333454473326315e-07   0.000000000000000e+00   5.627616577851907e-03


     4 Order 1, Length 21
    Atom      X          Y          Z
     1   -8.560634822513747e-03  -3.586156527343748e-02  -3.607329310379241e-06
     2   -9.921264033571976e-03  -3.239248897097426e-03  -1.424898868147659e-06
     3   -1.429740963528685e-01  -1.102606705643540e-01  -1.040369393329092e-05
     4    1.396670111028023e-01   1.359797634411509e-01   1.518398486459726e-05
     5    3.777424573834744e-02   2.395116657550291e-02   2.185654744461133e-06
     6   -1.617390317833567e-02  -8.278663852689466e-03  -1.822726675582375e-06
     7    1.886962253249514e-04  -2.290740343331064e-03   0.000000000000000e+00

Order 1, Length 21
    Atom      X          Y          Z
     1   -8.222045851422253e-03  -2.557866088150956e-02  -2.578494054944728e-06
     2   -3.462476311417996e-03   6.138636058290707e-03   2.343783833358818e-07
     3   -1.456478085355300e-01  -4.441459371168150e-01  -2.918271269693063e-05
     4    1.359797634411509e-01   6.020406721694485e-01   4.057475172651401e-05
     5    3.516987513481372e-02  -1.329913078013891e-01  -7.382396760558694e-06
     6   -1.318981241256489e-02  -4.073830696668817e-03  -1.289872532793174e-06
     7   -6.274684805228860e-04  -1.389561397813553e-03  -4.221536371815350e-08

Order 1, Length 21
    Atom      X          Y          Z
     1   -3.763761870722470e-06  -4.578622929332402e-06   2.426728958635243e-02
     2   -9.791741956100289e-07  -4.892809696479467e-07  -2.851146959785625e-03
     3   -1.165311936011629e-05  -2.636984366054092e-05  -7.045961059290803e-02
     4    1.518398486459726e-05   4.057475172651401e-05   2.564147817331403e-02
     5    2.658877832328727e-06  -8.095138783694812e-06   2.499499703083042e-02
     6   -1.671849013997552e-06  -8.301727062116253e-07  -9.058535833481270e-04
     7    2.643898092078186e-07  -2.117751418986379e-07  -6.868711570337854e-04


     5 Order 1, Length 21
    Atom      X          Y          Z
     1   -1.509569668733768e-02   3.559600991103538e-02   1.836407374914790e-06
     2   -2.541446030795365e-02   5.349008964605177e-03  -3.371512986992760e-06
     3   -2.569418609570477e-01   1.775901918588047e-01   1.160297044715571e-06
     4    3.777424573834744e-02   3.516987513481372e-02   2.658877832328727e-06
     5    2.705510208870270e-01  -2.495881645415271e-01  -1.618364354589565e-06
     6   -1.195512027482582e-02  -5.282268537089877e-03  -1.546543210667364e-06
     7    1.082345260043110e-03   1.165367403694969e-03   1.306945930053564e-07

Order 1, Length 21
    Atom      X          Y          Z
     1    7.983084099270461e-03  -9.447813386033371e-03  -2.027530590714820e-06
     2    8.352687730622751e-03   9.904446611850577e-04   1.423784142885817e-06
     3    2.125284609892297e-01  -3.331505924054252e-01  -4.143818673269036e-06
     4    2.395116657550291e-02  -1.329913078013891e-01  -8.095138783694812e-06
     5   -2.495881645415271e-01   4.692259213011618e-01   1.265797750631369e-05
     6   -3.036867953747608e-03   3.933470197328022e-03   6.947865198066350e-07
     7   -1.907714907335635e-04   1.439880645821275e-03   1.665032685314746e-07

Order 1, Length 21
    Atom      X          Y          Z
     1   -2.251380296568926e-06  -1.496843257621507e-07   2.442316171285269e-02
     2   -3.548385507274732e-07   2.927385937449154e-07  -3.013119024702085e-03
     3    2.720715047875387e-06  -5.799434041786588e-06  -6.921249904453101e-02
     4    2.185654744461133e-06  -7.382396760558694e-06   2.499499703083042e-02
     5   -1.618364354589565e-06   1.265797750631369e-05   2.455212363113824e-02
     6   -8.700290573529165e-07   2.423151695245562e-07  -1.281609642013524e-03
     7    2.182903150638432e-07   1.384248817237671e-07  -4.627838154578414e-04


     6 Order 1, Length 21
    Atom      X          Y          Z
     1   -1.517661709881366e-01  -5.156159131725675e-02  -9.047323492911771e-06
     2    3.374964837401039e-02   2.838472429411025e-02   5.982836927579071e-07
     3    8.203727833175084e-03  -2.706402556804114e-02  -9.368287409917745e-07
     4   -1.617390317833567e-02  -1.318981241256489e-02  -1.671849013997552e-06
     5   -1.195512027482582e-02  -3.036867953747608e-03  -8.700290573529165e-07
     6    6.226620964073554e-01   5.766730538358247e-02   5.430868263863913e-05
     7   -4.847201381953067e-01   8.800301110698627e-03  -4.252742780433673e-05

Order 1, Length 21
    Atom      X          Y          Z
     1   -5.387417708312965e-02  -2.222895906852566e-01  -6.555470859748025e-06
     2    3.852958716132161e-02  -1.242785344391456e-01   3.885907207619453e-06
     3    7.557948444008986e-03  -1.143455471013776e-02   6.140027198531964e-08
     4   -8.278663852689466e-03  -4.073830696668817e-03  -8.301727062116253e-07
     5   -5.282268537089877e-03   3.933470197328022e-03   2.423151695245562e-07
     6    5.766730538358247e-02   3.994881727556149e-01   6.671882419630082e-06
     7   -3.631980405822718e-02  -4.134513377760460e-02  -3.334802236678106e-06

Order 1, Length 21
    Atom      X          Y          Z
     1   -9.976087762008812e-06  -7.193332873001329e-06  -5.771985084455040e-02
     2    7.261865946041024e-07   3.193057815768053e-06   2.655132177985802e-02
     3    1.319833915721457e-06  -2.486815837429515e-06   1.210039875187542e-02
     4   -1.822726675582375e-06  -1.289872532793174e-06  -9.058535833481270e-04
     5   -1.546543210667364e-06   6.947865198066350e-07  -1.281609642013524e-03
     6    5.430868263863913e-05   6.671882419630082e-06   3.745730654950396e-02
     7   -4.297126118641175e-05   4.102845078473579e-07  -1.620142470770288e-02


     7 Order 1, Length 21
    Atom      X          Y          Z
     1   -1.573574506522876e-02  -1.492344751621633e-02  -2.454049912595592e-06
     2   -9.897576597408932e-04   9.110585162992244e-03   3.680777331518308e-07
     3    1.230147456373632e-03   1.429898951355173e-06  -7.333454473326315e-07
     4    1.886962253249514e-04  -6.274684805228860e-04   2.643898092078186e-07
     5    1.082345260043110e-03  -1.907714907335635e-04   2.182903150638432e-07
     6   -4.847201381953067e-01  -3.631980405822718e-02  -4.297126118641175e-05
     7    4.989443696666968e-01   4.294947572505518e-02   4.545390041465103e-05

Order 1, Length 21
    Atom      X          Y          Z
     1   -5.651079724337005e-02  -1.392546972075461e-02  -4.898137152528462e-06
     2    3.125146456802892e-03   6.387466836596389e-03   2.728672938572179e-07
     3    2.761233735519377e-03  -4.882646445845972e-03   0.000000000000000e+00
     4   -2.290740343331064e-03  -1.389561397813553e-03  -2.117751418986379e-07
     5    1.165367403694969e-03   1.439880645821275e-03   1.384248817237671e-07
     6    8.800301110698627e-03  -4.134513377760460e-02   4.102845078473579e-07
     7    4.294947572505518e-02   5.371547741526157e-02   4.330197317672891e-06

Order 1, Length 21
    Atom      X          Y          Z
     1   -3.535131940976070e-06  -1.703807924893945e-06   4.607281248389559e-03
     2    4.045332183768341e-07   7.773080243116014e-07  -5.083999099715454e-03
     3    9.273974192696084e-08  -1.932134002185156e-07   5.627616577851907e-03
     4    0.000000000000000e+00  -4.221536371815350e-08  -6.868711570337854e-04
     5    1.306945930053564e-07   1.665032685314746e-07  -4.627838154578414e-04
     6   -4.252742780433673e-05  -3.334802236678106e-06  -1.620142470770288e-02
     7    4.545390041465103e-05   4.330197317672891e-06   1.220023369593286e-02




 # Finishing finite difference calculation for IDERIV #
 ######################################################
 ######################################################
 Requested basis set is 6-311++G(2df,2p)
 There are 54 shells and 214 basis functions
 **********************************************************************
 **                                                                  **
 **                       VIBRATIONAL ANALYSIS                       **
 **                       --------------------                       **
 **                                                                  **
 **        VIBRATIONAL FREQUENCIES (CM**-1) AND NORMAL MODES         **
 **     FORCE CONSTANTS (mDYN/ANGSTROM) AND REDUCED MASSES (AMU)     **
 **                  INFRARED INTENSITIES (KM/MOL)                   **
 **                                                                  **
 **********************************************************************
 

 Mode:                 1                      2                      3
 Frequency:         7.37                 293.31                 443.10
 Force Cnst:      0.0004                 0.5615                 1.3096
 Red. Mass:      13.2698                11.0778                11.3208
 IR Active:          YES                    YES                    YES
 IR Intens:        2.921                  2.658                  7.099
 Raman Active:       YES                    YES                    YES
               X      Y      Z        X      Y      Z        X      Y      Z
 C         -0.000  0.000  0.031   -0.044  0.161  0.000   -0.134 -0.026 -0.000
 O         -0.000  0.000  0.447   -0.352 -0.110 -0.000   -0.373 -0.225  0.000
 C          0.000  0.000  0.001   -0.042  0.123  0.000    0.209  0.079 -0.000
 O          0.000  0.000 -0.456    0.380  0.005  0.000    0.431  0.020  0.000
 O         -0.000 -0.000  0.458   -0.408 -0.129 -0.000    0.300  0.148  0.000
 O          0.000  0.000 -0.446    0.417  0.042  0.000   -0.388 -0.004 -0.000
 H          0.000 -0.000 -0.426    0.446 -0.342 -0.000   -0.416  0.347  0.000
 TransDip   0.000  0.000 -0.055    0.050  0.014  0.000   -0.014  0.084 -0.000

 Mode:                 4                      5                      6
 Frequency:       454.78                 538.76                 632.95
 Force Cnst:      0.3843                 2.2286                 0.3457
 Red. Mass:       3.1538                13.0315                 1.4645
 IR Active:          YES                    YES                    YES
 IR Intens:        0.661                  2.188                277.084
 Raman Active:       YES                    YES                    YES
               X      Y      Z        X      Y      Z        X      Y      Z
 C         -0.000 -0.000  0.307   -0.161  0.270  0.000   -0.000  0.000  0.093
 O         -0.000 -0.000 -0.103   -0.377  0.151 -0.000   -0.000  0.000 -0.051
 C          0.000  0.000  0.234    0.046 -0.314  0.000   -0.000 -0.000  0.111
 O          0.000  0.000 -0.106   -0.238 -0.289 -0.000   -0.000 -0.000 -0.031
 O          0.000  0.000 -0.106    0.433 -0.111 -0.000    0.000 -0.000 -0.029
 O         -0.000 -0.000 -0.033    0.250  0.297  0.000    0.000  0.000 -0.103
 H         -0.000  0.000 -0.904    0.291 -0.245 -0.001   -0.000 -0.000  0.982
 TransDip  -0.000  0.000  0.026   -0.025 -0.040 -0.000   -0.000 -0.000  0.533

 Mode:                 7                      8                      9
 Frequency:       680.05                 843.82                 867.42
 Force Cnst:      1.3263                 3.5616                 5.4413
 Red. Mass:       4.8675                 8.4898                12.2743
 IR Active:          YES                    YES                    YES
 IR Intens:      164.952                 43.895                  0.009
 Raman Active:       YES                    YES                    YES
               X      Y      Z        X      Y      Z        X      Y      Z
 C         -0.263 -0.044 -0.000   -0.153  0.062  0.000    0.000  0.000 -0.630
 O          0.049  0.252  0.000   -0.090  0.194 -0.000   -0.000  0.000  0.147
 C         -0.158 -0.009 -0.000    0.432  0.068 -0.000   -0.000 -0.000  0.712
 O          0.153 -0.104  0.000   -0.098  0.328  0.000    0.000  0.000 -0.163
 O          0.066  0.172  0.000    0.024 -0.345 -0.000    0.000 -0.000 -0.161
 O          0.042 -0.226  0.000   -0.045 -0.233 -0.000   -0.000 -0.000  0.121
 H          0.086 -0.842  0.000   -0.011 -0.665  0.000    0.000 -0.000 -0.085
 TransDip  -0.356 -0.206 -0.000    0.207  0.045  0.000    0.000 -0.000 -0.003

 Mode:                10                     11                     12
 Frequency:      1145.39                1310.16                1419.38
 Force Cnst:      2.3705                 2.3940                 8.8041
 Red. Mass:       3.0668                 2.3671                 7.4171
 IR Active:          YES                    YES                    YES
 IR Intens:      608.183                153.754                237.259
 Raman Active:       YES                    YES                    YES
               X      Y      Z        X      Y      Z        X      Y      Z
 C         -0.142 -0.218 -0.000   -0.150 -0.164 -0.000   -0.184 -0.305 -0.000
 O          0.077 -0.077  0.000   -0.000  0.052 -0.000   -0.030  0.101 -0.000
 C         -0.004  0.004 -0.000   -0.132 -0.016 -0.000    0.477  0.085  0.000
 O          0.029  0.080  0.000    0.045  0.116  0.000   -0.095 -0.236 -0.000
 O          0.012 -0.042 -0.000    0.075 -0.096 -0.000   -0.187  0.201  0.000
 O         -0.013  0.258  0.000    0.092  0.004  0.000    0.090  0.057  0.000
 H          0.084 -0.915  0.000   -0.002  0.944  0.000    0.018  0.690  0.000
 TransDip  -0.233 -0.755 -0.000   -0.367 -0.152 -0.000    0.421 -0.258  0.000

 Mode:                13                     14                     15
 Frequency:      1626.42                1755.74                3738.22
 Force Cnst:     20.1123                19.8163                 8.7673
 Red. Mass:      12.9046                10.9107                 1.0648
 IR Active:          YES                    YES                    YES
 IR Intens:     1543.330                543.916                187.379
 Raman Active:       YES                    YES                    YES
               X      Y      Z        X      Y      Z        X      Y      Z
 C         -0.043  0.004 -0.000    0.577 -0.481  0.000   -0.002 -0.002 -0.000
 O          0.043 -0.032  0.000   -0.331  0.348 -0.000   -0.000  0.001 -0.000
 C         -0.133  0.863  0.000   -0.118  0.041 -0.000    0.000  0.000 -0.000
 O         -0.083 -0.332 -0.000    0.018  0.014  0.000    0.000  0.000  0.000
 O          0.182 -0.282 -0.000    0.019 -0.028  0.000    0.000 -0.000  0.000
 O         -0.010 -0.002 -0.000   -0.049  0.023 -0.000   -0.061 -0.005 -0.000
 H         -0.009 -0.047 -0.000   -0.016 -0.429 -0.000    0.994  0.089  0.000
 TransDip  -0.229  1.237  0.000    0.353 -0.658  0.000    0.405  0.169  0.000

 STANDARD THERMODYNAMIC QUANTITIES AT   298.15 K  AND     1.00 ATM

   This Molecule has  0 Imaginary Frequencies
   Zero point vibrational energy:       22.526 kcal/mol

   Atom    1 Element C  Has Mass   12.00000
   Atom    2 Element O  Has Mass   15.99491
   Atom    3 Element C  Has Mass   12.00000
   Atom    4 Element O  Has Mass   15.99491
   Atom    5 Element O  Has Mass   15.99491
   Atom    6 Element O  Has Mass   15.99491
   Atom    7 Element H  Has Mass    1.00783
   Molecular Mass:    88.987470 amu
   Principal axes and moments of inertia in amu*Bohr^2:
                             1           2           3
    Eigenvalues --      290.84956   486.14659   776.99616
          X               0.97388    -0.22705    -0.00008
          Y               0.22705     0.97388    -0.00003
          Z               0.00008     0.00001     1.00000
   Rotational Symmetry Number is   1
   The Molecule is an Asymmetric Top
   Translational Enthalpy:        0.889 kcal/mol
   Rotational Enthalpy:           0.889 kcal/mol
   Vibrational Enthalpy:         24.105 kcal/mol
   gas constant (RT):             0.592 kcal/mol
   Translational Entropy:        39.370  cal/mol.K
   Rotational Entropy:           26.199  cal/mol.K
   Vibrational Entropy:          13.405  cal/mol.K

   Total Enthalpy:               26.475 kcal/mol
   Total Entropy:                78.974  cal/mol.K
 Total job time:  1419.05s(wall), 10968.06s(cpu) 
 Sat May  6 18:35:00 2023

        *************************************************************
        *                                                           *
        *  Thank you very much for using Q-Chem.  Have a nice day.  *
        *                                                           *
        *************************************************************


