
Running Job 1 of 1 Q_in.in
qchem Q_in.in_131463.0 /scratch/ari.fischer/qChem1525658.hpc-mn1/qchem131463/ 0
/usr/local/qchem-5.4.1/exe/qcprog.exe_s Q_in.in_131463.0 /scratch/ari.fischer/qChem1525658.hpc-mn1/qchem131463/
                  Welcome to Q-Chem
     A Quantum Leap Into The Future Of Chemistry


 Q-Chem 5.4, Q-Chem, Inc., Pleasanton, CA (2021)

 License issued to: Nanyang Technological University (site)

 E. Epifanovsky,  A. T. B. Gilbert,  Xintian Feng,  Joonho Lee,  Yuezhi Mao,  
 N. Mardirossian,  P. Pokhilko,  A. White,  M. Wormit,  M. P. Coons,  
 A. L. Dempwolff,  Zhengting Gan,  D. Hait,  P. R. Horn,  L. D. Jacobson,  
 I. Kaliman,  J. Kussmann,  A. W. Lange,  Ka Un Lao,  D. S. Levine,  Jie Liu,  
 S. C. McKenzie,  A. F. Morrison,  K. Nanda,  F. Plasser,  D. R. Rehn,  
 M. L. Vidal,  Zhi-Qiang You,  Ying Zhu,  B. Alam,  B. Albrecht,  
 A. Aldossary,  E. Alguire,  J. H. Andersen,  D. Barton,  K. Begam,  A. Behn,  
 Y. A. Bernard,  E. J. Berquist,  H. Burton,  A. Carreras,  K. Carter-Fenk,  
 R. Chakraborty,  A. D. Chien,  K. D. Closser,  V. Cofer-Shabica,  
 S. Dasgupta,  Jia Deng,  M. de Wergifosse,  M. Diedenhofen,  Hainam Do,  
 S. Ehlert,  Po-Tung Fang,  S. Fatehi,  Qingguo Feng,  T. Friedhoff,  
 J. Gayvert,  Qinghui Ge,  G. Gidofalvi,  M. Goldey,  J. Gomes,  
 C. Gonzalez-Espinoza,  S. Gulania,  A. Gunina,  M. W. D. Hanson-Heine,  
 P. H. P. Harbach,  A. W. Hauser,  M. F. Herbst,  M. Hernandez Vera,  
 M. Hodecker,  Z. C. Holden,  S. Houck,  Xunkun Huang,  Kerwin Hui,  
 B. C. Huynh,  M. Ivanov,  Hyunjun Ji,  Hanjie Jiang,  B. Kaduk,  S. Kaehler,  
 K. Khistyaev,  Jaehoon Kim,  P. Klunzinger,  Z. Koczor-Benda,  
 Joong Hoon Koh,  D. Kosenkov,  L. Koulias,  T. Kowalczyk,  C. M. Krauter,  
 K. Kue,  A. Kunitsa,  T. Kus,  A. Landau,  K. V. Lawler,  D. Lefrancois,  
 S. Lehtola,  Rain Li,  Yi-Pei Li,  Jiashu Liang,  M. Liebenthal,  
 Hung-Hsuan Lin,  You-Sheng Lin,  Fenglai Liu,  Kuan-Yu Liu,  
 M. Loipersberger,  A. Luenser,  A. Manjanath,  P. Manohar,  E. Mansoor,  
 S. F. Manzer,  Shan-Ping Mao,  A. V. Marenich,  T. Markovich,  S. Mason,  
 S. A. Maurer,  P. F. McLaughlin,  M. F. S. J. Menger,  J.-M. Mewes,  
 S. A. Mewes,  P. Morgante,  J. W. Mullinax,  K. J. Oosterbaan,  G. Paran,  
 Alexander C. Paul,  Suranjan K. Paul,  F. Pavosevic,  Zheng Pei,  S. Prager,  
 E. I. Proynov,  E. Ramos,  B. Rana,  A. E. Rask,  A. Rettig,  R. M. Richard,  
 F. Rob,  E. Rossomme,  T. Scheele,  M. Scheurer,  M. Schneider,  
 N. Sergueev,  S. M. Sharada,  W. Skomorowski,  D. W. Small,  C. J. Stein,  
 Yu-Chuan Su,  E. J. Sundstrom,  Zhen Tao,  J. Thirman,  T. Tsuchimochi,  
 N. M. Tubman,  S. P. Veccham,  O. Vydrov,  J. Wenzel,  J. Witte,  A. Yamada,  
 Kun Yao,  S. Yeganeh,  S. R. Yost,  A. Zech,  Igor Ying Zhang,  Xing Zhang,  
 Yu Zhang,  D. Zuev,  A. Aspuru-Guzik,  A. T. Bell,  N. A. Besley,  
 K. B. Bravaya,  B. R. Brooks,  D. Casanova,  Jeng-Da Chai,  S. Coriani,  
 C. J. Cramer,  A. E. DePrince, III,  R. A. DiStasio Jr.,  A. Dreuw,  
 B. D. Dunietz,  T. R. Furlani,  W. A. Goddard III,  S. Grimme,  
 S. Hammes-Schiffer,  T. Head-Gordon,  W. J. Hehre,  Chao-Ping Hsu,  
 T.-C. Jagau,  Yousung Jung,  A. Klamt,  Jing Kong,  D. S. Lambrecht,  
 WanZhen Liang,  N. J. Mayhall,  C. W. McCurdy,  J. B. Neaton,  
 C. Ochsenfeld,  J. A. Parkhill,  R. Peverati,  V. A. Rassolov,  Yihan Shao,  
 L. V. Slipchenko,  T. Stauch,  R. P. Steele,  J. E. Subotnik,  
 A. J. W. Thom,  A. Tkatchenko,  D. G. Truhlar,  T. Van Voorhis,  
 T. A. Wesolowski,  K. B. Whaley,  H. L. Woodcock III,  P. M. Zimmerman,  
 S. Faraji,  P. M. W. Gill,  M. Head-Gordon,  J. M. Herbert,  A. I. Krylov

 Additional authors for Version 5.4.1: 
 S. Kotaru,  Shaozhi Li,  Xiangyuan Li,  F. Matz,  A. Molle,  Haisheng Ren,  
 Yingli Su,  Hung-Yi Tsai,  C. Utku,  Fang Wang

 Contributors to earlier versions of Q-Chem not listed above: 
 R. D. Adamson,  B. Austin,  R. Baer,  J. Baker,  G. J. O. Beran,  
 K. Brandhorst,  S. T. Brown,  E. F. C. Byrd,  A. K. Chakraborty,  
 G. K. L. Chan,  Chun-Min Chang,  Yunqing Chen,  C.-L. Cheng,  
 Siu Hung Chien,  D. M. Chipman,  D. L. Crittenden,  H. Dachsel,  
 R. J. Doerksen,  A. D. Dutoi,  R. G. Edgar,  J. Fosso-Tande,  
 L. Fusti-Molnar,  D. Ghosh,  A. Ghysels,  A. Golubeva-Zadorozhnaya,  
 J. Gonthier,  M. S. Gordon,  S. R. Gwaltney,  G. Hawkins,  J. E. Herr,  
 A. Heyden,  S. Hirata,  E. G. Hohenstein,  G. Kedziora,  F. J. Keil,  
 C. Kelley,  Jihan Kim,  R. A. King,  R. Z. Khaliullin,  P. P. Korambath,  
 W. Kurlancheek,  A. Laurent,  A. M. Lee,  M. S. Lee,  S. V. Levchenko,  
 Ching Yeh Lin,  D. Liotard,  E. Livshits,  R. C. Lochan,  I. Lotan,  
 L. A. Martinez-Martinez,  P. E. Maslen,  N. Nair,  D. P. O'Neill,  
 D. Neuhauser,  E. Neuscamman,  C. M. Oana,  R. Olivares-Amaya,  R. Olson,  
 T. M. Perrine,  B. Peters,  P. A. Pieniazek,  A. Prociuk,  Y. M. Rhee,  
 J. Ritchie,  M. A. Rohrdanz,  E. Rosta,  N. J. Russ,  H. F. Schaefer III,  
 M. W. Schmidt,  N. E. Schultz,  S. Sharma,  N. Shenvi,  C. D. Sherrill,  
 A. C. Simmonett,  A. Sodt,  T. Stein,  D. Stuck,  K. S. Thanthiriwatte,  
 V. Vanovschi,  L. Vogt,  Tao Wang,  A. Warshel,  M. A. Watson,  
 C. F. Williams,  Q. Wu,  X. Xu,  Jun Yang,  W. Zhang,  Yan Zhao

 Please cite Q-Chem as follows:
 Y. Shao et al., Mol. Phys. 113, 184-215 (2015)
 DOI: 10.1080/00268976.2014.952696

 Q-Chem 5.4.1 for Intel X86 EM64T Linux

 Parts of Q-Chem use Armadillo 9.800.1 (Horizon Scraper).
 http://arma.sourceforge.net/

 Q-Chem begins on Sat May  6 17:15:36 2023  

 Host: 
0

     Scratch files written to /scratch/ari.fischer/qChem1525658.hpc-mn1/qchem131463//
 Aug1521 |scratch|qcdevops|jenkins|workspace|build_RNUM 8249   
 Processing $rem in /usr/local/qchem-5.4.1/config/preferences:
 Processing $rem in /home/ari.fischer/.qchemrc:
 Symmetry turned off for PCM/SM12/SMD calculation

 Checking the input file for inconsistencies... 	...done.

--------------------------------------------------------------
User input:
--------------------------------------------------------------
$molecule
-1 1
C         0.6026823240    0.1834390997    0.0003670977
O        -0.2190876987    1.0796294275    0.0002601402
C         2.1439076265    0.4142537606    0.0004835274
O         2.4783078794    1.6194609219    0.0007069546
O         2.8575905930   -0.6126796003    0.0004050805
O         0.2639515972   -1.1164511847    0.0003425851
H        -0.7125110214   -1.1616760247    0.0002626145
$end

$rem
BASIS = 6-311++G(2df,2p)
GUI = 2
JOB_TYPE = Optimization
METHOD = wB97M-V
SCF_ALGORITHM = DIIS_GDM
MAX_SCF_CYCLES = 400
GEOM_OPT_MAX_CYCLES = 150
SCF_CONVERGENCE = 7
THRESH = 12
Solvent_method = SMD
$end
--------------------------------------------------------------
 ----------------------------------------------------------------
             Standard Nuclear Orientation (Angstroms)
    I     Atom           X                Y                Z
 ----------------------------------------------------------------
    1      C       0.6026823240     0.1834390997     0.0003670977
    2      O      -0.2190876987     1.0796294275     0.0002601402
    3      C       2.1439076265     0.4142537606     0.0004835274
    4      O       2.4783078794     1.6194609219     0.0007069546
    5      O       2.8575905930    -0.6126796003     0.0004050805
    6      O       0.2639515972    -1.1164511847     0.0003425851
    7      H      -0.7125110214    -1.1616760247     0.0002626145
 ----------------------------------------------------------------
 Nuclear Repulsion Energy =         220.26706309 hartrees
 There are       23 alpha and       23 beta electrons
 Requested basis set is 6-311++G(2df,2p)
 There are 54 shells and 214 basis functions

 Total QAlloc Memory Limit 288000 MB
 Mega-Array Size       188 MB
 MEM_STATIC part       192 MB
 
 Citation of the SMD model:
 Marenich, A.V.; Cramer, C.J.; Truhlar, D.G.
 J. Phys. Chem. B 2009, 113, 6378-6396.
 iSolventCode=           1
 Solvent: water                                                           
 
 vradii
            1           2           3           4           5           6
    1   1.8500000   1.5200000   1.8500000   1.5200000   1.5200000   1.5200000
            7
    1   1.2000000
 Changing PCM_VDW_RADII to SMD_RADIUS
 Discretize the solute cavity surface with Lebedev spheres
	Using 110 Lebedev grid points for each H atom
	Using 194 Lebedev grid points for other atoms
	Atomic van der Waals radii will be scaled by 1.20
 Remove points where switching function is < 1.0e-08
 Keep 746 surface tesserae and discard 528 interior tesserae
 Molecular Surface Area = 92.875 Angst**2
 A cutoff of  1.0D-12 yielded   1398 shell pairs
 There are     22352 function pairs (     29060 Cartesian)
 Smallest overlap matrix eigenvalue = 9.26E-05

 Scale SEOQF with 1.000000e-01/1.000000e-01/1.000000e-01

 Standard Electronic Orientation quadrupole field applied
 Nucleus-field energy     =     0.0000000085 hartrees
 Guess from superposition of atomic densities
 Warning:  Energy on first SCF cycle will be non-variational
 SAD guess density has 45.000000 electrons

 -----------------------------------------------------------------------
  General SCF calculation program by
  Eric Jon Sundstrom, Paul Horn, Yuezhi Mao, Dmitri Zuev, Alec White,
  David Stuck, Shaama M.S., Shane Yost, Joonho Lee, David Small,
  Daniel Levine, Susi Lehtola, Hugh Burton, Evgeny Epifanovsky,
  Bang C. Huynh
 -----------------------------------------------------------------------
 Exchange:     0.1500 Hartree-Fock + 1.0000 wB97M-V + LR-HF
 Correlation:  1.0000 wB97M-V
 Using SG-2 standard quadrature grid
 Nonlocal Correlation:  VV10 with C = 0.0100 and b = 6.00 and scale = 1.00000
 Grid used for NLC:  SG-1 standard quadrature
 
 Citation of the SMD model:
 Marenich, A.V.; Cramer, C.J.; Truhlar, D.G.
 J. Phys. Chem. B 2009, 113, 6378-6396.
 iSolventCode=           1
 Solvent: water                                                           
 
 vradii
            1           2           3           4           5           6
    1   1.8500000   1.5200000   1.8500000   1.5200000   1.5200000   1.5200000
            7
    1   1.2000000
 using 8 threads for integral computing
 -------------------------------------------------------
 OpenMP Integral computing Module                
 Release: version 1.0, May 2013, Q-Chem Inc. Pittsburgh 
 -------------------------------------------------------
 -------------------------------------------------------
 OpenMP BLAS3 based DFT computing Module                
 Release: version 1.0, May 2013, Q-Chem Inc. Pittsburgh 
 -------------------------------------------------------
 A restricted SCF calculation will be
 performed using DIIS, GDM
 SCF converges when RMS gradient is below 1.0e-07
 ---------------------------------------
  Cycle       Energy         DIIS error
 ---------------------------------------
    1    -378.6904311720      3.55e-02  
    2    -377.7075467585      7.43e-03  Done DIIS. Switching to GDM
 ---------------------------------------
  Cycle       Energy        RMS Gradient
 ---------------------------------------
    1    -377.7075467585      1.93e-01   Descent step
    2    -377.9384535964      1.71e-02   Normal BFGS step
    3    -377.9475998234      1.59e-02   Normal BFGS step
    4    -377.9483494975      9.70e-03   Normal BFGS step
    5    -377.9488865198      1.27e-03   Normal BFGS step
    6    -377.9489035183      5.26e-04   Normal BFGS step
    7    -377.9489079492      1.49e-04   Normal BFGS step
    8    -377.9489081028      7.92e-05   Normal BFGS step
    9    -377.9489082204      3.22e-05   Normal BFGS step
   10    -377.9489082243      1.96e-05   Normal BFGS step
   11    -377.9489082269      3.31e-06   Normal BFGS step
   12    -377.9489082271      1.35e-06   Normal BFGS step
   13    -377.9489082271      3.93e-07   Normal BFGS step
   14    -377.9489082271      8.98e-08  Convergence criterion met
 ---------------------------------------
 SCF time:   CPU 206.47s  wall 26.00s 
(3)  G-ENP(liq) elect-nuc-pol free energy of system     -377.948908227 a.u.
(4)  G-CDS(liq) cavity-dispersion-solvent structure 
     free energy                                                5.5815 kcal/mol
(6)  G-S(liq) free energy of system                     -377.940013604 a.u.
 SCF   energy in the final basis set =     -377.9400136036
 Total energy in the final basis set =     -377.9400136036
 
 --------------------------------------------------------------
 
                    Orbital Energies (a.u.)
 --------------------------------------------------------------
 
 Alpha MOs
 -- Occupied --
-19.3846 -19.3379 -19.2981 -19.2975 -10.4872 -10.4590  -1.2466  -1.1781
 -1.1567  -1.0936  -0.7958  -0.6697  -0.6176  -0.5944  -0.5818  -0.5426
 -0.5263  -0.5131  -0.4398  -0.4355  -0.3812  -0.3750  -0.3604
 -- Virtual --
  0.0390   0.0425   0.0663   0.0805   0.0896   0.1039   0.1178   0.1178
  0.1472   0.1651   0.1958   0.2118   0.2268   0.2296   0.2529   0.2833
  0.2856   0.3030   0.3082   0.3138   0.3191   0.3326   0.3451   0.3517
  0.3624   0.3633   0.3940   0.4181   0.4299   0.4416   0.4929   0.5645
  0.6021   0.6136   0.6663   0.7077   0.7166   0.7225   0.7517   0.7663
  0.7792   0.8249   0.8705   0.8814   0.8895   0.9369   1.0356   1.0650
  1.0860   1.1020   1.1159   1.1214   1.1381   1.1566   1.1681   1.1723
  1.2048   1.2255   1.2722   1.2794   1.2903   1.3708   1.3961   1.4359
  1.5217   1.5988   1.6040   1.6230   1.6242   1.6254   1.6871   1.7422
  1.7643   1.8004   1.8425   1.8929   1.9299   1.9935   1.9971   2.0631
  2.1069   2.1891   2.3480   2.3612   2.4604   2.4861   2.5021   2.6198
  2.6400   2.6763   2.6985   2.7944   2.8406   2.8694   2.8831   2.8833
  3.0908   3.1100   3.1345   3.2188   3.2609   3.2964   3.3610   3.3714
  3.4092   3.4524   3.4766   3.4977   3.5000   3.5976   3.6423   3.6424
  3.6556   3.7482   3.7552   3.7967   3.9578   4.0048   4.0352   4.0706
  4.1586   4.2117   4.3371   4.3625   4.7491   5.1203   5.1366   5.1644
  5.1657   5.1772   5.1810   5.1927   5.1980   5.2070   5.2148   5.2212
  5.2732   5.2815   5.2982   5.3142   5.3839   5.4060   5.4307   5.4885
  5.5742   5.5805   5.5899   5.6075   5.6112   5.7040   5.8355   5.8777
  5.9031   6.0103   6.1252   6.2340   6.4092   6.5134   6.6420   6.8268
  6.9043   6.9108   6.9180   6.9879   6.9967   6.9974   7.0450   7.0499
  7.1066   7.1925   7.2446   7.2877   7.3133   7.3413   7.3483   7.4782
  7.5091   7.5301   7.6126   7.7191   7.7778   7.7816   7.8656   7.8993
  7.9359  25.0328  25.1975  50.5545  50.6593  50.7124  50.7570
 --------------------------------------------------------------
 
          Ground-State Mulliken Net Atomic Charges

     Atom                 Charge (a.u.)
  ----------------------------------------
      1 C                     0.361432
      2 O                    -0.501534
      3 C                     0.365947
      4 O                    -0.629350
      5 O                    -0.632561
      6 O                    -0.325776
      7 H                     0.361843
  ----------------------------------------
  Sum of atomic charges =    -1.000000

 -----------------------------------------------------------------
                    Cartesian Multipole Moments
 -----------------------------------------------------------------
    Charge (ESU x 10^10)
                -4.8032
    Dipole Moment (Debye)
         X     -13.1219      Y      -4.7018      Z      -0.0026
       Tot      13.9388
    Quadrupole Moments (Debye-Ang)
        XX     -71.6668     XY      -1.9568     YY     -49.5092
        XZ      -0.0074     YZ      -0.0031     ZZ     -33.9608
    Octopole Moments (Debye-Ang^2)
       XXX    -258.7894    XXY     -23.4758    XYY     -78.0939
       YYY     -45.6722    XXZ      -0.0361    XYZ      -0.0058
       YYZ      -0.0236    XZZ     -46.8512    YZZ      -8.5153
       ZZZ      -0.0439
    Hexadecapole Moments (Debye-Ang^3)
      XXXX   -1088.6780   XXXY     -78.9016   XXYY    -233.3665
      XYYY     -81.6052   YYYY    -280.9652   XXXZ      -0.1385
      XXYZ      -0.0235   XYYZ      -0.0441   YYYZ      -0.0309
      XXZZ    -128.0257   XYZZ     -16.2332   YYZZ     -47.4417
      XZZZ      -0.0741   YZZZ      -0.0192   ZZZZ     -32.0205
 -----------------------------------------------------------------
 Calculating analytic gradient of the SCF energy
 Gradient of CDS energy
            1           2           3           4           5           6
    1  -0.0031575   0.0009686   0.0032185  -0.0005895  -0.0012419   0.0011269
    2  -0.0027679  -0.0010655   0.0005827  -0.0020363   0.0016470   0.0039372
    3  -0.0000003   0.0000001   0.0000004  -0.0000004   0.0000001   0.0000001
            7
    1  -0.0003250
    2  -0.0002973
    3  -0.0000000
 Gradient of SCF Energy
            1           2           3           4           5           6
    1  -0.0253766   0.0244820   0.0229602  -0.0143820  -0.0185464   0.0060936
    2   0.0182675  -0.0097647  -0.0021887  -0.0185776   0.0159711  -0.0053044
    3   0.0000029   0.0000003  -0.0000031  -0.0000011   0.0000011  -0.0000005
            7
    1   0.0047693
    2   0.0015970
    3   0.0000005
 Max gradient component =       2.538E-02
 RMS gradient           =       1.281E-02
 Computing fast CPCM-SWIG gradient
 Updating gradient with PCM contributions...
 -- total gradient after adding PCM contribution --
---------------------------------------------------
  Atom         X              Y              Z     
---------------------------------------------------
   1       0.008715      -0.000195       0.000009
   2      -0.008701       0.008617      -0.000003
   3      -0.001686      -0.001507      -0.000011
   4      -0.000661       0.008049       0.000005
   5       0.002683      -0.007723       0.000002
   6       0.005802      -0.008446      -0.000001
   7      -0.006152       0.001205      -0.000000
---------------------------------------------------
 Number of fixed atoms: 0
 Gradient time:  CPU 43.64 s  wall 6.37 s
 Geometry Optimization Parameters
   NAtoms,    NIC,     NZ,  NCons,   NDum,   NFix, NCnnct, MaxDiis
        7      33       0       0       0       0       0       0


** GEOMETRY OPTIMIZATION IN DELOCALIZED INTERNAL COORDINATES **
   Searching for a Minimum

   Optimization Cycle:   1

                       Coordinates (Angstroms)
     ATOM                X               Y               Z
      1  C         0.6026823240    0.1834390997    0.0003670977
      2  O        -0.2190876987    1.0796294275    0.0002601402
      3  C         2.1439076265    0.4142537606    0.0004835274
      4  O         2.4783078794    1.6194609219    0.0007069546
      5  O         2.8575905930   -0.6126796003    0.0004050805
      6  O         0.2639515972   -1.1164511847    0.0003425851
      7  H        -0.7125110214   -1.1616760247    0.0002626145
   Point Group: c1    Number of degrees of freedom:    15


   Energy is   -377.940013604


 Attempting to generate delocalized internal coordinates
 Initial Hessian constructed with Jon Baker's OPTIMIZE code

 15 Hessian modes will be used to form the next step
  Hessian Eigenvalues:
     0.002000    0.002000    0.008927    0.023146    0.160000    0.250000
     0.250000    0.250000    0.250000    0.269481    0.518716    0.564719
     0.829644    0.830251    0.972137

 Minimum search - taking simple RFO step
 Searching for Lamda that Minimizes Along All modes
 Value Taken    Lamda =  -0.00061264
 Step Taken.  Stepsize is  0.036847

                             Maximum     Tolerance    Cnvgd?
         Gradient           0.012608      0.000300      NO
         Displacement       0.022096      0.001200      NO
         Energy change     *********      0.000001      NO


 New Cartesian Coordinates Obtained by Inverse Iteration

 Displacement from previous Coordinates is:  0.035601
 ----------------------------------------------------------------
             Standard Nuclear Orientation (Angstroms)
    I     Atom           X                Y                Z
 ----------------------------------------------------------------
    1      C       0.5996068600     0.1826251494     0.0005156327
    2      O      -0.2143335941     1.0769542540     0.0002332875
    3      C       2.1402629389     0.4151113653     0.0013865860
    4      O       2.4846537857     1.6124787189     0.0002133871
    5      O       2.8574926263    -0.6032158009     0.0000499744
    6      O       0.2583473767    -1.1097442277     0.0004267382
    7      H      -0.7111886935    -1.1682330591     0.0000023941
 ----------------------------------------------------------------
 Nuclear Repulsion Energy =         220.89015801 hartrees
 There are       23 alpha and       23 beta electrons
 Discretize the solute cavity surface with Lebedev spheres
	Using 110 Lebedev grid points for each H atom
	Using 194 Lebedev grid points for other atoms
	Atomic van der Waals radii will be scaled by 1.20
 Remove points where switching function is < 1.0e-08
 Keep 748 surface tesserae and discard 526 interior tesserae
 Molecular Surface Area = 92.671 Angst**2
 Applying Cartesian multipole field
    Component          Value
    ---------          -----
     (2,0,0)        1.00000E-11
     (0,2,0)        2.00000E-11
     (0,0,2)       -3.00000E-11
 Nucleus-field energy     =     0.0000000085 hartrees
 Requested basis set is 6-311++G(2df,2p)
 There are 54 shells and 214 basis functions
 A cutoff of  1.0D-12 yielded   1398 shell pairs
 There are     22352 function pairs (     29060 Cartesian)
 Smallest overlap matrix eigenvalue = 9.23E-05
 Guess MOs from SCF MO coefficient file

 -----------------------------------------------------------------------
  General SCF calculation program by
  Eric Jon Sundstrom, Paul Horn, Yuezhi Mao, Dmitri Zuev, Alec White,
  David Stuck, Shaama M.S., Shane Yost, Joonho Lee, David Small,
  Daniel Levine, Susi Lehtola, Hugh Burton, Evgeny Epifanovsky,
  Bang C. Huynh
 -----------------------------------------------------------------------
 Exchange:     0.1500 Hartree-Fock + 1.0000 wB97M-V + LR-HF
 Correlation:  1.0000 wB97M-V
 Using SG-2 standard quadrature grid
 Nonlocal Correlation:  VV10 with C = 0.0100 and b = 6.00 and scale = 1.00000
 Grid used for NLC:  SG-1 standard quadrature
 
 Citation of the SMD model:
 Marenich, A.V.; Cramer, C.J.; Truhlar, D.G.
 J. Phys. Chem. B 2009, 113, 6378-6396.
 iSolventCode=           1
 Solvent: water                                                           
 
 vradii
            1           2           3           4           5           6
    1   1.8500000   1.5200000   1.8500000   1.5200000   1.5200000   1.5200000
            7
    1   1.2000000
 -------------------------------------------------------
 OpenMP BLAS3 based DFT computing Module                
 Release: version 1.0, May 2013, Q-Chem Inc. Pittsburgh 
 -------------------------------------------------------
 A restricted SCF calculation will be
 performed using Roothaan-Hall, DIIS, GDM
 SCF converges when RMS gradient is below 1.0e-07
 ---------------------------------------
  Cycle       Energy         DIIS error
 ---------------------------------------
    1    -377.8177572706      8.74e-04  Roothaan Step
 ---------------------------------------
  Cycle       Energy         DIIS error
 ---------------------------------------
    1    -377.9406698719      9.65e-04  
    2    -377.9464574320      8.58e-04  Done DIIS. Switching to GDM
 ---------------------------------------
  Cycle       Energy        RMS Gradient
 ---------------------------------------
    1    -377.9464574320      1.63e-02   Normal BFGS step
    2    -377.9458434013      2.15e-02  Line search: overstep
    3    -377.9490890356      3.40e-03   Normal BFGS step
    4    -377.9492988567      2.03e-03   Normal BFGS step
    5    -377.9493207694      1.52e-03   Normal BFGS step
    6    -377.9493317627      2.04e-04   Normal BFGS step
    7    -377.9493324843      9.52e-05   Normal BFGS step
    8    -377.9493326019      4.18e-05   Normal BFGS step
    9    -377.9493326099      3.28e-05   Normal BFGS step
   10    -377.9493326163      3.16e-06   Normal BFGS step
   11    -377.9493326165      1.84e-06   Normal BFGS step
   12    -377.9493326166      9.14e-07   Normal BFGS step
   13    -377.9493326166      3.52e-07   Normal BFGS step
   14    -377.9493326166      1.44e-07   Normal BFGS step
   15    -377.9493326166      5.01e-08  Convergence criterion met
 ---------------------------------------
 SCF time:   CPU 236.16s  wall 30.00s 
(3)  G-ENP(liq) elect-nuc-pol free energy of system     -377.949332617 a.u.
(4)  G-CDS(liq) cavity-dispersion-solvent structure 
     free energy                                                5.6455 kcal/mol
(6)  G-S(liq) free energy of system                     -377.940336006 a.u.
 SCF   energy in the final basis set =     -377.9403360058
 Total energy in the final basis set =     -377.9403360058
 
 --------------------------------------------------------------
 
                    Orbital Energies (a.u.)
 --------------------------------------------------------------
 
 Alpha MOs
 -- Occupied --
-19.3838 -19.3368 -19.2964 -19.2959 -10.4855 -10.4565  -1.2499  -1.1806
 -1.1591  -1.0938  -0.7972  -0.6726  -0.6177  -0.5944  -0.5836  -0.5426
 -0.5262  -0.5146  -0.4403  -0.4359  -0.3806  -0.3742  -0.3596
 -- Virtual --
  0.0391   0.0449   0.0663   0.0804   0.0894   0.1039   0.1176   0.1177
  0.1471   0.1652   0.1988   0.2124   0.2276   0.2297   0.2532   0.2837
  0.2856   0.3032   0.3084   0.3145   0.3199   0.3328   0.3455   0.3533
  0.3629   0.3640   0.3948   0.4187   0.4324   0.4446   0.4969   0.5721
  0.6064   0.6137   0.6684   0.7091   0.7196   0.7234   0.7556   0.7688
  0.7793   0.8282   0.8700   0.8838   0.8900   0.9372   1.0397   1.0638
  1.0857   1.1036   1.1163   1.1226   1.1370   1.1578   1.1673   1.1739
  1.2054   1.2246   1.2727   1.2775   1.2890   1.3738   1.3988   1.4389
  1.5212   1.5987   1.6081   1.6260   1.6262   1.6295   1.6884   1.7537
  1.7650   1.8139   1.8477   1.8952   1.9358   1.9952   2.0012   2.0664
  2.1084   2.1995   2.3451   2.3657   2.4628   2.4914   2.5070   2.6233
  2.6481   2.6721   2.7032   2.8000   2.8416   2.8748   2.8856   2.8954
  3.0907   3.1163   3.1298   3.2180   3.2638   3.3005   3.3602   3.3741
  3.4086   3.4494   3.4813   3.4982   3.5079   3.6063   3.6454   3.6480
  3.6598   3.7518   3.7607   3.8035   3.9655   4.0135   4.0345   4.0768
  4.1580   4.2173   4.3435   4.3861   4.7555   5.1214   5.1363   5.1647
  5.1657   5.1775   5.1818   5.1948   5.2001   5.2098   5.2165   5.2223
  5.2753   5.2817   5.3014   5.3152   5.3837   5.4060   5.4342   5.5006
  5.5869   5.5985   5.5992   5.6211   5.6268   5.7101   5.8503   5.8910
  5.9277   6.0289   6.1456   6.2572   6.4281   6.5250   6.6649   6.8528
  6.9054   6.9197   6.9205   6.9931   6.9987   7.0055   7.0517   7.0529
  7.1184   7.2145   7.2485   7.3019   7.3157   7.3471   7.3794   7.4798
  7.5143   7.5433   7.6240   7.7242   7.7780   7.7920   7.8723   7.9043
  7.9368  25.0590  25.2233  50.5628  50.6664  50.7211  50.7692
 --------------------------------------------------------------
 
          Ground-State Mulliken Net Atomic Charges

     Atom                 Charge (a.u.)
  ----------------------------------------
      1 C                     0.363243
      2 O                    -0.501298
      3 C                     0.370546
      4 O                    -0.633194
      5 O                    -0.635312
      6 O                    -0.324853
      7 H                     0.360867
  ----------------------------------------
  Sum of atomic charges =    -1.000000

 -----------------------------------------------------------------
                    Cartesian Multipole Moments
 -----------------------------------------------------------------
    Charge (ESU x 10^10)
                -4.8032
    Dipole Moment (Debye)
         X     -13.2008      Y      -4.7379      Z       0.0013
       Tot      14.0253
    Quadrupole Moments (Debye-Ang)
        XX     -71.8630     XY      -2.0201     YY     -49.3650
        XZ       0.0040     YZ       0.0008     ZZ     -33.9045
    Octopole Moments (Debye-Ang^2)
       XXX    -259.4523    XXY     -23.7469    XYY     -78.0392
       YYY     -45.8287    XXZ      -0.0068    XYZ       0.0006
       YYZ      -0.0225    XZZ     -46.8205    YZZ      -8.5484
       ZZZ      -0.0432
    Hexadecapole Moments (Debye-Ang^3)
      XXXX   -1090.7857   XXXY     -80.2366   XXYY    -232.8452
      XYYY     -82.0216   YYYY    -278.6910   XXXZ      -0.0486
      XXYZ      -0.0020   XYYZ      -0.0345   YYYZ      -0.0204
      XXZZ    -127.9792   XYZZ     -16.4134   YYZZ     -47.0773
      XZZZ      -0.0615   YZZZ      -0.0117   ZZZZ     -31.9174
 -----------------------------------------------------------------
 Calculating analytic gradient of the SCF energy
 Gradient of CDS energy
            1           2           3           4           5           6
    1  -0.0030273   0.0008987   0.0031555  -0.0005784  -0.0011876   0.0010628
    2  -0.0025518  -0.0010001   0.0005704  -0.0019328   0.0015592   0.0036462
    3  -0.0000013   0.0000003  -0.0000031   0.0000019   0.0000021   0.0000003
            7
    1  -0.0003237
    2  -0.0002911
    3  -0.0000001
 Gradient of SCF Energy
            1           2           3           4           5           6
    1  -0.0321336   0.0312341   0.0256964  -0.0144064  -0.0212987   0.0008529
    2   0.0203906  -0.0175320  -0.0011465  -0.0250851   0.0222744  -0.0001198
    3  -0.0000916   0.0000320   0.0001578  -0.0000561  -0.0000605   0.0000107
            7
    1   0.0100552
    2   0.0012184
    3   0.0000077
 Max gradient component =       3.213E-02
 RMS gradient           =       1.586E-02
 Computing fast CPCM-SWIG gradient
 Updating gradient with PCM contributions...
 -- total gradient after adding PCM contribution --
---------------------------------------------------
  Atom         X              Y              Z     
---------------------------------------------------
   1       0.002439       0.001788      -0.000173
   2      -0.001322      -0.000061       0.000029
   3      -0.000628      -0.000495       0.000423
   4       0.000610      -0.000110      -0.000151
   5       0.000104       0.000733      -0.000147
   6      -0.000516      -0.002102       0.000017
   7      -0.000686       0.000248       0.000003
---------------------------------------------------
 Number of fixed atoms: 0
 Gradient time:  CPU 43.57 s  wall 6.33 s
 Geometry Optimization Parameters
   NAtoms,    NIC,     NZ,  NCons,   NDum,   NFix, NCnnct, MaxDiis
        7      33       0       0       0       0       0       0

 Cartesian Hessian Update
 Hessian updated using BFGS update


** GEOMETRY OPTIMIZATION IN DELOCALIZED INTERNAL COORDINATES **
   Searching for a Minimum

   Optimization Cycle:   2

                       Coordinates (Angstroms)
     ATOM                X               Y               Z
      1  C         0.5996068600    0.1826251494    0.0005156327
      2  O        -0.2143335941    1.0769542540    0.0002332875
      3  C         2.1402629389    0.4151113653    0.0013865860
      4  O         2.4846537857    1.6124787189    0.0002133871
      5  O         2.8574926263   -0.6032158009    0.0000499744
      6  O         0.2583473767   -1.1097442277    0.0004267382
      7  H        -0.7111886935   -1.1682330591    0.0000023941
   Point Group: c1    Number of degrees of freedom:    15


   Energy is   -377.940336006

 Hessian updated using BFGS update

 13 Hessian modes will be used to form the next step
  Hessian Eigenvalues:
     0.002000    0.002005    0.008927    0.023146    0.154171    0.239457
     0.269437    0.279742    0.491112    0.539906    0.827971    0.859999
     0.958268

 Minimum search - taking simple RFO step
 Searching for Lamda that Minimizes Along All modes
 Value Taken    Lamda =  -0.00008652
 Step Taken.  Stepsize is  0.158990

                             Maximum     Tolerance    Cnvgd?
         Gradient           0.001788      0.000300      NO
         Displacement       0.113192      0.001200      NO
         Energy change     -0.000322      0.000001      NO


 New Cartesian Coordinates Obtained by Inverse Iteration

 Displacement from previous Coordinates is:  0.127338
 ----------------------------------------------------------------
             Standard Nuclear Orientation (Angstroms)
    I     Atom           X                Y                Z
 ----------------------------------------------------------------
    1      C       0.5989013544     0.1836279598    -0.0126503830
    2      O      -0.2096518637     1.0807983942     0.0028871832
    3      C       2.1390568140     0.4147147984    -0.0497977784
    4      O       2.4805688830     1.6095334500     0.0295545918
    5      O       2.8517289193    -0.6039723780     0.0204408910
    6      O       0.2607376084    -1.1064480477    -0.0045063920
    7      H      -0.7065004154    -1.1722777766     0.0168998873
 ----------------------------------------------------------------
 Nuclear Repulsion Energy =         221.20374592 hartrees
 There are       23 alpha and       23 beta electrons
 Discretize the solute cavity surface with Lebedev spheres
	Using 110 Lebedev grid points for each H atom
	Using 194 Lebedev grid points for other atoms
	Atomic van der Waals radii will be scaled by 1.20
 Remove points where switching function is < 1.0e-08
 Keep 746 surface tesserae and discard 528 interior tesserae
 Molecular Surface Area = 92.575 Angst**2
 Applying Cartesian multipole field
    Component          Value
    ---------          -----
     (2,0,0)        1.00000E-11
     (0,2,0)        2.00000E-11
     (0,0,2)       -3.00000E-11
 Nucleus-field energy     =     0.0000000084 hartrees
 Requested basis set is 6-311++G(2df,2p)
 There are 54 shells and 214 basis functions
 A cutoff of  1.0D-12 yielded   1398 shell pairs
 There are     22352 function pairs (     29060 Cartesian)
 Smallest overlap matrix eigenvalue = 9.35E-05
 Guess MOs from SCF MO coefficient file

 -----------------------------------------------------------------------
  General SCF calculation program by
  Eric Jon Sundstrom, Paul Horn, Yuezhi Mao, Dmitri Zuev, Alec White,
  David Stuck, Shaama M.S., Shane Yost, Joonho Lee, David Small,
  Daniel Levine, Susi Lehtola, Hugh Burton, Evgeny Epifanovsky,
  Bang C. Huynh
 -----------------------------------------------------------------------
 Exchange:     0.1500 Hartree-Fock + 1.0000 wB97M-V + LR-HF
 Correlation:  1.0000 wB97M-V
 Using SG-2 standard quadrature grid
 Nonlocal Correlation:  VV10 with C = 0.0100 and b = 6.00 and scale = 1.00000
 Grid used for NLC:  SG-1 standard quadrature
 
 Citation of the SMD model:
 Marenich, A.V.; Cramer, C.J.; Truhlar, D.G.
 J. Phys. Chem. B 2009, 113, 6378-6396.
 iSolventCode=           1
 Solvent: water                                                           
 
 vradii
            1           2           3           4           5           6
    1   1.8500000   1.5200000   1.8500000   1.5200000   1.5200000   1.5200000
            7
    1   1.2000000
 -------------------------------------------------------
 OpenMP BLAS3 based DFT computing Module                
 Release: version 1.0, May 2013, Q-Chem Inc. Pittsburgh 
 -------------------------------------------------------
 A restricted SCF calculation will be
 performed using Roothaan-Hall, DIIS, GDM
 SCF converges when RMS gradient is below 1.0e-07
 ---------------------------------------
  Cycle       Energy         DIIS error
 ---------------------------------------
    1    -377.8112491472      1.15e-03  Roothaan Step
 ---------------------------------------
  Cycle       Energy         DIIS error
 ---------------------------------------
    1    -377.9387496450      9.92e-04  
    2    -377.9448844558      8.85e-04  Done DIIS. Switching to GDM
 ---------------------------------------
  Cycle       Energy        RMS Gradient
 ---------------------------------------
    1    -377.9448844558      1.57e-02   Normal BFGS step
    2    -377.9442891650      2.06e-02  Line search: overstep
    3    -377.9476967918      3.34e-03   Normal BFGS step
    4    -377.9479390123      1.97e-03   Normal BFGS step
    5    -377.9479693760      1.56e-03   Normal BFGS step
    6    -377.9479827594      2.91e-04   Normal BFGS step
    7    -377.9479841522      2.20e-04   Normal BFGS step
    8    -377.9479844213      1.09e-04   Normal BFGS step
    9    -377.9479844674      4.74e-05   Normal BFGS step
   10    -377.9479844863      8.33e-06   Normal BFGS step
   11    -377.9479844878      3.49e-06   Normal BFGS step
   12    -377.9479844880      1.59e-06   Normal BFGS step
   13    -377.9479844881      6.28e-07   Normal BFGS step
   14    -377.9479844881      3.28e-07   Normal BFGS step
   15    -377.9479844881      1.05e-07   Normal BFGS step
   16    -377.9479844881      3.79e-08  Convergence criterion met
 ---------------------------------------
 SCF time:   CPU 250.52s  wall 31.00s 
(3)  G-ENP(liq) elect-nuc-pol free energy of system     -377.947984488 a.u.
(4)  G-CDS(liq) cavity-dispersion-solvent structure 
     free energy                                                5.6635 kcal/mol
(6)  G-S(liq) free energy of system                     -377.938959187 a.u.
 SCF   energy in the final basis set =     -377.9389591870
 Total energy in the final basis set =     -377.9389591870
 
 --------------------------------------------------------------
 
                    Orbital Energies (a.u.)
 --------------------------------------------------------------
 
 Alpha MOs
 -- Occupied --
-19.3838 -19.3362 -19.2959 -19.2955 -10.4848 -10.4557  -1.2508  -1.1808
 -1.1600  -1.0936  -0.7975  -0.6732  -0.6177  -0.5944  -0.5842  -0.5423
 -0.5257  -0.5146  -0.4405  -0.4359  -0.3804  -0.3736  -0.3589
 -- Virtual --
  0.0391   0.0454   0.0665   0.0805   0.0892   0.1041   0.1176   0.1178
  0.1468   0.1649   0.1963   0.2144   0.2278   0.2290   0.2537   0.2824
  0.2862   0.3035   0.3093   0.3154   0.3203   0.3340   0.3461   0.3543
  0.3620   0.3656   0.3958   0.4187   0.4311   0.4459   0.4980   0.5708
  0.6067   0.6153   0.6648   0.7061   0.7092   0.7372   0.7462   0.7685
  0.7850   0.8292   0.8628   0.8846   0.8980   0.9394   1.0389   1.0630
  1.0898   1.1033   1.1130   1.1262   1.1382   1.1581   1.1656   1.1816
  1.2069   1.2242   1.2711   1.2778   1.2887   1.3744   1.3966   1.4399
  1.5190   1.5966   1.6083   1.6201   1.6286   1.6366   1.6884   1.7515
  1.7662   1.8175   1.8456   1.9005   1.9211   1.9799   2.0164   2.0701
  2.1178   2.1966   2.3452   2.3683   2.4547   2.4918   2.5079   2.6218
  2.6406   2.6698   2.6985   2.8148   2.8436   2.8775   2.8882   2.8946
  3.0865   3.1123   3.1388   3.2157   3.2607   3.3120   3.3614   3.3790
  3.4080   3.4469   3.4782   3.5008   3.5205   3.6063   3.6400   3.6595
  3.6665   3.7480   3.7636   3.8082   3.9675   4.0118   4.0365   4.0733
  4.1595   4.2207   4.3432   4.3938   4.7536   5.1217   5.1363   5.1642
  5.1664   5.1765   5.1821   5.1923   5.2034   5.2147   5.2188   5.2242
  5.2730   5.2831   5.3036   5.3147   5.3812   5.4109   5.4405   5.5040
  5.5864   5.5965   5.6065   5.6188   5.6307   5.7027   5.8475   5.8830
  5.9283   6.0424   6.1450   6.2746   6.4318   6.5308   6.6756   6.8643
  6.9062   6.9199   6.9253   6.9933   7.0002   7.0088   7.0505   7.0545
  7.1215   7.2154   7.2506   7.3025   7.3175   7.3462   7.3871   7.4719
  7.5234   7.5426   7.6276   7.7265   7.7764   7.7912   7.8714   7.8994
  7.9306  25.0648  25.2294  50.5655  50.6687  50.7203  50.7683
 --------------------------------------------------------------
 
          Ground-State Mulliken Net Atomic Charges

     Atom                 Charge (a.u.)
  ----------------------------------------
      1 C                     0.358678
      2 O                    -0.501630
      3 C                     0.371153
      4 O                    -0.631814
      5 O                    -0.634485
      6 O                    -0.322252
      7 H                     0.360350
  ----------------------------------------
  Sum of atomic charges =    -1.000000

 -----------------------------------------------------------------
                    Cartesian Multipole Moments
 -----------------------------------------------------------------
    Charge (ESU x 10^10)
                -4.8032
    Dipole Moment (Debye)
         X     -13.1991      Y      -4.7626      Z      -0.2393
       Tot      14.0340
    Quadrupole Moments (Debye-Ang)
        XX     -71.7871     XY      -1.9896     YY     -49.3155
        XZ      -0.6765     YZ      -0.2383     ZZ     -33.8894
    Octopole Moments (Debye-Ang^2)
       XXX    -258.9434    XXY     -23.6471    XYY     -77.9697
       YYY     -45.9715    XXZ      -1.7289    XYZ      -0.3784
       YYZ      -0.0825    XZZ     -46.7868    YZZ      -8.5759
       ZZZ      -0.0687
    Hexadecapole Moments (Debye-Ang^3)
      XXXX   -1087.0368   XXXY     -79.7085   XXYY    -232.2718
      XYYY     -81.6427   YYYY    -278.2085   XXXZ      -5.4177
      XXYZ      -1.3104   XYYZ      -0.6438   YYYZ      -0.7134
      XXZZ    -127.6413   XYZZ     -16.3354   YYZZ     -47.0295
      XZZZ      -0.8218   YZZZ      -0.4916   ZZZZ     -32.0244
 -----------------------------------------------------------------
 Calculating analytic gradient of the SCF energy
 Gradient of CDS energy
            1           2           3           4           5           6
    1  -0.0029695   0.0008801   0.0031323  -0.0005681  -0.0011734   0.0010215
    2  -0.0024315  -0.0009903   0.0005551  -0.0019123   0.0015540   0.0035144
    3   0.0000667  -0.0000158   0.0002001  -0.0001273  -0.0001092  -0.0000218
            7
    1  -0.0003228
    2  -0.0002893
    3   0.0000072
 Gradient of SCF Energy
            1           2           3           4           5           6
    1  -0.0344409   0.0333668   0.0262750  -0.0150004  -0.0221728   0.0004594
    2   0.0200815  -0.0188001  -0.0006938  -0.0267897   0.0234939   0.0013986
    3   0.0046267  -0.0014184  -0.0085587   0.0027625   0.0032902  -0.0002538
            7
    1   0.0115129
    2   0.0013097
    3  -0.0004485
 Max gradient component =       3.444E-02
 RMS gradient           =       1.688E-02
 Computing fast CPCM-SWIG gradient
 Updating gradient with PCM contributions...
 -- total gradient after adding PCM contribution --
---------------------------------------------------
  Atom         X              Y              Z     
---------------------------------------------------
   1       0.000036       0.001352       0.008586
   2       0.001118      -0.001110      -0.001194
   3       0.001129       0.000154      -0.023122
   4      -0.000766      -0.002142       0.008319
   5      -0.001578       0.001898       0.008161
   6      -0.000767      -0.000225      -0.000534
   7       0.000827       0.000073      -0.000215
---------------------------------------------------
 Number of fixed atoms: 0
 Gradient time:  CPU 43.61 s  wall 6.34 s
 Geometry Optimization Parameters
   NAtoms,    NIC,     NZ,  NCons,   NDum,   NFix, NCnnct, MaxDiis
        7      33       0       0       0       0       0       0

 Cartesian Hessian Update
 Hessian updated using BFGS update


** GEOMETRY OPTIMIZATION IN DELOCALIZED INTERNAL COORDINATES **
   Searching for a Minimum

   Optimization Cycle:   3

                       Coordinates (Angstroms)
     ATOM                X               Y               Z
      1  C         0.5989013544    0.1836279598   -0.0126503830
      2  O        -0.2096518637    1.0807983942    0.0028871832
      3  C         2.1390568140    0.4147147984   -0.0497977784
      4  O         2.4805688830    1.6095334500    0.0295545918
      5  O         2.8517289193   -0.6039723780    0.0204408910
      6  O         0.2607376084   -1.1064480477   -0.0045063920
      7  H        -0.7065004154   -1.1722777766    0.0168998873
   Point Group: c1    Number of degrees of freedom:    15


   Energy is   -377.938959187

 Hessian updated using BFGS update

 14 Hessian modes will be used to form the next step
  Hessian Eigenvalues:
     0.002000    0.008852    0.023141    0.110927    0.135230    0.201467
     0.250120    0.260170    0.270169    0.465485    0.531116    0.827532
     0.854912    0.958247

 Minimum search - taking simple RFO step
 Searching for Lamda that Minimizes Along All modes
 Value Taken    Lamda =  -0.00276409
 Step Taken.  Stepsize is  0.153944

                             Maximum     Tolerance    Cnvgd?
         Gradient           0.012947      0.000300      NO
         Displacement       0.109969      0.001200      NO
         Energy change      0.001377      0.000001      NO


 New Cartesian Coordinates Obtained by Inverse Iteration

 Displacement from previous Coordinates is:  0.121602
 ----------------------------------------------------------------
             Standard Nuclear Orientation (Angstroms)
    I     Atom           X                Y                Z
 ----------------------------------------------------------------
    1      C       0.5974042679     0.1839171801    -0.0000382335
    2      O      -0.2093838589     1.0829636609     0.0002849826
    3      C       2.1381378901     0.4141056073    -0.0001398344
    4      O       2.4806919594     1.6115619719     0.0011246746
    5      O       2.8525527707    -0.6064481497     0.0006975544
    6      O       0.2613397456    -1.1058351827     0.0002477224
    7      H      -0.7059014748    -1.1742886877     0.0006511339
 ----------------------------------------------------------------
 Nuclear Repulsion Energy =         221.14345612 hartrees
 There are       23 alpha and       23 beta electrons
 Discretize the solute cavity surface with Lebedev spheres
	Using 110 Lebedev grid points for each H atom
	Using 194 Lebedev grid points for other atoms
	Atomic van der Waals radii will be scaled by 1.20
 Remove points where switching function is < 1.0e-08
 Keep 747 surface tesserae and discard 527 interior tesserae
 Molecular Surface Area = 92.577 Angst**2
 Applying Cartesian multipole field
    Component          Value
    ---------          -----
     (2,0,0)        1.00000E-11
     (0,2,0)        2.00000E-11
     (0,0,2)       -3.00000E-11
 Nucleus-field energy     =     0.0000000084 hartrees
 Requested basis set is 6-311++G(2df,2p)
 There are 54 shells and 214 basis functions
 A cutoff of  1.0D-12 yielded   1399 shell pairs
 There are     22353 function pairs (     29061 Cartesian)
 Smallest overlap matrix eigenvalue = 9.30E-05
 Guess MOs from SCF MO coefficient file

 -----------------------------------------------------------------------
  General SCF calculation program by
  Eric Jon Sundstrom, Paul Horn, Yuezhi Mao, Dmitri Zuev, Alec White,
  David Stuck, Shaama M.S., Shane Yost, Joonho Lee, David Small,
  Daniel Levine, Susi Lehtola, Hugh Burton, Evgeny Epifanovsky,
  Bang C. Huynh
 -----------------------------------------------------------------------
 Exchange:     0.1500 Hartree-Fock + 1.0000 wB97M-V + LR-HF
 Correlation:  1.0000 wB97M-V
 Using SG-2 standard quadrature grid
 Nonlocal Correlation:  VV10 with C = 0.0100 and b = 6.00 and scale = 1.00000
 Grid used for NLC:  SG-1 standard quadrature
 
 Citation of the SMD model:
 Marenich, A.V.; Cramer, C.J.; Truhlar, D.G.
 J. Phys. Chem. B 2009, 113, 6378-6396.
 iSolventCode=           1
 Solvent: water                                                           
 
 vradii
            1           2           3           4           5           6
    1   1.8500000   1.5200000   1.8500000   1.5200000   1.5200000   1.5200000
            7
    1   1.2000000
 -------------------------------------------------------
 OpenMP BLAS3 based DFT computing Module                
 Release: version 1.0, May 2013, Q-Chem Inc. Pittsburgh 
 -------------------------------------------------------
 A restricted SCF calculation will be
 performed using Roothaan-Hall, DIIS, GDM
 SCF converges when RMS gradient is below 1.0e-07
 ---------------------------------------
  Cycle       Energy         DIIS error
 ---------------------------------------
    1    -377.8128786968      1.13e-03  Roothaan Step
 ---------------------------------------
  Cycle       Energy         DIIS error
 ---------------------------------------
    1    -377.9402325216      9.83e-04  
    2    -377.9463771678      8.69e-04  Done DIIS. Switching to GDM
 ---------------------------------------
  Cycle       Energy        RMS Gradient
 ---------------------------------------
    1    -377.9463771678      1.64e-02   Normal BFGS step
    2    -377.9458093718      2.17e-02  Line search: overstep
    3    -377.9490915447      3.48e-03   Normal BFGS step
    4    -377.9493308698      1.99e-03   Normal BFGS step
    5    -377.9493603617      1.55e-03   Normal BFGS step
    6    -377.9493731414      2.82e-04   Normal BFGS step
    7    -377.9493744687      2.12e-04   Normal BFGS step
    8    -377.9493747205      1.07e-04   Normal BFGS step
    9    -377.9493747627      4.60e-05   Normal BFGS step
   10    -377.9493747806      8.64e-06   Normal BFGS step
   11    -377.9493747820      3.35e-06   Normal BFGS step
   12    -377.9493747822      1.55e-06   Normal BFGS step
   13    -377.9493747823      6.27e-07   Normal BFGS step
   14    -377.9493747823      2.97e-07   Normal BFGS step
   15    -377.9493747823      1.02e-07   Normal BFGS step
   16    -377.9493747823      3.96e-08  Convergence criterion met
 ---------------------------------------
 SCF time:   CPU 251.90s  wall 32.00s 
(3)  G-ENP(liq) elect-nuc-pol free energy of system     -377.949374782 a.u.
(4)  G-CDS(liq) cavity-dispersion-solvent structure 
     free energy                                                5.6650 kcal/mol
(6)  G-S(liq) free energy of system                     -377.940347073 a.u.
 SCF   energy in the final basis set =     -377.9403470731
 Total energy in the final basis set =     -377.9403470731
 
 --------------------------------------------------------------
 
                    Orbital Energies (a.u.)
 --------------------------------------------------------------
 
 Alpha MOs
 -- Occupied --
-19.3840 -19.3362 -19.2961 -19.2957 -10.4846 -10.4558  -1.2509  -1.1803
 -1.1602  -1.0938  -0.7977  -0.6734  -0.6178  -0.5943  -0.5842  -0.5423
 -0.5257  -0.5145  -0.4407  -0.4360  -0.3805  -0.3739  -0.3590
 -- Virtual --
  0.0391   0.0460   0.0663   0.0804   0.0893   0.1039   0.1176   0.1177
  0.1467   0.1653   0.1994   0.2127   0.2279   0.2297   0.2533   0.2835
  0.2857   0.3035   0.3085   0.3154   0.3203   0.3329   0.3464   0.3545
  0.3629   0.3645   0.3954   0.4187   0.4327   0.4468   0.4976   0.5715
  0.6069   0.6142   0.6674   0.7088   0.7193   0.7230   0.7572   0.7698
  0.7800   0.8288   0.8700   0.8854   0.8906   0.9375   1.0409   1.0627
  1.0863   1.1034   1.1162   1.1223   1.1368   1.1576   1.1674   1.1748
  1.2055   1.2252   1.2728   1.2789   1.2906   1.3750   1.3992   1.4410
  1.5203   1.5982   1.6082   1.6262   1.6285   1.6291   1.6909   1.7540
  1.7654   1.8133   1.8495   1.8971   1.9363   1.9977   2.0034   2.0688
  2.1107   2.1981   2.3453   2.3686   2.4658   2.4907   2.5076   2.6249
  2.6488   2.6719   2.7025   2.8025   2.8422   2.8754   2.8863   2.8978
  3.0916   3.1166   3.1294   3.2197   3.2629   3.3022   3.3600   3.3738
  3.4105   3.4500   3.4835   3.4971   3.5111   3.6097   3.6431   3.6475
  3.6610   3.7535   3.7640   3.8059   3.9685   4.0140   4.0358   4.0761
  4.1595   4.2217   4.3467   4.3980   4.7565   5.1213   5.1362   5.1644
  5.1660   5.1776   5.1821   5.1938   5.2005   5.2102   5.2193   5.2230
  5.2756   5.2816   5.3014   5.3142   5.3859   5.4087   5.4379   5.5006
  5.5891   5.5995   5.6006   5.6230   5.6269   5.7114   5.8552   5.8893
  5.9304   6.0408   6.1540   6.2613   6.4317   6.5332   6.6768   6.8628
  6.9053   6.9200   6.9252   6.9936   6.9991   7.0081   7.0514   7.0538
  7.1216   7.2169   7.2491   7.3024   7.3172   7.3464   7.3880   7.4818
  7.5166   7.5487   7.6243   7.7283   7.7820   7.7919   7.8742   7.9044
  7.9442  25.0654  25.2275  50.5658  50.6680  50.7223  50.7713
 --------------------------------------------------------------
 
          Ground-State Mulliken Net Atomic Charges

     Atom                 Charge (a.u.)
  ----------------------------------------
      1 C                     0.361376
      2 O                    -0.502164
      3 C                     0.371474
      4 O                    -0.633305
      5 O                    -0.636605
      6 O                    -0.321040
      7 H                     0.360264
  ----------------------------------------
  Sum of atomic charges =    -1.000000

 -----------------------------------------------------------------
                    Cartesian Multipole Moments
 -----------------------------------------------------------------
    Charge (ESU x 10^10)
                -4.8032
    Dipole Moment (Debye)
         X     -13.2161      Y      -4.7799      Z      -0.0060
       Tot      14.0539
    Quadrupole Moments (Debye-Ang)
        XX     -71.8444     XY      -1.9854     YY     -49.3240
        XZ      -0.0177     YZ      -0.0070     ZZ     -33.8956
    Octopole Moments (Debye-Ang^2)
       XXX    -259.1142    XXY     -23.6583    XYY     -78.0303
       YYY     -46.0894    XXZ      -0.0603    XYZ      -0.0108
       YYZ      -0.0231    XZZ     -46.8085    YZZ      -8.5939
       ZZZ      -0.0424
    Hexadecapole Moments (Debye-Ang^3)
      XXXX   -1087.7025   XXXY     -79.6015   XXYY    -232.5115
      XYYY     -81.6083   YYYY    -278.6140   XXXZ      -0.2200
      XXYZ      -0.0424   XYYZ      -0.0552   YYYZ      -0.0426
      XXZZ    -127.6812   XYZZ     -16.3134   YYZZ     -47.0872
      XZZZ      -0.0873   YZZZ      -0.0263   ZZZZ     -31.9084
 -----------------------------------------------------------------
 Calculating analytic gradient of the SCF energy
 Gradient of CDS energy
            1           2           3           4           5           6
    1  -0.0029538   0.0008791   0.0031455  -0.0005719  -0.0011827   0.0010063
    2  -0.0023917  -0.0009940   0.0005528  -0.0019223   0.0015661   0.0034783
    3   0.0000010  -0.0000003   0.0000032  -0.0000020  -0.0000013  -0.0000008
            7
    1  -0.0003226
    2  -0.0002891
    3   0.0000002
 Gradient of SCF Energy
            1           2           3           4           5           6
    1  -0.0357496   0.0334725   0.0267223  -0.0152199  -0.0217660   0.0010080
    2   0.0194530  -0.0183375  -0.0005550  -0.0254232   0.0219448   0.0015101
    3   0.0000288  -0.0000039  -0.0000904   0.0000245   0.0000357   0.0000092
            7
    1   0.0115327
    2   0.0014078
    3  -0.0000040
 Max gradient component =       3.575E-02
 RMS gradient           =       1.662E-02
 Computing fast CPCM-SWIG gradient
 Updating gradient with PCM contributions...
 -- total gradient after adding PCM contribution --
---------------------------------------------------
  Atom         X              Y              Z     
---------------------------------------------------
   1      -0.001308       0.000761       0.000044
   2       0.001446      -0.000584       0.000008
   3       0.000414       0.000035      -0.000262
   4      -0.000692      -0.000343       0.000101
   5      -0.000683       0.000053       0.000099
   6      -0.000111      -0.000027       0.000009
   7       0.000935       0.000106       0.000000
---------------------------------------------------
 Number of fixed atoms: 0
 Gradient time:  CPU 41.67 s  wall 6.19 s
 Geometry Optimization Parameters
   NAtoms,    NIC,     NZ,  NCons,   NDum,   NFix, NCnnct, MaxDiis
        7      33       0       0       0       0       0       0

 Cartesian Hessian Update
 Hessian updated using BFGS update


** GEOMETRY OPTIMIZATION IN DELOCALIZED INTERNAL COORDINATES **
   Searching for a Minimum

   Optimization Cycle:   4

                       Coordinates (Angstroms)
     ATOM                X               Y               Z
      1  C         0.5974042679    0.1839171801   -0.0000382335
      2  O        -0.2093838589    1.0829636609    0.0002849826
      3  C         2.1381378901    0.4141056073   -0.0001398344
      4  O         2.4806919594    1.6115619719    0.0011246746
      5  O         2.8525527707   -0.6064481497    0.0006975544
      6  O         0.2613397456   -1.1058351827    0.0002477224
      7  H        -0.7059014748   -1.1742886877    0.0006511339
   Point Group: c1    Number of degrees of freedom:    15


   Energy is   -377.940347073

 Hessian updated using BFGS update

 15 Hessian modes will be used to form the next step
  Hessian Eigenvalues:
     0.002000    0.008851    0.023141    0.115675    0.133538    0.200665
     0.249999    0.250159    0.258931    0.269420    0.465453    0.530974
     0.827486    0.854203    0.957151

 Minimum search - taking simple RFO step
 Searching for Lamda that Minimizes Along All modes
 Value Taken    Lamda =  -0.00002970
 Step Taken.  Stepsize is  0.012698

                             Maximum     Tolerance    Cnvgd?
         Gradient           0.001899      0.000300      NO
         Displacement       0.009703      0.001200      NO
         Energy change     -0.001388      0.000001      NO


 New Cartesian Coordinates Obtained by Inverse Iteration

 Displacement from previous Coordinates is:  0.022856
 ----------------------------------------------------------------
             Standard Nuclear Orientation (Angstroms)
    I     Atom           X                Y                Z
 ----------------------------------------------------------------
    1      C       0.5980722242     0.1826349970     0.0013067938
    2      O      -0.2135536031     1.0790597222     0.0001664127
    3      C       2.1405355504     0.4148981542     0.0006399053
    4      O       2.4846189412     1.6125242077     0.0001749733
    5      O       2.8581392921    -0.6038741567     0.0004235386
    6      O       0.2580647394    -1.1075707759     0.0003431147
    7      H      -0.7110358442    -1.1716957483    -0.0002267383
 ----------------------------------------------------------------
 Nuclear Repulsion Energy =         220.88134631 hartrees
 There are       23 alpha and       23 beta electrons
 Discretize the solute cavity surface with Lebedev spheres
	Using 110 Lebedev grid points for each H atom
	Using 194 Lebedev grid points for other atoms
	Atomic van der Waals radii will be scaled by 1.20
 Remove points where switching function is < 1.0e-08
 Keep 748 surface tesserae and discard 526 interior tesserae
 Molecular Surface Area = 92.681 Angst**2
 Applying Cartesian multipole field
    Component          Value
    ---------          -----
     (2,0,0)        1.00000E-11
     (0,2,0)        2.00000E-11
     (0,0,2)       -3.00000E-11
 Nucleus-field energy     =     0.0000000085 hartrees
 Requested basis set is 6-311++G(2df,2p)
 There are 54 shells and 214 basis functions
 A cutoff of  1.0D-12 yielded   1398 shell pairs
 There are     22352 function pairs (     29060 Cartesian)
 Smallest overlap matrix eigenvalue = 9.31E-05
 Guess MOs from SCF MO coefficient file

 -----------------------------------------------------------------------
  General SCF calculation program by
  Eric Jon Sundstrom, Paul Horn, Yuezhi Mao, Dmitri Zuev, Alec White,
  David Stuck, Shaama M.S., Shane Yost, Joonho Lee, David Small,
  Daniel Levine, Susi Lehtola, Hugh Burton, Evgeny Epifanovsky,
  Bang C. Huynh
 -----------------------------------------------------------------------
 Exchange:     0.1500 Hartree-Fock + 1.0000 wB97M-V + LR-HF
 Correlation:  1.0000 wB97M-V
 Using SG-2 standard quadrature grid
 Nonlocal Correlation:  VV10 with C = 0.0100 and b = 6.00 and scale = 1.00000
 Grid used for NLC:  SG-1 standard quadrature
 
 Citation of the SMD model:
 Marenich, A.V.; Cramer, C.J.; Truhlar, D.G.
 J. Phys. Chem. B 2009, 113, 6378-6396.
 iSolventCode=           1
 Solvent: water                                                           
 
 vradii
            1           2           3           4           5           6
    1   1.8500000   1.5200000   1.8500000   1.5200000   1.5200000   1.5200000
            7
    1   1.2000000
 -------------------------------------------------------
 OpenMP BLAS3 based DFT computing Module                
 Release: version 1.0, May 2013, Q-Chem Inc. Pittsburgh 
 -------------------------------------------------------
 A restricted SCF calculation will be
 performed using Roothaan-Hall, DIIS, GDM
 SCF converges when RMS gradient is below 1.0e-07
 ---------------------------------------
  Cycle       Energy         DIIS error
 ---------------------------------------
    1    -377.8172963602      8.70e-04  Roothaan Step
 ---------------------------------------
  Cycle       Energy         DIIS error
 ---------------------------------------
    1    -377.9407036543      9.65e-04  
    2    -377.9465120603      8.56e-04  Done DIIS. Switching to GDM
 ---------------------------------------
  Cycle       Energy        RMS Gradient
 ---------------------------------------
    1    -377.9465120603      1.60e-02   Normal BFGS step
    2    -377.9459199985      2.14e-02  Line search: overstep
    3    -377.9491240537      3.41e-03   Normal BFGS step
    4    -377.9493318771      1.96e-03   Normal BFGS step
    5    -377.9493545182      1.48e-03   Normal BFGS step
    6    -377.9493648053      2.23e-04   Normal BFGS step
    7    -377.9493656012      9.76e-05   Normal BFGS step
    8    -377.9493657291      4.25e-05   Normal BFGS step
    9    -377.9493657360      3.42e-05   Normal BFGS step
   10    -377.9493657427      2.83e-06   Normal BFGS step
   11    -377.9493657429      1.64e-06   Normal BFGS step
   12    -377.9493657430      8.78e-07   Normal BFGS step
   13    -377.9493657430      3.38e-07   Normal BFGS step
   14    -377.9493657430      1.73e-07   Normal BFGS step
   15    -377.9493657430      7.40e-08  Convergence criterion met
 ---------------------------------------
 SCF time:   CPU 236.23s  wall 29.00s 
(3)  G-ENP(liq) elect-nuc-pol free energy of system     -377.949365743 a.u.
(4)  G-CDS(liq) cavity-dispersion-solvent structure 
     free energy                                                5.6580 kcal/mol
(6)  G-S(liq) free energy of system                     -377.940349222 a.u.
 SCF   energy in the final basis set =     -377.9403492224
 Total energy in the final basis set =     -377.9403492224
 
 --------------------------------------------------------------
 
                    Orbital Energies (a.u.)
 --------------------------------------------------------------
 
 Alpha MOs
 -- Occupied --
-19.3841 -19.3365 -19.2963 -19.2959 -10.4854 -10.4566  -1.2504  -1.1803
 -1.1593  -1.0936  -0.7973  -0.6731  -0.6176  -0.5943  -0.5838  -0.5424
 -0.5258  -0.5146  -0.4404  -0.4358  -0.3805  -0.3741  -0.3594
 -- Virtual --
  0.0391   0.0453   0.0663   0.0804   0.0894   0.1039   0.1176   0.1177
  0.1470   0.1652   0.1987   0.2125   0.2275   0.2297   0.2532   0.2837
  0.2856   0.3031   0.3084   0.3148   0.3199   0.3328   0.3456   0.3539
  0.3629   0.3640   0.3948   0.4187   0.4322   0.4454   0.4967   0.5718
  0.6066   0.6138   0.6681   0.7090   0.7197   0.7229   0.7558   0.7687
  0.7794   0.8283   0.8700   0.8841   0.8900   0.9375   1.0405   1.0632
  1.0855   1.1036   1.1163   1.1228   1.1369   1.1577   1.1677   1.1738
  1.2053   1.2247   1.2726   1.2776   1.2892   1.3738   1.3985   1.4393
  1.5200   1.5982   1.6082   1.6258   1.6263   1.6295   1.6888   1.7533
  1.7645   1.8137   1.8481   1.8947   1.9357   1.9954   2.0017   2.0665
  2.1081   2.1991   2.3445   2.3673   2.4629   2.4913   2.5071   2.6233
  2.6485   2.6695   2.7029   2.8004   2.8419   2.8743   2.8857   2.8976
  3.0907   3.1161   3.1307   3.2184   3.2623   3.3016   3.3603   3.3739
  3.4096   3.4488   3.4824   3.4974   3.5089   3.6069   3.6451   3.6472
  3.6591   3.7515   3.7612   3.8042   3.9667   4.0127   4.0313   4.0761
  4.1574   4.2173   4.3428   4.3906   4.7532   5.1214   5.1362   5.1645
  5.1658   5.1775   5.1819   5.1943   5.2001   5.2098   5.2173   5.2222
  5.2753   5.2813   5.3010   5.3143   5.3832   5.4056   5.4343   5.5002
  5.5867   5.5987   5.5988   5.6207   5.6271   5.7088   5.8513   5.8892
  5.9283   6.0344   6.1470   6.2575   6.4274   6.5249   6.6692   6.8542
  6.9053   6.9195   6.9197   6.9932   6.9986   7.0061   7.0511   7.0529
  7.1178   7.2148   7.2491   7.3012   7.3161   7.3468   7.3815   7.4799
  7.5142   7.5446   7.6244   7.7250   7.7775   7.7917   7.8721   7.9041
  7.9376  25.0617  25.2212  50.5639  50.6664  50.7205  50.7692
 --------------------------------------------------------------
 
          Ground-State Mulliken Net Atomic Charges

     Atom                 Charge (a.u.)
  ----------------------------------------
      1 C                     0.362426
      2 O                    -0.502377
      3 C                     0.370800
      4 O                    -0.633017
      5 O                    -0.636004
      6 O                    -0.323002
      7 H                     0.361174
  ----------------------------------------
  Sum of atomic charges =    -1.000000

 -----------------------------------------------------------------
                    Cartesian Multipole Moments
 -----------------------------------------------------------------
    Charge (ESU x 10^10)
                -4.8032
    Dipole Moment (Debye)
         X     -13.2172      Y      -4.7683      Z       0.0007
       Tot      14.0510
    Quadrupole Moments (Debye-Ang)
        XX     -71.9071     XY      -2.0032     YY     -49.3451
        XZ       0.0006     YZ       0.0024     ZZ     -33.9059
    Octopole Moments (Debye-Ang^2)
       XXX    -259.6044    XXY     -23.7479    XYY     -78.0721
       YYY     -45.9970    XXZ      -0.0201    XYZ       0.0026
       YYZ      -0.0230    XZZ     -46.8350    YZZ      -8.5800
       ZZZ      -0.0462
    Hexadecapole Moments (Debye-Ang^3)
      XXXX   -1091.4602   XXXY     -80.0933   XXYY    -232.9255
      XYYY     -81.9572   YYYY    -278.6423   XXXZ      -0.0751
      XXYZ       0.0070   XYYZ      -0.0255   YYYZ      -0.0046
      XXZZ    -128.0389   XYZZ     -16.4021   YYZZ     -47.0800
      XZZZ      -0.0599   YZZZ      -0.0035   ZZZZ     -31.9236
 -----------------------------------------------------------------
 Calculating analytic gradient of the SCF energy
 Gradient of CDS energy
            1           2           3           4           5           6
    1  -0.0030003   0.0008961   0.0031670  -0.0005788  -0.0011942   0.0010335
    2  -0.0024484  -0.0010029   0.0005633  -0.0019356   0.0015704   0.0035424
    3  -0.0000028   0.0000012  -0.0000017   0.0000007   0.0000003   0.0000026
            7
    1  -0.0003232
    2  -0.0002892
    3  -0.0000004
 Gradient of SCF Energy
            1           2           3           4           5           6
    1  -0.0334412   0.0315587   0.0259006  -0.0143750  -0.0209343   0.0012566
    2   0.0190959  -0.0175241  -0.0007774  -0.0248142   0.0217532   0.0012079
    3   0.0001266  -0.0000548  -0.0000442   0.0000206   0.0000137  -0.0000700
            7
    1   0.0100347
    2   0.0010587
    3   0.0000081
 Max gradient component =       3.344E-02
 RMS gradient           =       1.588E-02
 Computing fast CPCM-SWIG gradient
 Updating gradient with PCM contributions...
 -- total gradient after adding PCM contribution --
---------------------------------------------------
  Atom         X              Y              Z     
---------------------------------------------------
   1       0.001002       0.000464       0.000279
   2      -0.000872      -0.000020      -0.000110
   3      -0.000422      -0.000190      -0.000083
   4       0.000586       0.000287       0.000002
   5       0.000548       0.000075       0.000003
   6      -0.000235      -0.000546      -0.000090
   7      -0.000606      -0.000072      -0.000000
---------------------------------------------------
 Number of fixed atoms: 0
 Gradient time:  CPU 43.91 s  wall 6.41 s
 Geometry Optimization Parameters
   NAtoms,    NIC,     NZ,  NCons,   NDum,   NFix, NCnnct, MaxDiis
        7      33       0       0       0       0       0       0

 Cartesian Hessian Update
 Hessian updated using BFGS update


** GEOMETRY OPTIMIZATION IN DELOCALIZED INTERNAL COORDINATES **
   Searching for a Minimum

   Optimization Cycle:   5

                       Coordinates (Angstroms)
     ATOM                X               Y               Z
      1  C         0.5980722242    0.1826349970    0.0013067938
      2  O        -0.2135536031    1.0790597222    0.0001664127
      3  C         2.1405355504    0.4148981542    0.0006399053
      4  O         2.4846189412    1.6125242077    0.0001749733
      5  O         2.8581392921   -0.6038741567    0.0004235386
      6  O         0.2580647394   -1.1075707759    0.0003431147
      7  H        -0.7110358442   -1.1716957483   -0.0002267383
   Point Group: c1    Number of degrees of freedom:    15


   Energy is   -377.940349222

 Hessian updated using BFGS update

 15 Hessian modes will be used to form the next step
  Hessian Eigenvalues:
     0.002000    0.009016    0.023141    0.114778    0.144500    0.236282
     0.250038    0.250403    0.265051    0.359869    0.489834    0.527635
     0.828657    0.859244    0.954871

 Minimum search - taking simple RFO step
 Searching for Lamda that Minimizes Along All modes
 Value Taken    Lamda =  -0.00001269
 Step Taken.  Stepsize is  0.011145

                             Maximum     Tolerance    Cnvgd?
         Gradient           0.001579      0.000300      NO
         Displacement       0.007988      0.001200      NO
         Energy change     -0.000002      0.000001      NO


 New Cartesian Coordinates Obtained by Inverse Iteration

 Displacement from previous Coordinates is:  0.012404
 ----------------------------------------------------------------
             Standard Nuclear Orientation (Angstroms)
    I     Atom           X                Y                Z
 ----------------------------------------------------------------
    1      C       0.5977155219     0.1830453656    -0.0018847716
    2      O      -0.2118027178     1.0808461545     0.0004586320
    3      C       2.1395389258     0.4145471225     0.0001190866
    4      O       2.4828987848     1.6121093335     0.0017630290
    5      O       2.8557645520    -0.6050344455     0.0005472241
    6      O       0.2595495083    -1.1066667515     0.0003425422
    7      H      -0.7088232749    -1.1728703792     0.0014822577
 ----------------------------------------------------------------
 Nuclear Repulsion Energy =         220.99366583 hartrees
 There are       23 alpha and       23 beta electrons
 Discretize the solute cavity surface with Lebedev spheres
	Using 110 Lebedev grid points for each H atom
	Using 194 Lebedev grid points for other atoms
	Atomic van der Waals radii will be scaled by 1.20
 Remove points where switching function is < 1.0e-08
 Keep 748 surface tesserae and discard 526 interior tesserae
 Molecular Surface Area = 92.637 Angst**2
 Applying Cartesian multipole field
    Component          Value
    ---------          -----
     (2,0,0)        1.00000E-11
     (0,2,0)        2.00000E-11
     (0,0,2)       -3.00000E-11
 Nucleus-field energy     =     0.0000000084 hartrees
 Requested basis set is 6-311++G(2df,2p)
 There are 54 shells and 214 basis functions
 A cutoff of  1.0D-12 yielded   1398 shell pairs
 There are     22352 function pairs (     29060 Cartesian)
 Smallest overlap matrix eigenvalue = 9.31E-05
 Guess MOs from SCF MO coefficient file

 -----------------------------------------------------------------------
  General SCF calculation program by
  Eric Jon Sundstrom, Paul Horn, Yuezhi Mao, Dmitri Zuev, Alec White,
  David Stuck, Shaama M.S., Shane Yost, Joonho Lee, David Small,
  Daniel Levine, Susi Lehtola, Hugh Burton, Evgeny Epifanovsky,
  Bang C. Huynh
 -----------------------------------------------------------------------
 Exchange:     0.1500 Hartree-Fock + 1.0000 wB97M-V + LR-HF
 Correlation:  1.0000 wB97M-V
 Using SG-2 standard quadrature grid
 Nonlocal Correlation:  VV10 with C = 0.0100 and b = 6.00 and scale = 1.00000
 Grid used for NLC:  SG-1 standard quadrature
 
 Citation of the SMD model:
 Marenich, A.V.; Cramer, C.J.; Truhlar, D.G.
 J. Phys. Chem. B 2009, 113, 6378-6396.
 iSolventCode=           1
 Solvent: water                                                           
 
 vradii
            1           2           3           4           5           6
    1   1.8500000   1.5200000   1.8500000   1.5200000   1.5200000   1.5200000
            7
    1   1.2000000
 -------------------------------------------------------
 OpenMP BLAS3 based DFT computing Module                
 Release: version 1.0, May 2013, Q-Chem Inc. Pittsburgh 
 -------------------------------------------------------
 A restricted SCF calculation will be
 performed using Roothaan-Hall, DIIS, GDM
 SCF converges when RMS gradient is below 1.0e-07
 ---------------------------------------
  Cycle       Energy         DIIS error
 ---------------------------------------
    1    -377.8173244047      8.69e-04  Roothaan Step
 ---------------------------------------
  Cycle       Energy         DIIS error
 ---------------------------------------
    1    -377.9406956039      9.65e-04  
    2    -377.9465137197      8.57e-04  Done DIIS. Switching to GDM
 ---------------------------------------
  Cycle       Energy        RMS Gradient
 ---------------------------------------
    1    -377.9465137197      1.60e-02   Normal BFGS step
    2    -377.9459177631      2.14e-02  Line search: overstep
    3    -377.9491343053      3.41e-03   Normal BFGS step
    4    -377.9493434050      1.97e-03   Normal BFGS step
    5    -377.9493659971      1.48e-03   Normal BFGS step
    6    -377.9493764877      2.20e-04   Normal BFGS step
    7    -377.9493772700      9.70e-05   Normal BFGS step
    8    -377.9493773975      4.33e-05   Normal BFGS step
    9    -377.9493774048      3.40e-05   Normal BFGS step
   10    -377.9493774115      2.91e-06   Normal BFGS step
   11    -377.9493774118      1.69e-06   Normal BFGS step
   12    -377.9493774118      9.44e-07   Normal BFGS step
   13    -377.9493774119      4.56e-07   Normal BFGS step
   14    -377.9493774119      2.44e-07   Normal BFGS step
   15    -377.9493774119      8.26e-08  Convergence criterion met
 ---------------------------------------
 SCF time:   CPU 238.94s  wall 30.00s 
(3)  G-ENP(liq) elect-nuc-pol free energy of system     -377.949377412 a.u.
(4)  G-CDS(liq) cavity-dispersion-solvent structure 
     free energy                                                5.6622 kcal/mol
(6)  G-S(liq) free energy of system                     -377.940354045 a.u.
 SCF   energy in the final basis set =     -377.9403540448
 Total energy in the final basis set =     -377.9403540448
 
 --------------------------------------------------------------
 
                    Orbital Energies (a.u.)
 --------------------------------------------------------------
 
 Alpha MOs
 -- Occupied --
-19.3841 -19.3363 -19.2962 -19.2958 -10.4851 -10.4562  -1.2506  -1.1803
 -1.1596  -1.0937  -0.7975  -0.6732  -0.6177  -0.5943  -0.5840  -0.5424
 -0.5257  -0.5145  -0.4405  -0.4359  -0.3805  -0.3740  -0.3592
 -- Virtual --
  0.0391   0.0456   0.0663   0.0804   0.0894   0.1039   0.1176   0.1177
  0.1469   0.1653   0.1990   0.2126   0.2276   0.2297   0.2532   0.2836
  0.2857   0.3032   0.3085   0.3151   0.3201   0.3328   0.3460   0.3542
  0.3629   0.3642   0.3951   0.4187   0.4324   0.4461   0.4970   0.5717
  0.6066   0.6140   0.6678   0.7089   0.7194   0.7229   0.7564   0.7692
  0.7797   0.8285   0.8700   0.8847   0.8902   0.9375   1.0407   1.0630
  1.0858   1.1035   1.1162   1.1226   1.1369   1.1577   1.1676   1.1743
  1.2054   1.2250   1.2727   1.2782   1.2898   1.3744   1.3988   1.4400
  1.5201   1.5982   1.6082   1.6259   1.6272   1.6293   1.6897   1.7536
  1.7649   1.8135   1.8487   1.8956   1.9360   1.9964   2.0025   2.0675
  2.1092   2.1986   2.3448   2.3680   2.4642   2.4910   2.5073   2.6240
  2.6486   2.6704   2.7028   2.8014   2.8420   2.8747   2.8859   2.8979
  3.0911   3.1163   3.1302   3.2190   3.2624   3.3020   3.3602   3.3739
  3.4100   3.4493   3.4829   3.4973   3.5099   3.6082   3.6441   3.6474
  3.6598   3.7523   3.7623   3.8049   3.9677   4.0132   4.0330   4.0760
  4.1583   4.2190   4.3444   4.3939   4.7544   5.1214   5.1362   5.1645
  5.1659   5.1776   5.1820   5.1940   5.2003   5.2100   5.2183   5.2226
  5.2754   5.2814   5.3011   5.3142   5.3843   5.4069   5.4358   5.5003
  5.5877   5.5990   5.5996   5.6216   5.6268   5.7099   5.8531   5.8891
  5.9291   6.0378   6.1500   6.2591   6.4290   6.5284   6.6728   6.8579
  6.9053   6.9198   6.9220   6.9933   6.9988   7.0069   7.0512   7.0533
  7.1191   7.2156   7.2492   7.3016   7.3166   7.3466   7.3843   7.4807
  7.5152   7.5464   7.6243   7.7265   7.7794   7.7918   7.8730   7.9043
  7.9403  25.0635  25.2238  50.5648  50.6671  50.7212  50.7699
 --------------------------------------------------------------
 
          Ground-State Mulliken Net Atomic Charges

     Atom                 Charge (a.u.)
  ----------------------------------------
      1 C                     0.361905
      2 O                    -0.502549
      3 C                     0.371068
      4 O                    -0.633112
      5 O                    -0.636291
      6 O                    -0.321870
      7 H                     0.360849
  ----------------------------------------
  Sum of atomic charges =    -1.000000

 -----------------------------------------------------------------
                    Cartesian Multipole Moments
 -----------------------------------------------------------------
    Charge (ESU x 10^10)
                -4.8032
    Dipole Moment (Debye)
         X     -13.2168      Y      -4.7772      Z      -0.0104
       Tot      14.0537
    Quadrupole Moments (Debye-Ang)
        XX     -71.8818     XY      -1.9938     YY     -49.3350
        XZ      -0.0270     YZ      -0.0146     ZZ     -33.9017
    Octopole Moments (Debye-Ang^2)
       XXX    -259.3967    XXY     -23.7074    XYY     -78.0536
       YYY     -46.0492    XXZ      -0.0751    XYZ      -0.0211
       YYZ      -0.0225    XZZ     -46.8238    YZZ      -8.5890
       ZZZ      -0.0373
    Hexadecapole Moments (Debye-Ang^3)
      XXXX   -1089.8677   XXXY     -79.8585   XXYY    -232.7479
      XYYY     -81.7960   YYYY    -278.6207   XXXZ      -0.2958
      XXYZ      -0.0817   XYYZ      -0.0843   YYYZ      -0.0808
      XXZZ    -127.8880   XYZZ     -16.3610   YYZZ     -47.0823
      XZZZ      -0.1085   YZZZ      -0.0469   ZZZZ     -31.9180
 -----------------------------------------------------------------
 Calculating analytic gradient of the SCF energy
 Gradient of CDS energy
            1           2           3           4           5           6
    1  -0.0029783   0.0008901   0.0031581  -0.0005757  -0.0011894   0.0010180
    2  -0.0024095  -0.0010010   0.0005582  -0.0019297   0.0015692   0.0035015
    3   0.0000057  -0.0000025   0.0000053  -0.0000026  -0.0000007  -0.0000060
            7
    1  -0.0003229
    2  -0.0002888
    3   0.0000008
 Gradient of SCF Energy
            1           2           3           4           5           6
    1  -0.0344274   0.0322674   0.0262913  -0.0147437  -0.0212790   0.0012902
    2   0.0189146  -0.0177080  -0.0006387  -0.0250759   0.0218035   0.0015021
    3  -0.0002940   0.0001335   0.0001021  -0.0000553  -0.0000315   0.0001608
            7
    1   0.0106011
    2   0.0012025
    3  -0.0000156
 Max gradient component =       3.443E-02
 RMS gradient           =       1.616E-02
 Computing fast CPCM-SWIG gradient
 Updating gradient with PCM contributions...
 -- total gradient after adding PCM contribution --
---------------------------------------------------
  Atom         X              Y              Z     
---------------------------------------------------
[...]
---------------------------------------------------
 Number of fixed atoms: 0
 Gradient time:  CPU 44.34 s  wall 6.46 s
 Geometry Optimization Parameters
   NAtoms,    NIC,     NZ,  NCons,   NDum,   NFix, NCnnct, MaxDiis
        7      33       0       0       0       0       0       0

 Cartesian Hessian Update
 Hessian updated using BFGS update


** GEOMETRY OPTIMIZATION IN DELOCALIZED INTERNAL COORDINATES **
   Searching for a Minimum

   Optimization Cycle:   7

                       Coordinates (Angstroms)
     ATOM                X               Y               Z
      1  C         0.5972930377    0.1835062808    0.0070336053
      2  O        -0.2097049751    1.0829347553   -0.0003199655
      3  C         2.1383490967    0.4141380217    0.0016919371
      4  O         2.4808689779    1.6116083581   -0.0027729060
      5  O         2.8529655084   -0.6063843743    0.0001805070
      6  O         0.2612772182   -1.1055577131    0.0003840728
      7  H        -0.7062075638   -1.1742689284   -0.0033692507
   Point Group: c1    Number of degrees of freedom:    15


   Energy is   -377.940337283

 Hessian updated using BFGS update

 15 Hessian modes will be used to form the next step
  Hessian Eigenvalues:
     0.002000    0.023140    0.056849    0.115300    0.143372    0.234452
     0.249847    0.250418    0.264996    0.357236    0.475026    0.530857
     0.828376    0.858238    0.967084

 Minimum search - taking simple RFO step
 Searching for Lamda that Minimizes Along All modes
 Value Taken    Lamda =  -0.00003641
 Step Taken.  Stepsize is  0.021048

                             Maximum     Tolerance    Cnvgd?
         Gradient           0.001672      0.000300      NO
         Displacement       0.016375      0.001200      NO
         Energy change      0.000017      0.000001      NO


 New Cartesian Coordinates Obtained by Inverse Iteration

 Displacement from previous Coordinates is:  0.019325
 ----------------------------------------------------------------
             Standard Nuclear Orientation (Angstroms)
    I     Atom           X                Y                Z
 ----------------------------------------------------------------
    1      C       0.5976906250     0.1829920034     0.0003836046
    2      O      -0.2116925879     1.0809780819     0.0002834213
    3      C       2.1394850490     0.4145355110     0.0005056157
    4      O       2.4827968949     1.6120878250     0.0005925006
    5      O       2.8556453186    -0.6050976549     0.0004820653
    6      O       0.2596265223    -1.1065494245     0.0003349708
    7      H      -0.7087105219    -1.1729699418     0.0002458218
 ----------------------------------------------------------------
 Nuclear Repulsion Energy =         221.00090303 hartrees
 There are       23 alpha and       23 beta electrons
 Discretize the solute cavity surface with Lebedev spheres
	Using 110 Lebedev grid points for each H atom
	Using 194 Lebedev grid points for other atoms
	Atomic van der Waals radii will be scaled by 1.20
 Remove points where switching function is < 1.0e-08
 Keep 748 surface tesserae and discard 526 interior tesserae
 Molecular Surface Area = 92.634 Angst**2
 Applying Cartesian multipole field
    Component          Value
    ---------          -----
     (2,0,0)        1.00000E-11
     (0,2,0)        2.00000E-11
     (0,0,2)       -3.00000E-11
 Nucleus-field energy     =     0.0000000084 hartrees
 Requested basis set is 6-311++G(2df,2p)
 There are 54 shells and 214 basis functions
 A cutoff of  1.0D-12 yielded   1398 shell pairs
 There are     22352 function pairs (     29060 Cartesian)
 Smallest overlap matrix eigenvalue = 9.31E-05
 Guess MOs from SCF MO coefficient file

 -----------------------------------------------------------------------
  General SCF calculation program by
  Eric Jon Sundstrom, Paul Horn, Yuezhi Mao, Dmitri Zuev, Alec White,
  David Stuck, Shaama M.S., Shane Yost, Joonho Lee, David Small,
  Daniel Levine, Susi Lehtola, Hugh Burton, Evgeny Epifanovsky,
  Bang C. Huynh
 -----------------------------------------------------------------------
 Exchange:     0.1500 Hartree-Fock + 1.0000 wB97M-V + LR-HF
 Correlation:  1.0000 wB97M-V
 Using SG-2 standard quadrature grid
 Nonlocal Correlation:  VV10 with C = 0.0100 and b = 6.00 and scale = 1.00000
 Grid used for NLC:  SG-1 standard quadrature
 
 Citation of the SMD model:
 Marenich, A.V.; Cramer, C.J.; Truhlar, D.G.
 J. Phys. Chem. B 2009, 113, 6378-6396.
 iSolventCode=           1
 Solvent: water                                                           
 
 vradii
            1           2           3           4           5           6
    1   1.8500000   1.5200000   1.8500000   1.5200000   1.5200000   1.5200000
            7
    1   1.2000000
 -------------------------------------------------------
 OpenMP BLAS3 based DFT computing Module                
 Release: version 1.0, May 2013, Q-Chem Inc. Pittsburgh 
 -------------------------------------------------------
 A restricted SCF calculation will be
 performed using Roothaan-Hall, DIIS, GDM
 SCF converges when RMS gradient is below 1.0e-07
 ---------------------------------------
  Cycle       Energy         DIIS error
 ---------------------------------------
    1    -377.8171915015      8.73e-04  Roothaan Step
 ---------------------------------------
  Cycle       Energy         DIIS error
 ---------------------------------------
    1    -377.9406885747      9.67e-04  
    2    -377.9465147566      8.58e-04  Done DIIS. Switching to GDM
 ---------------------------------------
  Cycle       Energy        RMS Gradient
 ---------------------------------------
    1    -377.9465147566      1.60e-02   Normal BFGS step
    2    -377.9459193344      2.13e-02  Line search: overstep
    3    -377.9491369942      3.41e-03   Normal BFGS step
    4    -377.9493459018      1.96e-03   Normal BFGS step
    5    -377.9493686595      1.48e-03   Normal BFGS step
    6    -377.9493790548      2.23e-04   Normal BFGS step
    7    -377.9493798527      9.73e-05   Normal BFGS step
    8    -377.9493799823      4.29e-05   Normal BFGS step
    9    -377.9493799899      3.43e-05   Normal BFGS step
   10    -377.9493799970      6.46e-06   Normal BFGS step
   11    -377.9493799973      3.68e-06   Normal BFGS step
   12    -377.9493799974      1.75e-06   Normal BFGS step
   13    -377.9493799974      5.05e-07   Normal BFGS step
   14    -377.9493799974      1.88e-07   Normal BFGS step
   15    -377.9493799974      4.22e-08  Convergence criterion met
 ---------------------------------------
 SCF time:   CPU 237.01s  wall 30.00s 
(3)  G-ENP(liq) elect-nuc-pol free energy of system     -377.949379997 a.u.
(4)  G-CDS(liq) cavity-dispersion-solvent structure 
     free energy                                                5.6630 kcal/mol
(6)  G-S(liq) free energy of system                     -377.940355451 a.u.
 SCF   energy in the final basis set =     -377.9403554510
 Total energy in the final basis set =     -377.9403554510
 
 --------------------------------------------------------------
 
                    Orbital Energies (a.u.)
 --------------------------------------------------------------
 
 Alpha MOs
 -- Occupied --
-19.3841 -19.3363 -19.2962 -19.2958 -10.4850 -10.4562  -1.2507  -1.1803
 -1.1596  -1.0937  -0.7975  -0.6733  -0.6177  -0.5943  -0.5840  -0.5424
 -0.5257  -0.5145  -0.4405  -0.4359  -0.3805  -0.3740  -0.3592
 -- Virtual --
  0.0391   0.0457   0.0663   0.0804   0.0894   0.1039   0.1176   0.1177
  0.1469   0.1653   0.1990   0.2126   0.2277   0.2297   0.2532   0.2836
  0.2857   0.3032   0.3085   0.3151   0.3201   0.3328   0.3460   0.3542
  0.3629   0.3642   0.3951   0.4187   0.4324   0.4462   0.4970   0.5716
  0.6066   0.6140   0.6678   0.7089   0.7195   0.7229   0.7564   0.7692
  0.7797   0.8285   0.8700   0.8847   0.8902   0.9375   1.0407   1.0630
  1.0858   1.1035   1.1162   1.1226   1.1369   1.1577   1.1676   1.1743
  1.2054   1.2250   1.2727   1.2782   1.2899   1.3744   1.3988   1.4401
  1.5200   1.5982   1.6082   1.6262   1.6270   1.6293   1.6897   1.7536
  1.7649   1.8135   1.8487   1.8957   1.9360   1.9965   2.0026   2.0675
  2.1092   2.1986   2.3448   2.3682   2.4643   2.4910   2.5073   2.6240
  2.6487   2.6705   2.7027   2.8014   2.8420   2.8747   2.8859   2.8980
  3.0911   3.1164   3.1302   3.2190   3.2624   3.3021   3.3602   3.3739
  3.4101   3.4493   3.4829   3.4973   3.5099   3.6083   3.6442   3.6472
  3.6598   3.7524   3.7624   3.8050   3.9678   4.0132   4.0331   4.0759
  4.1584   4.2190   4.3445   4.3942   4.7545   5.1214   5.1362   5.1645
  5.1659   5.1776   5.1820   5.1940   5.2003   5.2100   5.2184   5.2226
  5.2754   5.2814   5.3011   5.3142   5.3844   5.4070   5.4359   5.5003
  5.5878   5.5990   5.5997   5.6216   5.6268   5.7100   5.8532   5.8891
  5.9292   6.0382   6.1503   6.2592   6.4290   6.5286   6.6731   6.8582
  6.9053   6.9198   6.9221   6.9933   6.9988   7.0070   7.0512   7.0533
  7.1191   7.2156   7.2492   7.3017   7.3166   7.3466   7.3845   7.4808
  7.5152   7.5466   7.6243   7.7266   7.7796   7.7918   7.8730   7.9043
  7.9405  25.0637  25.2239  50.5649  50.6671  50.7213  50.7699
 --------------------------------------------------------------
 
          Ground-State Mulliken Net Atomic Charges

     Atom                 Charge (a.u.)
  ----------------------------------------
      1 C                     0.361870
      2 O                    -0.502675
      3 C                     0.371087
      4 O                    -0.633110
      5 O                    -0.636326
      6 O                    -0.321703
      7 H                     0.360857
  ----------------------------------------
  Sum of atomic charges =    -1.000000

 -----------------------------------------------------------------
                    Cartesian Multipole Moments
 -----------------------------------------------------------------
    Charge (ESU x 10^10)
                -4.8032
    Dipole Moment (Debye)
         X     -13.2169      Y      -4.7794      Z      -0.0025
       Tot      14.0545
    Quadrupole Moments (Debye-Ang)
        XX     -71.8813     XY      -1.9927     YY     -49.3340
        XZ      -0.0071     YZ      -0.0022     ZZ     -33.9015
    Octopole Moments (Debye-Ang^2)
       XXX    -259.3881    XXY     -23.7047    XYY     -78.0524
       YYY     -46.0575    XXZ      -0.0357    XYZ      -0.0035
       YYZ      -0.0228    XZZ     -46.8232    YZZ      -8.5908
       ZZZ      -0.0439
    Hexadecapole Moments (Debye-Ang^3)
      XXXX   -1089.7932   XXXY     -79.8392   XXYY    -232.7370
      XYYY     -81.7853   YYYY    -278.6144   XXXZ      -0.1378
      XXYZ      -0.0163   XYYZ      -0.0416   YYYZ      -0.0255
      XXZZ    -127.8804   XYZZ     -16.3583   YYZZ     -47.0817
      XZZZ      -0.0735   YZZZ      -0.0153   ZZZZ     -31.9176
 -----------------------------------------------------------------
 Calculating analytic gradient of the SCF energy
 Gradient of CDS energy
            1           2           3           4           5           6
    1  -0.0029763   0.0008904   0.0031578  -0.0005755  -0.0011892   0.0010158
    2  -0.0024012  -0.0010016   0.0005576  -0.0019291   0.0015694   0.0034936
    3  -0.0000003   0.0000001   0.0000002  -0.0000001   0.0000000   0.0000001
            7
    1  -0.0003229
    2  -0.0002886
    3  -0.0000000
 Gradient of SCF Energy
            1           2           3           4           5           6
    1  -0.0344638   0.0322623   0.0263194  -0.0147654  -0.0212948   0.0013203
    2   0.0187638  -0.0176576  -0.0006043  -0.0250990   0.0217970   0.0015947
    3   0.0000001   0.0000014   0.0000016  -0.0000021  -0.0000009  -0.0000014
            7
    1   0.0106220
    2   0.0012054
    3   0.0000012
 Max gradient component =       3.446E-02
 RMS gradient           =       1.616E-02
 Computing fast CPCM-SWIG gradient
 Updating gradient with PCM contributions...
 -- total gradient after adding PCM contribution --
---------------------------------------------------
  Atom         X              Y              Z     
---------------------------------------------------
   1      -0.000024       0.000096       0.000006
   2       0.000024      -0.000045      -0.000002
   3       0.000006      -0.000021       0.000000
   4      -0.000002       0.000011      -0.000001
   5       0.000000       0.000016      -0.000001
   6      -0.000013      -0.000053      -0.000002
   7       0.000008      -0.000004       0.000000
---------------------------------------------------
 Number of fixed atoms: 0
 Gradient time:  CPU 44.16 s  wall 6.46 s
 Geometry Optimization Parameters
   NAtoms,    NIC,     NZ,  NCons,   NDum,   NFix, NCnnct, MaxDiis
        7      33       0       0       0       0       0       0

 Cartesian Hessian Update
 Hessian updated using BFGS update


** GEOMETRY OPTIMIZATION IN DELOCALIZED INTERNAL COORDINATES **
   Searching for a Minimum

   Optimization Cycle:   8

                       Coordinates (Angstroms)
     ATOM                X               Y               Z
      1  C         0.5976906250    0.1829920034    0.0003836046
      2  O        -0.2116925879    1.0809780819    0.0002834213
      3  C         2.1394850490    0.4145355110    0.0005056157
      4  O         2.4827968949    1.6120878250    0.0005925006
      5  O         2.8556453186   -0.6050976549    0.0004820653
      6  O         0.2596265223   -1.1065494245    0.0003349708
      7  H        -0.7087105219   -1.1729699418    0.0002458218
   Point Group: c1    Number of degrees of freedom:    15


   Energy is   -377.940355451

 Hessian updated using BFGS update

 15 Hessian modes will be used to form the next step
  Hessian Eigenvalues:
     0.002000    0.023140    0.056614    0.115300    0.143513    0.234682
     0.249855    0.250411    0.264969    0.358264    0.476926    0.530236
     0.828450    0.858375    0.964538

 Minimum search - taking simple RFO step
 Searching for Lamda that Minimizes Along All modes
 Value Taken    Lamda =  -0.00000001
 Step Taken.  Stepsize is  0.000163

                             Maximum     Tolerance    Cnvgd?
         Gradient           0.000050      0.000300     YES
         Displacement       0.000094      0.001200     YES
         Energy change     -0.000018      0.000001      NO


                       Distance Matrix (Angstroms)
             C (  1)   O (  2)   C (  3)   O (  4)   O (  5)   O (  6)
   O (  2)  1.208917
   C (  3)  1.559084  2.443805
   O (  4)  2.365574  2.746334  1.245791
   O (  5)  2.391536  3.500202  1.246009  2.248317
   O (  6)  1.333118  2.237726  2.418174  3.511905  2.644006
   H (  7)  1.882901  2.308096  3.260735  4.235831  3.609309  0.970612

 
 Final energy is   -377.940355451039     


 ******************************
 **  OPTIMIZATION CONVERGED  **
 ******************************

                       Coordinates (Angstroms)
     ATOM                X               Y               Z
      1  C         0.5976906250    0.1829920034    0.0003836046
      2  O        -0.2116925879    1.0809780819    0.0002834213
      3  C         2.1394850490    0.4145355110    0.0005056157
      4  O         2.4827968949    1.6120878250    0.0005925006
      5  O         2.8556453186   -0.6050976549    0.0004820653
      6  O         0.2596265223   -1.1065494245    0.0003349708
      7  H        -0.7087105219   -1.1729699418    0.0002458218

Z-matrix Print:
$molecule
-1 1
C 
O  1 1.208917
O  1 1.333118 2 123.280672
H  3 0.970612 1 108.613898 2 -0.002203 0
C  1 1.559084 2 123.488600 3 179.996618 0
O  5 1.245791 1 114.537166 2 0.005072 0
O  5 1.246009 1 116.542337 2 -179.993823 0
$end

 
 --------------------------------------------------------------
 
                    Orbital Energies (a.u.)
 --------------------------------------------------------------
 
 Alpha MOs
 -- Occupied --
-19.3841 -19.3363 -19.2962 -19.2958 -10.4850 -10.4562  -1.2507  -1.1803
 -1.1596  -1.0937  -0.7975  -0.6733  -0.6177  -0.5943  -0.5840  -0.5424
 -0.5257  -0.5145  -0.4405  -0.4359  -0.3805  -0.3740  -0.3592
 -- Virtual --
  0.0391   0.0457   0.0663   0.0804   0.0894   0.1039   0.1176   0.1177
  0.1469   0.1653   0.1990   0.2126   0.2277   0.2297   0.2532   0.2836
  0.2857   0.3032   0.3085   0.3151   0.3201   0.3328   0.3460   0.3542
  0.3629   0.3642   0.3951   0.4187   0.4324   0.4462   0.4970   0.5716
  0.6066   0.6140   0.6678   0.7089   0.7195   0.7229   0.7564   0.7692
  0.7797   0.8285   0.8700   0.8847   0.8902   0.9375   1.0407   1.0630
  1.0858   1.1035   1.1162   1.1226   1.1369   1.1577   1.1676   1.1743
  1.2054   1.2250   1.2727   1.2782   1.2899   1.3744   1.3988   1.4401
  1.5200   1.5982   1.6082   1.6262   1.6270   1.6293   1.6897   1.7536
  1.7649   1.8135   1.8487   1.8957   1.9360   1.9965   2.0026   2.0675
  2.1092   2.1986   2.3448   2.3682   2.4643   2.4910   2.5073   2.6240
  2.6487   2.6705   2.7027   2.8014   2.8420   2.8747   2.8859   2.8980
  3.0911   3.1164   3.1302   3.2190   3.2624   3.3021   3.3602   3.3739
  3.4101   3.4493   3.4829   3.4973   3.5099   3.6083   3.6442   3.6472
  3.6598   3.7524   3.7624   3.8050   3.9678   4.0132   4.0331   4.0759
  4.1584   4.2190   4.3445   4.3942   4.7545   5.1214   5.1362   5.1645
  5.1659   5.1776   5.1820   5.1940   5.2003   5.2100   5.2184   5.2226
  5.2754   5.2814   5.3011   5.3142   5.3844   5.4070   5.4359   5.5003
  5.5878   5.5990   5.5997   5.6216   5.6268   5.7100   5.8532   5.8891
  5.9292   6.0382   6.1503   6.2592   6.4290   6.5286   6.6731   6.8582
  6.9053   6.9198   6.9221   6.9933   6.9988   7.0070   7.0512   7.0533
  7.1191   7.2156   7.2492   7.3017   7.3166   7.3466   7.3845   7.4808
  7.5152   7.5466   7.6243   7.7266   7.7796   7.7918   7.8730   7.9043
  7.9405  25.0637  25.2239  50.5649  50.6671  50.7213  50.7699
 --------------------------------------------------------------
 
          Ground-State Mulliken Net Atomic Charges

     Atom                 Charge (a.u.)
  ----------------------------------------
      1 C                     0.361870
      2 O                    -0.502675
      3 C                     0.371087
      4 O                    -0.633110
      5 O                    -0.636326
      6 O                    -0.321703
      7 H                     0.360857
  ----------------------------------------
  Sum of atomic charges =    -1.000000

 -----------------------------------------------------------------
                    Cartesian Multipole Moments
 -----------------------------------------------------------------
    Charge (ESU x 10^10)
                -4.8032
    Dipole Moment (Debye)
         X     -13.2169      Y      -4.7794      Z      -0.0025
       Tot      14.0545
    Quadrupole Moments (Debye-Ang)
        XX     -71.8813     XY      -1.9927     YY     -49.3340
        XZ      -0.0071     YZ      -0.0022     ZZ     -33.9015
    Octopole Moments (Debye-Ang^2)
       XXX    -259.3881    XXY     -23.7047    XYY     -78.0524
       YYY     -46.0575    XXZ      -0.0357    XYZ      -0.0035
       YYZ      -0.0228    XZZ     -46.8232    YZZ      -8.5908
       ZZZ      -0.0439
    Hexadecapole Moments (Debye-Ang^3)
      XXXX   -1089.7932   XXXY     -79.8392   XXYY    -232.7370
      XYYY     -81.7853   YYYY    -278.6144   XXXZ      -0.1378
      XXYZ      -0.0163   XYYZ      -0.0416   YYYZ      -0.0255
      XXZZ    -127.8804   XYZZ     -16.3583   YYZZ     -47.0817
      XZZZ      -0.0735   YZZZ      -0.0153   ZZZZ     -31.9176
 -----------------------------------------------------------------
 Total job time:  294.16s(wall), 2272.22s(cpu) 
 Sat May  6 17:20:31 2023

        *************************************************************
        *                                                           *
        *  Thank you very much for using Q-Chem.  Have a nice day.  *
        *                                                           *
        *************************************************************


