
Running Job 1 of 1 Q_in.in
qchem Q_in.in_383743.0 /scratch/ari.fischer/qChem1912889.hpc-mn1/qchem383743/ 0
/usr/local/qchem-5.4.1/exe/qcprog.exe_s Q_in.in_383743.0 /scratch/ari.fischer/qChem1912889.hpc-mn1/qchem383743/
                  Welcome to Q-Chem
     A Quantum Leap Into The Future Of Chemistry


 Q-Chem 5.4, Q-Chem, Inc., Pleasanton, CA (2021)

 License issued to: Nanyang Technological University (site)

 E. Epifanovsky,  A. T. B. Gilbert,  Xintian Feng,  Joonho Lee,  Yuezhi Mao,  
 N. Mardirossian,  P. Pokhilko,  A. White,  M. Wormit,  M. P. Coons,  
 A. L. Dempwolff,  Zhengting Gan,  D. Hait,  P. R. Horn,  L. D. Jacobson,  
 I. Kaliman,  J. Kussmann,  A. W. Lange,  Ka Un Lao,  D. S. Levine,  Jie Liu,  
 S. C. McKenzie,  A. F. Morrison,  K. Nanda,  F. Plasser,  D. R. Rehn,  
 M. L. Vidal,  Zhi-Qiang You,  Ying Zhu,  B. Alam,  B. Albrecht,  
 A. Aldossary,  E. Alguire,  J. H. Andersen,  D. Barton,  K. Begam,  A. Behn,  
 Y. A. Bernard,  E. J. Berquist,  H. Burton,  A. Carreras,  K. Carter-Fenk,  
 R. Chakraborty,  A. D. Chien,  K. D. Closser,  V. Cofer-Shabica,  
 S. Dasgupta,  Jia Deng,  M. de Wergifosse,  M. Diedenhofen,  Hainam Do,  
 S. Ehlert,  Po-Tung Fang,  S. Fatehi,  Qingguo Feng,  T. Friedhoff,  
 J. Gayvert,  Qinghui Ge,  G. Gidofalvi,  M. Goldey,  J. Gomes,  
 C. Gonzalez-Espinoza,  S. Gulania,  A. Gunina,  M. W. D. Hanson-Heine,  
 P. H. P. Harbach,  A. W. Hauser,  M. F. Herbst,  M. Hernandez Vera,  
 M. Hodecker,  Z. C. Holden,  S. Houck,  Xunkun Huang,  Kerwin Hui,  
 B. C. Huynh,  M. Ivanov,  Hyunjun Ji,  Hanjie Jiang,  B. Kaduk,  S. Kaehler,  
 K. Khistyaev,  Jaehoon Kim,  P. Klunzinger,  Z. Koczor-Benda,  
 Joong Hoon Koh,  D. Kosenkov,  L. Koulias,  T. Kowalczyk,  C. M. Krauter,  
 K. Kue,  A. Kunitsa,  T. Kus,  A. Landau,  K. V. Lawler,  D. Lefrancois,  
 S. Lehtola,  Rain Li,  Yi-Pei Li,  Jiashu Liang,  M. Liebenthal,  
 Hung-Hsuan Lin,  You-Sheng Lin,  Fenglai Liu,  Kuan-Yu Liu,  
 M. Loipersberger,  A. Luenser,  A. Manjanath,  P. Manohar,  E. Mansoor,  
 S. F. Manzer,  Shan-Ping Mao,  A. V. Marenich,  T. Markovich,  S. Mason,  
 S. A. Maurer,  P. F. McLaughlin,  M. F. S. J. Menger,  J.-M. Mewes,  
 S. A. Mewes,  P. Morgante,  J. W. Mullinax,  K. J. Oosterbaan,  G. Paran,  
 Alexander C. Paul,  Suranjan K. Paul,  F. Pavosevic,  Zheng Pei,  S. Prager,  
 E. I. Proynov,  E. Ramos,  B. Rana,  A. E. Rask,  A. Rettig,  R. M. Richard,  
 F. Rob,  E. Rossomme,  T. Scheele,  M. Scheurer,  M. Schneider,  
 N. Sergueev,  S. M. Sharada,  W. Skomorowski,  D. W. Small,  C. J. Stein,  
 Yu-Chuan Su,  E. J. Sundstrom,  Zhen Tao,  J. Thirman,  T. Tsuchimochi,  
 N. M. Tubman,  S. P. Veccham,  O. Vydrov,  J. Wenzel,  J. Witte,  A. Yamada,  
 Kun Yao,  S. Yeganeh,  S. R. Yost,  A. Zech,  Igor Ying Zhang,  Xing Zhang,  
 Yu Zhang,  D. Zuev,  A. Aspuru-Guzik,  A. T. Bell,  N. A. Besley,  
 K. B. Bravaya,  B. R. Brooks,  D. Casanova,  Jeng-Da Chai,  S. Coriani,  
 C. J. Cramer,  A. E. DePrince, III,  R. A. DiStasio Jr.,  A. Dreuw,  
 B. D. Dunietz,  T. R. Furlani,  W. A. Goddard III,  S. Grimme,  
 S. Hammes-Schiffer,  T. Head-Gordon,  W. J. Hehre,  Chao-Ping Hsu,  
 T.-C. Jagau,  Yousung Jung,  A. Klamt,  Jing Kong,  D. S. Lambrecht,  
 WanZhen Liang,  N. J. Mayhall,  C. W. McCurdy,  J. B. Neaton,  
 C. Ochsenfeld,  J. A. Parkhill,  R. Peverati,  V. A. Rassolov,  Yihan Shao,  
 L. V. Slipchenko,  T. Stauch,  R. P. Steele,  J. E. Subotnik,  
 A. J. W. Thom,  A. Tkatchenko,  D. G. Truhlar,  T. Van Voorhis,  
 T. A. Wesolowski,  K. B. Whaley,  H. L. Woodcock III,  P. M. Zimmerman,  
 S. Faraji,  P. M. W. Gill,  M. Head-Gordon,  J. M. Herbert,  A. I. Krylov

 Additional authors for Version 5.4.1: 
 S. Kotaru,  Shaozhi Li,  Xiangyuan Li,  F. Matz,  A. Molle,  Haisheng Ren,  
 Yingli Su,  Hung-Yi Tsai,  C. Utku,  Fang Wang

 Contributors to earlier versions of Q-Chem not listed above: 
 R. D. Adamson,  B. Austin,  R. Baer,  J. Baker,  G. J. O. Beran,  
 K. Brandhorst,  S. T. Brown,  E. F. C. Byrd,  A. K. Chakraborty,  
 G. K. L. Chan,  Chun-Min Chang,  Yunqing Chen,  C.-L. Cheng,  
 Siu Hung Chien,  D. M. Chipman,  D. L. Crittenden,  H. Dachsel,  
 R. J. Doerksen,  A. D. Dutoi,  R. G. Edgar,  J. Fosso-Tande,  
 L. Fusti-Molnar,  D. Ghosh,  A. Ghysels,  A. Golubeva-Zadorozhnaya,  
 J. Gonthier,  M. S. Gordon,  S. R. Gwaltney,  G. Hawkins,  J. E. Herr,  
 A. Heyden,  S. Hirata,  E. G. Hohenstein,  G. Kedziora,  F. J. Keil,  
 C. Kelley,  Jihan Kim,  R. A. King,  R. Z. Khaliullin,  P. P. Korambath,  
 W. Kurlancheek,  A. Laurent,  A. M. Lee,  M. S. Lee,  S. V. Levchenko,  
 Ching Yeh Lin,  D. Liotard,  E. Livshits,  R. C. Lochan,  I. Lotan,  
 L. A. Martinez-Martinez,  P. E. Maslen,  N. Nair,  D. P. O'Neill,  
 D. Neuhauser,  E. Neuscamman,  C. M. Oana,  R. Olivares-Amaya,  R. Olson,  
 T. M. Perrine,  B. Peters,  P. A. Pieniazek,  A. Prociuk,  Y. M. Rhee,  
 J. Ritchie,  M. A. Rohrdanz,  E. Rosta,  N. J. Russ,  H. F. Schaefer III,  
 M. W. Schmidt,  N. E. Schultz,  S. Sharma,  N. Shenvi,  C. D. Sherrill,  
 A. C. Simmonett,  A. Sodt,  T. Stein,  D. Stuck,  K. S. Thanthiriwatte,  
 V. Vanovschi,  L. Vogt,  Tao Wang,  A. Warshel,  M. A. Watson,  
 C. F. Williams,  Q. Wu,  X. Xu,  Jun Yang,  W. Zhang,  Yan Zhao

 Please cite Q-Chem as follows:
 Y. Shao et al., Mol. Phys. 113, 184-215 (2015)
 DOI: 10.1080/00268976.2014.952696

 Q-Chem 5.4.1 for Intel X86 EM64T Linux

 Parts of Q-Chem use Armadillo 9.800.1 (Horizon Scraper).
 http://arma.sourceforge.net/

 Q-Chem begins on Mon Feb  5 12:38:33 2024  

 Host: 
0

     Scratch files written to /scratch/ari.fischer/qChem1912889.hpc-mn1/qchem383743//
 Aug1521 |scratch|qcdevops|jenkins|workspace|build_RNUM 8249   
 Processing $rem in /usr/local/qchem-5.4.1/config/preferences:
 Processing $rem in /home/ari.fischer/.qchemrc:
 Symmetry turned off for PCM/SM12/SMD calculation

 Checking the input file for inconsistencies... 	...done.

--------------------------------------------------------------
User input:
--------------------------------------------------------------
$molecule
0 2
O        -0.4628443119    1.4062765168   -0.3338263962
C         0.0001780212    0.4576397441    0.5699888494
O        -0.9991184032   -0.4100108625    0.9945623619
C         1.1585387697   -0.3123762542   -0.0500006829
O         2.0694287861    0.4823349227   -0.5845675524
O         1.2217330546   -1.5180777080   -0.0011624366
H        -1.0496509914    2.0161099922    0.1307241003
H        -0.6649513630   -1.3165348992    0.9062656099
H         2.7994759286   -0.0533732966   -0.9357000371
H         0.4330768658    0.9910550084    1.4857371922
O         1.2872704652    1.6529693057    2.5904387587
H         2.0679795783    1.7852775305    2.0246481329
$end

$rem
BASIS = 6-311++G**
JOB_TYPE = SP
METHOD = wB97M-V
SCF_ALGORITHM = DIIS_GDM
MAX_SCF_CYCLES = 400
SCF_CONVERGENCE = 7
THRESH = 12
Solvent_method = SMD
$end
--------------------------------------------------------------
 ----------------------------------------------------------------
             Standard Nuclear Orientation (Angstroms)
    I     Atom           X                Y                Z
 ----------------------------------------------------------------
    1      O      -0.4628443119     1.4062765168    -0.3338263962
    2      C       0.0001780212     0.4576397441     0.5699888494
    3      O      -0.9991184032    -0.4100108625     0.9945623619
    4      C       1.1585387697    -0.3123762542    -0.0500006829
    5      O       2.0694287861     0.4823349227    -0.5845675524
    6      O       1.2217330546    -1.5180777080    -0.0011624366
    7      H      -1.0496509914     2.0161099922     0.1307241003
    8      H      -0.6649513630    -1.3165348992     0.9062656099
    9      H       2.7994759286    -0.0533732966    -0.9357000371
   10      H       0.4330768658     0.9910550084     1.4857371922
   11      O       1.2872704652     1.6529693057     2.5904387587
   12      H       2.0679795783     1.7852775305     2.0246481329
 ----------------------------------------------------------------
 Nuclear Repulsion Energy =         325.39385223 hartrees
 There are       29 alpha and       28 beta electrons
 Requested basis set is 6-311++G(d,p)
 There are 67 shells and 189 basis functions

 Total QAlloc Memory Limit 288000 MB
 Mega-Array Size       188 MB
 MEM_STATIC part       192 MB
 
 Citation of the SMD model:
 Marenich, A.V.; Cramer, C.J.; Truhlar, D.G.
 J. Phys. Chem. B 2009, 113, 6378-6396.
 iSolventCode=           1
 Solvent: water                                                           
 
 vradii
            1           2           3           4           5           6
    1   1.5200000   1.8500000   1.5200000   1.8500000   1.5200000   1.5200000
            7           8           9          10          11          12
    1   1.2000000   1.2000000   1.2000000   1.2000000   1.5200000   1.2000000
 Changing PCM_VDW_RADII to SMD_RADIUS
 Discretize the solute cavity surface with Lebedev spheres
	Using 110 Lebedev grid points for each H atom
	Using 194 Lebedev grid points for other atoms
	Atomic van der Waals radii will be scaled by 1.20
 Remove points where switching function is < 1.0e-08
 Keep 1055 surface tesserae and discard 853 interior tesserae
 Molecular Surface Area = 123.845 Angst**2

                       Distance Matrix (Angstroms)
             O (  1)   C (  2)   O (  3)   C (  4)   O (  5)   O (  6)
   C (  2)  1.389670
   O (  3)  2.313246  1.389847
   C (  4)  2.379749  1.522863  2.399193
   O (  5)  2.707203  2.369685  3.564536  1.321760
   O (  6)  3.391211  2.392043  2.674222  1.208344  2.249578
   H (  7)  0.965425  1.929747  2.575817  3.214127  3.548629  4.203220
   H (  8)  2.998729  1.924363  0.970180  2.290829  3.596575  2.103241
   H (  9)  3.624302  3.219364  4.275795  1.882610  0.971209  2.346911
   H ( 10)  2.070240  1.144783  2.062867  2.140962  2.687491  3.021357
   O ( 11)  3.416882  2.677244  3.468470  3.294097  3.473157  4.095880
   H ( 12)  3.480103  2.855601  3.909918  3.087297  2.916448  3.966383
             H (  7)   H (  8)   H (  9)   H ( 10)   O ( 11)
   H (  8)  3.443251
   H (  9)  4.498422  4.121974
   H ( 10)  2.255057  2.620386  3.543167
   O ( 11)  3.412224  3.932628  4.199051  1.545362
   H ( 12)  3.655113  4.282631  3.560812  1.895817  0.973207
 
 A cutoff of  1.0D-12 yielded   2116 shell pairs
 There are     17121 function pairs (     18410 Cartesian)
 Smallest overlap matrix eigenvalue = 5.20E-05

 Scale SEOQF with 1.000000e-01/1.000000e-01/1.000000e-01

 Standard Electronic Orientation quadrupole field applied
 Nucleus-field energy     =     0.0000000003 hartrees
 Guess from superposition of atomic densities
 Warning:  Energy on first SCF cycle will be non-variational
 SAD guess density has 57.000000 electrons

 -----------------------------------------------------------------------
  General SCF calculation program by
  Eric Jon Sundstrom, Paul Horn, Yuezhi Mao, Dmitri Zuev, Alec White,
  David Stuck, Shaama M.S., Shane Yost, Joonho Lee, David Small,
  Daniel Levine, Susi Lehtola, Hugh Burton, Evgeny Epifanovsky,
  Bang C. Huynh
 -----------------------------------------------------------------------
 Exchange:     0.1500 Hartree-Fock + 1.0000 wB97M-V + LR-HF
 Correlation:  1.0000 wB97M-V
 Using SG-2 standard quadrature grid
 Nonlocal Correlation:  VV10 with C = 0.0100 and b = 6.00 and scale = 1.00000
 Grid used for NLC:  SG-1 standard quadrature
 
 Citation of the SMD model:
 Marenich, A.V.; Cramer, C.J.; Truhlar, D.G.
 J. Phys. Chem. B 2009, 113, 6378-6396.
 iSolventCode=           1
 Solvent: water                                                           
 
 vradii
            1           2           3           4           5           6
    1   1.5200000   1.8500000   1.5200000   1.8500000   1.5200000   1.5200000
            7           8           9          10          11          12
    1   1.2000000   1.2000000   1.2000000   1.2000000   1.5200000   1.2000000
 using 4 threads for integral computing
 -------------------------------------------------------
 OpenMP Integral computing Module                
 Release: version 1.0, May 2013, Q-Chem Inc. Pittsburgh 
 -------------------------------------------------------
 -------------------------------------------------------
 OpenMP BLAS3 based DFT computing Module                
 Release: version 1.0, May 2013, Q-Chem Inc. Pittsburgh 
 -------------------------------------------------------
 A unrestricted SCF calculation will be
 performed using DIIS, GDM
 SCF converges when RMS gradient is below 1.0e-07
 ---------------------------------------
  Cycle       Energy         DIIS error
 ---------------------------------------
    1    -456.3696166875      2.24e-02  
    2    -455.0208752000      4.16e-03  Done DIIS. Switching to GDM
 ---------------------------------------
  Cycle       Energy        RMS Gradient
 ---------------------------------------
    1    -455.0208752000      3.33e-01   Descent step
    2    -455.2482983096      6.88e-02   Normal BFGS step
    3    -455.2866097888      6.73e-02   Normal BFGS step
    4    -455.2939152486      1.44e-02   Normal BFGS step
    5    -455.2976751549      1.71e-02   Normal BFGS step
    6    -455.2988704120      9.97e-03   Normal BFGS step
    7    -455.2991619801      4.78e-03   Normal BFGS step
    8    -455.2992461795      1.62e-03   Normal BFGS step
    9    -455.2992691683      7.96e-04   Normal BFGS step
   10    -455.2992716285      4.12e-04   Normal BFGS step
   11    -455.2992725244      2.16e-04   Normal BFGS step
   12    -455.2992727664      2.03e-04   Normal BFGS step
   13    -455.2992728870      1.67e-04   Normal BFGS step
   14    -455.2992729677      1.34e-04   Normal BFGS step
   15    -455.2992730307      1.10e-04   Normal BFGS step
   16    -455.2992731014      8.56e-05   Normal BFGS step
   17    -455.2992731470      3.04e-05   Normal BFGS step
   18    -455.2992731544      8.57e-06   Normal BFGS step
   19    -455.2992731550      2.51e-06   Normal BFGS step
   20    -455.2992731550      1.22e-06   Normal BFGS step
   21    -455.2992731550      4.29e-07   Normal BFGS step
   22    -455.2992731550      1.61e-07   Normal BFGS step
   23    -455.2992731550      3.30e-08  Convergence criterion met
 ---------------------------------------
 SCF time:   CPU 321.41s  wall 85.00s 
<S^2> =          0.756348265
(3)  G-ENP(liq) elect-nuc-pol free energy of system     -455.299273155 a.u.
(4)  G-CDS(liq) cavity-dispersion-solvent structure 
     free energy                                                4.7172 kcal/mol
(6)  G-S(liq) free energy of system                     -455.291755826 a.u.
 SCF   energy in the final basis set =     -455.2917558262
 Total energy in the final basis set =     -455.2917558262
 
 --------------------------------------------------------------
 
                    Orbital Energies (a.u.)
 --------------------------------------------------------------
 
 Alpha MOs
 -- Occupied --
-19.3993 -19.3860 -19.3661 -19.3621 -19.3542 -10.5085 -10.4829  -1.2732
 -1.2232  -1.1847  -1.1559  -1.1355  -0.8678  -0.7520  -0.6900  -0.6736
 -0.6477  -0.6175  -0.5875  -0.5683  -0.5479  -0.5312  -0.5088  -0.4901
 -0.4558  -0.4533  -0.4400  -0.4242  -0.3863
 -- Virtual --
  0.0247   0.0419   0.0504   0.0576   0.0698   0.0828   0.0944   0.1030
  0.1124   0.1239   0.1419   0.1518   0.1560   0.1753   0.2095   0.2126
  0.2221   0.2278   0.2456   0.2568   0.2631   0.2704   0.2819   0.2943
  0.3096   0.3127   0.3226   0.3281   0.3323   0.3362   0.3397   0.3477
  0.3512   0.3591   0.3780   0.3868   0.3987   0.4092   0.4228   0.4275
  0.4560   0.4633   0.4893   0.5591   0.5899   0.6163   0.6252   0.6424
  0.6539   0.6755   0.6992   0.7161   0.7630   0.7959   0.8196   0.9448
  0.9942   1.0568   1.0914   1.1037   1.1216   1.1437   1.1669   1.1728
  1.1797   1.2057   1.2197   1.2366   1.2482   1.2592   1.2743   1.2967
  1.3309   1.3784   1.4377   1.4675   1.4770   1.4822   1.5250   1.5543
  1.5675   1.5799   1.5972   1.6192   1.6500   1.7030   1.7275   1.7823
  1.8257   1.8384   1.8982   1.9106   1.9505   2.0154   2.0669   2.0914
  2.1276   2.1564   2.1920   2.2069   2.2901   2.4257   2.6055   2.6205
  2.6594   2.6937   2.7385   2.8567   2.8736   2.9077   2.9239   2.9568
  3.0054   3.0679   3.1366   3.1711   3.1863   3.1974   3.2034   3.2191
  3.2391   3.2871   3.3124   3.3679   3.3820   3.4532   3.5030   3.5147
  3.6760   3.7704   3.8798   3.8867   3.9479   3.9709   4.0498   4.1498
  4.1655   4.2720   5.0795   5.1048   5.1496   5.1648   5.1875   5.2268
  5.2920   5.4189   5.5450   5.5672   5.5884   5.6896   5.8014   5.9150
  5.9866  24.0679  24.1607  50.3839  50.4148  50.4501  50.4852  50.5583
 
 Beta MOs
 -- Occupied --
-19.3993 -19.3652 -19.3649 -19.3610 -19.3540 -10.5084 -10.4791  -1.2727
 -1.2207  -1.1841  -1.1538  -1.0804  -0.8631  -0.7480  -0.6856  -0.6676
 -0.6416  -0.6119  -0.5748  -0.5528  -0.5468  -0.5238  -0.4886  -0.4537
 -0.4377  -0.4310  -0.4259  -0.4055
 -- Virtual --
 -0.0826   0.0255   0.0422   0.0506   0.0588   0.0733   0.0838   0.0945
  0.1033   0.1128   0.1249   0.1438   0.1520   0.1574   0.1767   0.2130
  0.2146   0.2244   0.2301   0.2469   0.2573   0.2651   0.2733   0.2825
  0.2952   0.3114   0.3141   0.3234   0.3300   0.3339   0.3371   0.3425
  0.3481   0.3519   0.3605   0.3817   0.3936   0.4010   0.4143   0.4254
  0.4336   0.4568   0.4693   0.4901   0.5606   0.5945   0.6174   0.6282
  0.6447   0.6564   0.6764   0.7017   0.7177   0.7652   0.7981   0.8239
  0.9457   0.9964   1.0598   1.0989   1.1063   1.1288   1.1472   1.1694
  1.1808   1.1999   1.2101   1.2214   1.2408   1.2578   1.2621   1.2751
  1.3018   1.3332   1.3789   1.4399   1.4740   1.4870   1.4917   1.5286
  1.5568   1.5695   1.5828   1.5978   1.6261   1.6514   1.7047   1.7320
  1.7839   1.8339   1.8416   1.9031   1.9170   1.9527   2.0151   2.0681
  2.0926   2.1340   2.1632   2.1930   2.2087   2.2913   2.4442   2.6090
  2.6200   2.6609   2.6932   2.7396   2.8476   2.8902   2.9245   2.9586
  2.9622   3.0102   3.0789   3.1380   3.1735   3.2011   3.2195   3.2239
  3.2245   3.2686   3.2921   3.3163   3.3725   3.4092   3.4561   3.5048
  3.5172   3.6772   3.7715   3.8805   3.9116   3.9495   3.9738   4.0677
  4.1522   4.1662   4.2751   5.0993   5.1117   5.1665   5.1832   5.2064
  5.2798   5.2956   5.4268   5.5468   5.5720   5.6171   5.6911   5.8025
  5.9169   5.9868  24.0711  24.1609  50.3983  50.4151  50.4508  50.4860
 50.5585
 --------------------------------------------------------------
 
          Ground-State Mulliken Net Atomic Charges

     Atom                 Charge (a.u.)    Spin (a.u.)
  --------------------------------------------------------
      1 O                    -0.284124       0.028871
      2 C                    -0.361778       0.170741
      3 O                    -0.283131       0.037360
      4 C                     0.192659      -0.005159
      5 O                    -0.191220       0.000520
      6 O                    -0.346723       0.009426
      7 H                     0.356465       0.000794
      8 H                     0.303389       0.000941
      9 H                     0.368020       0.000188
     10 H                     0.306487      -0.036231
     11 O                    -0.369440       0.805669
     12 H                     0.309396      -0.013122
  --------------------------------------------------------
  Sum of atomic charges =    -0.000000
  Sum of spin   charges =     1.000000

 -----------------------------------------------------------------
                    Cartesian Multipole Moments
 -----------------------------------------------------------------
    Charge (ESU x 10^10)
                -0.0000
    Dipole Moment (Debye)
         X       3.0423      Y       1.1410      Z      -1.4852
       Tot       3.5725
    Quadrupole Moments (Debye-Ang)
        XX     -29.9538     XY       0.9124     YY     -42.1887
        XZ      -1.9474     YZ      -0.1454     ZZ     -49.8065
    Octopole Moments (Debye-Ang^2)
       XXX     -30.1720    XXY       0.8012    XYY     -38.9527
       YYY     -24.5039    XXZ     -25.9705    XYZ       3.7055
       YYZ     -17.9412    XZZ     -22.1576    YZZ     -25.7481
       ZZZ     -92.7618
    Hexadecapole Moments (Debye-Ang^3)
      XXXX    -277.7019   XXXY      -3.9011   XXYY    -107.3816
      XYYY     -10.6836   YYYY    -329.3440   XXXZ     -35.8280
      XXYZ       0.6317   XYYZ      -4.6574   YYYZ     -76.2917
      XXZZ    -109.4068   XYZZ      -7.3137   YYZZ    -134.5907
      XZZZ     -48.3162   YZZZ    -103.6070   ZZZZ    -451.0906
 -----------------------------------------------------------------
 Total job time:  85.42s(wall), 323.48s(cpu) 
 Mon Feb  5 12:39:59 2024

        *************************************************************
        *                                                           *
        *  Thank you very much for using Q-Chem.  Have a nice day.  *
        *                                                           *
        *************************************************************


