
Running Job 1 of 1 Q_in.in
qchem Q_in.in_359170.0 /scratch/ari.fischer/qChem1912880.hpc-mn1/qchem359170/ 0
/usr/local/qchem-5.4.1/exe/qcprog.exe_s Q_in.in_359170.0 /scratch/ari.fischer/qChem1912880.hpc-mn1/qchem359170/
                  Welcome to Q-Chem
     A Quantum Leap Into The Future Of Chemistry


 Q-Chem 5.4, Q-Chem, Inc., Pleasanton, CA (2021)

 License issued to: Nanyang Technological University (site)

 E. Epifanovsky,  A. T. B. Gilbert,  Xintian Feng,  Joonho Lee,  Yuezhi Mao,  
 N. Mardirossian,  P. Pokhilko,  A. White,  M. Wormit,  M. P. Coons,  
 A. L. Dempwolff,  Zhengting Gan,  D. Hait,  P. R. Horn,  L. D. Jacobson,  
 I. Kaliman,  J. Kussmann,  A. W. Lange,  Ka Un Lao,  D. S. Levine,  Jie Liu,  
 S. C. McKenzie,  A. F. Morrison,  K. Nanda,  F. Plasser,  D. R. Rehn,  
 M. L. Vidal,  Zhi-Qiang You,  Ying Zhu,  B. Alam,  B. Albrecht,  
 A. Aldossary,  E. Alguire,  J. H. Andersen,  D. Barton,  K. Begam,  A. Behn,  
 Y. A. Bernard,  E. J. Berquist,  H. Burton,  A. Carreras,  K. Carter-Fenk,  
 R. Chakraborty,  A. D. Chien,  K. D. Closser,  V. Cofer-Shabica,  
 S. Dasgupta,  Jia Deng,  M. de Wergifosse,  M. Diedenhofen,  Hainam Do,  
 S. Ehlert,  Po-Tung Fang,  S. Fatehi,  Qingguo Feng,  T. Friedhoff,  
 J. Gayvert,  Qinghui Ge,  G. Gidofalvi,  M. Goldey,  J. Gomes,  
 C. Gonzalez-Espinoza,  S. Gulania,  A. Gunina,  M. W. D. Hanson-Heine,  
 P. H. P. Harbach,  A. W. Hauser,  M. F. Herbst,  M. Hernandez Vera,  
 M. Hodecker,  Z. C. Holden,  S. Houck,  Xunkun Huang,  Kerwin Hui,  
 B. C. Huynh,  M. Ivanov,  Hyunjun Ji,  Hanjie Jiang,  B. Kaduk,  S. Kaehler,  
 K. Khistyaev,  Jaehoon Kim,  P. Klunzinger,  Z. Koczor-Benda,  
 Joong Hoon Koh,  D. Kosenkov,  L. Koulias,  T. Kowalczyk,  C. M. Krauter,  
 K. Kue,  A. Kunitsa,  T. Kus,  A. Landau,  K. V. Lawler,  D. Lefrancois,  
 S. Lehtola,  Rain Li,  Yi-Pei Li,  Jiashu Liang,  M. Liebenthal,  
 Hung-Hsuan Lin,  You-Sheng Lin,  Fenglai Liu,  Kuan-Yu Liu,  
 M. Loipersberger,  A. Luenser,  A. Manjanath,  P. Manohar,  E. Mansoor,  
 S. F. Manzer,  Shan-Ping Mao,  A. V. Marenich,  T. Markovich,  S. Mason,  
 S. A. Maurer,  P. F. McLaughlin,  M. F. S. J. Menger,  J.-M. Mewes,  
 S. A. Mewes,  P. Morgante,  J. W. Mullinax,  K. J. Oosterbaan,  G. Paran,  
 Alexander C. Paul,  Suranjan K. Paul,  F. Pavosevic,  Zheng Pei,  S. Prager,  
 E. I. Proynov,  E. Ramos,  B. Rana,  A. E. Rask,  A. Rettig,  R. M. Richard,  
 F. Rob,  E. Rossomme,  T. Scheele,  M. Scheurer,  M. Schneider,  
 N. Sergueev,  S. M. Sharada,  W. Skomorowski,  D. W. Small,  C. J. Stein,  
 Yu-Chuan Su,  E. J. Sundstrom,  Zhen Tao,  J. Thirman,  T. Tsuchimochi,  
 N. M. Tubman,  S. P. Veccham,  O. Vydrov,  J. Wenzel,  J. Witte,  A. Yamada,  
 Kun Yao,  S. Yeganeh,  S. R. Yost,  A. Zech,  Igor Ying Zhang,  Xing Zhang,  
 Yu Zhang,  D. Zuev,  A. Aspuru-Guzik,  A. T. Bell,  N. A. Besley,  
 K. B. Bravaya,  B. R. Brooks,  D. Casanova,  Jeng-Da Chai,  S. Coriani,  
 C. J. Cramer,  A. E. DePrince, III,  R. A. DiStasio Jr.,  A. Dreuw,  
 B. D. Dunietz,  T. R. Furlani,  W. A. Goddard III,  S. Grimme,  
 S. Hammes-Schiffer,  T. Head-Gordon,  W. J. Hehre,  Chao-Ping Hsu,  
 T.-C. Jagau,  Yousung Jung,  A. Klamt,  Jing Kong,  D. S. Lambrecht,  
 WanZhen Liang,  N. J. Mayhall,  C. W. McCurdy,  J. B. Neaton,  
 C. Ochsenfeld,  J. A. Parkhill,  R. Peverati,  V. A. Rassolov,  Yihan Shao,  
 L. V. Slipchenko,  T. Stauch,  R. P. Steele,  J. E. Subotnik,  
 A. J. W. Thom,  A. Tkatchenko,  D. G. Truhlar,  T. Van Voorhis,  
 T. A. Wesolowski,  K. B. Whaley,  H. L. Woodcock III,  P. M. Zimmerman,  
 S. Faraji,  P. M. W. Gill,  M. Head-Gordon,  J. M. Herbert,  A. I. Krylov

 Additional authors for Version 5.4.1: 
 S. Kotaru,  Shaozhi Li,  Xiangyuan Li,  F. Matz,  A. Molle,  Haisheng Ren,  
 Yingli Su,  Hung-Yi Tsai,  C. Utku,  Fang Wang

 Contributors to earlier versions of Q-Chem not listed above: 
 R. D. Adamson,  B. Austin,  R. Baer,  J. Baker,  G. J. O. Beran,  
 K. Brandhorst,  S. T. Brown,  E. F. C. Byrd,  A. K. Chakraborty,  
 G. K. L. Chan,  Chun-Min Chang,  Yunqing Chen,  C.-L. Cheng,  
 Siu Hung Chien,  D. M. Chipman,  D. L. Crittenden,  H. Dachsel,  
 R. J. Doerksen,  A. D. Dutoi,  R. G. Edgar,  J. Fosso-Tande,  
 L. Fusti-Molnar,  D. Ghosh,  A. Ghysels,  A. Golubeva-Zadorozhnaya,  
 J. Gonthier,  M. S. Gordon,  S. R. Gwaltney,  G. Hawkins,  J. E. Herr,  
 A. Heyden,  S. Hirata,  E. G. Hohenstein,  G. Kedziora,  F. J. Keil,  
 C. Kelley,  Jihan Kim,  R. A. King,  R. Z. Khaliullin,  P. P. Korambath,  
 W. Kurlancheek,  A. Laurent,  A. M. Lee,  M. S. Lee,  S. V. Levchenko,  
 Ching Yeh Lin,  D. Liotard,  E. Livshits,  R. C. Lochan,  I. Lotan,  
 L. A. Martinez-Martinez,  P. E. Maslen,  N. Nair,  D. P. O'Neill,  
 D. Neuhauser,  E. Neuscamman,  C. M. Oana,  R. Olivares-Amaya,  R. Olson,  
 T. M. Perrine,  B. Peters,  P. A. Pieniazek,  A. Prociuk,  Y. M. Rhee,  
 J. Ritchie,  M. A. Rohrdanz,  E. Rosta,  N. J. Russ,  H. F. Schaefer III,  
 M. W. Schmidt,  N. E. Schultz,  S. Sharma,  N. Shenvi,  C. D. Sherrill,  
 A. C. Simmonett,  A. Sodt,  T. Stein,  D. Stuck,  K. S. Thanthiriwatte,  
 V. Vanovschi,  L. Vogt,  Tao Wang,  A. Warshel,  M. A. Watson,  
 C. F. Williams,  Q. Wu,  X. Xu,  Jun Yang,  W. Zhang,  Yan Zhao

 Please cite Q-Chem as follows:
 Y. Shao et al., Mol. Phys. 113, 184-215 (2015)
 DOI: 10.1080/00268976.2014.952696

 Q-Chem 5.4.1 for Intel X86 EM64T Linux

 Parts of Q-Chem use Armadillo 9.800.1 (Horizon Scraper).
 http://arma.sourceforge.net/

 Q-Chem begins on Mon Feb  5 12:38:31 2024  

 Host: 
0

     Scratch files written to /scratch/ari.fischer/qChem1912880.hpc-mn1/qchem359170//
 Aug1521 |scratch|qcdevops|jenkins|workspace|build_RNUM 8249   
 Processing $rem in /usr/local/qchem-5.4.1/config/preferences:
 Processing $rem in /home/ari.fischer/.qchemrc:
 Symmetry turned off for PCM/SM12/SMD calculation

 Checking the input file for inconsistencies... 	...done.

--------------------------------------------------------------
User input:
--------------------------------------------------------------
$molecule
0 2
C         0.5259361465    0.2043921395    0.4740676009
O         1.2874533448   -0.5711169147    0.9869908096
H        -2.5875831013    0.7760436896   -0.2342908893
C        -0.9933530291   -0.0778802264    0.4538855820
O        -1.1924198531   -1.3245821325   -0.0584423260
O        -1.6382660789    0.9534424243   -0.1592693111
O         0.9252740252    1.3236119123   -0.1025326688
H         0.1686586019    1.8175050908   -0.4603742573
O        -1.4339563021   -0.1633635542    1.8680049276
O        -1.1076507085    0.9154251556    2.5200574009
H        -2.1404694451   -1.4927940843   -0.1674083686
$end

$rem
BASIS = def2-QZVP
JOB_TYPE = SP
METHOD = wB97M-V
SCF_ALGORITHM = DIIS_GDM
MAX_SCF_CYCLES = 400
SCF_CONVERGENCE = 7
THRESH = 12
Solvent_method = SMD
$end
--------------------------------------------------------------
 ----------------------------------------------------------------
             Standard Nuclear Orientation (Angstroms)
    I     Atom           X                Y                Z
 ----------------------------------------------------------------
    1      C       0.5259361465     0.2043921395     0.4740676009
    2      O       1.2874533448    -0.5711169147     0.9869908096
    3      H      -2.5875831013     0.7760436896    -0.2342908893
    4      C      -0.9933530291    -0.0778802264     0.4538855820
    5      O      -1.1924198531    -1.3245821325    -0.0584423260
    6      O      -1.6382660789     0.9534424243    -0.1592693111
    7      O       0.9252740252     1.3236119123    -0.1025326688
    8      H       0.1686586019     1.8175050908    -0.4603742573
    9      O      -1.4339563021    -0.1633635542     1.8680049276
   10      O      -1.1076507085     0.9154251556     2.5200574009
   11      H      -2.1404694451    -1.4927940843    -0.1674083686
 ----------------------------------------------------------------
 Nuclear Repulsion Energy =         417.95628510 hartrees
 There are       32 alpha and       31 beta electrons
 Requested basis set is def2-QZVP
 There are 166 shells and 546 basis functions

 Total QAlloc Memory Limit 288000 MB
 Mega-Array Size       188 MB
 MEM_STATIC part       192 MB
 
 Citation of the SMD model:
 Marenich, A.V.; Cramer, C.J.; Truhlar, D.G.
 J. Phys. Chem. B 2009, 113, 6378-6396.
 iSolventCode=           1
 Solvent: water                                                           
 
 vradii
            1           2           3           4           5           6
    1   1.8500000   1.5200000   1.2000000   1.8500000   1.5200000   1.5200000
            7           8           9          10          11
    1   1.5200000   1.2000000   1.5200000   1.5200000   1.2000000
 Changing PCM_VDW_RADII to SMD_RADIUS
 Discretize the solute cavity surface with Lebedev spheres
	Using 110 Lebedev grid points for each H atom
	Using 194 Lebedev grid points for other atoms
	Atomic van der Waals radii will be scaled by 1.20
 Remove points where switching function is < 1.0e-08
 Keep 1006 surface tesserae and discard 876 interior tesserae
 Molecular Surface Area = 117.604 Angst**2

                       Distance Matrix (Angstroms)
             C (  1)   O (  2)   H (  3)   C (  4)   O (  5)   O (  6)
   O (  2)  1.201837
   H (  3)  3.243849  4.280453
   C (  4)  1.545421  2.393650  1.935030
   O (  5)  2.360948  2.794711  2.527851  1.362488
   O (  6)  2.376124  3.492567  0.968660  1.362167  2.323433
   O (  7)  1.320830  2.215453  3.557718  2.440269  3.391092  2.590749
   H (  8)  1.898147  3.008668  2.955101  2.403878  3.447723  2.025400
   O (  9)  2.432999  2.889380  2.575459  1.483635  2.262293  2.323540
   O ( 10)  2.712978  3.208835  3.129866  2.295384  3.416647  2.731628
   H ( 11)  3.225159  3.732664  2.313441  1.924542  0.969003  2.497268
             O (  7)   H (  8)   O (  9)   O ( 10)
   H (  8)  0.971827
   O (  9)  3.414686  3.451603
   O ( 10)  3.343259  3.365366  1.302088
   H ( 11)  4.163548  4.046725  2.531690  3.753493
 
 A cutoff of  1.0D-12 yielded  11853 shell pairs
 There are    132541 function pairs (    205621 Cartesian)
 Smallest overlap matrix eigenvalue = 6.33E-05

 Scale SEOQF with 1.000000e-01/1.000000e-01/1.000000e-01

 Standard Electronic Orientation quadrupole field applied
 Nucleus-field energy     =    -0.0000000024 hartrees
 Guess from superposition of atomic densities
 Warning:  Energy on first SCF cycle will be non-variational
 SAD guess density has 63.000000 electrons

 -----------------------------------------------------------------------
  General SCF calculation program by
  Eric Jon Sundstrom, Paul Horn, Yuezhi Mao, Dmitri Zuev, Alec White,
  David Stuck, Shaama M.S., Shane Yost, Joonho Lee, David Small,
  Daniel Levine, Susi Lehtola, Hugh Burton, Evgeny Epifanovsky,
  Bang C. Huynh
 -----------------------------------------------------------------------
 Exchange:     0.1500 Hartree-Fock + 1.0000 wB97M-V + LR-HF
 Correlation:  1.0000 wB97M-V
 Using SG-2 standard quadrature grid
 Nonlocal Correlation:  VV10 with C = 0.0100 and b = 6.00 and scale = 1.00000
 Grid used for NLC:  SG-1 standard quadrature
 
 Citation of the SMD model:
 Marenich, A.V.; Cramer, C.J.; Truhlar, D.G.
 J. Phys. Chem. B 2009, 113, 6378-6396.
 iSolventCode=           1
 Solvent: water                                                           
 
 vradii
            1           2           3           4           5           6
    1   1.8500000   1.5200000   1.2000000   1.8500000   1.5200000   1.5200000
            7           8           9          10          11
    1   1.5200000   1.2000000   1.5200000   1.5200000   1.2000000
 using 4 threads for integral computing
 -------------------------------------------------------
 OpenMP Integral computing Module                
 Release: version 1.0, May 2013, Q-Chem Inc. Pittsburgh 
 -------------------------------------------------------
 -------------------------------------------------------
 OpenMP BLAS3 based DFT computing Module                
 Release: version 1.0, May 2013, Q-Chem Inc. Pittsburgh 
 -------------------------------------------------------
 A unrestricted SCF calculation will be
 performed using DIIS, GDM
 SCF converges when RMS gradient is below 1.0e-07
 ---------------------------------------
  Cycle       Energy         DIIS error
 ---------------------------------------
    1    -530.8188054258      8.46e-03  
    2    -529.1435274523      1.44e-03  Done DIIS. Switching to GDM
 ---------------------------------------
  Cycle       Energy        RMS Gradient
 ---------------------------------------
    1    -529.1435274523      1.65e-01   Descent step
    2    -529.3447571059      4.38e-02   Normal BFGS step
    3    -529.3737487252      2.98e-02   Normal BFGS step
    4    -529.3758027394      1.48e-02   Normal BFGS step
    5    -529.3777830383      7.09e-03   Normal BFGS step
    6    -529.3779410496      3.49e-03   Normal BFGS step
    7    -529.3780452339      2.81e-03   Normal BFGS step
    8    -529.3780690864      1.11e-03   Normal BFGS step
    9    -529.3780743932      9.17e-04   Normal BFGS step
   10    -529.3780772417      8.93e-04   Normal BFGS step
   11    -529.3780798283      7.21e-04   Normal BFGS step
   12    -529.3780819096      3.78e-04   Normal BFGS step
   13    -529.3780826692      1.90e-04   Normal BFGS step
   14    -529.3780828144      3.72e-05   Normal BFGS step
   15    -529.3780828404      1.16e-05   Normal BFGS step
   16    -529.3780828444      6.08e-06   Normal BFGS step
   17    -529.3780828448      2.10e-06   Normal BFGS step
   18    -529.3780828450      8.86e-07   Normal BFGS step
   19    -529.3780828450      5.66e-07   Normal BFGS step
   20    -529.3780828450      2.22e-07   Normal BFGS step
  GDM::WARNING energy changes are now smaller than effective accuracy.
  GDM::        calculation will continue, but THRESH should be increased
  GDM::        or SCF_CONVERGENCE decreased. 
  GDM::        effective_thresh = 7.93e-09
   21    -529.3780828449      1.14e-07   Normal BFGS step
   22    -529.3780828448      6.45e-08  Convergence criterion met
 ---------------------------------------
 SCF time:   CPU 7312.39s  wall 1842.00s 
<S^2> =          0.753803433
(3)  G-ENP(liq) elect-nuc-pol free energy of system     -529.378082845 a.u.
(4)  G-CDS(liq) cavity-dispersion-solvent structure 
     free energy                                                4.2101 kcal/mol
(6)  G-S(liq) free energy of system                     -529.371373638 a.u.
 SCF   energy in the final basis set =     -529.3713736381
 Total energy in the final basis set =     -529.3713736381
 
 --------------------------------------------------------------
 
                    Orbital Energies (a.u.)
 --------------------------------------------------------------
 
 Alpha MOs
 -- Occupied --
-19.4683 -19.4277 -19.3968 -19.3810 -19.3771 -19.3458 -10.5438 -10.5086
 -1.3615  -1.2709  -1.2419  -1.1902  -1.1715  -1.0092  -0.8585  -0.7533
 -0.7160  -0.7079  -0.6875  -0.6234  -0.6138  -0.5972  -0.5748  -0.5718
 -0.5306  -0.5059  -0.4941  -0.4528  -0.4486  -0.4263  -0.4116  -0.4030
 -- Virtual --
  0.0582   0.0744   0.1019   0.1230   0.1521   0.1653   0.1836   0.2024
  0.2125   0.2412   0.2468   0.2546   0.2683   0.2836   0.2939   0.3044
  0.3222   0.3285   0.3290   0.3479   0.3582   0.3649   0.3686   0.3831
  0.3985   0.4210   0.4332   0.4379   0.4489   0.4586   0.4748   0.4812
  0.5007   0.5136   0.5230   0.5314   0.5391   0.5638   0.5775   0.5995
  0.6454   0.6590   0.6762   0.6824   0.7158   0.7336   0.7553   0.7819
  0.7947   0.8075   0.8172   0.8265   0.8662   0.8779   0.8893   0.9205
  0.9329   0.9479   0.9557   0.9842   1.0109   1.0274   1.0329   1.0482
  1.0564   1.0938   1.1295   1.1377   1.1461   1.1841   1.1892   1.2262
  1.2390   1.2526   1.3072   1.3349   1.3485   1.3499   1.3659   1.3737
  1.3820   1.4063   1.4321   1.4366   1.4412   1.4535   1.4602   1.4768
  1.4828   1.4935   1.5033   1.5194   1.5290   1.5462   1.5893   1.5984
  1.6124   1.6186   1.6346   1.6441   1.6689   1.7006   1.7320   1.7363
  1.7563   1.7645   1.8054   1.8362   1.8492   1.9036   1.9156   1.9406
  1.9613   1.9721   1.9858   1.9920   2.0030   2.0273   2.0391   2.0822
  2.1236   2.1384   2.1524   2.1834   2.1922   2.2068   2.2274   2.2420
  2.2542   2.2698   2.2886   2.3336   2.3437   2.3606   2.3789   2.3825
  2.4335   2.4414   2.4443   2.4561   2.4881   2.5152   2.5378   2.5520
  2.6017   2.6184   2.6348   2.6524   2.6656   2.6880   2.7084   2.7399
  2.7688   2.7879   2.8063   2.8220   2.8463   2.8619   2.8673   2.9034
  2.9197   2.9499   3.0029   3.0179   3.0354   3.0527   3.0951   3.1233
  3.1527   3.1764   3.2066   3.2159   3.2412   3.2496   3.2733   3.3005
  3.3225   3.3506   3.4004   3.4178   3.4300   3.4754   3.4966   3.5086
  3.5415   3.5813   3.6146   3.6413   3.6863   3.6993   3.7478   3.7663
  3.7919   3.8354   3.8704   3.9055   3.9242   3.9377   3.9473   3.9897
  4.0046   4.0178   4.0377   4.0549   4.0642   4.0751   4.1016   4.1124
  4.1286   4.1406   4.1466   4.1753   4.2034   4.2434   4.2522   4.2730
  4.2860   4.3289   4.3410   4.3445   4.3661   4.3759   4.3978   4.4260
  4.4479   4.4616   4.4678   4.4911   4.5123   4.5431   4.5601   4.5800
  4.5871   4.6063   4.6164   4.6394   4.6519   4.6946   4.7101   4.7336
  4.7535   4.7850   4.8295   4.8511   4.8601   4.8797   4.9010   4.9355
  4.9925   5.0569   5.0890   5.1143   5.1382   5.1758   5.1915   5.2120
  5.2353   5.2705   5.2886   5.3255   5.3347   5.3798   5.4545   5.4779
  5.4942   5.5324   5.5482   5.6224   5.6338   5.6777   5.6964   5.7188
  5.7306   5.7611   5.7949   5.8623   5.8758   5.8963   5.9063   5.9183
  5.9361   5.9603   5.9903   6.0387   6.0537   6.1071   6.1761   6.2189
  6.2420   6.2660   6.2847   6.3000   6.3464   6.3606   6.4126   6.4526
  6.4954   6.5387   6.5798   6.6296   6.6670   6.7457   6.7836   6.8269
  6.8508   6.8866   6.9086   6.9352   6.9819   7.0009   7.0346   7.0459
  7.0585   7.0899   7.1360   7.1502   7.2328   7.2629   7.2847   7.3136
  7.3513   7.3754   7.3988   7.4315   7.4401   7.5078   7.5830   7.6118
  7.6317   7.6521   7.6937   7.7311   7.7801   7.8334   7.8484   7.8748
  7.8829   7.9166   7.9386   8.0694   8.1561   8.1920   8.2323   8.2479
  8.3013   8.3701   8.3792   8.4007   8.4493   8.4609   8.4649   8.4833
  8.6369   8.6457   8.6595   8.6913   8.7028   8.7132   8.7349   8.7777
  8.7865   8.8048   8.8438   8.8952   8.9069   8.9091   8.9471   8.9656
  8.9804   8.9850   9.0152   9.1001   9.1203   9.1945   9.2207   9.2671
  9.3112   9.3157   9.3298   9.3658   9.4717   9.5231   9.5660   9.6629
  9.6716   9.7193   9.9034   9.9666   9.9806  10.0023  10.0320  10.0415
 10.0967  10.1037  10.1538  10.1968  10.3135  10.3879  10.3991  10.4133
 10.4557  10.4918  10.5114  10.5164  10.6356  10.6781  10.7679  10.8184
 10.8481  10.8710  10.9393  10.9817  10.9992  11.0228  11.0417  11.0986
 11.1021  11.1298  11.1677  11.1894  11.3120  11.3521  11.3847  11.3929
 11.4414  11.4554  11.4919  11.5199  11.5302  11.5469  11.5772  11.5776
 11.6113  11.6393  11.6547  11.7019  11.7766  11.7839  11.8176  11.8373
 11.8481  11.8859  11.9026  11.9360  11.9586  12.0113  12.0279  12.0358
 12.0733  12.0812  12.1285  12.1389  12.1648  12.1844  12.2105  12.2286
 12.2532  12.2588  12.3441  12.3585  12.3655  12.4170  12.4493  12.5061
 12.5410  12.5908  12.6052  12.7395  12.7509  12.8045  12.8465  12.8903
 12.9163  12.9485  13.2762  13.3017  13.3316  13.3328  13.4277  13.5442
 13.6887  13.8137  13.8543  13.8997  13.9083  14.1522  14.2359  14.2520
 14.3045  14.4660  14.5706  14.6150  14.7227  14.7321  15.0281  16.6263
 16.6449  16.7052  28.4720  28.6563  47.9346  48.3736  48.4503  48.6282
 48.6901  48.8089 149.2525 149.4440 255.2916 255.8116 255.8795 256.0659
256.1411 256.2793
 
 Beta MOs
 -- Occupied --
-19.4588 -19.4084 -19.3967 -19.3808 -19.3772 -19.3459 -10.5442 -10.5085
 -1.3385  -1.2684  -1.2397  -1.1901  -1.1714  -0.9745  -0.8535  -0.7528
 -0.7139  -0.6950  -0.6818  -0.6002  -0.5965  -0.5812  -0.5718  -0.5489
 -0.5281  -0.4956  -0.4869  -0.4508  -0.4476  -0.4198  -0.3902
 -- Virtual --
 -0.0388   0.0590   0.0748   0.1022   0.1238   0.1527   0.1697   0.1868
  0.2056   0.2154   0.2443   0.2493   0.2550   0.2715   0.2853   0.2949
  0.3083   0.3252   0.3304   0.3351   0.3524   0.3593   0.3668   0.3711
  0.3848   0.4008   0.4219   0.4335   0.4396   0.4497   0.4602   0.4755
  0.4816   0.5014   0.5141   0.5234   0.5323   0.5405   0.5659   0.5782
  0.6010   0.6460   0.6596   0.6771   0.6835   0.7173   0.7348   0.7556
  0.7830   0.7958   0.8082   0.8173   0.8273   0.8684   0.8782   0.8898
  0.9221   0.9348   0.9497   0.9595   0.9856   1.0117   1.0285   1.0348
  1.0490   1.0585   1.0957   1.1300   1.1389   1.1519   1.1896   1.1912
  1.2278   1.2485   1.2578   1.3108   1.3381   1.3505   1.3538   1.3696
  1.3806   1.3896   1.4104   1.4353   1.4371   1.4442   1.4598   1.4708
  1.4846   1.4874   1.4972   1.5118   1.5221   1.5321   1.5499   1.5915
  1.6005   1.6137   1.6202   1.6358   1.6473   1.6721   1.7034   1.7330
  1.7394   1.7604   1.7681   1.8073   1.8402   1.8509   1.9063   1.9167
  1.9443   1.9622   1.9726   1.9888   1.9948   2.0061   2.0286   2.0408
  2.0831   2.1254   2.1397   2.1535   2.1847   2.1929   2.2088   2.2286
  2.2434   2.2552   2.2715   2.2894   2.3344   2.3439   2.3628   2.3802
  2.3835   2.4341   2.4424   2.4453   2.4564   2.4898   2.5159   2.5386
  2.5530   2.6032   2.6197   2.6362   2.6540   2.6667   2.6889   2.7094
  2.7408   2.7707   2.7889   2.8073   2.8226   2.8471   2.8637   2.8677
  2.9044   2.9202   2.9532   3.0046   3.0193   3.0387   3.0552   3.1018
  3.1295   3.1551   3.1821   3.2086   3.2224   3.2481   3.2680   3.2822
  3.3045   3.3288   3.3533   3.4066   3.4258   3.4339   3.4818   3.4994
  3.5162   3.5447   3.5873   3.6279   3.6513   3.6923   3.7114   3.7579
  3.7699   3.7988   3.8516   3.8734   3.9155   3.9267   3.9431   3.9536
  3.9981   4.0143   4.0342   4.0513   4.0650   4.0735   4.0802   4.1107
  4.1212   4.1346   4.1462   4.1514   4.1815   4.2105   4.2519   4.2534
  4.2871   4.2945   4.3354   4.3456   4.3496   4.3694   4.3777   4.4033
  4.4275   4.4511   4.4658   4.4717   4.4988   4.5187   4.5502   4.5647
  4.5819   4.5923   4.6109   4.6216   4.6447   4.6548   4.7027   4.7166
  4.7375   4.7554   4.7866   4.8355   4.8571   4.8659   4.8881   4.9101
  4.9370   4.9983   5.0630   5.0972   5.1280   5.1415   5.1801   5.1950
  5.2166   5.2358   5.2869   5.3149   5.3325   5.3387   5.3867   5.4642
  5.4816   5.4974   5.5444   5.5518   5.6264   5.6349   5.6823   5.6991
  5.7217   5.7324   5.7617   5.7991   5.8632   5.8765   5.8982   5.9066
  5.9184   5.9369   5.9605   5.9915   6.0407   6.0539   6.1074   6.1765
  6.2193   6.2423   6.2666   6.2851   6.3007   6.3472   6.3615   6.4138
  6.4536   6.4964   6.5386   6.5804   6.6301   6.6674   6.7460   6.7839
  6.8270   6.8507   6.8865   6.9091   6.9355   6.9819   7.0010   7.0350
  7.0456   7.0588   7.0899   7.1362   7.1502   7.2328   7.2635   7.2848
  7.3136   7.3538   7.3813   7.4060   7.4318   7.4404   7.5080   7.5831
  7.6124   7.6321   7.6527   7.6945   7.7318   7.7803   7.8335   7.8485
  7.8754   7.8836   7.9174   7.9408   8.0695   8.1568   8.1930   8.2331
  8.2488   8.3028   8.3748   8.3840   8.4207   8.4552   8.4626   8.4906
  8.5030   8.6458   8.6553   8.6625   8.6939   8.7044   8.7154   8.7363
  8.7884   8.8124   8.8329   8.8508   8.9087   8.9481   8.9654   8.9767
  8.9787   8.9843   8.9947   9.0226   9.1156   9.1236   9.2004   9.2394
  9.2839   9.3147   9.3176   9.3331   9.3758   9.4734   9.5241   9.5704
  9.6813   9.6924   9.7226   9.9115   9.9688   9.9821  10.0028  10.0370
 10.0564  10.0988  10.1125  10.1644  10.2189  10.3193  10.3883  10.3997
 10.4156  10.4573  10.4919  10.5123  10.5190  10.6508  10.7279  10.7688
 10.8216  10.8528  10.8720  10.9472  10.9947  11.0264  11.0848  11.1097
 11.1180  11.1349  11.1490  11.1823  11.2253  11.3162  11.3599  11.4016
 11.4369  11.4561  11.4727  11.5077  11.5256  11.5315  11.5638  11.5857
 11.6029  11.6254  11.6471  11.6790  11.7454  11.7864  11.7951  11.8223
 11.8414  11.8611  11.8883  11.9126  11.9384  11.9707  12.0206  12.0411
 12.0495  12.1081  12.1196  12.1425  12.1643  12.1914  12.2172  12.2364
 12.2514  12.2893  12.2983  12.3710  12.3734  12.3840  12.4239  12.4653
 12.5144  12.5498  12.6187  12.6337  12.7420  12.7540  12.8059  12.8488
 12.8974  12.9185  12.9654  13.2794  13.3024  13.3326  13.3919  13.4283
 13.5554  13.6888  13.8537  13.8705  13.9032  13.9099  14.1528  14.2363
 14.2523  14.3048  14.4972  14.5710  14.6177  14.7237  14.7324  15.0585
 16.6264  16.6449  16.7056  28.4720  28.6555  47.9621  48.3851  48.4502
 48.6283  48.6904  48.8090 149.2526 149.4436 255.3025 255.8177 255.8795
256.0659 256.1413 256.2793
 --------------------------------------------------------------
 
          Ground-State Mulliken Net Atomic Charges

     Atom                 Charge (a.u.)    Spin (a.u.)
  --------------------------------------------------------
      1 C                     0.312315       0.003723
      2 O                    -0.357872      -0.001624
      3 H                     0.344442      -0.000387
      4 C                     0.385501      -0.009065
      5 O                    -0.401247       0.000420
      6 O                    -0.391179       0.005906
      7 O                    -0.315546       0.001245
      8 H                     0.333459      -0.000443
      9 O                    -0.061205       0.294054
     10 O                    -0.187623       0.706244
     11 H                     0.338955      -0.000074
  --------------------------------------------------------
  Sum of atomic charges =     0.000000
  Sum of spin   charges =     1.000000

 -----------------------------------------------------------------
                    Cartesian Multipole Moments
 -----------------------------------------------------------------
    Charge (ESU x 10^10)
                 0.0000
    Dipole Moment (Debye)
         X      -7.3742      Y       1.4085      Z      -4.5897
       Tot       8.7994
    Quadrupole Moments (Debye-Ang)
        XX     -34.4141     XY       3.2164     YY     -44.5513
        XZ       1.9820     YZ      -1.2903     ZZ     -53.6519
    Octopole Moments (Debye-Ang^2)
       XXX       6.9248    XXY     -13.6144    XYY      13.7348
       YYY     -15.6137    XXZ     -43.7945    XYZ       3.2156
       YYZ     -39.7659    XZZ      28.8632    YZZ      -9.4952
       ZZZ    -118.3995
    Hexadecapole Moments (Debye-Ang^3)
      XXXX    -309.5162   XXXY       8.0114   XXYY     -99.4289
      XYYY       9.1179   YYYY    -228.7960   XXXZ      76.2875
      XXYZ      -3.9612   XYYZ      25.5539   YYYZ     -25.7379
      XXZZ    -157.0954   XYZZ       7.3963   YYZZ    -114.6579
      XZZZ      90.1216   YZZZ     -32.8839   ZZZZ    -468.6593
 -----------------------------------------------------------------
 Total job time:  1843.47s(wall), 7316.39s(cpu) 
 Mon Feb  5 13:09:15 2024

        *************************************************************
        *                                                           *
        *  Thank you very much for using Q-Chem.  Have a nice day.  *
        *                                                           *
        *************************************************************


