
Running Job 1 of 1 Q_in.in
qchem Q_in.in_116798.0 /scratch/ari.fischer/qChem1853782.hpc-mn1/qchem116798/ 0
/usr/local/qchem-5.4.1/exe/qcprog.exe_s Q_in.in_116798.0 /scratch/ari.fischer/qChem1853782.hpc-mn1/qchem116798/
                  Welcome to Q-Chem
     A Quantum Leap Into The Future Of Chemistry


 Q-Chem 5.4, Q-Chem, Inc., Pleasanton, CA (2021)

 License issued to: Nanyang Technological University (site)

 E. Epifanovsky,  A. T. B. Gilbert,  Xintian Feng,  Joonho Lee,  Yuezhi Mao,  
 N. Mardirossian,  P. Pokhilko,  A. White,  M. Wormit,  M. P. Coons,  
 A. L. Dempwolff,  Zhengting Gan,  D. Hait,  P. R. Horn,  L. D. Jacobson,  
 I. Kaliman,  J. Kussmann,  A. W. Lange,  Ka Un Lao,  D. S. Levine,  Jie Liu,  
 S. C. McKenzie,  A. F. Morrison,  K. Nanda,  F. Plasser,  D. R. Rehn,  
 M. L. Vidal,  Zhi-Qiang You,  Ying Zhu,  B. Alam,  B. Albrecht,  
 A. Aldossary,  E. Alguire,  J. H. Andersen,  D. Barton,  K. Begam,  A. Behn,  
 Y. A. Bernard,  E. J. Berquist,  H. Burton,  A. Carreras,  K. Carter-Fenk,  
 R. Chakraborty,  A. D. Chien,  K. D. Closser,  V. Cofer-Shabica,  
 S. Dasgupta,  Jia Deng,  M. de Wergifosse,  M. Diedenhofen,  Hainam Do,  
 S. Ehlert,  Po-Tung Fang,  S. Fatehi,  Qingguo Feng,  T. Friedhoff,  
 J. Gayvert,  Qinghui Ge,  G. Gidofalvi,  M. Goldey,  J. Gomes,  
 C. Gonzalez-Espinoza,  S. Gulania,  A. Gunina,  M. W. D. Hanson-Heine,  
 P. H. P. Harbach,  A. W. Hauser,  M. F. Herbst,  M. Hernandez Vera,  
 M. Hodecker,  Z. C. Holden,  S. Houck,  Xunkun Huang,  Kerwin Hui,  
 B. C. Huynh,  M. Ivanov,  Hyunjun Ji,  Hanjie Jiang,  B. Kaduk,  S. Kaehler,  
 K. Khistyaev,  Jaehoon Kim,  P. Klunzinger,  Z. Koczor-Benda,  
 Joong Hoon Koh,  D. Kosenkov,  L. Koulias,  T. Kowalczyk,  C. M. Krauter,  
 K. Kue,  A. Kunitsa,  T. Kus,  A. Landau,  K. V. Lawler,  D. Lefrancois,  
 S. Lehtola,  Rain Li,  Yi-Pei Li,  Jiashu Liang,  M. Liebenthal,  
 Hung-Hsuan Lin,  You-Sheng Lin,  Fenglai Liu,  Kuan-Yu Liu,  
 M. Loipersberger,  A. Luenser,  A. Manjanath,  P. Manohar,  E. Mansoor,  
 S. F. Manzer,  Shan-Ping Mao,  A. V. Marenich,  T. Markovich,  S. Mason,  
 S. A. Maurer,  P. F. McLaughlin,  M. F. S. J. Menger,  J.-M. Mewes,  
 S. A. Mewes,  P. Morgante,  J. W. Mullinax,  K. J. Oosterbaan,  G. Paran,  
 Alexander C. Paul,  Suranjan K. Paul,  F. Pavosevic,  Zheng Pei,  S. Prager,  
 E. I. Proynov,  E. Ramos,  B. Rana,  A. E. Rask,  A. Rettig,  R. M. Richard,  
 F. Rob,  E. Rossomme,  T. Scheele,  M. Scheurer,  M. Schneider,  
 N. Sergueev,  S. M. Sharada,  W. Skomorowski,  D. W. Small,  C. J. Stein,  
 Yu-Chuan Su,  E. J. Sundstrom,  Zhen Tao,  J. Thirman,  T. Tsuchimochi,  
 N. M. Tubman,  S. P. Veccham,  O. Vydrov,  J. Wenzel,  J. Witte,  A. Yamada,  
 Kun Yao,  S. Yeganeh,  S. R. Yost,  A. Zech,  Igor Ying Zhang,  Xing Zhang,  
 Yu Zhang,  D. Zuev,  A. Aspuru-Guzik,  A. T. Bell,  N. A. Besley,  
 K. B. Bravaya,  B. R. Brooks,  D. Casanova,  Jeng-Da Chai,  S. Coriani,  
 C. J. Cramer,  A. E. DePrince, III,  R. A. DiStasio Jr.,  A. Dreuw,  
 B. D. Dunietz,  T. R. Furlani,  W. A. Goddard III,  S. Grimme,  
 S. Hammes-Schiffer,  T. Head-Gordon,  W. J. Hehre,  Chao-Ping Hsu,  
 T.-C. Jagau,  Yousung Jung,  A. Klamt,  Jing Kong,  D. S. Lambrecht,  
 WanZhen Liang,  N. J. Mayhall,  C. W. McCurdy,  J. B. Neaton,  
 C. Ochsenfeld,  J. A. Parkhill,  R. Peverati,  V. A. Rassolov,  Yihan Shao,  
 L. V. Slipchenko,  T. Stauch,  R. P. Steele,  J. E. Subotnik,  
 A. J. W. Thom,  A. Tkatchenko,  D. G. Truhlar,  T. Van Voorhis,  
 T. A. Wesolowski,  K. B. Whaley,  H. L. Woodcock III,  P. M. Zimmerman,  
 S. Faraji,  P. M. W. Gill,  M. Head-Gordon,  J. M. Herbert,  A. I. Krylov

 Additional authors for Version 5.4.1: 
 S. Kotaru,  Shaozhi Li,  Xiangyuan Li,  F. Matz,  A. Molle,  Haisheng Ren,  
 Yingli Su,  Hung-Yi Tsai,  C. Utku,  Fang Wang

 Contributors to earlier versions of Q-Chem not listed above: 
 R. D. Adamson,  B. Austin,  R. Baer,  J. Baker,  G. J. O. Beran,  
 K. Brandhorst,  S. T. Brown,  E. F. C. Byrd,  A. K. Chakraborty,  
 G. K. L. Chan,  Chun-Min Chang,  Yunqing Chen,  C.-L. Cheng,  
 Siu Hung Chien,  D. M. Chipman,  D. L. Crittenden,  H. Dachsel,  
 R. J. Doerksen,  A. D. Dutoi,  R. G. Edgar,  J. Fosso-Tande,  
 L. Fusti-Molnar,  D. Ghosh,  A. Ghysels,  A. Golubeva-Zadorozhnaya,  
 J. Gonthier,  M. S. Gordon,  S. R. Gwaltney,  G. Hawkins,  J. E. Herr,  
 A. Heyden,  S. Hirata,  E. G. Hohenstein,  G. Kedziora,  F. J. Keil,  
 C. Kelley,  Jihan Kim,  R. A. King,  R. Z. Khaliullin,  P. P. Korambath,  
 W. Kurlancheek,  A. Laurent,  A. M. Lee,  M. S. Lee,  S. V. Levchenko,  
 Ching Yeh Lin,  D. Liotard,  E. Livshits,  R. C. Lochan,  I. Lotan,  
 L. A. Martinez-Martinez,  P. E. Maslen,  N. Nair,  D. P. O'Neill,  
 D. Neuhauser,  E. Neuscamman,  C. M. Oana,  R. Olivares-Amaya,  R. Olson,  
 T. M. Perrine,  B. Peters,  P. A. Pieniazek,  A. Prociuk,  Y. M. Rhee,  
 J. Ritchie,  M. A. Rohrdanz,  E. Rosta,  N. J. Russ,  H. F. Schaefer III,  
 M. W. Schmidt,  N. E. Schultz,  S. Sharma,  N. Shenvi,  C. D. Sherrill,  
 A. C. Simmonett,  A. Sodt,  T. Stein,  D. Stuck,  K. S. Thanthiriwatte,  
 V. Vanovschi,  L. Vogt,  Tao Wang,  A. Warshel,  M. A. Watson,  
 C. F. Williams,  Q. Wu,  X. Xu,  Jun Yang,  W. Zhang,  Yan Zhao

 Please cite Q-Chem as follows:
 Y. Shao et al., Mol. Phys. 113, 184-215 (2015)
 DOI: 10.1080/00268976.2014.952696

 Q-Chem 5.4.1 for Intel X86 EM64T Linux

 Parts of Q-Chem use Armadillo 9.800.1 (Horizon Scraper).
 http://arma.sourceforge.net/

 Q-Chem begins on Wed Dec  6 10:56:03 2023  

 Host: 
0

     Scratch files written to /scratch/ari.fischer/qChem1853782.hpc-mn1/qchem116798//
 Aug1521 |scratch|qcdevops|jenkins|workspace|build_RNUM 8249   
 Processing $rem in /usr/local/qchem-5.4.1/config/preferences:
 Processing $rem in /home/ari.fischer/.qchemrc:
 Symmetry turned off for PCM/SM12/SMD calculation

 Checking the input file for inconsistencies... 	...done.

--------------------------------------------------------------
User input:
--------------------------------------------------------------
$molecule
-1 1
C         0.5976906250    0.1829920034    0.0003836046
O        -0.2116925879    1.0809780819    0.0002834213
C         2.1394850490    0.4145355110    0.0005056157
O         2.4827968949    1.6120878250    0.0005925006
O         2.8556453186   -0.6050976549    0.0004820653
O         0.2596265223   -1.1065494245    0.0003349708
H        -0.7087105219   -1.1729699418    0.0002458218
$end

$rem
BASIS = def2-TZVPD
JOB_TYPE = SP
METHOD = wB97M-V
SCF_ALGORITHM = DIIS_GDM
MAX_SCF_CYCLES = 400
SCF_CONVERGENCE = 7
THRESH = 12
Solvent_method = SMD
$end
--------------------------------------------------------------
 ----------------------------------------------------------------
             Standard Nuclear Orientation (Angstroms)
    I     Atom           X                Y                Z
 ----------------------------------------------------------------
    1      C       0.5976906250     0.1829920034     0.0003836046
    2      O      -0.2116925879     1.0809780819     0.0002834213
    3      C       2.1394850490     0.4145355110     0.0005056157
    4      O       2.4827968949     1.6120878250     0.0005925006
    5      O       2.8556453186    -0.6050976549     0.0004820653
    6      O       0.2596265223    -1.1065494245     0.0003349708
    7      H      -0.7087105219    -1.1729699418     0.0002458218
 ----------------------------------------------------------------
 Nuclear Repulsion Energy =         221.00090303 hartrees
 There are       23 alpha and       23 beta electrons
 Requested basis set is def2-TZVPD
 There are 87 shells and 243 basis functions

 Total QAlloc Memory Limit 288000 MB
 Mega-Array Size       188 MB
 MEM_STATIC part       192 MB
 
 Citation of the SMD model:
 Marenich, A.V.; Cramer, C.J.; Truhlar, D.G.
 J. Phys. Chem. B 2009, 113, 6378-6396.
 iSolventCode=           1
 Solvent: water                                                           
 
 vradii
            1           2           3           4           5           6
    1   1.8500000   1.5200000   1.8500000   1.5200000   1.5200000   1.5200000
            7
    1   1.2000000
 Changing PCM_VDW_RADII to SMD_RADIUS
 Discretize the solute cavity surface with Lebedev spheres
	Using 110 Lebedev grid points for each H atom
	Using 194 Lebedev grid points for other atoms
	Atomic van der Waals radii will be scaled by 1.20
 Remove points where switching function is < 1.0e-08
 Keep 748 surface tesserae and discard 526 interior tesserae
 Molecular Surface Area = 92.634 Angst**2

                       Distance Matrix (Angstroms)
             C (  1)   O (  2)   C (  3)   O (  4)   O (  5)   O (  6)
   O (  2)  1.208917
   C (  3)  1.559084  2.443805
   O (  4)  2.365574  2.746334  1.245791
   O (  5)  2.391536  3.500202  1.246009  2.248317
   O (  6)  1.333118  2.237726  2.418174  3.511905  2.644006
   H (  7)  1.882901  2.308096  3.260735  4.235831  3.609309  0.970612

 
 A cutoff of  1.0D-12 yielded   3670 shell pairs
 There are     29120 function pairs (     38406 Cartesian)
 Smallest overlap matrix eigenvalue = 8.87E-06

 Scale SEOQF with 1.000000e-01/1.000000e-01/1.000000e-01

 Standard Electronic Orientation quadrupole field applied
 Nucleus-field energy     =     0.0000000084 hartrees
 Guess from superposition of atomic densities
 Warning:  Energy on first SCF cycle will be non-variational
 SAD guess density has 45.000000 electrons

 -----------------------------------------------------------------------
  General SCF calculation program by
  Eric Jon Sundstrom, Paul Horn, Yuezhi Mao, Dmitri Zuev, Alec White,
  David Stuck, Shaama M.S., Shane Yost, Joonho Lee, David Small,
  Daniel Levine, Susi Lehtola, Hugh Burton, Evgeny Epifanovsky,
  Bang C. Huynh
 -----------------------------------------------------------------------
 Exchange:     0.1500 Hartree-Fock + 1.0000 wB97M-V + LR-HF
 Correlation:  1.0000 wB97M-V
 Using SG-2 standard quadrature grid
 Nonlocal Correlation:  VV10 with C = 0.0100 and b = 6.00 and scale = 1.00000
 Grid used for NLC:  SG-1 standard quadrature
 
 Citation of the SMD model:
 Marenich, A.V.; Cramer, C.J.; Truhlar, D.G.
 J. Phys. Chem. B 2009, 113, 6378-6396.
 iSolventCode=           1
 Solvent: water                                                           
 
 vradii
            1           2           3           4           5           6
    1   1.8500000   1.5200000   1.8500000   1.5200000   1.5200000   1.5200000
            7
    1   1.2000000
 using 4 threads for integral computing
 -------------------------------------------------------
 OpenMP Integral computing Module                
 Release: version 1.0, May 2013, Q-Chem Inc. Pittsburgh 
 -------------------------------------------------------
 -------------------------------------------------------
 OpenMP BLAS3 based DFT computing Module                
 Release: version 1.0, May 2013, Q-Chem Inc. Pittsburgh 
 -------------------------------------------------------
 A restricted SCF calculation will be
 performed using DIIS, GDM
 SCF converges when RMS gradient is below 1.0e-07
 ---------------------------------------
  Cycle       Energy         DIIS error
 ---------------------------------------
    1    -378.7726407840      3.20e-02  
    2    -377.7260804606      6.68e-03  Done DIIS. Switching to GDM
 ---------------------------------------
  Cycle       Energy        RMS Gradient
 ---------------------------------------
    1    -377.7260804606      1.98e-01   Descent step
    2    -377.9629478294      1.51e-02   Normal BFGS step
    3    -377.9718494829      1.49e-02   Normal BFGS step
    4    -377.9726448324      9.09e-03   Normal BFGS step
    5    -377.9731465683      1.26e-03   Normal BFGS step
    6    -377.9731650150      5.47e-04   Normal BFGS step
    7    -377.9731697864      1.61e-04   Normal BFGS step
    8    -377.9731699412      7.80e-05   Normal BFGS step
    9    -377.9731700688      3.23e-05   Normal BFGS step
   10    -377.9731700726      1.88e-05   Normal BFGS step
   11    -377.9731700750      3.63e-06   Normal BFGS step
   12    -377.9731700752      1.34e-06   Normal BFGS step
   13    -377.9731700752      4.11e-07   Normal BFGS step
   14    -377.9731700752      9.63e-08  Convergence criterion met
 ---------------------------------------
 SCF time:   CPU 420.98s  wall 107.00s 
(3)  G-ENP(liq) elect-nuc-pol free energy of system     -377.973170075 a.u.
(4)  G-CDS(liq) cavity-dispersion-solvent structure 
     free energy                                                5.6630 kcal/mol
(6)  G-S(liq) free energy of system                     -377.964145529 a.u.
 SCF   energy in the final basis set =     -377.9641455289
 Total energy in the final basis set =     -377.9641455289
 
 --------------------------------------------------------------
 
                    Orbital Energies (a.u.)
 --------------------------------------------------------------
 
 Alpha MOs
 -- Occupied --
-19.3825 -19.3338 -19.2939 -19.2935 -10.4835 -10.4546  -1.2481  -1.1779
 -1.1571  -1.0913  -0.7955  -0.6714  -0.6158  -0.5924  -0.5824  -0.5406
 -0.5238  -0.5129  -0.4387  -0.4340  -0.3788  -0.3722  -0.3574
 -- Virtual --
  0.0406   0.0454   0.0603   0.0722   0.0864   0.0945   0.1101   0.1133
  0.1148   0.1220   0.1464   0.1526   0.1600   0.1645   0.1961   0.2045
  0.2052   0.2321   0.2397   0.2726   0.2765   0.2899   0.3153   0.3362
  0.3398   0.3450   0.3542   0.3645   0.3695   0.3899   0.3952   0.4043
  0.4169   0.4198   0.4403   0.4519   0.4528   0.4715   0.4753   0.4892
  0.4917   0.4996   0.5187   0.5361   0.5437   0.5449   0.5793   0.5830
  0.5912   0.6029   0.6165   0.6305   0.6382   0.6549   0.6642   0.6673
  0.6803   0.6990   0.7061   0.7115   0.7285   0.7642   0.7775   0.7922
  0.8151   0.8228   0.8496   0.8570   0.8901   0.8988   0.9238   0.9353
  0.9670   0.9681   0.9841   1.0077   1.0445   1.0480   1.0899   1.1305
  1.1386   1.1872   1.1982   1.2288   1.2700   1.2805   1.2996   1.3205
  1.3247   1.3645   1.4469   1.5076   1.6709   1.6929   1.7024   1.7139
  1.7864   1.7960   1.8344   1.8388   1.8553   1.8660   1.9062   1.9761
  1.9836   2.0542   2.0761   2.0843   2.1483   2.1816   2.1970   2.2705
  2.2783   2.2787   2.3506   2.3827   2.4176   2.4423   2.4433   2.4899
  2.5404   2.6837   2.6912   2.7276   2.7379   2.7932   2.8615   2.9433
  2.9947   2.9961   3.0697   3.1139   3.1382   3.1424   3.1886   3.2498
  3.2889   3.2947   3.3244   3.3406   3.3635   3.3849   3.4220   3.4724
  3.4741   3.5215   3.5526   3.5586   3.5753   3.6271   3.6676   3.6844
  3.7323   3.7430   3.8093   3.9073   3.9299   4.0420   4.2037   4.3749
  4.4759   4.6032   4.6732   4.8144   4.9320   5.0432   5.2461   5.2754
  5.2893   5.2952   5.3150   5.3455   5.3567   5.4553   5.4706   5.5305
  5.6151   5.6486   5.6682   5.7179   5.7592   5.8548   6.0008   6.0612
  6.0995   6.1857   6.2895   6.2972   6.3626   6.4250   6.5500   6.5574
  6.6009   6.6279   6.6424   6.6669   6.6766   6.6975   6.7233   6.7293
  6.8315   6.9048   6.9214   6.9420   7.0569   7.0803   7.1178   7.2700
  7.2770   7.3385   7.3789   7.4091   7.4744   7.7134  23.6989  23.9564
 44.4996  44.5327  44.6181  44.9307
 --------------------------------------------------------------
 
          Ground-State Mulliken Net Atomic Charges

     Atom                 Charge (a.u.)
  ----------------------------------------
      1 C                     0.643939
      2 O                    -0.652810
      3 C                     0.614219
      4 O                    -0.786036
      5 O                    -0.790914
      6 O                    -0.430357
      7 H                     0.401959
  ----------------------------------------
  Sum of atomic charges =    -1.000000

 -----------------------------------------------------------------
                    Cartesian Multipole Moments
 -----------------------------------------------------------------
    Charge (ESU x 10^10)
                -4.8032
    Dipole Moment (Debye)
         X     -13.1782      Y      -4.7832      Z      -0.0025
       Tot      14.0194
    Quadrupole Moments (Debye-Ang)
        XX     -71.6823     XY      -2.0059     YY     -49.1990
        XZ      -0.0071     YZ      -0.0022     ZZ     -33.8388
    Octopole Moments (Debye-Ang^2)
       XXX    -258.5982    XXY     -23.5939    XYY     -77.7985
       YYY     -46.0186    XXZ      -0.0356    XYZ      -0.0034
       YYZ      -0.0227    XZZ     -46.7168    YZZ      -8.5860
       ZZZ      -0.0438
    Hexadecapole Moments (Debye-Ang^3)
      XXXX   -1087.1659   XXXY     -79.6273   XXYY    -231.9211
      XYYY     -81.4588   YYYY    -278.2738   XXXZ      -0.1374
      XXYZ      -0.0162   XYYZ      -0.0414   YYYZ      -0.0254
      XXZZ    -127.6141   XYZZ     -16.3188   YYZZ     -47.1559
      XZZZ      -0.0734   YZZZ      -0.0153   ZZZZ     -31.9105
 -----------------------------------------------------------------
 Total job time:  106.98s(wall), 423.24s(cpu) 
 Wed Dec  6 10:57:50 2023

        *************************************************************
        *                                                           *
        *  Thank you very much for using Q-Chem.  Have a nice day.  *
        *                                                           *
        *************************************************************


