
Running Job 1 of 2 Q_in.in
qchem Q_in.in_81747.0 /scratch/ari.fischer/qChem1937726.hpc-mn1/qchem81747/ 0
/usr/local/qchem-5.4.1/exe/qcprog.exe_s Q_in.in_81747.0 /scratch/ari.fischer/qChem1937726.hpc-mn1/qchem81747/
                  Welcome to Q-Chem
     A Quantum Leap Into The Future Of Chemistry


 Q-Chem 5.4, Q-Chem, Inc., Pleasanton, CA (2021)

 License issued to: Nanyang Technological University (site)

 E. Epifanovsky,  A. T. B. Gilbert,  Xintian Feng,  Joonho Lee,  Yuezhi Mao,  
 N. Mardirossian,  P. Pokhilko,  A. White,  M. Wormit,  M. P. Coons,  
 A. L. Dempwolff,  Zhengting Gan,  D. Hait,  P. R. Horn,  L. D. Jacobson,  
 I. Kaliman,  J. Kussmann,  A. W. Lange,  Ka Un Lao,  D. S. Levine,  Jie Liu,  
 S. C. McKenzie,  A. F. Morrison,  K. Nanda,  F. Plasser,  D. R. Rehn,  
 M. L. Vidal,  Zhi-Qiang You,  Ying Zhu,  B. Alam,  B. Albrecht,  
 A. Aldossary,  E. Alguire,  J. H. Andersen,  D. Barton,  K. Begam,  A. Behn,  
 Y. A. Bernard,  E. J. Berquist,  H. Burton,  A. Carreras,  K. Carter-Fenk,  
 R. Chakraborty,  A. D. Chien,  K. D. Closser,  V. Cofer-Shabica,  
 S. Dasgupta,  Jia Deng,  M. de Wergifosse,  M. Diedenhofen,  Hainam Do,  
 S. Ehlert,  Po-Tung Fang,  S. Fatehi,  Qingguo Feng,  T. Friedhoff,  
 J. Gayvert,  Qinghui Ge,  G. Gidofalvi,  M. Goldey,  J. Gomes,  
 C. Gonzalez-Espinoza,  S. Gulania,  A. Gunina,  M. W. D. Hanson-Heine,  
 P. H. P. Harbach,  A. W. Hauser,  M. F. Herbst,  M. Hernandez Vera,  
 M. Hodecker,  Z. C. Holden,  S. Houck,  Xunkun Huang,  Kerwin Hui,  
 B. C. Huynh,  M. Ivanov,  Hyunjun Ji,  Hanjie Jiang,  B. Kaduk,  S. Kaehler,  
 K. Khistyaev,  Jaehoon Kim,  P. Klunzinger,  Z. Koczor-Benda,  
 Joong Hoon Koh,  D. Kosenkov,  L. Koulias,  T. Kowalczyk,  C. M. Krauter,  
 K. Kue,  A. Kunitsa,  T. Kus,  A. Landau,  K. V. Lawler,  D. Lefrancois,  
 S. Lehtola,  Rain Li,  Yi-Pei Li,  Jiashu Liang,  M. Liebenthal,  
 Hung-Hsuan Lin,  You-Sheng Lin,  Fenglai Liu,  Kuan-Yu Liu,  
 M. Loipersberger,  A. Luenser,  A. Manjanath,  P. Manohar,  E. Mansoor,  
 S. F. Manzer,  Shan-Ping Mao,  A. V. Marenich,  T. Markovich,  S. Mason,  
 S. A. Maurer,  P. F. McLaughlin,  M. F. S. J. Menger,  J.-M. Mewes,  
 S. A. Mewes,  P. Morgante,  J. W. Mullinax,  K. J. Oosterbaan,  G. Paran,  
 Alexander C. Paul,  Suranjan K. Paul,  F. Pavosevic,  Zheng Pei,  S. Prager,  
 E. I. Proynov,  E. Ramos,  B. Rana,  A. E. Rask,  A. Rettig,  R. M. Richard,  
 F. Rob,  E. Rossomme,  T. Scheele,  M. Scheurer,  M. Schneider,  
 N. Sergueev,  S. M. Sharada,  W. Skomorowski,  D. W. Small,  C. J. Stein,  
 Yu-Chuan Su,  E. J. Sundstrom,  Zhen Tao,  J. Thirman,  T. Tsuchimochi,  
 N. M. Tubman,  S. P. Veccham,  O. Vydrov,  J. Wenzel,  J. Witte,  A. Yamada,  
 Kun Yao,  S. Yeganeh,  S. R. Yost,  A. Zech,  Igor Ying Zhang,  Xing Zhang,  
 Yu Zhang,  D. Zuev,  A. Aspuru-Guzik,  A. T. Bell,  N. A. Besley,  
 K. B. Bravaya,  B. R. Brooks,  D. Casanova,  Jeng-Da Chai,  S. Coriani,  
 C. J. Cramer,  A. E. DePrince, III,  R. A. DiStasio Jr.,  A. Dreuw,  
 B. D. Dunietz,  T. R. Furlani,  W. A. Goddard III,  S. Grimme,  
 S. Hammes-Schiffer,  T. Head-Gordon,  W. J. Hehre,  Chao-Ping Hsu,  
 T.-C. Jagau,  Yousung Jung,  A. Klamt,  Jing Kong,  D. S. Lambrecht,  
 WanZhen Liang,  N. J. Mayhall,  C. W. McCurdy,  J. B. Neaton,  
 C. Ochsenfeld,  J. A. Parkhill,  R. Peverati,  V. A. Rassolov,  Yihan Shao,  
 L. V. Slipchenko,  T. Stauch,  R. P. Steele,  J. E. Subotnik,  
 A. J. W. Thom,  A. Tkatchenko,  D. G. Truhlar,  T. Van Voorhis,  
 T. A. Wesolowski,  K. B. Whaley,  H. L. Woodcock III,  P. M. Zimmerman,  
 S. Faraji,  P. M. W. Gill,  M. Head-Gordon,  J. M. Herbert,  A. I. Krylov

 Additional authors for Version 5.4.1: 
 S. Kotaru,  Shaozhi Li,  Xiangyuan Li,  F. Matz,  A. Molle,  Haisheng Ren,  
 Yingli Su,  Hung-Yi Tsai,  C. Utku,  Fang Wang

 Contributors to earlier versions of Q-Chem not listed above: 
 R. D. Adamson,  B. Austin,  R. Baer,  J. Baker,  G. J. O. Beran,  
 K. Brandhorst,  S. T. Brown,  E. F. C. Byrd,  A. K. Chakraborty,  
 G. K. L. Chan,  Chun-Min Chang,  Yunqing Chen,  C.-L. Cheng,  
 Siu Hung Chien,  D. M. Chipman,  D. L. Crittenden,  H. Dachsel,  
 R. J. Doerksen,  A. D. Dutoi,  R. G. Edgar,  J. Fosso-Tande,  
 L. Fusti-Molnar,  D. Ghosh,  A. Ghysels,  A. Golubeva-Zadorozhnaya,  
 J. Gonthier,  M. S. Gordon,  S. R. Gwaltney,  G. Hawkins,  J. E. Herr,  
 A. Heyden,  S. Hirata,  E. G. Hohenstein,  G. Kedziora,  F. J. Keil,  
 C. Kelley,  Jihan Kim,  R. A. King,  R. Z. Khaliullin,  P. P. Korambath,  
 W. Kurlancheek,  A. Laurent,  A. M. Lee,  M. S. Lee,  S. V. Levchenko,  
 Ching Yeh Lin,  D. Liotard,  E. Livshits,  R. C. Lochan,  I. Lotan,  
 L. A. Martinez-Martinez,  P. E. Maslen,  N. Nair,  D. P. O'Neill,  
 D. Neuhauser,  E. Neuscamman,  C. M. Oana,  R. Olivares-Amaya,  R. Olson,  
 T. M. Perrine,  B. Peters,  P. A. Pieniazek,  A. Prociuk,  Y. M. Rhee,  
 J. Ritchie,  M. A. Rohrdanz,  E. Rosta,  N. J. Russ,  H. F. Schaefer III,  
 M. W. Schmidt,  N. E. Schultz,  S. Sharma,  N. Shenvi,  C. D. Sherrill,  
 A. C. Simmonett,  A. Sodt,  T. Stein,  D. Stuck,  K. S. Thanthiriwatte,  
 V. Vanovschi,  L. Vogt,  Tao Wang,  A. Warshel,  M. A. Watson,  
 C. F. Williams,  Q. Wu,  X. Xu,  Jun Yang,  W. Zhang,  Yan Zhao

 Please cite Q-Chem as follows:
 Y. Shao et al., Mol. Phys. 113, 184-215 (2015)
 DOI: 10.1080/00268976.2014.952696

 Q-Chem 5.4.1 for Intel X86 EM64T Linux

 Parts of Q-Chem use Armadillo 9.800.1 (Horizon Scraper).
 http://arma.sourceforge.net/

 Q-Chem begins on Tue Feb 13 13:17:22 2024  

 Host: 
0

     Scratch files written to /scratch/ari.fischer/qChem1937726.hpc-mn1/qchem81747//
 Aug1521 |scratch|qcdevops|jenkins|workspace|build_RNUM 8249   
 Processing $rem in /usr/local/qchem-5.4.1/config/preferences:
 Processing $rem in /home/ari.fischer/.qchemrc:
 Symmetry turned off for PCM/SM12/SMD calculation


!!********************************************.
!!******************Warning*******************.
!!Desired Analytical derivatives not available.
!!Finite difference job might take a long time.
!!********************************************.
!!********************************************.


 2-order derivative to be evaluated numerically with 1-order analytical derivatives

 Checking the input file for inconsistencies... 	...done.

--------------------------------------------------------------
User input:
--------------------------------------------------------------
$molecule
0 2
C   -1.5116894   -0.5633058    0.5979298
O   -0.9394122   -1.3084118    1.5044541
O   -1.8451438   -0.7730962   -0.5197593
O   -1.6000247    1.4841467    1.8470778
O   -1.1368839    1.3372906    2.9483576
H   -0.7674142   -2.2068134    1.1580386
$end

$rem
BASIS = 6-311++G(2df,2p)
GUI = 2
JOB_TYPE = Frequency
METHOD = wB97M-V
SOLVENT_METHOD = SMD
SCF_ALGORITHM = DIIS_GDM
MAX_SCF_CYCLES = 400
SCF_CONVERGENCE = 7
THRESH = 12
SYMMETRY_IGNORE = 1
$end

--------------------------------------------------------------
 ----------------------------------------------------------------
             Standard Nuclear Orientation (Angstroms)
    I     Atom           X                Y                Z
 ----------------------------------------------------------------
    1      C      -1.5116894000    -0.5633058000     0.5979298000
    2      O      -0.9394122000    -1.3084118000     1.5044541000
    3      O      -1.8451438000    -0.7730962000    -0.5197593000
    4      O      -1.6000247000     1.4841467000     1.8470778000
    5      O      -1.1368839000     1.3372906000     2.9483576000
    6      H      -0.7674142000    -2.2068134000     1.1580386000
 ----------------------------------------------------------------
 Nuclear Repulsion Energy =         154.16371076 hartrees
 There are       20 alpha and       19 beta electrons
 Requested basis set is 6-311++G(2df,2p)
 There are 46 shells and 180 basis functions

 Total QAlloc Memory Limit 288000 MB
 Mega-Array Size       188 MB
 MEM_STATIC part       192 MB
 
 Citation of the SMD model:
 Marenich, A.V.; Cramer, C.J.; Truhlar, D.G.
 J. Phys. Chem. B 2009, 113, 6378-6396.
 iSolventCode=           1
 Solvent: water                                                           
 
 vradii
            1           2           3           4           5           6
    1   1.8500000   1.5200000   1.5200000   1.5200000   1.5200000   1.2000000
 Changing PCM_VDW_RADII to SMD_RADIUS
 Discretize the solute cavity surface with Lebedev spheres
	Using 110 Lebedev grid points for each H atom
	Using 194 Lebedev grid points for other atoms
	Atomic van der Waals radii will be scaled by 1.20
 Remove points where switching function is < 1.0e-08
 Keep 698 surface tesserae and discard 382 interior tesserae
 Molecular Surface Area = 90.470 Angst**2

                       Distance Matrix (Angstroms)
             C (  1)   O (  2)   O (  3)   O (  4)   O (  5)
   O (  2)  1.305554
   O (  3)  1.185088  2.281305
   O (  4)  2.400049  2.890014  3.279809
   O (  5)  3.045859  3.020529  4.121068  1.203696
   H (  6)  1.889123  0.978117  2.456024  3.845933  3.987784
 
 A cutoff of  1.0D-12 yielded    981 shell pairs
 There are     15336 function pairs (     19898 Cartesian)
 Smallest overlap matrix eigenvalue = 4.49E-04
 Guess from superposition of atomic densities
 Warning:  Energy on first SCF cycle will be non-variational
 SAD guess density has 39.000000 electrons

 -----------------------------------------------------------------------
  General SCF calculation program by
  Eric Jon Sundstrom, Paul Horn, Yuezhi Mao, Dmitri Zuev, Alec White,
  David Stuck, Shaama M.S., Shane Yost, Joonho Lee, David Small,
  Daniel Levine, Susi Lehtola, Hugh Burton, Evgeny Epifanovsky,
  Bang C. Huynh
 -----------------------------------------------------------------------
 Exchange:     0.1500 Hartree-Fock + 1.0000 wB97M-V + LR-HF
 Correlation:  1.0000 wB97M-V
 Using SG-2 standard quadrature grid
 Nonlocal Correlation:  VV10 with C = 0.0100 and b = 6.00 and scale = 1.00000
 Grid used for NLC:  SG-1 standard quadrature
 using 16 threads for integral computing
 -------------------------------------------------------
 OpenMP Integral computing Module                
 Release: version 1.0, May 2013, Q-Chem Inc. Pittsburgh 
 -------------------------------------------------------
 
 Citation of the SMD model:
 Marenich, A.V.; Cramer, C.J.; Truhlar, D.G.
 J. Phys. Chem. B 2009, 113, 6378-6396.
 iSolventCode=           1
 Solvent: water                                                           
 
 vradii
            1           2           3           4           5           6
    1   1.8500000   1.5200000   1.5200000   1.5200000   1.5200000   1.2000000
 -------------------------------------------------------
 OpenMP BLAS3 based DFT computing Module                
 Release: version 1.0, May 2013, Q-Chem Inc. Pittsburgh 
 -------------------------------------------------------
 A unrestricted SCF calculation will be
 performed using DIIS, GDM
 SCF converges when RMS gradient is below 1.0e-07
 ---------------------------------------
  Cycle       Energy         DIIS error
 ---------------------------------------
    1    -339.9641596003      1.85e-02  
    2    -339.3119365435      2.90e-03  Done DIIS. Switching to GDM
 ---------------------------------------
  Cycle       Energy        RMS Gradient
 ---------------------------------------
    1    -339.3119365435      1.76e-01   Descent step
    2    -339.4160997858      2.85e-02   Normal BFGS step
    3    -339.4268482282      2.47e-02   Normal BFGS step
    4    -339.4289750519      2.10e-02   Normal BFGS step
    5    -339.4305945086      2.77e-02   Normal BFGS step
    6    -339.4396424357      4.16e-02   Dog-leg BFGS step
    7    -339.4438863944      4.72e-02   Normal BFGS step
    8    -339.4477432437      3.43e-02   Normal BFGS step
    9    -339.4565252058      2.29e-02   Normal BFGS step
   10    -339.4568196170      1.29e-02   Normal BFGS step
   11    -339.4573424215      4.53e-03   Normal BFGS step
   12    -339.4574140469      3.30e-03   Normal BFGS step
   13    -339.4574448080      7.40e-04   Normal BFGS step
   14    -339.4574467684      1.62e-04   Normal BFGS step
   15    -339.4574470166      1.53e-04   Normal BFGS step
   16    -339.4574470845      4.42e-05   Normal BFGS step
   17    -339.4574470922      1.09e-05   Normal BFGS step
   18    -339.4574470933      4.26e-06   Normal BFGS step
   19    -339.4574470935      2.02e-06   Normal BFGS step
   20    -339.4574470935      7.47e-07   Normal BFGS step
   21    -339.4574470936      3.21e-07   Normal BFGS step
   22    -339.4574470936      1.89e-07   Normal BFGS step
   23    -339.4574470936      7.47e-08  Convergence criterion met
 ---------------------------------------
 SCF time:   CPU 305.69s  wall 19.00s 
<S^2> =          1.576233829
(3)  G-ENP(liq) elect-nuc-pol free energy of system     -339.457447094 a.u.
(4)  G-CDS(liq) cavity-dispersion-solvent structure 
     free energy                                                4.2664 kcal/mol
(6)  G-S(liq) free energy of system                     -339.450648139 a.u.
 SCF   energy in the final basis set =     -339.4506481390
 Total energy in the final basis set =     -339.4506481390
 
 --------------------------------------------------------------
 
                    Orbital Energies (a.u.)
 --------------------------------------------------------------
 
 Alpha MOs
 -- Occupied --
-19.4901 -19.4751 -19.4100 -19.3734 -10.4904  -1.4297  -1.2646  -1.1911
 -0.9550  -0.7575  -0.6706  -0.6696  -0.6584  -0.6337  -0.5835  -0.5823
 -0.4767  -0.4650  -0.4051  -0.3999
 -- Virtual --
 -0.0101   0.0513   0.0739   0.0818   0.0872   0.1133   0.1183   0.1562
  0.1799   0.2027   0.2205   0.2297   0.2345   0.2492   0.2630   0.2791
  0.3014   0.3131   0.3174   0.3236   0.3394   0.3699   0.3861   0.4055
  0.4250   0.4523   0.5498   0.6073   0.6218   0.7027   0.7191   0.7603
  0.7995   0.8354   0.8737   0.9874   1.0052   1.0083   1.0306   1.0481
  1.0770   1.0954   1.1049   1.1212   1.1367   1.1732   1.1776   1.1885
  1.1936   1.3328   1.3473   1.3687   1.4021   1.4091   1.4822   1.5087
  1.5406   1.5937   1.5977   1.6221   1.7154   1.7370   1.7569   1.8209
  1.8800   1.9978   2.0045   2.1372   2.2843   2.3013   2.3430   2.3460
  2.4286   2.4900   2.5554   2.6122   2.7697   2.8296   2.9404   3.0597
  3.0933   3.1830   3.2284   3.2900   3.4130   3.5020   3.5419   3.6151
  3.6309   3.6823   3.7824   3.8866   4.0121   4.1967   4.4024   4.5412
  4.5799   4.5824   4.6014   4.9035   4.9049   4.9166   4.9682   5.0272
  5.0741   5.0998   5.1109   5.1127   5.1283   5.1492   5.1569   5.1766
  5.1796   5.1901   5.2570   5.2692   5.2922   5.3314   5.4509   5.5088
  5.5650   5.5856   5.6196   5.7453   5.7531   6.0402   6.1394   6.5684
  6.6395   6.7065   6.7723   6.8071   6.8105   6.8211   6.8585   6.8771
  6.8957   6.9239   6.9375   6.9727   7.0131   7.0411   7.1130   7.2027
  7.2165   7.3174   7.3571   7.3818   7.4747   7.5154   7.6429   7.7577
  7.8240   8.0956   8.1297  25.0491  50.4091  50.5213  50.5423  50.6955
 
 Beta MOs
 -- Occupied --
-19.4615 -19.4468 -19.4127 -19.3795 -10.5018  -1.3768  -1.2755  -1.2033
 -0.8752  -0.7768  -0.6460  -0.6293  -0.6062  -0.5945  -0.5658  -0.5648
 -0.5004  -0.4682  -0.3251
 -- Virtual --
 -0.0121  -0.0105   0.0445   0.0720   0.0802   0.0894   0.0985   0.1191
  0.1586   0.1823   0.2094   0.2198   0.2332   0.2375   0.2526   0.2661
  0.2843   0.3030   0.3159   0.3196   0.3283   0.3437   0.3688   0.4033
  0.4104   0.4334   0.4501   0.5347   0.6026   0.6201   0.6933   0.7106
  0.7492   0.7843   0.8267   0.8613   0.9841   1.0082   1.0184   1.0378
  1.0805   1.0843   1.0993   1.1020   1.1407   1.1486   1.1730   1.1878
  1.1967   1.2158   1.3323   1.3804   1.3866   1.4185   1.4397   1.5053
  1.5268   1.5457   1.5897   1.5959   1.6400   1.7232   1.7576   1.7871
  1.8200   1.9033   1.9919   1.9987   2.1326   2.2779   2.3239   2.3538
  2.3755   2.4402   2.4752   2.5442   2.6297   2.7550   2.8111   2.8945
  3.0180   3.0682   3.1444   3.1953   3.2283   3.3906   3.4556   3.4919
  3.5822   3.6151   3.6580   3.7695   3.8500   3.9967   4.1817   4.3773
  4.5947   4.6262   4.6305   4.6495   4.9382   4.9808   4.9891   5.0599
  5.0959   5.1014   5.1077   5.1156   5.1479   5.1616   5.1735   5.1849
  5.2155   5.2353   5.2382   5.2495   5.2782   5.2932   5.3759   5.4409
  5.5018   5.5524   5.5811   5.6092   5.8027   5.8100   6.0174   6.1297
  6.5548   6.7565   6.7647   6.8321   6.8565   6.8711   6.8818   6.8890
  6.9181   6.9365   6.9582   6.9989   7.0050   7.0508   7.0901   7.1186
  7.2009   7.2114   7.3153   7.4042   7.4214   7.4602   7.4992   7.6350
  7.7453   7.8103   8.1279   8.1741  25.0383  50.4312  50.5348  50.5486
 50.6904
 --------------------------------------------------------------
 
          Ground-State Mulliken Net Atomic Charges

     Atom                 Charge (a.u.)    Spin (a.u.)
  --------------------------------------------------------
      1 C                     0.212690      -0.673891
      2 O                    -0.239092      -0.000612
      3 O                    -0.339583      -0.181913
      4 O                     0.007628       0.956783
      5 O                    -0.004776       0.939609
      6 H                     0.363131      -0.039976
  --------------------------------------------------------
  Sum of atomic charges =     0.000000
  Sum of spin   charges =     1.000000

 -----------------------------------------------------------------
                    Cartesian Multipole Moments
 -----------------------------------------------------------------
    Charge (ESU x 10^10)
                 0.0000
    Dipole Moment (Debye)
         X       1.1602      Y      -2.5407      Z       0.9583
       Tot       2.9529
    Quadrupole Moments (Debye-Ang)
        XX     -30.1575     XY       1.2107     YY     -20.1665
        XZ      -2.3357     YZ      -3.9673     ZZ     -31.4770
    Octopole Moments (Debye-Ang^2)
       XXX     120.1420    XXY       0.9655    XYY      34.3106
       YYY     -18.9829    XXZ     -28.5877    XYZ       4.0863
       YYZ     -26.2236    XZZ      42.1532    YZZ      -1.8236
       ZZZ    -113.6625
    Hexadecapole Moments (Debye-Ang^3)
      XXXX    -372.7680   XXXY      -1.1185   XXYY    -100.3199
      XYYY      15.5508   YYYY    -193.7617   XXXZ     108.9242
      XXYZ     -28.6156   XYYZ      34.6552   YYYZ     -94.7746
      XXZZ    -146.8925   XYZZ       0.9008   YYZZ    -121.9399
      XZZZ     130.7415   YZZZ     -77.0659   ZZZZ    -537.9097
 -----------------------------------------------------------------
 Calculating analytic gradient of the SCF energy
 Gradient of CDS energy
            1           2           3           4           5           6
    1   0.0005228  -0.0010968   0.0003376   0.0000827  -0.0000206   0.0001743
    2  -0.0015715   0.0015348   0.0000386   0.0002838   0.0001017  -0.0003875
    3   0.0001390  -0.0016767   0.0009724   0.0004207   0.0000157   0.0001289
 Gradient of SCF Energy
            1           2           3           4           5           6
    1   0.0006800  -0.0020659  -0.0034105  -0.0008091   0.0008173   0.0047882
    2  -0.0002178   0.0178305   0.0028285   0.0006499  -0.0005402  -0.0205510
    3   0.0020180   0.0104077  -0.0069718  -0.0017987   0.0017461  -0.0054013
 Max gradient component =       2.055E-02
 RMS gradient           =       7.402E-03
 Computing fast CPCM-SWIG gradient
 Updating gradient with PCM contributions...
 -- total gradient after adding PCM contribution --
---------------------------------------------------
  Atom         X              Y              Z     
---------------------------------------------------
   1       0.000009      -0.000032       0.000013
   2       0.000018      -0.000042       0.000052
   3       0.000005       0.000005      -0.000095
   4       0.000075       0.000003       0.000115
   5      -0.000063       0.000073      -0.000132
   6      -0.000044      -0.000007       0.000046
---------------------------------------------------
 Number of fixed atoms: 0
 Gradient time:  CPU 30.94 s  wall 2.56 s
 ######################################################
 ######################################################
 # Starting finite difference calculation for IDERIV  #
 Finite diff step size:  1.88973e-03 a.u.
 ----------------------------------------------------------------
             Standard Nuclear Orientation (Angstroms)
    I     Atom           X                Y                Z
 ----------------------------------------------------------------
    1      C      -1.5106894000    -0.5633058000     0.5979298000
    2      O      -0.9394122000    -1.3084118000     1.5044541000
    3      O      -1.8451438000    -0.7730962000    -0.5197593000
    4      O      -1.6000247000     1.4841467000     1.8470778000
    5      O      -1.1368839000     1.3372906000     2.9483576000
    6      H      -0.7674142000    -2.2068134000     1.1580386000
 ----------------------------------------------------------------
 Nuclear Repulsion Energy =         154.16566952 hartrees
 There are       20 alpha and       19 beta electrons
 Discretize the solute cavity surface with Lebedev spheres
	Using 110 Lebedev grid points for each H atom
	Using 194 Lebedev grid points for other atoms
	Atomic van der Waals radii will be scaled by 1.20
 Remove points where switching function is < 1.0e-08
 Keep 698 surface tesserae and discard 382 interior tesserae
 Molecular Surface Area = 90.469 Angst**2

                       Distance Matrix (Angstroms)
             C (  1)   O (  2)   O (  3)   O (  4)   O (  5)
   O (  2)  1.305116
   O (  3)  1.185369  2.281305
   O (  4)  2.400086  2.890014  3.279809
   O (  5)  3.045736  3.020529  4.121068  1.203696
   H (  6)  1.888729  0.978117  2.456024  3.845933  3.987784
 
 Requested basis set is 6-311++G(2df,2p)
 There are 46 shells and 180 basis functions
 A cutoff of  1.0D-12 yielded    981 shell pairs
 There are     15336 function pairs (     19898 Cartesian)
 Smallest overlap matrix eigenvalue = 4.49E-04
 Guess MOs from SCF MO coefficient file

 -----------------------------------------------------------------------
  General SCF calculation program by
  Eric Jon Sundstrom, Paul Horn, Yuezhi Mao, Dmitri Zuev, Alec White,
  David Stuck, Shaama M.S., Shane Yost, Joonho Lee, David Small,
  Daniel Levine, Susi Lehtola, Hugh Burton, Evgeny Epifanovsky,
  Bang C. Huynh
 -----------------------------------------------------------------------
 Exchange:     0.1500 Hartree-Fock + 1.0000 wB97M-V + LR-HF
 Correlation:  1.0000 wB97M-V
 Using SG-2 standard quadrature grid
 Nonlocal Correlation:  VV10 with C = 0.0100 and b = 6.00 and scale = 1.00000
 Grid used for NLC:  SG-1 standard quadrature
 
 Citation of the SMD model:
 Marenich, A.V.; Cramer, C.J.; Truhlar, D.G.
 J. Phys. Chem. B 2009, 113, 6378-6396.
 iSolventCode=           1
 Solvent: water                                                           
 
 vradii
            1           2           3           4           5           6
    1   1.8500000   1.5200000   1.5200000   1.5200000   1.5200000   1.2000000
 -------------------------------------------------------
 OpenMP BLAS3 based DFT computing Module                
 Release: version 1.0, May 2013, Q-Chem Inc. Pittsburgh 
 -------------------------------------------------------
 A unrestricted SCF calculation will be
 performed using Roothaan-Hall, DIIS, GDM
 SCF converges when RMS gradient is below 1.0e-07
 ---------------------------------------
  Cycle       Energy         DIIS error
 ---------------------------------------
    1    -339.4404139867      2.98e-04  Roothaan Step
 ---------------------------------------
  Cycle       Energy         DIIS error
 ---------------------------------------
    1    -339.4544794053      3.60e-04  
    2    -339.4558477674      3.86e-04  Done DIIS. Switching to GDM
 ---------------------------------------
  Cycle       Energy        RMS Gradient
 ---------------------------------------
    1    -339.4558477674      1.56e-02   Normal BFGS step
    2    -339.4547723240      2.54e-02  Line search: overstep
    3    -339.4573634702      3.05e-03   Normal BFGS step
    4    -339.4574339321      1.38e-03   Normal BFGS step
    5    -339.4574422734      1.64e-03   Normal BFGS step
    6    -339.4574470093      4.64e-04   Normal BFGS step
    7    -339.4574475498      1.90e-04   Normal BFGS step
    8    -339.4574477208      1.27e-04   Normal BFGS step
    9    -339.4574477683      8.58e-05   Normal BFGS step
   10    -339.4574477826      2.37e-05   Normal BFGS step
   11    -339.4574477861      7.90e-06   Normal BFGS step
   12    -339.4574477866      5.06e-06   Normal BFGS step
   13    -339.4574477867      2.15e-06   Normal BFGS step
   14    -339.4574477867      5.95e-07   Normal BFGS step
   15    -339.4574477867      2.85e-07   Normal BFGS step
   16    -339.4574477867      1.10e-07   Normal BFGS step
   17    -339.4574477867      5.02e-08  Convergence criterion met
 ---------------------------------------
 SCF time:   CPU 237.90s  wall 16.00s 
<S^2> =          1.576140149
(3)  G-ENP(liq) elect-nuc-pol free energy of system     -339.457447787 a.u.
(4)  G-CDS(liq) cavity-dispersion-solvent structure 
     free energy                                                4.2670 kcal/mol
(6)  G-S(liq) free energy of system                     -339.450647852 a.u.
 SCF   energy in the final basis set =     -339.4506478517
 Total energy in the final basis set =     -339.4506478517
 
 --------------------------------------------------------------
 
                    Orbital Energies (a.u.)
 --------------------------------------------------------------
 
 Alpha MOs
 -- Occupied --
-19.4901 -19.4751 -19.4101 -19.3733 -10.4904  -1.4297  -1.2647  -1.1910
 -0.9550  -0.7576  -0.6706  -0.6696  -0.6584  -0.6337  -0.5836  -0.5823
 -0.4767  -0.4650  -0.4051  -0.3999
 -- Virtual --
 -0.0101   0.0513   0.0739   0.0818   0.0872   0.1133   0.1183   0.1562
  0.1799   0.2027   0.2204   0.2297   0.2345   0.2492   0.2630   0.2791
  0.3014   0.3131   0.3173   0.3236   0.3394   0.3699   0.3861   0.4055
  0.4250   0.4524   0.5498   0.6074   0.6217   0.7026   0.7190   0.7604
  0.7994   0.8355   0.8736   0.9876   1.0052   1.0082   1.0307   1.0481
  1.0771   1.0953   1.1049   1.1212   1.1367   1.1731   1.1777   1.1885
  1.1936   1.3330   1.3473   1.3686   1.4021   1.4090   1.4822   1.5087
  1.5405   1.5938   1.5978   1.6220   1.7155   1.7370   1.7568   1.8208
  1.8800   1.9977   2.0046   2.1372   2.2843   2.3014   2.3430   2.3461
  2.4286   2.4901   2.5554   2.6122   2.7699   2.8296   2.9403   3.0598
  3.0935   3.1828   3.2284   3.2899   3.4131   3.5021   3.5422   3.6150
  3.6307   3.6823   3.7825   3.8871   4.0117   4.1966   4.4025   4.5412
  4.5799   4.5824   4.6014   4.9035   4.9049   4.9167   4.9682   5.0272
  5.0741   5.0998   5.1109   5.1127   5.1284   5.1492   5.1569   5.1766
  5.1796   5.1901   5.2571   5.2692   5.2922   5.3314   5.4508   5.5089
  5.5648   5.5856   5.6199   5.7454   5.7531   6.0405   6.1400   6.5681
  6.6395   6.7065   6.7727   6.8071   6.8105   6.8212   6.8584   6.8771
  6.8956   6.9239   6.9374   6.9727   7.0130   7.0411   7.1128   7.2027
  7.2165   7.3175   7.3571   7.3819   7.4747   7.5161   7.6428   7.7575
  7.8242   8.0956   8.1297  25.0494  50.4092  50.5214  50.5426  50.6951
 
 Beta MOs
 -- Occupied --
-19.4615 -19.4468 -19.4128 -19.3795 -10.5018  -1.3768  -1.2755  -1.2032
 -0.8752  -0.7769  -0.6460  -0.6293  -0.6062  -0.5945  -0.5658  -0.5648
 -0.5003  -0.4682  -0.3250
 -- Virtual --
 -0.0121  -0.0105   0.0445   0.0720   0.0802   0.0894   0.0985   0.1191
  0.1586   0.1823   0.2094   0.2198   0.2332   0.2375   0.2526   0.2661
  0.2843   0.3030   0.3159   0.3196   0.3283   0.3437   0.3688   0.4034
  0.4104   0.4335   0.4501   0.5347   0.6026   0.6200   0.6932   0.7105
  0.7493   0.7842   0.8267   0.8612   0.9842   1.0082   1.0184   1.0379
  1.0806   1.0843   1.0992   1.1021   1.1408   1.1487   1.1730   1.1878
  1.1967   1.2158   1.3323   1.3804   1.3865   1.4185   1.4397   1.5053
  1.5269   1.5457   1.5898   1.5958   1.6400   1.7232   1.7575   1.7871
  1.8200   1.9034   1.9919   1.9987   2.1326   2.2779   2.3240   2.3540
  2.3756   2.4402   2.4753   2.5441   2.6297   2.7552   2.8111   2.8944
  3.0180   3.0684   3.1442   3.1953   3.2282   3.3908   3.4556   3.4922
  3.5822   3.6149   3.6580   3.7696   3.8505   3.9963   4.1816   4.3775
  4.5947   4.6263   4.6305   4.6495   4.9382   4.9808   4.9891   5.0599
  5.0959   5.1015   5.1077   5.1157   5.1479   5.1616   5.1735   5.1849
  5.2155   5.2353   5.2382   5.2497   5.2782   5.2932   5.3759   5.4409
  5.5019   5.5523   5.5810   5.6095   5.8027   5.8100   6.0178   6.1304
  6.5545   6.7569   6.7647   6.8321   6.8565   6.8709   6.8818   6.8890
  6.9180   6.9365   6.9582   6.9990   7.0050   7.0509   7.0900   7.1186
  7.2009   7.2114   7.3154   7.4043   7.4215   7.4603   7.4998   7.6349
  7.7451   7.8105   8.1279   8.1741  25.0387  50.4312  50.5351  50.5487
 50.6900
 --------------------------------------------------------------
 
          Ground-State Mulliken Net Atomic Charges

     Atom                 Charge (a.u.)    Spin (a.u.)
  --------------------------------------------------------
      1 C                     0.212645      -0.673890
      2 O                    -0.238613      -0.000488
      3 O                    -0.339961      -0.181922
      4 O                     0.007608       0.956761
      5 O                    -0.004840       0.939561
      6 H                     0.363160      -0.040022
  --------------------------------------------------------
  Sum of atomic charges =     0.000000
  Sum of spin   charges =     1.000000

 -----------------------------------------------------------------
                    Cartesian Multipole Moments
 -----------------------------------------------------------------
    Charge (ESU x 10^10)
                 0.0000
    Dipole Moment (Debye)
         X       1.1633      Y      -2.5432      Z       0.9620
       Tot       2.9575
    Quadrupole Moments (Debye-Ang)
        XX     -30.1657     XY       1.2103     YY     -20.1646
        XZ      -2.3397     YZ      -3.9740     ZZ     -31.4741
    Octopole Moments (Debye-Ang^2)
       XXX     120.1470    XXY       0.9703    XYY      34.3081
       YYY     -18.9915    XXZ     -28.5807    XYZ       4.0935
       YYZ     -26.2162    XZZ      42.1454    YZZ      -1.8359
       ZZZ    -113.6539
    Hexadecapole Moments (Debye-Ang^3)
      XXXX    -372.7247   XXXY      -1.1266   XXYY    -100.3143
      XYYY      15.5625   YYYY    -193.7499   XXXZ     108.9004
      XXYZ     -28.6265   XYYZ      34.6446   YYYZ     -94.7983
      XXZZ    -146.8726   XYZZ       0.9178   YYZZ    -121.9326
      XZZZ     130.7209   YZZZ     -77.1007   ZZZZ    -537.9063
 -----------------------------------------------------------------
 Calculating analytic gradient of the SCF energy
 Gradient of CDS energy
            1           2           3           4           5           6
    1   0.0005149  -0.0010897   0.0003392   0.0000826  -0.0000208   0.0001738
    2  -0.0015654   0.0015280   0.0000392   0.0002837   0.0001020  -0.0003874
    3   0.0001279  -0.0016685   0.0009753   0.0004207   0.0000158   0.0001287
 Gradient of SCF Energy
            1           2           3           4           5           6
    1   0.0009700  -0.0022134  -0.0035595  -0.0008073   0.0008124   0.0047978
    2  -0.0003554   0.0179805   0.0027835   0.0006601  -0.0005408  -0.0205279
    3   0.0025252   0.0102887  -0.0073364  -0.0017834   0.0017327  -0.0054268
 Max gradient component =       2.053E-02
 RMS gradient           =       7.445E-03
 Computing fast CPCM-SWIG gradient
 Updating gradient with PCM contributions...
 -- total gradient after adding PCM contribution --
---------------------------------------------------
  Atom         X              Y              Z     
---------------------------------------------------
   1       0.000295      -0.000169       0.000530
   2      -0.000124       0.000101      -0.000072
   3      -0.000139      -0.000047      -0.000462
   4       0.000077       0.000013       0.000132
   5      -0.000068       0.000072      -0.000147
   6      -0.000041       0.000030       0.000019
---------------------------------------------------
 Number of fixed atoms: 0
 Gradient time:  CPU 30.04 s  wall 2.39 s
 ----------------------------------------------------------------
             Standard Nuclear Orientation (Angstroms)
    I     Atom           X                Y                Z
 ----------------------------------------------------------------
    1      C      -1.5126894000    -0.5633058000     0.5979298000
    2      O      -0.9394122000    -1.3084118000     1.5044541000
    3      O      -1.8451438000    -0.7730962000    -0.5197593000
    4      O      -1.6000247000     1.4841467000     1.8470778000
    5      O      -1.1368839000     1.3372906000     2.9483576000
    6      H      -0.7674142000    -2.2068134000     1.1580386000
 ----------------------------------------------------------------
 Nuclear Repulsion Energy =         154.16173259 hartrees
 There are       20 alpha and       19 beta electrons
 Discretize the solute cavity surface with Lebedev spheres
	Using 110 Lebedev grid points for each H atom
	Using 194 Lebedev grid points for other atoms
	Atomic van der Waals radii will be scaled by 1.20
 Remove points where switching function is < 1.0e-08
 Keep 698 surface tesserae and discard 382 interior tesserae
 Molecular Surface Area = 90.472 Angst**2

                       Distance Matrix (Angstroms)
             C (  1)   O (  2)   O (  3)   O (  4)   O (  5)
   O (  2)  1.305992
   O (  3)  1.184807  2.281305
   O (  4)  2.400012  2.890014  3.279809
   O (  5)  3.045982  3.020529  4.121068  1.203696
   H (  6)  1.889517  0.978117  2.456024  3.845933  3.987784
 
 Requested basis set is 6-311++G(2df,2p)
 There are 46 shells and 180 basis functions
 A cutoff of  1.0D-12 yielded    981 shell pairs
 There are     15336 function pairs (     19898 Cartesian)
 Smallest overlap matrix eigenvalue = 4.49E-04
 Guess MOs from SCF MO coefficient file

 -----------------------------------------------------------------------
  General SCF calculation program by
  Eric Jon Sundstrom, Paul Horn, Yuezhi Mao, Dmitri Zuev, Alec White,
  David Stuck, Shaama M.S., Shane Yost, Joonho Lee, David Small,
  Daniel Levine, Susi Lehtola, Hugh Burton, Evgeny Epifanovsky,
  Bang C. Huynh
 -----------------------------------------------------------------------
 Exchange:     0.1500 Hartree-Fock + 1.0000 wB97M-V + LR-HF
 Correlation:  1.0000 wB97M-V
 Using SG-2 standard quadrature grid
 Nonlocal Correlation:  VV10 with C = 0.0100 and b = 6.00 and scale = 1.00000
 Grid used for NLC:  SG-1 standard quadrature
 
 Citation of the SMD model:
 Marenich, A.V.; Cramer, C.J.; Truhlar, D.G.
 J. Phys. Chem. B 2009, 113, 6378-6396.
 iSolventCode=           1
 Solvent: water                                                           
 
 vradii
            1           2           3           4           5           6
    1   1.8500000   1.5200000   1.5200000   1.5200000   1.5200000   1.2000000
 -------------------------------------------------------
 OpenMP BLAS3 based DFT computing Module                
 Release: version 1.0, May 2013, Q-Chem Inc. Pittsburgh 
 -------------------------------------------------------
 A unrestricted SCF calculation will be
 performed using Roothaan-Hall, DIIS, GDM
 SCF converges when RMS gradient is below 1.0e-07
 ---------------------------------------
  Cycle       Energy         DIIS error
 ---------------------------------------
    1    -339.4404117770      2.99e-04  Roothaan Step
 ---------------------------------------
  Cycle       Energy         DIIS error
 ---------------------------------------
    1    -339.4545019152      3.58e-04  
    2    -339.4558801367      3.82e-04  Done DIIS. Switching to GDM
 ---------------------------------------
  Cycle       Energy        RMS Gradient
 ---------------------------------------
    1    -339.4558801367      1.53e-02   Normal BFGS step
    2    -339.4548350398      2.50e-02  Line search: overstep
    3    -339.4573625061      3.04e-03   Normal BFGS step
    4    -339.4574321838      1.38e-03   Normal BFGS step
    5    -339.4574404023      1.63e-03   Normal BFGS step
    6    -339.4574450937      4.57e-04   Normal BFGS step
    7    -339.4574456129      1.86e-04   Normal BFGS step
    8    -339.4574457837      1.24e-04   Normal BFGS step
    9    -339.4574458288      8.42e-05   Normal BFGS step
   10    -339.4574458423      2.44e-05   Normal BFGS step
   11    -339.4574458456      7.77e-06   Normal BFGS step
   12    -339.4574458461      4.79e-06   Normal BFGS step
   13    -339.4574458462      2.23e-06   Normal BFGS step
   14    -339.4574458462      6.24e-07   Normal BFGS step
   15    -339.4574458462      2.82e-07   Normal BFGS step
   16    -339.4574458462      1.07e-07   Normal BFGS step
   17    -339.4574458462      4.90e-08  Convergence criterion met
 ---------------------------------------
 SCF time:   CPU 236.96s  wall 15.00s 
<S^2> =          1.576329544
(3)  G-ENP(liq) elect-nuc-pol free energy of system     -339.457445846 a.u.
(4)  G-CDS(liq) cavity-dispersion-solvent structure 
     free energy                                                4.2658 kcal/mol
(6)  G-S(liq) free energy of system                     -339.450647887 a.u.
 SCF   energy in the final basis set =     -339.4506478872
 Total energy in the final basis set =     -339.4506478872
 
 --------------------------------------------------------------
 
                    Orbital Energies (a.u.)
 --------------------------------------------------------------
 
 Alpha MOs
 -- Occupied --
-19.4901 -19.4751 -19.4099 -19.3734 -10.4904  -1.4297  -1.2645  -1.1911
 -0.9550  -0.7573  -0.6706  -0.6696  -0.6584  -0.6337  -0.5835  -0.5823
 -0.4768  -0.4650  -0.4051  -0.3999
 -- Virtual --
 -0.0101   0.0513   0.0739   0.0818   0.0872   0.1133   0.1183   0.1562
  0.1798   0.2027   0.2205   0.2297   0.2345   0.2492   0.2629   0.2791
  0.3014   0.3131   0.3174   0.3236   0.3394   0.3700   0.3861   0.4054
  0.4249   0.4522   0.5498   0.6072   0.6218   0.7027   0.7192   0.7603
  0.7996   0.8353   0.8737   0.9872   1.0053   1.0083   1.0306   1.0481
  1.0770   1.0954   1.1049   1.1212   1.1367   1.1732   1.1776   1.1886
  1.1936   1.3327   1.3473   1.3687   1.4020   1.4091   1.4822   1.5087
  1.5406   1.5937   1.5976   1.6221   1.7154   1.7370   1.7570   1.8210
  1.8799   1.9978   2.0045   2.1372   2.2843   2.3013   2.3430   2.3459
  2.4285   2.4898   2.5555   2.6122   2.7696   2.8296   2.9405   3.0597
  3.0931   3.1832   3.2284   3.2900   3.4128   3.5020   3.5417   3.6152
  3.6311   3.6824   3.7824   3.8861   4.0124   4.1968   4.4023   4.5412
  4.5798   4.5824   4.6014   4.9035   4.9049   4.9166   4.9682   5.0271
  5.0741   5.0998   5.1108   5.1127   5.1283   5.1492   5.1569   5.1766
  5.1797   5.1901   5.2568   5.2692   5.2923   5.3314   5.4510   5.5086
  5.5651   5.5857   5.6193   5.7453   5.7531   6.0397   6.1387   6.5687
  6.6395   6.7064   6.7719   6.8071   6.8105   6.8211   6.8586   6.8770
  6.8959   6.9240   6.9377   6.9727   7.0131   7.0410   7.1131   7.2027
  7.2165   7.3173   7.3570   7.3818   7.4747   7.5148   7.6431   7.7579
  7.8238   8.0956   8.1297  25.0487  50.4091  50.5213  50.5420  50.6958
 
 Beta MOs
 -- Occupied --
-19.4615 -19.4468 -19.4126 -19.3796 -10.5018  -1.3768  -1.2754  -1.2033
 -0.8752  -0.7766  -0.6460  -0.6293  -0.6062  -0.5944  -0.5658  -0.5648
 -0.5004  -0.4682  -0.3251
 -- Virtual --
 -0.0121  -0.0105   0.0445   0.0720   0.0802   0.0895   0.0985   0.1191
  0.1586   0.1823   0.2093   0.2198   0.2332   0.2375   0.2526   0.2661
  0.2843   0.3030   0.3159   0.3196   0.3283   0.3437   0.3688   0.4033
  0.4105   0.4333   0.4500   0.5347   0.6026   0.6202   0.6933   0.7107
  0.7492   0.7844   0.8266   0.8614   0.9839   1.0082   1.0184   1.0378
  1.0805   1.0844   1.0993   1.1020   1.1407   1.1486   1.1731   1.1877
  1.1968   1.2159   1.3322   1.3804   1.3867   1.4185   1.4397   1.5052
  1.5268   1.5458   1.5896   1.5959   1.6400   1.7232   1.7576   1.7872
  1.8201   1.9033   1.9920   1.9987   2.1326   2.2779   2.3239   2.3537
  2.3755   2.4402   2.4751   2.5443   2.6297   2.7549   2.8111   2.8946
  3.0179   3.0679   3.1446   3.1953   3.2283   3.3904   3.4555   3.4917
  3.5823   3.6153   3.6581   3.7695   3.8494   3.9970   4.1817   4.3772
  4.5946   4.6262   4.6305   4.6495   4.9382   4.9808   4.9891   5.0599
  5.0959   5.1014   5.1077   5.1156   5.1479   5.1616   5.1735   5.1849
  5.2155   5.2353   5.2382   5.2493   5.2783   5.2933   5.3759   5.4410
  5.5016   5.5525   5.5811   5.6089   5.8027   5.8100   6.0170   6.1290
  6.5551   6.7560   6.7647   6.8320   6.8565   6.8714   6.8818   6.8890
  6.9182   6.9365   6.9582   6.9989   7.0051   7.0508   7.0902   7.1186
  7.2009   7.2114   7.3151   7.4042   7.4214   7.4601   7.4986   7.6351
  7.7455   7.8101   8.1279   8.1741  25.0380  50.4311  50.5346  50.5485
 50.6907
 --------------------------------------------------------------
 
          Ground-State Mulliken Net Atomic Charges

     Atom                 Charge (a.u.)    Spin (a.u.)
  --------------------------------------------------------
      1 C                     0.212734      -0.673892
      2 O                    -0.239570      -0.000738
      3 O                    -0.339205      -0.181905
      4 O                     0.007649       0.956806
      5 O                    -0.004712       0.939658
      6 H                     0.363103      -0.039930
  --------------------------------------------------------
  Sum of atomic charges =    -0.000000
  Sum of spin   charges =     1.000000

 -----------------------------------------------------------------
                    Cartesian Multipole Moments
 -----------------------------------------------------------------
    Charge (ESU x 10^10)
                 0.0000
    Dipole Moment (Debye)
         X       1.1571      Y      -2.5382      Z       0.9546
       Tot       2.9483
    Quadrupole Moments (Debye-Ang)
        XX     -30.1492     XY       1.2110     YY     -20.1685
        XZ      -2.3316     YZ      -3.9606     ZZ     -31.4798
    Octopole Moments (Debye-Ang^2)
       XXX     120.1369    XXY       0.9608    XYY      34.3132
       YYY     -18.9742    XXZ     -28.5947    XYZ       4.0791
       YYZ     -26.2309    XZZ      42.1609    YZZ      -1.8113
       ZZZ    -113.6709
    Hexadecapole Moments (Debye-Ang^3)
      XXXX    -372.8114   XXXY      -1.1105   XXYY    -100.3255
      XYYY      15.5392   YYYY    -193.7734   XXXZ     108.9479
      XXYZ     -28.6047   XYYZ      34.6658   YYYZ     -94.7509
      XXZZ    -146.9123   XYZZ       0.8837   YYZZ    -121.9472
      XZZZ     130.7619   YZZZ     -77.0309   ZZZZ    -537.9127
 -----------------------------------------------------------------
 Calculating analytic gradient of the SCF energy
 Gradient of CDS energy
            1           2           3           4           5           6
    1   0.0005308  -0.0011040   0.0003360   0.0000829  -0.0000204   0.0001748
    2  -0.0015775   0.0015418   0.0000381   0.0002838   0.0001015  -0.0003876
    3   0.0001500  -0.0016849   0.0009695   0.0004207   0.0000156   0.0001290
 Gradient of SCF Energy
            1           2           3           4           5           6
    1   0.0003909  -0.0019185  -0.0032622  -0.0008110   0.0008222   0.0047787
    2  -0.0000805   0.0176811   0.0028734   0.0006398  -0.0005397  -0.0205741
    3   0.0015117   0.0105259  -0.0066073  -0.0018143   0.0017598  -0.0053758
 Max gradient component =       2.057E-02
 RMS gradient           =       7.362E-03
 Computing fast CPCM-SWIG gradient
 Updating gradient with PCM contributions...
 -- total gradient after adding PCM contribution --
---------------------------------------------------
  Atom         X              Y              Z     
---------------------------------------------------
   1      -0.000276       0.000105      -0.000502
   2       0.000159      -0.000185       0.000175
   3       0.000148       0.000057       0.000273
   4       0.000073      -0.000007       0.000098
   5      -0.000058       0.000073      -0.000117
   6      -0.000046      -0.000043       0.000073
---------------------------------------------------
 Number of fixed atoms: 0
 Gradient time:  CPU 30.06 s  wall 2.40 s
 ----------------------------------------------------------------
             Standard Nuclear Orientation (Angstroms)
    I     Atom           X                Y                Z
 ----------------------------------------------------------------
    1      C      -1.5116894000    -0.5623058000     0.5979298000
    2      O      -0.9394122000    -1.3084118000     1.5044541000
    3      O      -1.8451438000    -0.7730962000    -0.5197593000
    4      O      -1.6000247000     1.4841467000     1.8470778000
    5      O      -1.1368839000     1.3372906000     2.9483576000
    6      H      -0.7674142000    -2.2068134000     1.1580386000
 ----------------------------------------------------------------
 Nuclear Repulsion Energy =         154.15669473 hartrees
 There are       20 alpha and       19 beta electrons
 Discretize the solute cavity surface with Lebedev spheres
	Using 110 Lebedev grid points for each H atom
	Using 194 Lebedev grid points for other atoms
	Atomic van der Waals radii will be scaled by 1.20
 Remove points where switching function is < 1.0e-08
 Keep 698 surface tesserae and discard 382 interior tesserae
 Molecular Surface Area = 90.469 Angst**2

                       Distance Matrix (Angstroms)
             C (  1)   O (  2)   O (  3)   O (  4)   O (  5)
   O (  2)  1.306125
   O (  3)  1.185265  2.281305
   O (  4)  2.399196  2.890014  3.279809
   O (  5)  3.045235  3.020529  4.121068  1.203696
   H (  6)  1.889993  0.978117  2.456024  3.845933  3.987784
 
 Requested basis set is 6-311++G(2df,2p)
 There are 46 shells and 180 basis functions
 A cutoff of  1.0D-12 yielded    981 shell pairs
 There are     15336 function pairs (     19898 Cartesian)
 Smallest overlap matrix eigenvalue = 4.49E-04
 Guess MOs from SCF MO coefficient file

 -----------------------------------------------------------------------
  General SCF calculation program by
  Eric Jon Sundstrom, Paul Horn, Yuezhi Mao, Dmitri Zuev, Alec White,
  David Stuck, Shaama M.S., Shane Yost, Joonho Lee, David Small,
  Daniel Levine, Susi Lehtola, Hugh Burton, Evgeny Epifanovsky,
  Bang C. Huynh
 -----------------------------------------------------------------------
 Exchange:     0.1500 Hartree-Fock + 1.0000 wB97M-V + LR-HF
 Correlation:  1.0000 wB97M-V
 Using SG-2 standard quadrature grid
 Nonlocal Correlation:  VV10 with C = 0.0100 and b = 6.00 and scale = 1.00000
 Grid used for NLC:  SG-1 standard quadrature
 
 Citation of the SMD model:
 Marenich, A.V.; Cramer, C.J.; Truhlar, D.G.
 J. Phys. Chem. B 2009, 113, 6378-6396.
 iSolventCode=           1
 Solvent: water                                                           
 
 vradii
            1           2           3           4           5           6
    1   1.8500000   1.5200000   1.5200000   1.5200000   1.5200000   1.2000000
 -------------------------------------------------------
 OpenMP BLAS3 based DFT computing Module                
 Release: version 1.0, May 2013, Q-Chem Inc. Pittsburgh 
 -------------------------------------------------------
 A unrestricted SCF calculation will be
 performed using Roothaan-Hall, DIIS, GDM
 SCF converges when RMS gradient is below 1.0e-07
 ---------------------------------------
  Cycle       Energy         DIIS error
 ---------------------------------------
    1    -339.4404410811      2.97e-04  Roothaan Step
 ---------------------------------------
  Cycle       Energy         DIIS error
 ---------------------------------------
    1    -339.4544876169      3.59e-04  
    2    -339.4558540902      3.85e-04  Done DIIS. Switching to GDM
 ---------------------------------------
  Cycle       Energy        RMS Gradient
 ---------------------------------------
    1    -339.4558540902      1.56e-02   Normal BFGS step
    2    -339.4547858089      2.53e-02  Line search: overstep
    3    -339.4573597571      3.04e-03   Normal BFGS step
    4    -339.4574298119      1.38e-03   Normal BFGS step
    5    -339.4574380644      1.64e-03   Normal BFGS step
    6    -339.4574428230      4.55e-04   Normal BFGS step
    7    -339.4574433478      1.84e-04   Normal BFGS step
    8    -339.4574435185      1.23e-04   Normal BFGS step
    9    -339.4574435642      8.43e-05   Normal BFGS step
   10    -339.4574435780      2.38e-05   Normal BFGS step
   11    -339.4574435814      7.77e-06   Normal BFGS step
   12    -339.4574435818      4.96e-06   Normal BFGS step
   13    -339.4574435820      2.11e-06   Normal BFGS step
   14    -339.4574435820      5.90e-07   Normal BFGS step
   15    -339.4574435820      2.81e-07   Normal BFGS step
   16    -339.4574435820      1.07e-07   Normal BFGS step
   17    -339.4574435820      4.93e-08  Convergence criterion met
 ---------------------------------------
 SCF time:   CPU 236.39s  wall 15.00s 
<S^2> =          1.576182864
(3)  G-ENP(liq) elect-nuc-pol free energy of system     -339.457443582 a.u.
(4)  G-CDS(liq) cavity-dispersion-solvent structure 
     free energy                                                4.2645 kcal/mol
(6)  G-S(liq) free energy of system                     -339.450647608 a.u.
 SCF   energy in the final basis set =     -339.4506476078
 Total energy in the final basis set =     -339.4506476078
 
 --------------------------------------------------------------
 
                    Orbital Energies (a.u.)
 --------------------------------------------------------------
 
 Alpha MOs
 -- Occupied --
-19.4902 -19.4752 -19.4099 -19.3734 -10.4905  -1.4298  -1.2644  -1.1909
 -0.9551  -0.7574  -0.6707  -0.6697  -0.6584  -0.6336  -0.5834  -0.5821
 -0.4766  -0.4649  -0.4052  -0.3999
 -- Virtual --
 -0.0103   0.0513   0.0739   0.0818   0.0872   0.1132   0.1183   0.1562
  0.1799   0.2027   0.2205   0.2297   0.2345   0.2492   0.2629   0.2791
  0.3014   0.3131   0.3173   0.3236   0.3395   0.3700   0.3861   0.4055
  0.4249   0.4522   0.5496   0.6073   0.6217   0.7027   0.7193   0.7601
  0.7996   0.8352   0.8738   0.9872   1.0052   1.0082   1.0306   1.0481
  1.0770   1.0954   1.1049   1.1212   1.1367   1.1732   1.1777   1.1885
  1.1935   1.3326   1.3473   1.3686   1.4020   1.4091   1.4822   1.5086
  1.5407   1.5934   1.5976   1.6219   1.7152   1.7370   1.7570   1.8208
  1.8800   1.9974   2.0043   2.1368   2.2844   2.3012   2.3430   2.3459
  2.4284   2.4899   2.5552   2.6122   2.7697   2.8295   2.9406   3.0599
  3.0930   3.1833   3.2285   3.2901   3.4129   3.5021   3.5418   3.6154
  3.6304   3.6825   3.7824   3.8855   4.0123   4.1966   4.4013   4.5411
  4.5798   4.5824   4.6014   4.9034   4.9049   4.9166   4.9682   5.0271
  5.0741   5.0999   5.1108   5.1127   5.1283   5.1491   5.1569   5.1765
  5.1796   5.1902   5.2562   5.2690   5.2924   5.3314   5.4507   5.5079
  5.5651   5.5857   5.6185   5.7453   5.7530   6.0385   6.1378   6.5664
  6.6394   6.7064   6.7707   6.8070   6.8104   6.8210   6.8583   6.8770
  6.8955   6.9236   6.9375   6.9726   7.0130   7.0411   7.1125   7.2022
  7.2167   7.3170   7.3569   7.3817   7.4753   7.5136   7.6435   7.7574
  7.8227   8.0956   8.1297  25.0479  50.4091  50.5212  50.5417  50.6949
 
 Beta MOs
 -- Occupied --
-19.4616 -19.4469 -19.4126 -19.3795 -10.5019  -1.3768  -1.2752  -1.2031
 -0.8753  -0.7767  -0.6460  -0.6293  -0.6062  -0.5943  -0.5658  -0.5649
 -0.5003  -0.4681  -0.3253
 -- Virtual --
 -0.0121  -0.0105   0.0445   0.0720   0.0802   0.0894   0.0984   0.1191
  0.1586   0.1823   0.2094   0.2198   0.2332   0.2375   0.2526   0.2661
  0.2843   0.3030   0.3159   0.3196   0.3283   0.3437   0.3688   0.4032
  0.4105   0.4333   0.4500   0.5344   0.6027   0.6201   0.6933   0.7109
  0.7490   0.7844   0.8265   0.8613   0.9839   1.0081   1.0183   1.0378
  1.0805   1.0843   1.0993   1.1020   1.1407   1.1486   1.1731   1.1878
  1.1967   1.2158   1.3320   1.3804   1.3865   1.4186   1.4396   1.5052
  1.5268   1.5459   1.5896   1.5956   1.6398   1.7231   1.7576   1.7871
  1.8199   1.9033   1.9916   1.9984   2.1322   2.2779   2.3239   2.3537
  2.3755   2.4402   2.4751   2.5440   2.6297   2.7550   2.8110   2.8947
  3.0181   3.0679   3.1446   3.1955   3.2283   3.3905   3.4557   3.4918
  3.5826   3.6146   3.6582   3.7695   3.8488   3.9969   4.1815   4.3763
  4.5946   4.6262   4.6305   4.6495   4.9382   4.9808   4.9891   5.0599
  5.0959   5.1015   5.1076   5.1156   5.1479   5.1615   5.1735   5.1849
  5.2154   5.2352   5.2382   5.2488   5.2783   5.2933   5.3759   5.4408
  5.5009   5.5525   5.5812   5.6082   5.8026   5.8099   6.0159   6.1281
  6.5527   6.7548   6.7647   6.8321   6.8565   6.8704   6.8818   6.8889
  6.9182   6.9365   6.9580   6.9990   7.0050   7.0508   7.0898   7.1185
  7.2004   7.2116   7.3149   7.4042   7.4213   7.4607   7.4975   7.6355
  7.7450   7.8091   8.1279   8.1741  25.0371  50.4311  50.5343  50.5485
 50.6898
 --------------------------------------------------------------
 
          Ground-State Mulliken Net Atomic Charges

     Atom                 Charge (a.u.)    Spin (a.u.)
  --------------------------------------------------------
      1 C                     0.212923      -0.673809
      2 O                    -0.239790      -0.000771
      3 O                    -0.339593      -0.181985
      4 O                     0.007800       0.956717
      5 O                    -0.004560       0.939709
      6 H                     0.363220      -0.039861
  --------------------------------------------------------
  Sum of atomic charges =    -0.000000
  Sum of spin   charges =     1.000000

 -----------------------------------------------------------------
                    Cartesian Multipole Moments
 -----------------------------------------------------------------
    Charge (ESU x 10^10)
                 0.0000
    Dipole Moment (Debye)
         X       1.1587      Y      -2.5342      Z       0.9585
       Tot       2.9467
    Quadrupole Moments (Debye-Ang)
        XX     -30.1543     XY       1.2027     YY     -20.1697
        XZ      -2.3379     YZ      -3.9558     ZZ     -31.4740
    Octopole Moments (Debye-Ang^2)
       XXX     120.1344    XXY       0.9739    XYY      34.3143
       YYY     -18.9812    XXZ     -28.5832    XYZ       4.0721
       YYZ     -26.2247    XZZ      42.1465    YZZ      -1.8051
       ZZZ    -113.6483
    Hexadecapole Moments (Debye-Ang^3)
      XXXX    -372.7485   XXXY      -1.1196   XXYY    -100.3194
      XYYY      15.5507   YYYY    -193.7218   XXXZ     108.9122
      XXYZ     -28.5939   XYYZ      34.6569   YYYZ     -94.7493
      XXZZ    -146.8805   XYZZ       0.8820   YYZZ    -121.9225
      XZZZ     130.7180   YZZZ     -77.0068   ZZZZ    -537.8478
 -----------------------------------------------------------------
 Calculating analytic gradient of the SCF energy
 Gradient of CDS energy
            1           2           3           4           5           6
    1   0.0005289  -0.0011036   0.0003382   0.0000828  -0.0000206   0.0001743
    2  -0.0015828   0.0015460   0.0000396   0.0002835   0.0001015  -0.0003878
    3   0.0001474  -0.0016872   0.0009743   0.0004209   0.0000157   0.0001289
 Gradient of SCF Energy
            1           2           3           4           5           6
    1   0.0005440  -0.0019380  -0.0034589  -0.0008286   0.0008378   0.0048436
    2   0.0004182   0.0174820   0.0026220   0.0006364  -0.0005473  -0.0206113
    3   0.0021579   0.0104958  -0.0072632  -0.0018579   0.0017944  -0.0053270
 Max gradient component =       2.061E-02
 RMS gradient           =       7.385E-03
 Computing fast CPCM-SWIG gradient
 Updating gradient with PCM contributions...
 -- total gradient after adding PCM contribution --
---------------------------------------------------
  Atom         X              Y              Z     
---------------------------------------------------
   1      -0.000127       0.000594       0.000152
   2       0.000149      -0.000374       0.000157
   3      -0.000049      -0.000192      -0.000395
   4       0.000059      -0.000013       0.000066
   5      -0.000047       0.000067      -0.000093
   6       0.000014      -0.000082       0.000114
---------------------------------------------------
 Number of fixed atoms: 0
 Gradient time:  CPU 30.27 s  wall 2.41 s
 ----------------------------------------------------------------
             Standard Nuclear Orientation (Angstroms)
    I     Atom           X                Y                Z
 ----------------------------------------------------------------
    1      C      -1.5116894000    -0.5643058000     0.5979298000
    2      O      -0.9394122000    -1.3084118000     1.5044541000
    3      O      -1.8451438000    -0.7730962000    -0.5197593000
    4      O      -1.6000247000     1.4841467000     1.8470778000
    5      O      -1.1368839000     1.3372906000     2.9483576000
    6      H      -0.7674142000    -2.2068134000     1.1580386000
 ----------------------------------------------------------------
 Nuclear Repulsion Energy =         154.17071563 hartrees
 There are       20 alpha and       19 beta electrons
 Discretize the solute cavity surface with Lebedev spheres
	Using 110 Lebedev grid points for each H atom
	Using 194 Lebedev grid points for other atoms
	Atomic van der Waals radii will be scaled by 1.20
 Remove points where switching function is < 1.0e-08
 Keep 698 surface tesserae and discard 382 interior tesserae
 Molecular Surface Area = 90.471 Angst**2

                       Distance Matrix (Angstroms)
             C (  1)   O (  2)   O (  3)   O (  4)   O (  5)
   O (  2)  1.304983
   O (  3)  1.184911  2.281305
   O (  4)  2.400902  2.890014  3.279809
   O (  5)  3.046483  3.020529  4.121068  1.203696
   H (  6)  1.888253  0.978117  2.456024  3.845933  3.987784
 
 Requested basis set is 6-311++G(2df,2p)
 There are 46 shells and 180 basis functions
 A cutoff of  1.0D-12 yielded    981 shell pairs
 There are     15336 function pairs (     19898 Cartesian)
 Smallest overlap matrix eigenvalue = 4.49E-04
 Guess MOs from SCF MO coefficient file

 -----------------------------------------------------------------------
  General SCF calculation program by
  Eric Jon Sundstrom, Paul Horn, Yuezhi Mao, Dmitri Zuev, Alec White,
  David Stuck, Shaama M.S., Shane Yost, Joonho Lee, David Small,
  Daniel Levine, Susi Lehtola, Hugh Burton, Evgeny Epifanovsky,
  Bang C. Huynh
 -----------------------------------------------------------------------
 Exchange:     0.1500 Hartree-Fock + 1.0000 wB97M-V + LR-HF
 Correlation:  1.0000 wB97M-V
 Using SG-2 standard quadrature grid
 Nonlocal Correlation:  VV10 with C = 0.0100 and b = 6.00 and scale = 1.00000
 Grid used for NLC:  SG-1 standard quadrature
 
 Citation of the SMD model:
 Marenich, A.V.; Cramer, C.J.; Truhlar, D.G.
 J. Phys. Chem. B 2009, 113, 6378-6396.
 iSolventCode=           1
 Solvent: water                                                           
 
 vradii
            1           2           3           4           5           6
    1   1.8500000   1.5200000   1.5200000   1.5200000   1.5200000   1.2000000
 -------------------------------------------------------
 OpenMP BLAS3 based DFT computing Module                
 Release: version 1.0, May 2013, Q-Chem Inc. Pittsburgh 
 -------------------------------------------------------
 A unrestricted SCF calculation will be
 performed using Roothaan-Hall, DIIS, GDM
 SCF converges when RMS gradient is below 1.0e-07
 ---------------------------------------
  Cycle       Energy         DIIS error
 ---------------------------------------
    1    -339.4404212172      2.98e-04  Roothaan Step
 ---------------------------------------
  Cycle       Energy         DIIS error
 ---------------------------------------
    1    -339.4544882096      3.59e-04  
    2    -339.4558602500      3.85e-04  Done DIIS. Switching to GDM
 ---------------------------------------
  Cycle       Energy        RMS Gradient
 ---------------------------------------
    1    -339.4558602500      1.55e-02   Normal BFGS step
    2    -339.4547965030      2.52e-02  Line search: overstep
    3    -339.4573651113      3.04e-03   Normal BFGS step
    4    -339.4574355297      1.37e-03   Normal BFGS step
    5    -339.4574439032      1.64e-03   Normal BFGS step
    6    -339.4574486116      4.68e-04   Normal BFGS step
    7    -339.4574491611      1.97e-04   Normal BFGS step
    8    -339.4574493334      1.31e-04   Normal BFGS step
    9    -339.4574493827      8.71e-05   Normal BFGS step
   10    -339.4574493975      2.34e-05   Normal BFGS step
   11    -339.4574494009      7.98e-06   Normal BFGS step
   12    -339.4574494014      5.11e-06   Normal BFGS step
   13    -339.4574494015      2.21e-06   Normal BFGS step
   14    -339.4574494015      6.07e-07   Normal BFGS step
   15    -339.4574494016      2.90e-07   Normal BFGS step
   16    -339.4574494016      1.13e-07   Normal BFGS step
   17    -339.4574494016      5.10e-08  Convergence criterion met
 ---------------------------------------
 SCF time:   CPU 237.28s  wall 15.00s 
<S^2> =          1.576282511
(3)  G-ENP(liq) elect-nuc-pol free energy of system     -339.457449402 a.u.
(4)  G-CDS(liq) cavity-dispersion-solvent structure 
     free energy                                                4.2683 kcal/mol
(6)  G-S(liq) free energy of system                     -339.450647488 a.u.
 SCF   energy in the final basis set =     -339.4506474879
 Total energy in the final basis set =     -339.4506474879
 
 --------------------------------------------------------------
 
                    Orbital Energies (a.u.)
 --------------------------------------------------------------
 
 Alpha MOs
 -- Occupied --
-19.4900 -19.4751 -19.4101 -19.3733 -10.4904  -1.4297  -1.2648  -1.1913
 -0.9550  -0.7576  -0.6706  -0.6696  -0.6583  -0.6338  -0.5837  -0.5824
 -0.4768  -0.4651  -0.4051  -0.3999
 -- Virtual --
 -0.0099   0.0514   0.0739   0.0818   0.0872   0.1134   0.1183   0.1562
  0.1798   0.2027   0.2204   0.2297   0.2345   0.2492   0.2630   0.2791
  0.3014   0.3131   0.3174   0.3236   0.3394   0.3699   0.3861   0.4055
  0.4251   0.4524   0.5501   0.6073   0.6218   0.7026   0.7188   0.7606
  0.7995   0.8356   0.8736   0.9875   1.0053   1.0083   1.0307   1.0481
  1.0771   1.0953   1.1049   1.1212   1.1367   1.1731   1.1776   1.1885
  1.1937   1.3331   1.3473   1.3687   1.4021   1.4090   1.4822   1.5087
  1.5404   1.5941   1.5977   1.6223   1.7156   1.7370   1.7568   1.8210
  1.8799   1.9982   2.0048   2.1377   2.2843   2.3014   2.3430   2.3461
  2.4287   2.4900   2.5557   2.6122   2.7698   2.8297   2.9402   3.0596
  3.0936   3.1827   3.2282   3.2899   3.4130   3.5020   3.5420   3.6148
  3.6314   3.6822   3.7825   3.8877   4.0118   4.1968   4.4035   4.5412
  4.5799   4.5825   4.6014   4.9035   4.9050   4.9166   4.9682   5.0272
  5.0741   5.0997   5.1109   5.1127   5.1284   5.1492   5.1569   5.1767
  5.1797   5.1901   5.2577   5.2694   5.2921   5.3315   5.4510   5.5096
  5.5648   5.5855   5.6207   5.7454   5.7531   6.0418   6.1409   6.5704
  6.6396   6.7065   6.7739   6.8071   6.8105   6.8212   6.8587   6.8771
  6.8960   6.9242   6.9375   6.9727   7.0132   7.0410   7.1134   7.2033
  7.2164   7.3177   7.3572   7.3819   7.4741   7.5173   7.6424   7.7580
  7.8253   8.0957   8.1297  25.0503  50.4092  50.5214  50.5429  50.6961
 
 Beta MOs
 -- Occupied --
-19.4615 -19.4467 -19.4128 -19.3795 -10.5017  -1.3767  -1.2757  -1.2035
 -0.8752  -0.7769  -0.6461  -0.6293  -0.6063  -0.5946  -0.5658  -0.5648
 -0.5005  -0.4683  -0.3248
 -- Virtual --
 -0.0120  -0.0105   0.0445   0.0720   0.0803   0.0894   0.0985   0.1191
  0.1586   0.1823   0.2094   0.2198   0.2332   0.2375   0.2526   0.2661
  0.2843   0.3030   0.3159   0.3196   0.3282   0.3436   0.3687   0.4034
  0.4104   0.4335   0.4501   0.5350   0.6025   0.6201   0.6932   0.7104
  0.7494   0.7842   0.8269   0.8612   0.9843   1.0082   1.0184   1.0379
  1.0805   1.0844   1.0992   1.1020   1.1408   1.1486   1.1730   1.1878
  1.1967   1.2159   1.3325   1.3804   1.3867   1.4184   1.4397   1.5053
  1.5269   1.5455   1.5898   1.5961   1.6401   1.7233   1.7575   1.7871
  1.8201   1.9034   1.9923   1.9990   2.1331   2.2778   2.3240   2.3540
  2.3756   2.4403   2.4753   2.5444   2.6297   2.7551   2.8112   2.8943
  3.0178   3.0684   3.1442   3.1952   3.2282   3.3908   3.4555   3.4921
  3.5819   3.6156   3.6579   3.7696   3.8511   3.9965   4.1818   4.3784
  4.5947   4.6263   4.6306   4.6495   4.9382   4.9809   4.9891   5.0599
  5.0959   5.1014   5.1077   5.1157   5.1480   5.1617   5.1736   5.1849
  5.2156   5.2354   5.2382   5.2502   5.2782   5.2932   5.3760   5.4411
  5.5027   5.5523   5.5810   5.6103   5.8027   5.8100   6.0190   6.1313
  6.5569   6.7581   6.7648   6.8321   6.8566   6.8718   6.8819   6.8891
  6.9181   6.9366   6.9584   6.9989   7.0051   7.0509   7.0904   7.1187
  7.2014   7.2113   7.3157   7.4043   7.4216   7.4597   7.5009   7.6345
  7.7456   7.8115   8.1279   8.1742  25.0395  50.4312  50.5354  50.5488
 50.6910
 --------------------------------------------------------------
 
          Ground-State Mulliken Net Atomic Charges

     Atom                 Charge (a.u.)    Spin (a.u.)
  --------------------------------------------------------
      1 C                     0.212457      -0.673970
      2 O                    -0.238393      -0.000454
      3 O                    -0.339572      -0.181841
      4 O                     0.007457       0.956848
      5 O                    -0.004992       0.939508
      6 H                     0.363043      -0.040091
  --------------------------------------------------------
  Sum of atomic charges =    -0.000000
  Sum of spin   charges =     1.000000

 -----------------------------------------------------------------
                    Cartesian Multipole Moments
 -----------------------------------------------------------------
    Charge (ESU x 10^10)
                -0.0000
    Dipole Moment (Debye)
         X       1.1618      Y      -2.5472      Z       0.9581
       Tot       2.9590
    Quadrupole Moments (Debye-Ang)
        XX     -30.1607     XY       1.2186     YY     -20.1633
        XZ      -2.3335     YZ      -3.9789     ZZ     -31.4800
    Octopole Moments (Debye-Ang^2)
       XXX     120.1495    XXY       0.9572    XYY      34.3069
       YYY     -18.9846    XXZ     -28.5923    XYZ       4.1005
       YYZ     -26.2225    XZZ      42.1599    YZZ      -1.8421
       ZZZ    -113.6767
    Hexadecapole Moments (Debye-Ang^3)
      XXXX    -372.7876   XXXY      -1.1175   XXYY    -100.3204
      XYYY      15.5510   YYYY    -193.8017   XXXZ     108.9361
      XXYZ     -28.6374   XYYZ      34.6536   YYYZ     -94.8000
      XXZZ    -146.9044   XYZZ       0.9197   YYZZ    -121.9575
      XZZZ     130.7649   YZZZ     -77.1251   ZZZZ    -537.9717
 -----------------------------------------------------------------
 Calculating analytic gradient of the SCF energy
 Gradient of CDS energy
            1           2           3           4           5           6
    1   0.0005168  -0.0010901   0.0003370   0.0000827  -0.0000207   0.0001743
    2  -0.0015603   0.0015238   0.0000377   0.0002840   0.0001020  -0.0003872
    3   0.0001306  -0.0016663   0.0009705   0.0004206   0.0000157   0.0001289
 Gradient of SCF Energy
            1           2           3           4           5           6
    1   0.0008174  -0.0021946  -0.0033625  -0.0007895   0.0007966   0.0047326
    2  -0.0008540   0.0181797   0.0030344   0.0006636  -0.0005331  -0.0204905
    3   0.0018799   0.0103184  -0.0066811  -0.0017393   0.0016977  -0.0054756
 Max gradient component =       2.049E-02
 RMS gradient           =       7.424E-03
 Computing fast CPCM-SWIG gradient
 Updating gradient with PCM contributions...
 -- total gradient after adding PCM contribution --
---------------------------------------------------
  Atom         X              Y              Z     
---------------------------------------------------
   1       0.000147      -0.000657      -0.000124
   2      -0.000114       0.000291      -0.000054
   3       0.000058       0.000201       0.000206
   4       0.000090       0.000018       0.000165
   5      -0.000080       0.000078      -0.000171
   6      -0.000102       0.000069      -0.000022
---------------------------------------------------
 Number of fixed atoms: 0
 Gradient time:  CPU 30.86 s  wall 2.53 s
 ----------------------------------------------------------------
             Standard Nuclear Orientation (Angstroms)
    I     Atom           X                Y                Z
 ----------------------------------------------------------------
    1      C      -1.5116894000    -0.5633058000     0.5989298000
    2      O      -0.9394122000    -1.3084118000     1.5044541000
    3      O      -1.8451438000    -0.7730962000    -0.5197593000
    4      O      -1.6000247000     1.4841467000     1.8470778000
    5      O      -1.1368839000     1.3372906000     2.9483576000
    6      H      -0.7674142000    -2.2068134000     1.1580386000
 ----------------------------------------------------------------
 Nuclear Repulsion Energy =         154.16168788 hartrees
 There are       20 alpha and       19 beta electrons
 Discretize the solute cavity surface with Lebedev spheres
	Using 110 Lebedev grid points for each H atom
	Using 194 Lebedev grid points for other atoms
	Atomic van der Waals radii will be scaled by 1.20
 Remove points where switching function is < 1.0e-08
 Keep 698 surface tesserae and discard 382 interior tesserae
 Molecular Surface Area = 90.465 Angst**2

                       Distance Matrix (Angstroms)
             C (  1)   O (  2)   O (  3)   O (  4)   O (  5)
   O (  2)  1.304860
   O (  3)  1.186031  2.281305
   O (  4)  2.399529  2.890014  3.279809
   O (  5)  3.045087  3.020529  4.121068  1.203696
   H (  6)  1.888826  0.978117  2.456024  3.845933  3.987784
 
 Requested basis set is 6-311++G(2df,2p)
 There are 46 shells and 180 basis functions
 A cutoff of  1.0D-12 yielded    981 shell pairs
 There are     15336 function pairs (     19898 Cartesian)
 Smallest overlap matrix eigenvalue = 4.48E-04
 Guess MOs from SCF MO coefficient file

 -----------------------------------------------------------------------
  General SCF calculation program by
  Eric Jon Sundstrom, Paul Horn, Yuezhi Mao, Dmitri Zuev, Alec White,
  David Stuck, Shaama M.S., Shane Yost, Joonho Lee, David Small,
  Daniel Levine, Susi Lehtola, Hugh Burton, Evgeny Epifanovsky,
  Bang C. Huynh
 -----------------------------------------------------------------------
 Exchange:     0.1500 Hartree-Fock + 1.0000 wB97M-V + LR-HF
 Correlation:  1.0000 wB97M-V
 Using SG-2 standard quadrature grid
 Nonlocal Correlation:  VV10 with C = 0.0100 and b = 6.00 and scale = 1.00000
 Grid used for NLC:  SG-1 standard quadrature
 
 Citation of the SMD model:
 Marenich, A.V.; Cramer, C.J.; Truhlar, D.G.
 J. Phys. Chem. B 2009, 113, 6378-6396.
 iSolventCode=           1
 Solvent: water                                                           
 
 vradii
            1           2           3           4           5           6
    1   1.8500000   1.5200000   1.5200000   1.5200000   1.5200000   1.2000000
 -------------------------------------------------------
 OpenMP BLAS3 based DFT computing Module                
 Release: version 1.0, May 2013, Q-Chem Inc. Pittsburgh 
 -------------------------------------------------------
 A unrestricted SCF calculation will be
 performed using Roothaan-Hall, DIIS, GDM
 SCF converges when RMS gradient is below 1.0e-07
 ---------------------------------------
  Cycle       Energy         DIIS error
 ---------------------------------------
    1    -339.4403953025      2.98e-04  Roothaan Step
 ---------------------------------------
  Cycle       Energy         DIIS error
 ---------------------------------------
    1    -339.4544610044      3.61e-04  
    2    -339.4558235358      3.89e-04  Done DIIS. Switching to GDM
 ---------------------------------------
  Cycle       Energy        RMS Gradient
 ---------------------------------------
    1    -339.4558235358      1.58e-02   Normal BFGS step
    2    -339.4547264982      2.57e-02  Line search: overstep
    3    -339.4573611605      3.06e-03   Normal BFGS step
    4    -339.4574319239      1.39e-03   Normal BFGS step
    5    -339.4574402598      1.65e-03   Normal BFGS step
    6    -339.4574450190      4.64e-04   Normal BFGS step
    7    -339.4574455537      1.81e-04   Normal BFGS step
    8    -339.4574457208      1.22e-04   Normal BFGS step
    9    -339.4574457656      8.46e-05   Normal BFGS step
   10    -339.4574457788      2.54e-05   Normal BFGS step
   11    -339.4574457822      7.67e-06   Normal BFGS step
   12    -339.4574457827      4.99e-06   Normal BFGS step
   13    -339.4574457828      2.15e-06   Normal BFGS step
   14    -339.4574457828      6.05e-07   Normal BFGS step
   15    -339.4574457829      2.80e-07   Normal BFGS step
   16    -339.4574457829      1.05e-07   Normal BFGS step
   17    -339.4574457829      4.92e-08  Convergence criterion met
 ---------------------------------------
 SCF time:   CPU 235.83s  wall 14.00s 
<S^2> =          1.576126804
(3)  G-ENP(liq) elect-nuc-pol free energy of system     -339.457445783 a.u.
(4)  G-CDS(liq) cavity-dispersion-solvent structure 
     free energy                                                4.2666 kcal/mol
(6)  G-S(liq) free energy of system                     -339.450646589 a.u.
 SCF   energy in the final basis set =     -339.4506465893
 Total energy in the final basis set =     -339.4506465893
 
 --------------------------------------------------------------
 
                    Orbital Energies (a.u.)
 --------------------------------------------------------------
 
 Alpha MOs
 -- Occupied --
-19.4901 -19.4751 -19.4102 -19.3732 -10.4905  -1.4298  -1.2646  -1.1908
 -0.9550  -0.7578  -0.6707  -0.6696  -0.6584  -0.6336  -0.5835  -0.5822
 -0.4765  -0.4649  -0.4052  -0.3999
 -- Virtual --
 -0.0102   0.0513   0.0739   0.0818   0.0872   0.1132   0.1183   0.1562
  0.1799   0.2027   0.2204   0.2297   0.2345   0.2492   0.2630   0.2791
  0.3014   0.3131   0.3173   0.3236   0.3395   0.3700   0.3861   0.4055
  0.4250   0.4525   0.5496   0.6072   0.6218   0.7025   0.7190   0.7603
  0.7992   0.8355   0.8736   0.9873   1.0053   1.0084   1.0306   1.0481
  1.0771   1.0954   1.1050   1.1213   1.1367   1.1731   1.1777   1.1885
  1.1936   1.3329   1.3473   1.3685   1.4020   1.4090   1.4822   1.5086
  1.5406   1.5936   1.5976   1.6220   1.7153   1.7370   1.7568   1.8207
  1.8799   1.9972   2.0045   2.1370   2.2843   2.3013   2.3430   2.3462
  2.4286   2.4899   2.5550   2.6122   2.7700   2.8296   2.9404   3.0599
  3.0935   3.1828   3.2286   3.2901   3.4134   3.5023   3.5425   3.6152
  3.6299   3.6824   3.7824   3.8870   4.0114   4.1964   4.4017   4.5412
  4.5799   4.5824   4.6014   4.9035   4.9049   4.9167   4.9682   5.0271
  5.0741   5.0998   5.1110   5.1127   5.1284   5.1492   5.1569   5.1765
  5.1796   5.1902   5.2568   5.2690   5.2921   5.3314   5.4505   5.5084
  5.5647   5.5856   5.6193   5.7453   5.7530   6.0398   6.1398   6.5658
  6.6394   6.7065   6.7719   6.8071   6.8105   6.8211   6.8581   6.8771
  6.8952   6.9235   6.9371   6.9726   7.0129   7.0411   7.1122   7.2023
  7.2166   7.3174   7.3570   7.3819   7.4753   7.5155   7.6431   7.7569
  7.8234   8.0956   8.1297  25.0490  50.4091  50.5213  50.5425  50.6939
 
 Beta MOs
 -- Occupied --
-19.4616 -19.4468 -19.4129 -19.3794 -10.5019  -1.3768  -1.2755  -1.2030
 -0.8753  -0.7771  -0.6460  -0.6292  -0.6062  -0.5944  -0.5658  -0.5649
 -0.5001  -0.4681  -0.3252
 -- Virtual --
 -0.0121  -0.0105   0.0445   0.0720   0.0802   0.0894   0.0984   0.1191
  0.1586   0.1823   0.2094   0.2198   0.2332   0.2375   0.2526   0.2661
  0.2843   0.3030   0.3159   0.3196   0.3283   0.3437   0.3688   0.4034
  0.4104   0.4335   0.4502   0.5344   0.6025   0.6201   0.6931   0.7106
  0.7492   0.7841   0.8267   0.8612   0.9839   1.0083   1.0185   1.0379
  1.0805   1.0844   1.0993   1.1021   1.1408   1.1487   1.1730   1.1878
  1.1967   1.2158   1.3323   1.3804   1.3863   1.4185   1.4396   1.5052
  1.5268   1.5457   1.5896   1.5958   1.6399   1.7231   1.7574   1.7871
  1.8198   1.9033   1.9914   1.9986   2.1324   2.2779   2.3239   2.3542
  2.3755   2.4402   2.4752   2.5437   2.6297   2.7553   2.8110   2.8945
  3.0181   3.0685   3.1441   3.1956   3.2283   3.3910   3.4558   3.4926
  3.5823   3.6140   3.6580   3.7695   3.8504   3.9959   4.1813   4.3767
  4.5946   4.6263   4.6305   4.6495   4.9382   4.9808   4.9891   5.0599
  5.0959   5.1015   5.1076   5.1158   5.1479   5.1616   5.1735   5.1849
  5.2155   5.2352   5.2382   5.2493   5.2782   5.2931   5.3759   5.4406
  5.5014   5.5522   5.5810   5.6090   5.8026   5.8099   6.0171   6.1302
  6.5521   6.7561   6.7647   6.8321   6.8565   6.8698   6.8818   6.8888
  6.9179   6.9365   6.9580   6.9990   7.0049   7.0508   7.0895   7.1185
  7.2004   7.2116   7.3153   7.4042   7.4215   7.4609   7.4992   7.6351
  7.7445   7.8097   8.1279   8.1741  25.0383  50.4312  50.5350  50.5487
 50.6889
 --------------------------------------------------------------
 
          Ground-State Mulliken Net Atomic Charges

     Atom                 Charge (a.u.)    Spin (a.u.)
  --------------------------------------------------------
      1 C                     0.212685      -0.673894
      2 O                    -0.238380      -0.000410
      3 O                    -0.340620      -0.182030
      4 O                     0.007745       0.956705
      5 O                    -0.004723       0.939639
      6 H                     0.363293      -0.040009
  --------------------------------------------------------
  Sum of atomic charges =    -0.000000
  Sum of spin   charges =     1.000000

 -----------------------------------------------------------------
                    Cartesian Multipole Moments
 -----------------------------------------------------------------
    Charge (ESU x 10^10)
                -0.0000
    Dipole Moment (Debye)
         X       1.1648      Y      -2.5421      Z       0.9704
       Tot       2.9598
    Quadrupole Moments (Debye-Ang)
        XX     -30.1714     XY       1.2086     YY     -20.1596
        XZ      -2.3508     YZ      -3.9761     ZZ     -31.4640
    Octopole Moments (Debye-Ang^2)
       XXX     120.1857    XXY       0.9731    XYY      34.3088
       YYY     -18.9942    XXZ     -28.5650    XYZ       4.0960
       YYZ     -26.2049    XZZ      42.1403    YZZ      -1.8313
       ZZZ    -113.6373
    Hexadecapole Moments (Debye-Ang^3)
      XXXX    -372.9018   XXXY      -1.1450   XXYY    -100.3231
      XYYY      15.5504   YYYY    -193.7121   XXXZ     108.8904
      XXYZ     -28.6305   XYYZ      34.6347   YYYZ     -94.7972
      XXZZ    -146.8789   XYZZ       0.9073   YYZZ    -121.9109
      XZZZ     130.7146   YZZZ     -77.0716   ZZZZ    -537.8642
 -----------------------------------------------------------------
 Calculating analytic gradient of the SCF energy
 Gradient of CDS energy
            1           2           3           4           5           6
    1   0.0005118  -0.0010885   0.0003406   0.0000828  -0.0000207   0.0001741
    2  -0.0015631   0.0015240   0.0000404   0.0002837   0.0001023  -0.0003873
    3   0.0001141  -0.0016617   0.0009830   0.0004207   0.0000158   0.0001281
 Gradient of SCF Energy
            1           2           3           4           5           6
    1   0.0011856  -0.0022068  -0.0037746  -0.0008249   0.0008288   0.0047919
    2  -0.0000822   0.0179839   0.0025512   0.0006645  -0.0005520  -0.0205654
    3   0.0036071   0.0101026  -0.0082701  -0.0018308   0.0017684  -0.0053772
[...]
  5.0773   5.0981   5.1119   5.1197   5.1311   5.1572   5.1633   5.1778
  5.1796   5.2039   5.2562   5.2717   5.2935   5.3461   5.4448   5.5090
  5.5556   5.5865   5.6209   5.7604   5.7709   6.0427   6.1376   6.5593
  6.6469   6.7183   6.7659   6.8169   6.8282   6.8446   6.8672   6.8762
  6.8903   6.9180   6.9372   6.9820   7.0131   7.0724   7.1175   7.2040
  7.2141   7.3193   7.3647   7.3971   7.4841   7.5280   7.6451   7.7545
  7.8280   8.1164   8.1558  25.0412  50.4188  50.5385  50.5518  50.6883
 
 Beta MOs
 -- Occupied --
-19.4614 -19.4418 -19.4149 -19.3801 -10.5066  -1.3805  -1.2764  -1.2034
 -0.8745  -0.7798  -0.6468  -0.6326  -0.6054  -0.5958  -0.5672  -0.5656
 -0.4999  -0.4688  -0.3230
 -- Virtual --
 -0.0099  -0.0083   0.0451   0.0720   0.0800   0.0889   0.0970   0.1193
  0.1594   0.1835   0.2107   0.2201   0.2327   0.2383   0.2534   0.2671
  0.2859   0.3013   0.3160   0.3206   0.3296   0.3441   0.3708   0.4044
  0.4124   0.4367   0.4528   0.5345   0.6035   0.6211   0.6919   0.7079
  0.7530   0.7961   0.8264   0.8684   0.9811   1.0070   1.0162   1.0383
  1.0836   1.0883   1.0991   1.1060   1.1442   1.1495   1.1718   1.1941
  1.1989   1.2158   1.3328   1.3829   1.3853   1.4237   1.4442   1.5122
  1.5287   1.5477   1.5906   1.5948   1.6589   1.7284   1.7606   1.7884
  1.8245   1.9258   1.9904   1.9981   2.1349   2.2838   2.3343   2.3604
  2.3823   2.4517   2.4997   2.5579   2.6345   2.7610   2.8115   2.8945
  3.0287   3.0692   3.1391   3.1947   3.2319   3.3881   3.4692   3.5061
  3.5851   3.6093   3.6581   3.7695   3.8545   3.9922   4.1839   4.3791
  4.6017   4.6301   4.6361   4.6579   4.9442   4.9796   4.9903   5.0618
  5.0957   5.1013   5.1100   5.1161   5.1491   5.1647   5.1838   5.1864
  5.2200   5.2377   5.2431   5.2492   5.2832   5.3015   5.3894   5.4355
  5.5023   5.5439   5.5821   5.6111   5.8164   5.8263   6.0208   6.1287
  6.5458   6.7511   6.7689   6.8412   6.8567   6.8668   6.9013   6.9071
  6.9183   6.9410   6.9428   7.0047   7.0109   7.0602   7.0942   7.1510
  7.2026   7.2095   7.3177   7.4105   7.4328   7.4704   7.5136   7.6385
  7.7429   7.8153   8.1515   8.1957  25.0309  50.4401  50.5397  50.5700
 50.6836
 --------------------------------------------------------------
 
          Ground-State Mulliken Net Atomic Charges

     Atom                 Charge (a.u.)    Spin (a.u.)
  --------------------------------------------------------
      1 C                     0.226719      -0.641841
      2 O                    -0.237968      -0.001385
      3 O                    -0.342623      -0.169740
      4 O                     0.006299       0.932177
      5 O                    -0.017732       0.917511
      6 H                     0.365305      -0.036722
  --------------------------------------------------------
  Sum of atomic charges =    -0.000000
  Sum of spin   charges =     1.000000

 -----------------------------------------------------------------
                    Cartesian Multipole Moments
 -----------------------------------------------------------------
    Charge (ESU x 10^10)
                -0.0000
    Dipole Moment (Debye)
         X       1.1566      Y      -2.7437      Z       0.8181
       Tot       3.0879
    Quadrupole Moments (Debye-Ang)
        XX     -30.1453     XY       1.5162     YY     -20.2419
        XZ      -2.2126     YZ      -4.2932     ZZ     -31.9794
    Octopole Moments (Debye-Ang^2)
       XXX     120.0354    XXY       0.4964    XYY      34.3038
       YYY     -19.5143    XXZ     -28.6844    XYZ       4.4908
       YYZ     -26.7663    XZZ      42.5479    YZZ      -2.9510
       ZZZ    -115.7205
    Hexadecapole Moments (Debye-Ang^3)
      XXXX    -372.3057   XXXY       0.0738   XXYY     -98.6232
      XYYY      16.9217   YYYY    -184.6893   XXXZ     109.0465
      XXYZ     -27.6241   XYYZ      35.3613   YYYZ     -91.3652
      XXZZ    -145.8580   XYZZ       2.5808   YYZZ    -120.4119
      XZZZ     133.0408   YZZZ     -75.4577   ZZZZ    -536.6671
 -----------------------------------------------------------------
 Calculating analytic gradient of the SCF energy
 Gradient of CDS energy
            1           2           3           4           5           6
    1   0.0004548  -0.0010544   0.0003644   0.0000881  -0.0000229   0.0001701
    2  -0.0015446   0.0015259   0.0000311   0.0002717   0.0001059  -0.0003899
    3  -0.0000019  -0.0015897   0.0010244   0.0004286   0.0000149   0.0001237
 Gradient of SCF Energy
            1           2           3           4           5           6
    1   0.0030202  -0.0014324  -0.0063003   0.0049779  -0.0048290   0.0045636
    2   0.0011907   0.0163435   0.0007459   0.0001765   0.0014767  -0.0199333
    3   0.0097460   0.0107030  -0.0165924   0.0129251  -0.0115180  -0.0052637
 Max gradient component =       1.993E-02
 RMS gradient           =       9.430E-03
 Computing fast CPCM-SWIG gradient
 Updating gradient with PCM contributions...
 -- total gradient after adding PCM contribution --
---------------------------------------------------
  Atom         X              Y              Z     
---------------------------------------------------
   1       0.002254       0.001281       0.007572
   2       0.000450      -0.001961      -0.000216
   3      -0.002678      -0.002167      -0.009262
   4       0.005698      -0.000489       0.014418
   5      -0.005545       0.002067      -0.013047
   6      -0.000179       0.001269       0.000536
---------------------------------------------------
 Number of fixed atoms: 0
 Gradient time:  CPU 31.60 s  wall 2.57 s
rPathMan2.  file_steps = 952
 IRC --- Status = 3.  Assess initial corrector step
 IRC --- bisector search: b =  0.000000 E =     -339.450847 G.B =  -0.011210
 IRC --- bisector search: b =  0.034589 E =     -339.450682 G.B =   0.021563
 IRC --- performed gradient/energy interpolation
 IRC --- bisector search:  estimate b(min) =   1.214384361166941E-002
 ----------------------------------------------------------------
             Standard Nuclear Orientation (Angstroms)
    I     Atom           X                Y                Z
 ----------------------------------------------------------------
    1      C      -1.5005229232    -0.5448318585     0.6233430742
    2      O      -0.9346770396    -1.3004500536     1.5160443000
    3      O      -1.8494639198    -0.7294831870    -0.4923416308
    4      O      -1.6013437516     1.4292834426     1.8064887864
    5      O      -1.1418973947     1.3138319403     2.9204074553
    6      H      -0.7726628839    -2.1985405945     1.1621557982
 ----------------------------------------------------------------
 Nuclear Repulsion Energy =         155.79374489 hartrees
 There are       20 alpha and       19 beta electrons
 Discretize the solute cavity surface with Lebedev spheres
	Using 110 Lebedev grid points for each H atom
	Using 194 Lebedev grid points for other atoms
	Atomic van der Waals radii will be scaled by 1.20
 Remove points where switching function is < 1.0e-08
 Keep 696 surface tesserae and discard 384 interior tesserae
 Molecular Surface Area = 89.178 Angst**2

                       Distance Matrix (Angstroms)
             C (  1)   O (  2)   O (  3)   O (  4)   O (  5)
   O (  2)  1.299252
   O (  3)  1.183473  2.279573
   O (  4)  2.303721  2.824933  3.163299
   O (  5)  2.976533  2.974836  4.040129  1.210469
   H (  6)  1.885432  0.978801  2.460689  3.776637  3.945192
 
 Applying Cartesian multipole field
    Component          Value
    ---------          -----
     (2,0,0)        1.00000E-11
     (0,2,0)        2.00000E-11
     (0,0,2)       -3.00000E-11
 Nucleus-field energy     =    -0.0000000059 hartrees
 Requested basis set is 6-311++G(2df,2p)
 There are 46 shells and 180 basis functions
 A cutoff of  1.0D-12 yielded    986 shell pairs
 There are     15420 function pairs (     20010 Cartesian)
 Smallest overlap matrix eigenvalue = 4.47E-04
 Guess MOs from SCF MO coefficient file

 -----------------------------------------------------------------------
  General SCF calculation program by
  Eric Jon Sundstrom, Paul Horn, Yuezhi Mao, Dmitri Zuev, Alec White,
  David Stuck, Shaama M.S., Shane Yost, Joonho Lee, David Small,
  Daniel Levine, Susi Lehtola, Hugh Burton, Evgeny Epifanovsky,
  Bang C. Huynh
 -----------------------------------------------------------------------
 Exchange:     0.1500 Hartree-Fock + 1.0000 wB97M-V + LR-HF
 Correlation:  1.0000 wB97M-V
 Using SG-2 standard quadrature grid
 Nonlocal Correlation:  VV10 with C = 0.0100 and b = 6.00 and scale = 1.00000
 Grid used for NLC:  SG-1 standard quadrature
 
 Citation of the SMD model:
 Marenich, A.V.; Cramer, C.J.; Truhlar, D.G.
 J. Phys. Chem. B 2009, 113, 6378-6396.
 iSolventCode=           1
 Solvent: water                                                           
 
 vradii
            1           2           3           4           5           6
    1   1.8500000   1.5200000   1.5200000   1.5200000   1.5200000   1.2000000
 -------------------------------------------------------
 OpenMP BLAS3 based DFT computing Module                
 Release: version 1.0, May 2013, Q-Chem Inc. Pittsburgh 
 -------------------------------------------------------
 A unrestricted SCF calculation will be
 performed using Roothaan-Hall, DIIS, GDM
 SCF converges when RMS gradient is below 1.0e-07
 ---------------------------------------
  Cycle       Energy         DIIS error
 ---------------------------------------
    1    -339.4398100317      3.24e-04  Roothaan Step
 ---------------------------------------
  Cycle       Energy         DIIS error
 ---------------------------------------
    1    -339.4545347141      3.63e-04  
    2    -339.4560022354      3.85e-04  Done DIIS. Switching to GDM
 ---------------------------------------
  Cycle       Energy        RMS Gradient
 ---------------------------------------
    1    -339.4560022354      1.50e-02   Normal BFGS step
    2    -339.4549309981      2.49e-02  Line search: overstep
    3    -339.4575163305      4.32e-03   Normal BFGS step
    4    -339.4576004530      2.79e-03   Normal BFGS step
    5    -339.4576165335      2.13e-03   Normal BFGS step
    6    -339.4576265108      6.63e-04   Normal BFGS step
    7    -339.4576288326      6.95e-04   Normal BFGS step
    8    -339.4576301657      2.50e-04   Normal BFGS step
    9    -339.4576304716      6.01e-05   Normal BFGS step
   10    -339.4576304994      2.78e-05   Normal BFGS step
   11    -339.4576305076      2.37e-05   Normal BFGS step
   12    -339.4576305085      8.22e-06   Normal BFGS step
   13    -339.4576305087      1.62e-06   Normal BFGS step
   14    -339.4576305087      7.97e-07   Normal BFGS step
   15    -339.4576305087      3.01e-07   Normal BFGS step
   16    -339.4576305087      8.30e-08  Convergence criterion met
 ---------------------------------------
 SCF time:   CPU 226.76s  wall 14.00s 
<S^2> =          1.479408529
(3)  G-ENP(liq) elect-nuc-pol free energy of system     -339.457630509 a.u.
(4)  G-CDS(liq) cavity-dispersion-solvent structure 
     free energy                                                4.2126 kcal/mol
(6)  G-S(liq) free energy of system                     -339.450917341 a.u.
 SCF   energy in the final basis set =     -339.4509173412
 Total energy in the final basis set =     -339.4509173412
 
 --------------------------------------------------------------
 
                    Orbital Energies (a.u.)
 --------------------------------------------------------------
 
 Alpha MOs
 -- Occupied --
-19.4889 -19.4675 -19.4132 -19.3756 -10.4968  -1.4201  -1.2694  -1.1955
 -0.9531  -0.7627  -0.6662  -0.6639  -0.6533  -0.6357  -0.5876  -0.5842
 -0.4801  -0.4674  -0.4034  -0.3960
 -- Virtual --
 -0.0077   0.0519   0.0735   0.0821   0.0865   0.1112   0.1185   0.1566
  0.1814   0.2043   0.2199   0.2294   0.2355   0.2501   0.2643   0.2809
  0.2992   0.3131   0.3177   0.3251   0.3391   0.3712   0.3844   0.4054
  0.4254   0.4546   0.5506   0.6077   0.6225   0.6999   0.7146   0.7668
  0.8092   0.8341   0.8829   0.9854   1.0047   1.0075   1.0319   1.0524
  1.0856   1.0952   1.1080   1.1222   1.1411   1.1705   1.1874   1.1903
  1.1921   1.3366   1.3571   1.3689   1.4020   1.4118   1.4933   1.5111
  1.5415   1.5925   1.5968   1.6430   1.7278   1.7411   1.7560   1.8229
  1.9087   1.9962   2.0064   2.1411   2.2904   2.2965   2.3414   2.3504
  2.4366   2.5131   2.5747   2.6181   2.7750   2.8293   2.9383   3.0718
  3.0915   3.1771   3.2229   3.2878   3.4111   3.5026   3.5610   3.6159
  3.6313   3.6831   3.7827   3.8948   4.0109   4.1957   4.4125   4.5396
  4.5864   4.5920   4.6176   4.9147   4.9147   4.9296   4.9747   5.0384
  5.0778   5.0978   5.1107   5.1143   5.1243   5.1483   5.1594   5.1768
  5.1791   5.1976   5.2596   5.2715   5.2902   5.3233   5.4512   5.5154
  5.5618   5.5835   5.6272   5.7345   5.7456   6.0558   6.1533   6.5846
  6.6502   6.7215   6.7775   6.7893   6.8156   6.8189   6.8750   6.8816
  6.9033   6.9303   6.9486   6.9690   7.0125   7.0650   7.1139   7.2015
  7.2138   7.3180   7.3589   7.3934   7.4773   7.5363   7.6446   7.7616
  7.8379   8.0815   8.1277  25.0568  50.4144  50.5080  50.5476  50.7001
 
 Beta MOs
 -- Occupied --
-19.4611 -19.4403 -19.4157 -19.3813 -10.5075  -1.3688  -1.2794  -1.2069
 -0.8769  -0.7803  -0.6481  -0.6323  -0.6037  -0.5983  -0.5632  -0.5600
 -0.5015  -0.4703  -0.3213
 -- Virtual --
 -0.0125  -0.0116   0.0451   0.0719   0.0809   0.0888   0.0974   0.1192
  0.1591   0.1836   0.2111   0.2196   0.2326   0.2384   0.2533   0.2674
  0.2860   0.3009   0.3159   0.3207   0.3291   0.3434   0.3707   0.4033
  0.4098   0.4317   0.4516   0.5363   0.6031   0.6211   0.6913   0.7067
  0.7554   0.7979   0.8263   0.8691   0.9826   1.0068   1.0167   1.0391
  1.0850   1.0902   1.0984   1.1062   1.1453   1.1497   1.1716   1.1953
  1.1991   1.2168   1.3341   1.3827   1.3891   1.4234   1.4387   1.5142
  1.5302   1.5456   1.5915   1.5966   1.6616   1.7308   1.7612   1.7852
  1.8247   1.9281   1.9905   2.0010   2.1374   2.2848   2.3207   2.3570
  2.3732   2.4472   2.5006   2.5624   2.6354   2.7609   2.8119   2.8943
  3.0287   3.0683   3.1411   3.1912   3.2299   3.3907   3.4684   3.5045
  3.5841   3.6165   3.6610   3.7703   3.8608   3.9967   4.1818   4.3890
  4.5919   4.6295   4.6385   4.6634   4.9486   4.9885   4.9984   5.0636
  5.0955   5.1004   5.1122   5.1148   5.1497   5.1604   5.1710   5.1868
  5.2175   5.2350   5.2384   5.2527   5.2796   5.2987   5.3655   5.4419
  5.5088   5.5504   5.5791   5.6172   5.7898   5.8003   6.0339   6.1445
  6.5724   6.7694   6.7708   6.8428   6.8557   6.8606   6.8656   6.8911
  6.9195   6.9416   6.9705   7.0043   7.0117   7.0472   7.0906   7.1446
  7.2001   7.2093   7.3185   7.4046   7.4302   7.4637   7.5223   7.6380
  7.7503   7.8247   8.1117   8.1708  25.0468  50.4357  50.5280  50.5469
 50.6954
 --------------------------------------------------------------
 
          Ground-State Mulliken Net Atomic Charges

     Atom                 Charge (a.u.)    Spin (a.u.)
  --------------------------------------------------------
      1 C                     0.232930      -0.627532
      2 O                    -0.236749      -0.001406
      3 O                    -0.335914      -0.168680
      4 O                     0.001845       0.926608
      5 O                    -0.028822       0.907650
      6 H                     0.366710      -0.036640
  --------------------------------------------------------
  Sum of atomic charges =    -0.000000
  Sum of spin   charges =     1.000000

 -----------------------------------------------------------------
                    Cartesian Multipole Moments
 -----------------------------------------------------------------
    Charge (ESU x 10^10)
                -0.0000
    Dipole Moment (Debye)
         X       1.1383      Y      -2.9094      Z       0.6454
       Tot       3.1901
    Quadrupole Moments (Debye-Ang)
        XX     -30.0752     XY       1.7414     YY     -20.3128
        XZ      -1.9638     YZ      -4.5727     ZZ     -32.3788
    Octopole Moments (Debye-Ang^2)
       XXX     119.8042    XXY       0.0618    XYY      34.3972
       YYY     -20.2217    XXZ     -29.1567    XYZ       4.8438
       YYZ     -27.2308    XZZ      43.0773    YZZ      -3.7806
       ZZZ    -117.1529
    Hexadecapole Moments (Debye-Ang^3)
      XXXX    -371.5514   XXXY       1.0366   XXYY     -98.6610
      XYYY      17.8686   YYYY    -184.6344   XXXZ     110.0714
      XXYZ     -28.1782   XYYZ      36.0494   YYYZ     -92.4581
      XXZZ    -146.7330   XYZZ       3.7033   YYZZ    -121.4904
      XZZZ     135.0355   YZZZ     -77.4895   ZZZZ    -540.5777
 -----------------------------------------------------------------
 Calculating analytic gradient of the SCF energy
 Gradient of CDS energy
            1           2           3           4           5           6
    1   0.0004335  -0.0010098   0.0003427   0.0000875  -0.0000234   0.0001694
    2  -0.0014693   0.0014610   0.0000167   0.0002729   0.0001072  -0.0003885
    3   0.0000064  -0.0015246   0.0009515   0.0004283   0.0000149   0.0001235
 Gradient of SCF Energy
            1           2           3           4           5           6
    1   0.0013128  -0.0029669  -0.0034057  -0.0009168   0.0010772   0.0048994
    2  -0.0021964   0.0197464   0.0014453   0.0028950   0.0001576  -0.0220480
    3   0.0024554   0.0094673  -0.0081075  -0.0004979   0.0029284  -0.0062457
 Max gradient component =       2.205E-02
 RMS gradient           =       7.989E-03
 Computing fast CPCM-SWIG gradient
 Updating gradient with PCM contributions...
 -- total gradient after adding PCM contribution --
---------------------------------------------------
  Atom         X              Y              Z     
---------------------------------------------------
   1       0.000429      -0.002129      -0.000085
   2      -0.001050       0.001037      -0.001685
   3       0.000362      -0.001416      -0.000328
   4      -0.000401       0.002276       0.000487
   5       0.000563       0.000682       0.001884
   6       0.000096      -0.000449      -0.000274
---------------------------------------------------
 Number of fixed atoms: 0
 Gradient time:  CPU 31.06 s  wall 2.44 s
rPathMan2.  file_steps = 952
 IRC --- Status = 4.  Checking bisector search.
 IRC --- Bisector search finished successfully.
 ------------------------------------------------------------------------
 Reaction path following.  The coordinates are cartesian              
 Step   3 E=    -339.450917 |G|=  0.004710 S_lin= 0.1902 S_tot= 0.1907
 ------------------------------------------------------------------------
  IRC -- convergence criterion reached.
 ----------------------------------------------------------------
             Standard Nuclear Orientation (Angstroms)
    I     Atom           X                Y                Z
 ----------------------------------------------------------------
    1      C      -1.5116894000    -0.5633058000     0.5979298000
    2      O      -0.9394122000    -1.3084118000     1.5044541000
    3      O      -1.8451438000    -0.7730962000    -0.5197593000
    4      O      -1.6000247000     1.4841467000     1.8470778000
    5      O      -1.1368839000     1.3372906000     2.9483576000
    6      H      -0.7674142000    -2.2068134000     1.1580386000
 ----------------------------------------------------------------
 Nuclear Repulsion Energy =         154.16371076 hartrees
 There are       20 alpha and       19 beta electrons
 Here is where we should summarize the reaction path
 Total job time:  300.36s(wall), 4598.15s(cpu) 
 Tue Feb 13 13:33:24 2024

        *************************************************************
        *                                                           *
        *  Thank you very much for using Q-Chem.  Have a nice day.  *
        *                                                           *
        *************************************************************


