
Running Job 1 of 1 Q_in.in
qchem Q_in.in_383751.0 /scratch/ari.fischer/qChem1912893.hpc-mn1/qchem383751/ 0
/usr/local/qchem-5.4.1/exe/qcprog.exe_s Q_in.in_383751.0 /scratch/ari.fischer/qChem1912893.hpc-mn1/qchem383751/
                  Welcome to Q-Chem
     A Quantum Leap Into The Future Of Chemistry


 Q-Chem 5.4, Q-Chem, Inc., Pleasanton, CA (2021)

 License issued to: Nanyang Technological University (site)

 E. Epifanovsky,  A. T. B. Gilbert,  Xintian Feng,  Joonho Lee,  Yuezhi Mao,  
 N. Mardirossian,  P. Pokhilko,  A. White,  M. Wormit,  M. P. Coons,  
 A. L. Dempwolff,  Zhengting Gan,  D. Hait,  P. R. Horn,  L. D. Jacobson,  
 I. Kaliman,  J. Kussmann,  A. W. Lange,  Ka Un Lao,  D. S. Levine,  Jie Liu,  
 S. C. McKenzie,  A. F. Morrison,  K. Nanda,  F. Plasser,  D. R. Rehn,  
 M. L. Vidal,  Zhi-Qiang You,  Ying Zhu,  B. Alam,  B. Albrecht,  
 A. Aldossary,  E. Alguire,  J. H. Andersen,  D. Barton,  K. Begam,  A. Behn,  
 Y. A. Bernard,  E. J. Berquist,  H. Burton,  A. Carreras,  K. Carter-Fenk,  
 R. Chakraborty,  A. D. Chien,  K. D. Closser,  V. Cofer-Shabica,  
 S. Dasgupta,  Jia Deng,  M. de Wergifosse,  M. Diedenhofen,  Hainam Do,  
 S. Ehlert,  Po-Tung Fang,  S. Fatehi,  Qingguo Feng,  T. Friedhoff,  
 J. Gayvert,  Qinghui Ge,  G. Gidofalvi,  M. Goldey,  J. Gomes,  
 C. Gonzalez-Espinoza,  S. Gulania,  A. Gunina,  M. W. D. Hanson-Heine,  
 P. H. P. Harbach,  A. W. Hauser,  M. F. Herbst,  M. Hernandez Vera,  
 M. Hodecker,  Z. C. Holden,  S. Houck,  Xunkun Huang,  Kerwin Hui,  
 B. C. Huynh,  M. Ivanov,  Hyunjun Ji,  Hanjie Jiang,  B. Kaduk,  S. Kaehler,  
 K. Khistyaev,  Jaehoon Kim,  P. Klunzinger,  Z. Koczor-Benda,  
 Joong Hoon Koh,  D. Kosenkov,  L. Koulias,  T. Kowalczyk,  C. M. Krauter,  
 K. Kue,  A. Kunitsa,  T. Kus,  A. Landau,  K. V. Lawler,  D. Lefrancois,  
 S. Lehtola,  Rain Li,  Yi-Pei Li,  Jiashu Liang,  M. Liebenthal,  
 Hung-Hsuan Lin,  You-Sheng Lin,  Fenglai Liu,  Kuan-Yu Liu,  
 M. Loipersberger,  A. Luenser,  A. Manjanath,  P. Manohar,  E. Mansoor,  
 S. F. Manzer,  Shan-Ping Mao,  A. V. Marenich,  T. Markovich,  S. Mason,  
 S. A. Maurer,  P. F. McLaughlin,  M. F. S. J. Menger,  J.-M. Mewes,  
 S. A. Mewes,  P. Morgante,  J. W. Mullinax,  K. J. Oosterbaan,  G. Paran,  
 Alexander C. Paul,  Suranjan K. Paul,  F. Pavosevic,  Zheng Pei,  S. Prager,  
 E. I. Proynov,  E. Ramos,  B. Rana,  A. E. Rask,  A. Rettig,  R. M. Richard,  
 F. Rob,  E. Rossomme,  T. Scheele,  M. Scheurer,  M. Schneider,  
 N. Sergueev,  S. M. Sharada,  W. Skomorowski,  D. W. Small,  C. J. Stein,  
 Yu-Chuan Su,  E. J. Sundstrom,  Zhen Tao,  J. Thirman,  T. Tsuchimochi,  
 N. M. Tubman,  S. P. Veccham,  O. Vydrov,  J. Wenzel,  J. Witte,  A. Yamada,  
 Kun Yao,  S. Yeganeh,  S. R. Yost,  A. Zech,  Igor Ying Zhang,  Xing Zhang,  
 Yu Zhang,  D. Zuev,  A. Aspuru-Guzik,  A. T. Bell,  N. A. Besley,  
 K. B. Bravaya,  B. R. Brooks,  D. Casanova,  Jeng-Da Chai,  S. Coriani,  
 C. J. Cramer,  A. E. DePrince, III,  R. A. DiStasio Jr.,  A. Dreuw,  
 B. D. Dunietz,  T. R. Furlani,  W. A. Goddard III,  S. Grimme,  
 S. Hammes-Schiffer,  T. Head-Gordon,  W. J. Hehre,  Chao-Ping Hsu,  
 T.-C. Jagau,  Yousung Jung,  A. Klamt,  Jing Kong,  D. S. Lambrecht,  
 WanZhen Liang,  N. J. Mayhall,  C. W. McCurdy,  J. B. Neaton,  
 C. Ochsenfeld,  J. A. Parkhill,  R. Peverati,  V. A. Rassolov,  Yihan Shao,  
 L. V. Slipchenko,  T. Stauch,  R. P. Steele,  J. E. Subotnik,  
 A. J. W. Thom,  A. Tkatchenko,  D. G. Truhlar,  T. Van Voorhis,  
 T. A. Wesolowski,  K. B. Whaley,  H. L. Woodcock III,  P. M. Zimmerman,  
 S. Faraji,  P. M. W. Gill,  M. Head-Gordon,  J. M. Herbert,  A. I. Krylov

 Additional authors for Version 5.4.1: 
 S. Kotaru,  Shaozhi Li,  Xiangyuan Li,  F. Matz,  A. Molle,  Haisheng Ren,  
 Yingli Su,  Hung-Yi Tsai,  C. Utku,  Fang Wang

 Contributors to earlier versions of Q-Chem not listed above: 
 R. D. Adamson,  B. Austin,  R. Baer,  J. Baker,  G. J. O. Beran,  
 K. Brandhorst,  S. T. Brown,  E. F. C. Byrd,  A. K. Chakraborty,  
 G. K. L. Chan,  Chun-Min Chang,  Yunqing Chen,  C.-L. Cheng,  
 Siu Hung Chien,  D. M. Chipman,  D. L. Crittenden,  H. Dachsel,  
 R. J. Doerksen,  A. D. Dutoi,  R. G. Edgar,  J. Fosso-Tande,  
 L. Fusti-Molnar,  D. Ghosh,  A. Ghysels,  A. Golubeva-Zadorozhnaya,  
 J. Gonthier,  M. S. Gordon,  S. R. Gwaltney,  G. Hawkins,  J. E. Herr,  
 A. Heyden,  S. Hirata,  E. G. Hohenstein,  G. Kedziora,  F. J. Keil,  
 C. Kelley,  Jihan Kim,  R. A. King,  R. Z. Khaliullin,  P. P. Korambath,  
 W. Kurlancheek,  A. Laurent,  A. M. Lee,  M. S. Lee,  S. V. Levchenko,  
 Ching Yeh Lin,  D. Liotard,  E. Livshits,  R. C. Lochan,  I. Lotan,  
 L. A. Martinez-Martinez,  P. E. Maslen,  N. Nair,  D. P. O'Neill,  
 D. Neuhauser,  E. Neuscamman,  C. M. Oana,  R. Olivares-Amaya,  R. Olson,  
 T. M. Perrine,  B. Peters,  P. A. Pieniazek,  A. Prociuk,  Y. M. Rhee,  
 J. Ritchie,  M. A. Rohrdanz,  E. Rosta,  N. J. Russ,  H. F. Schaefer III,  
 M. W. Schmidt,  N. E. Schultz,  S. Sharma,  N. Shenvi,  C. D. Sherrill,  
 A. C. Simmonett,  A. Sodt,  T. Stein,  D. Stuck,  K. S. Thanthiriwatte,  
 V. Vanovschi,  L. Vogt,  Tao Wang,  A. Warshel,  M. A. Watson,  
 C. F. Williams,  Q. Wu,  X. Xu,  Jun Yang,  W. Zhang,  Yan Zhao

 Please cite Q-Chem as follows:
 Y. Shao et al., Mol. Phys. 113, 184-215 (2015)
 DOI: 10.1080/00268976.2014.952696

 Q-Chem 5.4.1 for Intel X86 EM64T Linux

 Parts of Q-Chem use Armadillo 9.800.1 (Horizon Scraper).
 http://arma.sourceforge.net/

 Q-Chem begins on Mon Feb  5 12:38:33 2024  

 Host: 
0

     Scratch files written to /scratch/ari.fischer/qChem1912893.hpc-mn1/qchem383751//
 Aug1521 |scratch|qcdevops|jenkins|workspace|build_RNUM 8249   
 Processing $rem in /usr/local/qchem-5.4.1/config/preferences:
 Processing $rem in /home/ari.fischer/.qchemrc:
 Symmetry turned off for PCM/SM12/SMD calculation

 Checking the input file for inconsistencies... 	...done.

--------------------------------------------------------------
User input:
--------------------------------------------------------------
$molecule
0 2
O        -0.4628443119    1.4062765168   -0.3338263962
C         0.0001780212    0.4576397441    0.5699888494
O        -0.9991184032   -0.4100108625    0.9945623619
C         1.1585387697   -0.3123762542   -0.0500006829
O         2.0694287861    0.4823349227   -0.5845675524
O         1.2217330546   -1.5180777080   -0.0011624366
H        -1.0496509914    2.0161099922    0.1307241003
H        -0.6649513630   -1.3165348992    0.9062656099
H         2.7994759286   -0.0533732966   -0.9357000371
H         0.4330768658    0.9910550084    1.4857371922
O         1.2872704652    1.6529693057    2.5904387587
H         2.0679795783    1.7852775305    2.0246481329
$end

$rem
BASIS = def2-TZVPPD
JOB_TYPE = SP
METHOD = wB97M-V
SCF_ALGORITHM = DIIS_GDM
MAX_SCF_CYCLES = 400
SCF_CONVERGENCE = 7
THRESH = 12
Solvent_method = SMD
$end
--------------------------------------------------------------
 ----------------------------------------------------------------
             Standard Nuclear Orientation (Angstroms)
    I     Atom           X                Y                Z
 ----------------------------------------------------------------
    1      O      -0.4628443119     1.4062765168    -0.3338263962
    2      C       0.0001780212     0.4576397441     0.5699888494
    3      O      -0.9991184032    -0.4100108625     0.9945623619
    4      C       1.1585387697    -0.3123762542    -0.0500006829
    5      O       2.0694287861     0.4823349227    -0.5845675524
    6      O       1.2217330546    -1.5180777080    -0.0011624366
    7      H      -1.0496509914     2.0161099922     0.1307241003
    8      H      -0.6649513630    -1.3165348992     0.9062656099
    9      H       2.7994759286    -0.0533732966    -0.9357000371
   10      H       0.4330768658     0.9910550084     1.4857371922
   11      O       1.2872704652     1.6529693057     2.5904387587
   12      H       2.0679795783     1.7852775305     2.0246481329
 ----------------------------------------------------------------
 Nuclear Repulsion Energy =         325.39385223 hartrees
 There are       29 alpha and       28 beta electrons
 Requested basis set is def2-TZVPPD
 There are 131 shells and 359 basis functions

 Total QAlloc Memory Limit 288000 MB
 Mega-Array Size       188 MB
 MEM_STATIC part       192 MB
 
 Citation of the SMD model:
 Marenich, A.V.; Cramer, C.J.; Truhlar, D.G.
 J. Phys. Chem. B 2009, 113, 6378-6396.
 iSolventCode=           1
 Solvent: water                                                           
 
 vradii
            1           2           3           4           5           6
    1   1.5200000   1.8500000   1.5200000   1.8500000   1.5200000   1.5200000
            7           8           9          10          11          12
    1   1.2000000   1.2000000   1.2000000   1.2000000   1.5200000   1.2000000
 Changing PCM_VDW_RADII to SMD_RADIUS
 Discretize the solute cavity surface with Lebedev spheres
	Using 110 Lebedev grid points for each H atom
	Using 194 Lebedev grid points for other atoms
	Atomic van der Waals radii will be scaled by 1.20
 Remove points where switching function is < 1.0e-08
 Keep 1055 surface tesserae and discard 853 interior tesserae
 Molecular Surface Area = 123.845 Angst**2

                       Distance Matrix (Angstroms)
             O (  1)   C (  2)   O (  3)   C (  4)   O (  5)   O (  6)
   C (  2)  1.389670
   O (  3)  2.313246  1.389847
   C (  4)  2.379749  1.522863  2.399193
   O (  5)  2.707203  2.369685  3.564536  1.321760
   O (  6)  3.391211  2.392043  2.674222  1.208344  2.249578
   H (  7)  0.965425  1.929747  2.575817  3.214127  3.548629  4.203220
   H (  8)  2.998729  1.924363  0.970180  2.290829  3.596575  2.103241
   H (  9)  3.624302  3.219364  4.275795  1.882610  0.971209  2.346911
   H ( 10)  2.070240  1.144783  2.062867  2.140962  2.687491  3.021357
   O ( 11)  3.416882  2.677244  3.468470  3.294097  3.473157  4.095880
   H ( 12)  3.480103  2.855601  3.909918  3.087297  2.916448  3.966383
             H (  7)   H (  8)   H (  9)   H ( 10)   O ( 11)
   H (  8)  3.443251
   H (  9)  4.498422  4.121974
   H ( 10)  2.255057  2.620386  3.543167
   O ( 11)  3.412224  3.932628  4.199051  1.545362
   H ( 12)  3.655113  4.282631  3.560812  1.895817  0.973207
 
 A cutoff of  1.0D-12 yielded   8094 shell pairs
 There are     61142 function pairs (     77987 Cartesian)
 Smallest overlap matrix eigenvalue = 3.65E-06

 Scale SEOQF with 1.000000e-01/1.000000e-01/1.000000e-01

 Standard Electronic Orientation quadrupole field applied
 Nucleus-field energy     =     0.0000000003 hartrees
 Guess from superposition of atomic densities
 Warning:  Energy on first SCF cycle will be non-variational
 SAD guess density has 57.000000 electrons

 -----------------------------------------------------------------------
  General SCF calculation program by
  Eric Jon Sundstrom, Paul Horn, Yuezhi Mao, Dmitri Zuev, Alec White,
  David Stuck, Shaama M.S., Shane Yost, Joonho Lee, David Small,
  Daniel Levine, Susi Lehtola, Hugh Burton, Evgeny Epifanovsky,
  Bang C. Huynh
 -----------------------------------------------------------------------
 Exchange:     0.1500 Hartree-Fock + 1.0000 wB97M-V + LR-HF
 Correlation:  1.0000 wB97M-V
 Using SG-2 standard quadrature grid
 Nonlocal Correlation:  VV10 with C = 0.0100 and b = 6.00 and scale = 1.00000
 Grid used for NLC:  SG-1 standard quadrature
 
 Citation of the SMD model:
 Marenich, A.V.; Cramer, C.J.; Truhlar, D.G.
 J. Phys. Chem. B 2009, 113, 6378-6396.
 iSolventCode=           1
 Solvent: water                                                           
 
 vradii
            1           2           3           4           5           6
    1   1.5200000   1.8500000   1.5200000   1.8500000   1.5200000   1.5200000
            7           8           9          10          11          12
    1   1.2000000   1.2000000   1.2000000   1.2000000   1.5200000   1.2000000
 using 4 threads for integral computing
 -------------------------------------------------------
 OpenMP Integral computing Module                
 Release: version 1.0, May 2013, Q-Chem Inc. Pittsburgh 
 -------------------------------------------------------
 -------------------------------------------------------
 OpenMP BLAS3 based DFT computing Module                
 Release: version 1.0, May 2013, Q-Chem Inc. Pittsburgh 
 -------------------------------------------------------
 A unrestricted SCF calculation will be
 performed using DIIS, GDM
 SCF converges when RMS gradient is below 1.0e-07
 ---------------------------------------
  Cycle       Energy         DIIS error
 ---------------------------------------
    1    -456.4054342550      1.19e-02  
    2    -455.0734623913      2.22e-03  Done DIIS. Switching to GDM
 ---------------------------------------
  Cycle       Energy        RMS Gradient
 ---------------------------------------
    1    -455.0734623913      3.27e-01   Descent step
    2    -455.3029036307      6.87e-02   Normal BFGS step
    3    -455.3415310927      6.76e-02   Normal BFGS step
    4    -455.3487075067      1.63e-02   Normal BFGS step
    5    -455.3525494831      1.72e-02   Normal BFGS step
    6    -455.3538049056      1.04e-02   Normal BFGS step
    7    -455.3541184532      4.97e-03   Normal BFGS step
    8    -455.3542031337      1.63e-03   Normal BFGS step
    9    -455.3542293977      8.27e-04   Normal BFGS step
   10    -455.3542317871      4.18e-04   Normal BFGS step
   11    -455.3542327582      2.33e-04   Normal BFGS step
   12    -455.3542330168      2.12e-04   Normal BFGS step
   13    -455.3542331593      1.67e-04   Normal BFGS step
   14    -455.3542332395      1.40e-04   Normal BFGS step
   15    -455.3542333281      1.20e-04   Normal BFGS step
   16    -455.3542334029      8.32e-05   Normal BFGS step
   17    -455.3542334465      2.76e-05   Normal BFGS step
   18    -455.3542334545      8.09e-06   Normal BFGS step
   19    -455.3542334551      3.51e-06   Normal BFGS step
   20    -455.3542334553      1.42e-06   Normal BFGS step
   21    -455.3542334553      4.72e-07   Normal BFGS step
   22    -455.3542334552      9.69e-08  Convergence criterion met
 ---------------------------------------
 SCF time:   CPU 1897.79s  wall 479.00s 
<S^2> =          0.756481169
(3)  G-ENP(liq) elect-nuc-pol free energy of system     -455.354233455 a.u.
(4)  G-CDS(liq) cavity-dispersion-solvent structure 
     free energy                                                4.7172 kcal/mol
(6)  G-S(liq) free energy of system                     -455.346716126 a.u.
 SCF   energy in the final basis set =     -455.3467161264
 Total energy in the final basis set =     -455.3467161264
 
 --------------------------------------------------------------
 
                    Orbital Energies (a.u.)
 --------------------------------------------------------------
 
 Alpha MOs
 -- Occupied --
-19.3963 -19.3836 -19.3631 -19.3589 -19.3495 -10.5026 -10.4785  -1.2670
 -1.2176  -1.1788  -1.1506  -1.1317  -0.8633  -0.7474  -0.6860  -0.6695
 -0.6439  -0.6137  -0.5849  -0.5657  -0.5451  -0.5291  -0.5066  -0.4871
 -0.4541  -0.4510  -0.4379  -0.4215  -0.3835
 -- Virtual --
  0.0308   0.0500   0.0561   0.0622   0.0724   0.0878   0.0931   0.0999
  0.1019   0.1040   0.1270   0.1380   0.1389   0.1446   0.1464   0.1548
  0.1767   0.1844   0.1880   0.1891   0.2029   0.2150   0.2460   0.2559
  0.2636   0.2732   0.2818   0.2865   0.2913   0.3008   0.3090   0.3108
  0.3153   0.3261   0.3291   0.3363   0.3399   0.3510   0.3649   0.3748
  0.3872   0.3880   0.3897   0.3964   0.4072   0.4115   0.4241   0.4281
  0.4393   0.4446   0.4527   0.4611   0.4679   0.4719   0.4803   0.4844
  0.4980   0.5000   0.5078   0.5216   0.5389   0.5590   0.5688   0.5736
  0.5903   0.5936   0.6015   0.6180   0.6256   0.6358   0.6443   0.6468
  0.6577   0.6617   0.6736   0.6896   0.6913   0.6970   0.7012   0.7209
  0.7293   0.7383   0.7425   0.7522   0.7672   0.7804   0.7963   0.8032
  0.8144   0.8293   0.8441   0.8640   0.8751   0.8984   0.9052   0.9164
  0.9393   0.9526   0.9610   0.9732   0.9934   1.0084   1.0141   1.0242
  1.0405   1.0445   1.0664   1.0717   1.1045   1.1202   1.1325   1.1489
  1.1736   1.1747   1.1893   1.2019   1.2190   1.2339   1.2493   1.2718
  1.2846   1.3019   1.3092   1.3331   1.3646   1.3743   1.3790   1.3870
  1.4086   1.4397   1.4561   1.4679   1.4799   1.5124   1.5186   1.5535
  1.5603   1.5855   1.6319   1.6936   1.7208   1.7973   1.8588   1.8656
  1.8736   1.9077   1.9356   1.9460   1.9892   2.0044   2.0187   2.0664
  2.1046   2.1219   2.1420   2.1842   2.2131   2.2513   2.2656   2.2724
  2.2873   2.3024   2.3299   2.3485   2.3693   2.3948   2.4303   2.4567
  2.4673   2.5037   2.5475   2.6649   2.6825   2.7182   2.7791   2.8089
  2.8841   2.9149   2.9355   2.9515   2.9910   3.0073   3.0337   3.0685
  3.0868   3.1079   3.1340   3.1560   3.1764   3.2049   3.2344   3.2639
  3.2868   3.3014   3.3120   3.3324   3.3399   3.3552   3.3647   3.3847
  3.3967   3.4295   3.4561   3.4646   3.4916   3.5039   3.5244   3.5346
  3.5541   3.5618   3.5923   3.6155   3.6287   3.6627   3.6736   3.6869
  3.7182   3.7349   3.7797   3.8440   3.8642   3.8928   3.9019   3.9350
  3.9566   4.0139   4.0211   4.0435   4.0623   4.0746   4.1087   4.1253
  4.1577   4.1960   4.2037   4.2239   4.2424   4.2645   4.2990   4.3338
  4.3733   4.3822   4.4101   4.4373   4.5031   4.5417   4.5652   4.5975
  4.6339   4.7170   4.7478   4.7880   4.8466   4.9141   4.9964   5.0088
  5.0727   5.1204   5.1565   5.2007   5.2103   5.2324   5.2644   5.2727
  5.3748   5.4153   5.4731   5.4927   5.5656   5.6000   5.6136   5.6252
  5.6702   5.7391   5.7683   5.8090   5.9417   6.0260   6.0828   6.1405
  6.2009   6.2303   6.3158   6.3347   6.4690   6.5138   6.5300   6.5621
  6.5741   6.5822   6.6144   6.6194   6.6490   6.7192   6.7214   6.7486
  6.7687   6.7760   6.8228   6.8442   6.8599   6.8605   6.9022   6.9401
  6.9575   6.9945   7.0349   7.0456   7.1147   7.1744   7.2031   7.3250
  7.3540   7.3658   7.4030   7.4492   7.5078   7.5506   7.5534   7.6611
  7.7462   7.7583   7.7986  23.4496  23.8646  44.3108  44.6485  44.7216
 44.7588  44.8958
 
 Beta MOs
 -- Occupied --
-19.3963 -19.3626 -19.3623 -19.3578 -19.3492 -10.5025 -10.4747  -1.2665
 -1.2151  -1.1781  -1.1486  -1.0766  -0.8585  -0.7433  -0.6813  -0.6635
 -0.6379  -0.6080  -0.5721  -0.5507  -0.5440  -0.5216  -0.4856  -0.4514
 -0.4358  -0.4286  -0.4247  -0.4028
 -- Virtual --
 -0.0794   0.0315   0.0505   0.0565   0.0626   0.0764   0.0881   0.0939
  0.1005   0.1033   0.1044   0.1290   0.1381   0.1391   0.1449   0.1466
  0.1549   0.1772   0.1852   0.1894   0.1898   0.2036   0.2164   0.2475
  0.2572   0.2646   0.2742   0.2824   0.2871   0.2945   0.3017   0.3108
  0.3153   0.3178   0.3278   0.3315   0.3383   0.3417   0.3530   0.3655
  0.3768   0.3881   0.3887   0.3917   0.3981   0.4078   0.4135   0.4261
  0.4298   0.4433   0.4493   0.4540   0.4623   0.4698   0.4726   0.4822
  0.4876   0.4999   0.5023   0.5095   0.5225   0.5395   0.5622   0.5696
  0.5745   0.5913   0.5951   0.6024   0.6196   0.6267   0.6370   0.6447
  0.6476   0.6588   0.6623   0.6745   0.6903   0.6920   0.6980   0.7025
  0.7217   0.7300   0.7393   0.7435   0.7529   0.7681   0.7812   0.7993
  0.8035   0.8152   0.8316   0.8444   0.8649   0.8765   0.8994   0.9085
  0.9172   0.9408   0.9550   0.9615   0.9747   0.9972   1.0110   1.0164
  1.0288   1.0422   1.0491   1.0675   1.0737   1.1065   1.1216   1.1343
  1.1518   1.1747   1.1759   1.1905   1.2028   1.2195   1.2371   1.2499
  1.2738   1.2856   1.3029   1.3110   1.3359   1.3666   1.3775   1.3837
  1.3887   1.4103   1.4416   1.4582   1.4702   1.4811   1.5163   1.5204
  1.5565   1.5625   1.5861   1.6336   1.7013   1.7342   1.7980   1.8639
  1.8729   1.8927   1.9110   1.9396   1.9502   1.9907   2.0163   2.0329
  2.0681   2.1180   2.1232   2.1446   2.1860   2.2176   2.2563   2.2719
  2.2761   2.2909   2.3040   2.3326   2.3522   2.3707   2.3970   2.4334
  2.4671   2.4794   2.5151   2.5512   2.6666   2.6839   2.7251   2.7903
  2.8113   2.8879   2.9163   2.9398   2.9549   2.9939   3.0142   3.0394
  3.0697   3.0980   3.1287   3.1427   3.1629   3.1803   3.2162   3.2399
  3.2666   3.2903   3.3057   3.3172   3.3344   3.3459   3.3594   3.3681
  3.3881   3.4025   3.4324   3.4572   3.4670   3.4993   3.5146   3.5257
  3.5365   3.5561   3.5633   3.5936   3.6159   3.6295   3.6640   3.6753
  3.6894   3.7205   3.7379   3.7839   3.8434   3.8687   3.9001   3.9071
  3.9350   3.9594   4.0157   4.0264   4.0461   4.0684   4.0826   4.1098
  4.1276   4.1558   4.1963   4.2020   4.2272   4.2427   4.2614   4.2929
  4.3365   4.3757   4.3945   4.4065   4.4369   4.5032   4.5428   4.5639
  4.5997   4.6302   4.7166   4.7486   4.7852   4.8476   4.9230   4.9971
  5.0081   5.0908   5.1177   5.1511   5.1992   5.2146   5.2514   5.2655
  5.2740   5.3856   5.4574   5.4947   5.5197   5.5856   5.6152   5.6216
  5.6338   5.6759   5.7406   5.7692   5.8165   5.9565   6.0380   6.0892
  6.1434   6.2060   6.2328   6.3183   6.3405   6.4703   6.5425   6.5667
  6.5758   6.6152   6.6168   6.6213   6.6372   6.6701   6.7206   6.7228
  6.7658   6.7726   6.7835   6.8288   6.8609   6.8622   6.8993   6.9071
  6.9440   6.9609   7.0185   7.0418   7.0666   7.1183   7.1774   7.2045
  7.3288   7.3556   7.3677   7.4462   7.4735   7.5107   7.5523   7.5996
  7.6665   7.7478   7.7601   7.7996  23.4525  23.8648  44.3285  44.6489
 44.7219  44.7596  44.8965
 --------------------------------------------------------------
 
          Ground-State Mulliken Net Atomic Charges

     Atom                 Charge (a.u.)    Spin (a.u.)
  --------------------------------------------------------
      1 O                    -0.437069       0.026605
      2 C                     0.895185       0.145002
      3 O                    -0.522029       0.033929
      4 C                     0.630536      -0.001381
      5 O                    -0.328911       0.000846
      6 O                    -0.656688       0.009076
      7 H                     0.183214      -0.000954
      8 H                     0.256177       0.001494
      9 H                     0.247023       0.000290
     10 H                    -0.111029      -0.001531
     11 O                    -0.416264       0.813735
     12 H                     0.259855      -0.027111
  --------------------------------------------------------
  Sum of atomic charges =    -0.000000
  Sum of spin   charges =     1.000000

 -----------------------------------------------------------------
                    Cartesian Multipole Moments
 -----------------------------------------------------------------
    Charge (ESU x 10^10)
                -0.0000
    Dipole Moment (Debye)
         X       2.8814      Y       1.2546      Z      -1.4694
       Tot       3.4693
    Quadrupole Moments (Debye-Ang)
        XX     -29.8240     XY       0.9551     YY     -41.8463
        XZ      -2.1486     YZ      -0.1424     ZZ     -48.9740
    Octopole Moments (Debye-Ang^2)
       XXX     -30.9785    XXY       0.7760    XYY     -38.5164
       YYY     -24.6200    XXZ     -26.0771    XYZ       3.4589
       YYZ     -17.9511    XZZ     -22.2813    YZZ     -24.5887
       ZZZ     -90.4290
    Hexadecapole Moments (Debye-Ang^3)
      XXXX    -277.5218   XXXY      -3.4886   XXYY    -106.9785
      XYYY     -11.5193   YYYY    -327.7684   XXXZ     -37.2345
      XXYZ      -0.4268   XYYZ      -5.0982   YYYZ     -75.8042
      XXZZ    -109.3754   XYZZ      -7.1413   YYZZ    -132.5448
      XZZZ     -47.7038   YZZZ    -100.1960   ZZZZ    -441.7139
 -----------------------------------------------------------------
 Total job time:  480.10s(wall), 1900.33s(cpu) 
 Mon Feb  5 12:46:33 2024

        *************************************************************
        *                                                           *
        *  Thank you very much for using Q-Chem.  Have a nice day.  *
        *                                                           *
        *************************************************************


