
Running Job 1 of 1 Q_in.in
qchem Q_in.in_210578.0 /scratch/ari.fischer/qChem1912862.hpc-mn1/qchem210578/ 0
/usr/local/qchem-5.4.1/exe/qcprog.exe_s Q_in.in_210578.0 /scratch/ari.fischer/qChem1912862.hpc-mn1/qchem210578/
                  Welcome to Q-Chem
     A Quantum Leap Into The Future Of Chemistry


 Q-Chem 5.4, Q-Chem, Inc., Pleasanton, CA (2021)

 License issued to: Nanyang Technological University (site)

 E. Epifanovsky,  A. T. B. Gilbert,  Xintian Feng,  Joonho Lee,  Yuezhi Mao,  
 N. Mardirossian,  P. Pokhilko,  A. White,  M. Wormit,  M. P. Coons,  
 A. L. Dempwolff,  Zhengting Gan,  D. Hait,  P. R. Horn,  L. D. Jacobson,  
 I. Kaliman,  J. Kussmann,  A. W. Lange,  Ka Un Lao,  D. S. Levine,  Jie Liu,  
 S. C. McKenzie,  A. F. Morrison,  K. Nanda,  F. Plasser,  D. R. Rehn,  
 M. L. Vidal,  Zhi-Qiang You,  Ying Zhu,  B. Alam,  B. Albrecht,  
 A. Aldossary,  E. Alguire,  J. H. Andersen,  D. Barton,  K. Begam,  A. Behn,  
 Y. A. Bernard,  E. J. Berquist,  H. Burton,  A. Carreras,  K. Carter-Fenk,  
 R. Chakraborty,  A. D. Chien,  K. D. Closser,  V. Cofer-Shabica,  
 S. Dasgupta,  Jia Deng,  M. de Wergifosse,  M. Diedenhofen,  Hainam Do,  
 S. Ehlert,  Po-Tung Fang,  S. Fatehi,  Qingguo Feng,  T. Friedhoff,  
 J. Gayvert,  Qinghui Ge,  G. Gidofalvi,  M. Goldey,  J. Gomes,  
 C. Gonzalez-Espinoza,  S. Gulania,  A. Gunina,  M. W. D. Hanson-Heine,  
 P. H. P. Harbach,  A. W. Hauser,  M. F. Herbst,  M. Hernandez Vera,  
 M. Hodecker,  Z. C. Holden,  S. Houck,  Xunkun Huang,  Kerwin Hui,  
 B. C. Huynh,  M. Ivanov,  Hyunjun Ji,  Hanjie Jiang,  B. Kaduk,  S. Kaehler,  
 K. Khistyaev,  Jaehoon Kim,  P. Klunzinger,  Z. Koczor-Benda,  
 Joong Hoon Koh,  D. Kosenkov,  L. Koulias,  T. Kowalczyk,  C. M. Krauter,  
 K. Kue,  A. Kunitsa,  T. Kus,  A. Landau,  K. V. Lawler,  D. Lefrancois,  
 S. Lehtola,  Rain Li,  Yi-Pei Li,  Jiashu Liang,  M. Liebenthal,  
 Hung-Hsuan Lin,  You-Sheng Lin,  Fenglai Liu,  Kuan-Yu Liu,  
 M. Loipersberger,  A. Luenser,  A. Manjanath,  P. Manohar,  E. Mansoor,  
 S. F. Manzer,  Shan-Ping Mao,  A. V. Marenich,  T. Markovich,  S. Mason,  
 S. A. Maurer,  P. F. McLaughlin,  M. F. S. J. Menger,  J.-M. Mewes,  
 S. A. Mewes,  P. Morgante,  J. W. Mullinax,  K. J. Oosterbaan,  G. Paran,  
 Alexander C. Paul,  Suranjan K. Paul,  F. Pavosevic,  Zheng Pei,  S. Prager,  
 E. I. Proynov,  E. Ramos,  B. Rana,  A. E. Rask,  A. Rettig,  R. M. Richard,  
 F. Rob,  E. Rossomme,  T. Scheele,  M. Scheurer,  M. Schneider,  
 N. Sergueev,  S. M. Sharada,  W. Skomorowski,  D. W. Small,  C. J. Stein,  
 Yu-Chuan Su,  E. J. Sundstrom,  Zhen Tao,  J. Thirman,  T. Tsuchimochi,  
 N. M. Tubman,  S. P. Veccham,  O. Vydrov,  J. Wenzel,  J. Witte,  A. Yamada,  
 Kun Yao,  S. Yeganeh,  S. R. Yost,  A. Zech,  Igor Ying Zhang,  Xing Zhang,  
 Yu Zhang,  D. Zuev,  A. Aspuru-Guzik,  A. T. Bell,  N. A. Besley,  
 K. B. Bravaya,  B. R. Brooks,  D. Casanova,  Jeng-Da Chai,  S. Coriani,  
 C. J. Cramer,  A. E. DePrince, III,  R. A. DiStasio Jr.,  A. Dreuw,  
 B. D. Dunietz,  T. R. Furlani,  W. A. Goddard III,  S. Grimme,  
 S. Hammes-Schiffer,  T. Head-Gordon,  W. J. Hehre,  Chao-Ping Hsu,  
 T.-C. Jagau,  Yousung Jung,  A. Klamt,  Jing Kong,  D. S. Lambrecht,  
 WanZhen Liang,  N. J. Mayhall,  C. W. McCurdy,  J. B. Neaton,  
 C. Ochsenfeld,  J. A. Parkhill,  R. Peverati,  V. A. Rassolov,  Yihan Shao,  
 L. V. Slipchenko,  T. Stauch,  R. P. Steele,  J. E. Subotnik,  
 A. J. W. Thom,  A. Tkatchenko,  D. G. Truhlar,  T. Van Voorhis,  
 T. A. Wesolowski,  K. B. Whaley,  H. L. Woodcock III,  P. M. Zimmerman,  
 S. Faraji,  P. M. W. Gill,  M. Head-Gordon,  J. M. Herbert,  A. I. Krylov

 Additional authors for Version 5.4.1: 
 S. Kotaru,  Shaozhi Li,  Xiangyuan Li,  F. Matz,  A. Molle,  Haisheng Ren,  
 Yingli Su,  Hung-Yi Tsai,  C. Utku,  Fang Wang

 Contributors to earlier versions of Q-Chem not listed above: 
 R. D. Adamson,  B. Austin,  R. Baer,  J. Baker,  G. J. O. Beran,  
 K. Brandhorst,  S. T. Brown,  E. F. C. Byrd,  A. K. Chakraborty,  
 G. K. L. Chan,  Chun-Min Chang,  Yunqing Chen,  C.-L. Cheng,  
 Siu Hung Chien,  D. M. Chipman,  D. L. Crittenden,  H. Dachsel,  
 R. J. Doerksen,  A. D. Dutoi,  R. G. Edgar,  J. Fosso-Tande,  
 L. Fusti-Molnar,  D. Ghosh,  A. Ghysels,  A. Golubeva-Zadorozhnaya,  
 J. Gonthier,  M. S. Gordon,  S. R. Gwaltney,  G. Hawkins,  J. E. Herr,  
 A. Heyden,  S. Hirata,  E. G. Hohenstein,  G. Kedziora,  F. J. Keil,  
 C. Kelley,  Jihan Kim,  R. A. King,  R. Z. Khaliullin,  P. P. Korambath,  
 W. Kurlancheek,  A. Laurent,  A. M. Lee,  M. S. Lee,  S. V. Levchenko,  
 Ching Yeh Lin,  D. Liotard,  E. Livshits,  R. C. Lochan,  I. Lotan,  
 L. A. Martinez-Martinez,  P. E. Maslen,  N. Nair,  D. P. O'Neill,  
 D. Neuhauser,  E. Neuscamman,  C. M. Oana,  R. Olivares-Amaya,  R. Olson,  
 T. M. Perrine,  B. Peters,  P. A. Pieniazek,  A. Prociuk,  Y. M. Rhee,  
 J. Ritchie,  M. A. Rohrdanz,  E. Rosta,  N. J. Russ,  H. F. Schaefer III,  
 M. W. Schmidt,  N. E. Schultz,  S. Sharma,  N. Shenvi,  C. D. Sherrill,  
 A. C. Simmonett,  A. Sodt,  T. Stein,  D. Stuck,  K. S. Thanthiriwatte,  
 V. Vanovschi,  L. Vogt,  Tao Wang,  A. Warshel,  M. A. Watson,  
 C. F. Williams,  Q. Wu,  X. Xu,  Jun Yang,  W. Zhang,  Yan Zhao

 Please cite Q-Chem as follows:
 Y. Shao et al., Mol. Phys. 113, 184-215 (2015)
 DOI: 10.1080/00268976.2014.952696

 Q-Chem 5.4.1 for Intel X86 EM64T Linux

 Parts of Q-Chem use Armadillo 9.800.1 (Horizon Scraper).
 http://arma.sourceforge.net/

 Q-Chem begins on Mon Feb  5 12:38:29 2024  

 Host: 
0

     Scratch files written to /scratch/ari.fischer/qChem1912862.hpc-mn1/qchem210578//
 Aug1521 |scratch|qcdevops|jenkins|workspace|build_RNUM 8249   
 Processing $rem in /usr/local/qchem-5.4.1/config/preferences:
 Processing $rem in /home/ari.fischer/.qchemrc:
 Symmetry turned off for PCM/SM12/SMD calculation

 Checking the input file for inconsistencies... 	...done.

--------------------------------------------------------------
User input:
--------------------------------------------------------------
$molecule
0 1
O        -0.6678554955    1.1020238419    0.2612852811
C        -0.3656352537   -0.2442880346    0.5330946241
O        -1.0087321239   -1.1308296264   -0.3381898993
C         1.1413976584   -0.4349469172    0.3500214906
O         1.8712152688    0.6730078684    0.4158507821
O         1.6501434675   -1.5191886229    0.2019956850
H        -1.3958858049    1.3819609322    0.8267715306
H        -1.8915177107   -1.3065397044    0.0066128236
H         1.2716528173    1.4364649447    0.4903475041
H        -0.6024757234   -0.4811881816    1.5723379780
$end

$rem
BASIS = def2-TZVPD
JOB_TYPE = SP
METHOD = wB97M-V
SCF_ALGORITHM = DIIS_GDM
MAX_SCF_CYCLES = 400
SCF_CONVERGENCE = 7
THRESH = 12
Solvent_method = SMD
$end
--------------------------------------------------------------
 ----------------------------------------------------------------
             Standard Nuclear Orientation (Angstroms)
    I     Atom           X                Y                Z
 ----------------------------------------------------------------
    1      O      -0.6678554955     1.1020238419     0.2612852811
    2      C      -0.3656352537    -0.2442880346     0.5330946241
    3      O      -1.0087321239    -1.1308296264    -0.3381898993
    4      C       1.1413976584    -0.4349469172     0.3500214906
    5      O       1.8712152688     0.6730078684     0.4158507821
    6      O       1.6501434675    -1.5191886229     0.2019956850
    7      H      -1.3958858049     1.3819609322     0.8267715306
    8      H      -1.8915177107    -1.3065397044     0.0066128236
    9      H       1.2716528173     1.4364649447     0.4903475041
   10      H      -0.6024757234    -0.4811881816     1.5723379780
 ----------------------------------------------------------------
 Nuclear Repulsion Energy =         252.32741783 hartrees
 There are       24 alpha and       24 beta electrons
 Requested basis set is def2-TZVPD
 There are 102 shells and 270 basis functions

 Total QAlloc Memory Limit 288000 MB
 Mega-Array Size       188 MB
 MEM_STATIC part       192 MB
 
 Citation of the SMD model:
 Marenich, A.V.; Cramer, C.J.; Truhlar, D.G.
 J. Phys. Chem. B 2009, 113, 6378-6396.
 iSolventCode=           1
 Solvent: water                                                           
 
 vradii
            1           2           3           4           5           6
    1   1.5200000   1.8500000   1.5200000   1.8500000   1.5200000   1.5200000
            7           8           9          10
    1   1.2000000   1.2000000   1.2000000   1.2000000
 Changing PCM_VDW_RADII to SMD_RADIUS
 Discretize the solute cavity surface with Lebedev spheres
	Using 110 Lebedev grid points for each H atom
	Using 194 Lebedev grid points for other atoms
	Atomic van der Waals radii will be scaled by 1.20
 Remove points where switching function is < 1.0e-08
 Keep 850 surface tesserae and discard 754 interior tesserae
 Molecular Surface Area = 100.712 Angst**2

                       Distance Matrix (Angstroms)
             O (  1)   C (  2)   O (  3)   C (  4)   O (  5)   O (  6)
   C (  2)  1.406333
   O (  3)  2.336921  1.399524
   C (  4)  2.375616  1.530038  2.362403
   O (  5)  2.579695  2.420471  3.480877  1.328357
   O (  6)  3.499627  2.407979  2.740847  1.206778  2.213669
   H (  7)  0.963415  1.947395  2.796630  3.156937  3.368296  4.252682
   H (  8)  2.713556  1.932325  0.963885  3.174300  4.271328  3.553415
   H (  9)  1.981417  2.346800  3.532369  1.881181  0.973597  2.993708
   H ( 10)  2.056622  1.091898  2.058445  2.130092  2.964587  2.833651
             H (  7)   H (  8)   H (  9)
   H (  8)  2.854181
   H (  9)  2.689222  4.214703
   H ( 10)  2.157937  2.189596  2.891445
 
 A cutoff of  1.0D-12 yielded   5060 shell pairs
 There are     35948 function pairs (     46182 Cartesian)
 Smallest overlap matrix eigenvalue = 1.18E-05

 Scale SEOQF with 1.000000e-01/1.000000e-01/1.000000e-01

 Standard Electronic Orientation quadrupole field applied
 Nucleus-field energy     =     0.0000000053 hartrees
 Guess from superposition of atomic densities
 Warning:  Energy on first SCF cycle will be non-variational
 SAD guess density has 48.000000 electrons

 -----------------------------------------------------------------------
  General SCF calculation program by
  Eric Jon Sundstrom, Paul Horn, Yuezhi Mao, Dmitri Zuev, Alec White,
  David Stuck, Shaama M.S., Shane Yost, Joonho Lee, David Small,
  Daniel Levine, Susi Lehtola, Hugh Burton, Evgeny Epifanovsky,
  Bang C. Huynh
 -----------------------------------------------------------------------
 Exchange:     0.1500 Hartree-Fock + 1.0000 wB97M-V + LR-HF
 Correlation:  1.0000 wB97M-V
 Using SG-2 standard quadrature grid
 Nonlocal Correlation:  VV10 with C = 0.0100 and b = 6.00 and scale = 1.00000
 Grid used for NLC:  SG-1 standard quadrature
 
 Citation of the SMD model:
 Marenich, A.V.; Cramer, C.J.; Truhlar, D.G.
 J. Phys. Chem. B 2009, 113, 6378-6396.
 iSolventCode=           1
 Solvent: water                                                           
 
 vradii
            1           2           3           4           5           6
    1   1.5200000   1.8500000   1.5200000   1.8500000   1.5200000   1.5200000
            7           8           9          10
    1   1.2000000   1.2000000   1.2000000   1.2000000
 using 4 threads for integral computing
 -------------------------------------------------------
 OpenMP Integral computing Module                
 Release: version 1.0, May 2013, Q-Chem Inc. Pittsburgh 
 -------------------------------------------------------
 -------------------------------------------------------
 OpenMP BLAS3 based DFT computing Module                
 Release: version 1.0, May 2013, Q-Chem Inc. Pittsburgh 
 -------------------------------------------------------
 A restricted SCF calculation will be
 performed using DIIS, GDM
 SCF converges when RMS gradient is below 1.0e-07
 ---------------------------------------
  Cycle       Energy         DIIS error
 ---------------------------------------
    1    -380.7362714379      3.05e-02  
    2    -379.4280230502      5.03e-03  Done DIIS. Switching to GDM
 ---------------------------------------
  Cycle       Energy        RMS Gradient
 ---------------------------------------
    1    -379.4280230502      9.42e-02   Descent step
    2    -379.5842370654      3.19e-02   Normal BFGS step
    3    -379.6000718035      1.09e-02   Normal BFGS step
    4    -379.6008423164      7.56e-03   Normal BFGS step
    5    -379.6017353346      4.05e-04   Normal BFGS step
    6    -379.6017436440      3.12e-04   Normal BFGS step
    7    -379.6017454094      1.15e-04   Normal BFGS step
    8    -379.6017457239      2.24e-05   Normal BFGS step
    9    -379.6017457512      1.13e-05   Normal BFGS step
   10    -379.6017457538      4.51e-06   Normal BFGS step
   11    -379.6017457542      9.34e-07   Normal BFGS step
   12    -379.6017457542      4.98e-07   Normal BFGS step
   13    -379.6017457543      1.33e-07   Normal BFGS step
   14    -379.6017457543      8.47e-08  Convergence criterion met
 ---------------------------------------
 SCF time:   CPU 516.11s  wall 130.00s 
(3)  G-ENP(liq) elect-nuc-pol free energy of system     -379.601745754 a.u.
(4)  G-CDS(liq) cavity-dispersion-solvent structure 
     free energy                                                4.3442 kcal/mol
(6)  G-S(liq) free energy of system                     -379.594822791 a.u.
 SCF   energy in the final basis set =     -379.5948227907
 Total energy in the final basis set =     -379.5948227907
 
 --------------------------------------------------------------
 
                    Orbital Energies (a.u.)
 --------------------------------------------------------------
 
 Alpha MOs
 -- Occupied --
-19.3873 -19.3585 -19.3537 -19.3365 -10.4927 -10.4659  -1.2562  -1.2062
 -1.1713  -1.1438  -0.8483  -0.7373  -0.6738  -0.6594  -0.6577  -0.5838
 -0.5628  -0.5281  -0.5159  -0.4910  -0.4443  -0.4308  -0.4260  -0.3981
 -- Virtual --
  0.0328   0.0552   0.0585   0.0672   0.0830   0.0876   0.1037   0.1088
  0.1098   0.1115   0.1430   0.1445   0.1522   0.1582   0.1757   0.1884
  0.1968   0.2129   0.2310   0.2424   0.2481   0.2573   0.2637   0.2698
  0.2934   0.2972   0.3079   0.3157   0.3204   0.3304   0.3349   0.3524
  0.3586   0.3700   0.3711   0.3810   0.3886   0.3947   0.3994   0.4073
  0.4150   0.4272   0.4284   0.4378   0.4602   0.4706   0.4758   0.4770
  0.4876   0.5107   0.5202   0.5354   0.5463   0.5567   0.5819   0.5878
  0.5953   0.6019   0.6116   0.6167   0.6275   0.6413   0.6653   0.6689
  0.6783   0.6863   0.6924   0.7059   0.7216   0.7404   0.7518   0.7574
  0.7640   0.7734   0.7968   0.8033   0.8225   0.8419   0.8538   0.8687
  0.8992   0.9103   0.9224   0.9372   0.9641   0.9829   0.9961   1.0210
  1.0325   1.0406   1.0709   1.0944   1.1207   1.1354   1.1571   1.1839
  1.2160   1.2409   1.2572   1.2695   1.2878   1.3079   1.3203   1.3456
  1.4106   1.4456   1.5502   1.5737   1.7090   1.7314   1.7713   1.7858
  1.8184   1.8328   1.8471   1.8553   1.8743   1.8895   1.9109   1.9144
  1.9456   2.0368   2.0438   2.0728   2.1053   2.1139   2.1705   2.2032
  2.2221   2.2563   2.2726   2.3041   2.3480   2.3680   2.3819   2.3967
  2.4202   2.4660   2.4822   2.5354   2.5615   2.6112   2.6459   2.6969
  2.7177   2.7857   2.8166   2.8416   2.8774   2.9338   2.9384   2.9926
  3.0275   3.0395   3.0613   3.1428   3.1508   3.1796   3.2306   3.2380
  3.2841   3.3306   3.3627   3.3831   3.4138   3.4379   3.4486   3.4649
  3.4783   3.5362   3.5457   3.5724   3.6105   3.6469   3.6745   3.7147
  3.7246   3.8000   3.9010   3.9710   4.0236   4.0392   4.1177   4.2175
  4.2801   4.3443   4.4623   4.6954   4.7842   4.8369   4.8950   4.9354
  5.2666   5.2993   5.3230   5.3289   5.4237   5.4372   5.4580   5.4767
  5.5431   5.5583   5.5984   5.6709   5.6898   5.6942   5.8670   5.8835
  5.9749   6.0075   6.0340   6.1141   6.1509   6.2242   6.2983   6.3840
  6.4512   6.4821   6.5687   6.5760   6.6354   6.6626   6.6943   6.7335
  6.7939   6.8319   6.8665   6.8903   6.9434   6.9728   6.9985   7.0970
  7.1899   7.2217   7.2845   7.3471   7.3587   7.3809   7.3974   7.4525
 23.0384  23.7909  44.5612  44.6126  44.7090  44.7676
 --------------------------------------------------------------
 
          Ground-State Mulliken Net Atomic Charges

     Atom                 Charge (a.u.)
  ----------------------------------------
      1 O                    -0.652357
      2 C                     0.547755
      3 O                    -0.590430
      4 C                     0.325151
      5 O                    -0.498509
      6 O                    -0.668931
      7 H                     0.393985
      8 H                     0.391334
      9 H                     0.421789
     10 H                     0.330212
  ----------------------------------------
  Sum of atomic charges =     0.000000

 -----------------------------------------------------------------
                    Cartesian Multipole Moments
 -----------------------------------------------------------------
    Charge (ESU x 10^10)
                 0.0000
    Dipole Moment (Debye)
         X      -6.2825      Y       4.1548      Z       4.1172
       Tot       8.5839
    Quadrupole Moments (Debye-Ang)
        XX     -36.0958     XY       6.3615     YY     -38.0929
        XZ      -4.8949     YZ       1.0412     ZZ     -32.0714
    Octopole Moments (Debye-Ang^2)
       XXX     -79.1520    XXY      14.3892    XYY     -26.0630
       YYY      44.2996    XXZ      -5.1823    XYZ      -0.1888
       YYZ      -3.7292    XZZ     -15.2352    YZZ       9.9221
       ZZZ     -21.3863
    Hexadecapole Moments (Debye-Ang^3)
      XXXX    -376.5289   XXXY      40.6844   XXYY     -96.8242
      XYYY      40.8870   YYYY    -247.0378   XXXZ     -36.6682
      XXYZ       2.5229   XYYZ     -13.6366   YYYZ      -0.4137
      XXZZ     -69.1619   XYZZ       3.2520   YYZZ     -49.2006
      XZZZ     -27.3059   YZZZ      -8.4188   ZZZZ     -63.8688
 -----------------------------------------------------------------
 Total job time:  130.90s(wall), 518.42s(cpu) 
 Mon Feb  5 12:40:40 2024

        *************************************************************
        *                                                           *
        *  Thank you very much for using Q-Chem.  Have a nice day.  *
        *                                                           *
        *************************************************************


