
Running Job 1 of 1 Q_in.in
qchem Q_in.in_24530.0 /scratch/ari.fischer/qChem1854177.hpc-mn1/qchem24530/ 0
/usr/local/qchem-5.4.1/exe/qcprog.exe_s Q_in.in_24530.0 /scratch/ari.fischer/qChem1854177.hpc-mn1/qchem24530/
                  Welcome to Q-Chem
     A Quantum Leap Into The Future Of Chemistry


 Q-Chem 5.4, Q-Chem, Inc., Pleasanton, CA (2021)

 License issued to: Nanyang Technological University (site)

 E. Epifanovsky,  A. T. B. Gilbert,  Xintian Feng,  Joonho Lee,  Yuezhi Mao,  
 N. Mardirossian,  P. Pokhilko,  A. White,  M. Wormit,  M. P. Coons,  
 A. L. Dempwolff,  Zhengting Gan,  D. Hait,  P. R. Horn,  L. D. Jacobson,  
 I. Kaliman,  J. Kussmann,  A. W. Lange,  Ka Un Lao,  D. S. Levine,  Jie Liu,  
 S. C. McKenzie,  A. F. Morrison,  K. Nanda,  F. Plasser,  D. R. Rehn,  
 M. L. Vidal,  Zhi-Qiang You,  Ying Zhu,  B. Alam,  B. Albrecht,  
 A. Aldossary,  E. Alguire,  J. H. Andersen,  D. Barton,  K. Begam,  A. Behn,  
 Y. A. Bernard,  E. J. Berquist,  H. Burton,  A. Carreras,  K. Carter-Fenk,  
 R. Chakraborty,  A. D. Chien,  K. D. Closser,  V. Cofer-Shabica,  
 S. Dasgupta,  Jia Deng,  M. de Wergifosse,  M. Diedenhofen,  Hainam Do,  
 S. Ehlert,  Po-Tung Fang,  S. Fatehi,  Qingguo Feng,  T. Friedhoff,  
 J. Gayvert,  Qinghui Ge,  G. Gidofalvi,  M. Goldey,  J. Gomes,  
 C. Gonzalez-Espinoza,  S. Gulania,  A. Gunina,  M. W. D. Hanson-Heine,  
 P. H. P. Harbach,  A. W. Hauser,  M. F. Herbst,  M. Hernandez Vera,  
 M. Hodecker,  Z. C. Holden,  S. Houck,  Xunkun Huang,  Kerwin Hui,  
 B. C. Huynh,  M. Ivanov,  Hyunjun Ji,  Hanjie Jiang,  B. Kaduk,  S. Kaehler,  
 K. Khistyaev,  Jaehoon Kim,  P. Klunzinger,  Z. Koczor-Benda,  
 Joong Hoon Koh,  D. Kosenkov,  L. Koulias,  T. Kowalczyk,  C. M. Krauter,  
 K. Kue,  A. Kunitsa,  T. Kus,  A. Landau,  K. V. Lawler,  D. Lefrancois,  
 S. Lehtola,  Rain Li,  Yi-Pei Li,  Jiashu Liang,  M. Liebenthal,  
 Hung-Hsuan Lin,  You-Sheng Lin,  Fenglai Liu,  Kuan-Yu Liu,  
 M. Loipersberger,  A. Luenser,  A. Manjanath,  P. Manohar,  E. Mansoor,  
 S. F. Manzer,  Shan-Ping Mao,  A. V. Marenich,  T. Markovich,  S. Mason,  
 S. A. Maurer,  P. F. McLaughlin,  M. F. S. J. Menger,  J.-M. Mewes,  
 S. A. Mewes,  P. Morgante,  J. W. Mullinax,  K. J. Oosterbaan,  G. Paran,  
 Alexander C. Paul,  Suranjan K. Paul,  F. Pavosevic,  Zheng Pei,  S. Prager,  
 E. I. Proynov,  E. Ramos,  B. Rana,  A. E. Rask,  A. Rettig,  R. M. Richard,  
 F. Rob,  E. Rossomme,  T. Scheele,  M. Scheurer,  M. Schneider,  
 N. Sergueev,  S. M. Sharada,  W. Skomorowski,  D. W. Small,  C. J. Stein,  
 Yu-Chuan Su,  E. J. Sundstrom,  Zhen Tao,  J. Thirman,  T. Tsuchimochi,  
 N. M. Tubman,  S. P. Veccham,  O. Vydrov,  J. Wenzel,  J. Witte,  A. Yamada,  
 Kun Yao,  S. Yeganeh,  S. R. Yost,  A. Zech,  Igor Ying Zhang,  Xing Zhang,  
 Yu Zhang,  D. Zuev,  A. Aspuru-Guzik,  A. T. Bell,  N. A. Besley,  
 K. B. Bravaya,  B. R. Brooks,  D. Casanova,  Jeng-Da Chai,  S. Coriani,  
 C. J. Cramer,  A. E. DePrince, III,  R. A. DiStasio Jr.,  A. Dreuw,  
 B. D. Dunietz,  T. R. Furlani,  W. A. Goddard III,  S. Grimme,  
 S. Hammes-Schiffer,  T. Head-Gordon,  W. J. Hehre,  Chao-Ping Hsu,  
 T.-C. Jagau,  Yousung Jung,  A. Klamt,  Jing Kong,  D. S. Lambrecht,  
 WanZhen Liang,  N. J. Mayhall,  C. W. McCurdy,  J. B. Neaton,  
 C. Ochsenfeld,  J. A. Parkhill,  R. Peverati,  V. A. Rassolov,  Yihan Shao,  
 L. V. Slipchenko,  T. Stauch,  R. P. Steele,  J. E. Subotnik,  
 A. J. W. Thom,  A. Tkatchenko,  D. G. Truhlar,  T. Van Voorhis,  
 T. A. Wesolowski,  K. B. Whaley,  H. L. Woodcock III,  P. M. Zimmerman,  
 S. Faraji,  P. M. W. Gill,  M. Head-Gordon,  J. M. Herbert,  A. I. Krylov

 Additional authors for Version 5.4.1: 
 S. Kotaru,  Shaozhi Li,  Xiangyuan Li,  F. Matz,  A. Molle,  Haisheng Ren,  
 Yingli Su,  Hung-Yi Tsai,  C. Utku,  Fang Wang

 Contributors to earlier versions of Q-Chem not listed above: 
 R. D. Adamson,  B. Austin,  R. Baer,  J. Baker,  G. J. O. Beran,  
 K. Brandhorst,  S. T. Brown,  E. F. C. Byrd,  A. K. Chakraborty,  
 G. K. L. Chan,  Chun-Min Chang,  Yunqing Chen,  C.-L. Cheng,  
 Siu Hung Chien,  D. M. Chipman,  D. L. Crittenden,  H. Dachsel,  
 R. J. Doerksen,  A. D. Dutoi,  R. G. Edgar,  J. Fosso-Tande,  
 L. Fusti-Molnar,  D. Ghosh,  A. Ghysels,  A. Golubeva-Zadorozhnaya,  
 J. Gonthier,  M. S. Gordon,  S. R. Gwaltney,  G. Hawkins,  J. E. Herr,  
 A. Heyden,  S. Hirata,  E. G. Hohenstein,  G. Kedziora,  F. J. Keil,  
 C. Kelley,  Jihan Kim,  R. A. King,  R. Z. Khaliullin,  P. P. Korambath,  
 W. Kurlancheek,  A. Laurent,  A. M. Lee,  M. S. Lee,  S. V. Levchenko,  
 Ching Yeh Lin,  D. Liotard,  E. Livshits,  R. C. Lochan,  I. Lotan,  
 L. A. Martinez-Martinez,  P. E. Maslen,  N. Nair,  D. P. O'Neill,  
 D. Neuhauser,  E. Neuscamman,  C. M. Oana,  R. Olivares-Amaya,  R. Olson,  
 T. M. Perrine,  B. Peters,  P. A. Pieniazek,  A. Prociuk,  Y. M. Rhee,  
 J. Ritchie,  M. A. Rohrdanz,  E. Rosta,  N. J. Russ,  H. F. Schaefer III,  
 M. W. Schmidt,  N. E. Schultz,  S. Sharma,  N. Shenvi,  C. D. Sherrill,  
 A. C. Simmonett,  A. Sodt,  T. Stein,  D. Stuck,  K. S. Thanthiriwatte,  
 V. Vanovschi,  L. Vogt,  Tao Wang,  A. Warshel,  M. A. Watson,  
 C. F. Williams,  Q. Wu,  X. Xu,  Jun Yang,  W. Zhang,  Yan Zhao

 Please cite Q-Chem as follows:
 Y. Shao et al., Mol. Phys. 113, 184-215 (2015)
 DOI: 10.1080/00268976.2014.952696

 Q-Chem 5.4.1 for Intel X86 EM64T Linux

 Parts of Q-Chem use Armadillo 9.800.1 (Horizon Scraper).
 http://arma.sourceforge.net/

 Q-Chem begins on Thu Dec  7 16:04:18 2023  

 Host: 
0

     Scratch files written to /scratch/ari.fischer/qChem1854177.hpc-mn1/qchem24530//
 Aug1521 |scratch|qcdevops|jenkins|workspace|build_RNUM 8249   
 Processing $rem in /usr/local/qchem-5.4.1/config/preferences:
 Processing $rem in /home/ari.fischer/.qchemrc:
 Symmetry turned off for PCM/SM12/SMD calculation

 Checking the input file for inconsistencies... 	...done.

--------------------------------------------------------------
User input:
--------------------------------------------------------------
$molecule
-1 2
C         0.6332016938    0.2492218888    0.7584201423
O         1.4025855345   -0.2466265649    1.5928966321
H        -1.9375709960   -1.0123331655   -0.8866207339
C        -0.5876356319   -0.6521105713    0.4044916578
O        -0.8569532521   -1.6133086963    1.1906387653
O        -1.1874161180   -0.4200235349   -0.6924266891
O         0.6788790895    1.3139223991    0.1285257991
O        -1.4798178908    1.1120009332    2.5219901422
O        -2.4778756125    0.8597842175    1.6870392901
H        -1.6207131163   -2.1609506057    0.9312915941
$end

$rem
BASIS = def2-TZVP
JOB_TYPE = SP
METHOD = wB97M-V
SCF_ALGORITHM = DIIS_GDM
MAX_SCF_CYCLES = 400
SCF_CONVERGENCE = 7
THRESH = 12
Solvent_method = SMD
$end
--------------------------------------------------------------
 ----------------------------------------------------------------
             Standard Nuclear Orientation (Angstroms)
    I     Atom           X                Y                Z
 ----------------------------------------------------------------
    1      C       0.6332016938     0.2492218888     0.7584201423
    2      O       1.4025855345    -0.2466265649     1.5928966321
    3      H      -1.9375709960    -1.0123331655    -0.8866207339
    4      C      -0.5876356319    -0.6521105713     0.4044916578
    5      O      -0.8569532521    -1.6133086963     1.1906387653
    6      O      -1.1874161180    -0.4200235349    -0.6924266891
    7      O       0.6788790895     1.3139223991     0.1285257991
    8      O      -1.4798178908     1.1120009332     2.5219901422
    9      O      -2.4778756125     0.8597842175     1.6870392901
   10      H      -1.6207131163    -2.1609506057     0.9312915941
 ----------------------------------------------------------------
 Nuclear Repulsion Energy =         379.23554331 hartrees
 There are       32 alpha and       31 beta electrons
 Requested basis set is def2-TZVP
 There are 96 shells and 260 basis functions

 Total QAlloc Memory Limit 288000 MB
 Mega-Array Size       188 MB
 MEM_STATIC part       192 MB
 
 Citation of the SMD model:
 Marenich, A.V.; Cramer, C.J.; Truhlar, D.G.
 J. Phys. Chem. B 2009, 113, 6378-6396.
 iSolventCode=           1
 Solvent: water                                                           
 
 vradii
            1           2           3           4           5           6
    1   1.8500000   1.5200000   1.2000000   1.8500000   1.5200000   1.5200000
            7           8           9          10
    1   1.5200000   1.5200000   1.5200000   1.2000000
 Changing PCM_VDW_RADII to SMD_RADIUS
 Discretize the solute cavity surface with Lebedev spheres
	Using 110 Lebedev grid points for each H atom
	Using 194 Lebedev grid points for other atoms
	Atomic van der Waals radii will be scaled by 1.20
 Remove points where switching function is < 1.0e-08
 Keep 1045 surface tesserae and discard 727 interior tesserae
 Molecular Surface Area = 126.290 Angst**2

                       Distance Matrix (Angstroms)
             C (  1)   O (  2)   H (  3)   C (  4)   O (  5)   O (  6)
   O (  2)  1.238615
   H (  3)  3.302507  4.229771
   C (  4)  1.558239  2.353233  1.902382
   O (  5)  2.424128  2.671170  2.417419  1.270614
   O (  6)  2.422291  3.458450  0.975333  1.271547  2.253679
   O (  7)  1.237918  2.259081  3.645243  2.354889  3.472110  2.676488
   O (  8)  2.884340  3.319237  4.042395  2.896874  3.096412  3.572824
   O (  9)  3.303623  4.036209  3.228077  2.739299  2.998331  2.994170
   H ( 10)  3.304383  3.639051  2.173598  1.902989  0.974937  2.419718
             O (  7)   O (  8)   O (  9)
   O (  8)  3.229461
   O (  9)  3.549691  1.325472
   H ( 10)  4.243501  3.641756  3.229663
 
 A cutoff of  1.0D-12 yielded   4174 shell pairs
 There are     31340 function pairs (     41648 Cartesian)
 Smallest overlap matrix eigenvalue = 4.43E-04

 Scale SEOQF with 1.000000e-01/1.000000e-01/1.000000e-01

 Standard Electronic Orientation quadrupole field applied
 Nucleus-field energy     =    -0.0000000039 hartrees
 Guess from superposition of atomic densities
 Warning:  Energy on first SCF cycle will be non-variational
 SAD guess density has 62.000000 electrons

 -----------------------------------------------------------------------
  General SCF calculation program by
  Eric Jon Sundstrom, Paul Horn, Yuezhi Mao, Dmitri Zuev, Alec White,
  David Stuck, Shaama M.S., Shane Yost, Joonho Lee, David Small,
  Daniel Levine, Susi Lehtola, Hugh Burton, Evgeny Epifanovsky,
  Bang C. Huynh
 -----------------------------------------------------------------------
 Exchange:     0.1500 Hartree-Fock + 1.0000 wB97M-V + LR-HF
 Correlation:  1.0000 wB97M-V
 Using SG-2 standard quadrature grid
 Nonlocal Correlation:  VV10 with C = 0.0100 and b = 6.00 and scale = 1.00000
 Grid used for NLC:  SG-1 standard quadrature
 
 Citation of the SMD model:
 Marenich, A.V.; Cramer, C.J.; Truhlar, D.G.
 J. Phys. Chem. B 2009, 113, 6378-6396.
 iSolventCode=           1
 Solvent: water                                                           
 
 vradii
            1           2           3           4           5           6
    1   1.8500000   1.5200000   1.2000000   1.8500000   1.5200000   1.5200000
            7           8           9          10
    1   1.5200000   1.5200000   1.5200000   1.2000000
 using 4 threads for integral computing
 -------------------------------------------------------
 OpenMP Integral computing Module                
 Release: version 1.0, May 2013, Q-Chem Inc. Pittsburgh 
 -------------------------------------------------------
 -------------------------------------------------------
 OpenMP BLAS3 based DFT computing Module                
 Release: version 1.0, May 2013, Q-Chem Inc. Pittsburgh 
 -------------------------------------------------------
 A unrestricted SCF calculation will be
 performed using DIIS, GDM
 SCF converges when RMS gradient is below 1.0e-07
 ---------------------------------------
  Cycle       Energy         DIIS error
 ---------------------------------------
    1    -529.7458897673      1.67e-02  
    2    -528.6124448338      3.10e-03  Done DIIS. Switching to GDM
 ---------------------------------------
  Cycle       Energy        RMS Gradient
 ---------------------------------------
    1    -528.6124448338      1.69e-01   Descent step
    2    -528.8289511152      5.54e-02   Normal BFGS step
    3    -528.8664715803      8.56e-03   Normal BFGS step
    4    -528.8679675701      4.59e-03   Normal BFGS step
    5    -528.8683687518      9.35e-04   Normal BFGS step
    6    -528.8683824066      1.69e-03   Normal BFGS step
    7    -528.8683869636      5.82e-04   Normal BFGS step
    8    -528.8683883118      4.06e-04   Normal BFGS step
    9    -528.8683886734      4.05e-04   Normal BFGS step
   10    -528.8683890150      4.02e-04   Normal BFGS step
   11    -528.8683899334      3.94e-04   Normal BFGS step
   12    -528.8683915021      4.56e-04   Normal BFGS step
   13    -528.8683943794      7.64e-04   Normal BFGS step
   14    -528.8683992171      1.09e-03   Normal BFGS step
   15    -528.8684053435      1.21e-03   Normal BFGS step
   16    -528.8684103236      7.97e-04   Normal BFGS step
   17    -528.8684119497      3.11e-04   Normal BFGS step
   18    -528.8684122851      1.64e-04   Normal BFGS step
   19    -528.8684124118      5.46e-05   Normal BFGS step
   20    -528.8684124452      1.77e-05   Normal BFGS step
   21    -528.8684124485      7.69e-06   Normal BFGS step
   22    -528.8684124489      3.19e-06   Normal BFGS step
   23    -528.8684124490      1.75e-06   Normal BFGS step
   24    -528.8684124490      1.23e-06   Normal BFGS step
   25    -528.8684124490      5.03e-07   Normal BFGS step
   26    -528.8684124490      1.56e-07   Normal BFGS step
   27    -528.8684124489      9.68e-08  Convergence criterion met
 ---------------------------------------
 SCF time:   CPU 907.46s  wall 228.00s 
<S^2> =          0.754305423
(3)  G-ENP(liq) elect-nuc-pol free energy of system     -528.868412449 a.u.
(4)  G-CDS(liq) cavity-dispersion-solvent structure 
     free energy                                                5.1142 kcal/mol
(6)  G-S(liq) free energy of system                     -528.860262447 a.u.
 SCF   energy in the final basis set =     -528.8602624468
 Total energy in the final basis set =     -528.8602624468
 
 --------------------------------------------------------------
 
                    Orbital Energies (a.u.)
 --------------------------------------------------------------
 
 Alpha MOs
 -- Occupied --
-19.4346 -19.4344 -19.3266 -19.3265 -19.2999 -19.2996 -10.5461 -10.4703
 -1.3216  -1.2406  -1.2078  -1.1901  -1.1059  -0.8649  -0.8567  -0.7716
 -0.7076  -0.6341  -0.6262  -0.5705  -0.5500  -0.5378  -0.5324  -0.5187
 -0.5133  -0.5003  -0.4843  -0.3888  -0.3851  -0.3797  -0.3174  -0.2859
 -- Virtual --
  0.0164   0.0966   0.1524   0.1732   0.1821   0.2333   0.2493   0.2659
  0.3078   0.3304   0.3444   0.3509   0.3559   0.3986   0.4007   0.4298
  0.4459   0.4557   0.4772   0.4944   0.4987   0.5142   0.5443   0.5488
  0.5514   0.5627   0.5772   0.5917   0.6106   0.6257   0.6400   0.6552
  0.6756   0.7010   0.7177   0.7447   0.7530   0.7646   0.8099   0.8525
  0.8769   0.8935   0.9232   0.9412   0.9681   1.0196   1.0518   1.0741
  1.0928   1.1641   1.1978   1.2643   1.3679   1.3797   1.3875   1.4184
  1.4351   1.4707   1.4944   1.5075   1.5334   1.5429   1.5706   1.6141
  1.6195   1.6620   1.6770   1.7174   1.7382   1.7950   1.8149   1.8365
  1.8493   1.8636   1.9081   1.9420   1.9656   1.9768   2.0165   2.0427
  2.0593   2.1050   2.1225   2.1462   2.2062   2.2080   2.2291   2.2647
  2.2798   2.2927   2.2984   2.3127   2.3553   2.3554   2.4245   2.4804
  2.5559   2.5953   2.6236   2.6446   2.6948   2.7270   2.7330   2.8009
  2.8537   2.8707   2.8914   2.8999   2.9077   2.9140   2.9381   3.0081
  3.0342   3.0395   3.0799   3.0975   3.1148   3.1219   3.1448   3.1562
  3.1665   3.2313   3.2575   3.3441   3.3545   3.3774   3.4063   3.4313
  3.4581   3.4917   3.5371   3.5861   3.6496   3.7027   3.7200   3.8009
  3.8216   3.8952   4.0520   4.0765   4.1926   4.3175   4.3483   4.4123
  4.4757   4.5325   4.6572   4.8062   4.8122   4.8512   4.8978   4.9220
  5.0322   5.1880   5.2020   5.2031   5.2685   5.2722   5.2936   5.3173
  5.3214   5.3330   5.3355   5.3498   5.4487   5.4927   5.5205   5.5333
  5.6088   5.6631   5.6918   5.6948   5.6978   5.7879   5.9362   5.9606
  6.0026   6.0571   6.1318   6.1726   6.2669   6.2746   6.2777   6.3110
  6.3323   6.3459   6.3684   6.3813   6.4090   6.4559   6.4754   6.4851
  6.4853   6.5050   6.5162   6.5463   6.5808   6.5911   6.6117   6.6175
  6.6236   6.7541   6.7888   6.8637   6.8818   6.8885   6.9067   7.0019
  7.0574   7.1031   7.1067   7.1651   7.2114   7.2551   7.2779   7.3455
  7.4135   7.4305   7.6463   8.5982  23.5285  23.8525  43.6738  44.1916
 44.2196  44.2305  44.3316  44.5054
 
 Beta MOs
 -- Occupied --
-19.4347 -19.4344 -19.3123 -19.3122 -19.2999 -19.2996 -10.5461 -10.4703
 -1.3216  -1.2406  -1.1904  -1.1785  -1.1059  -0.8649  -0.8145  -0.7716
 -0.7076  -0.6338  -0.6262  -0.5705  -0.5500  -0.5371  -0.5298  -0.5045
 -0.4924  -0.4697  -0.4303  -0.3886  -0.3848  -0.3795  -0.2669
 -- Virtual --
  0.0165   0.0458   0.0968   0.1527   0.1738   0.1824   0.2356   0.2539
  0.2721   0.3089   0.3321   0.3453   0.3522   0.3569   0.4008   0.4032
  0.4311   0.4488   0.4636   0.4809   0.4960   0.5021   0.5165   0.5500
  0.5508   0.5531   0.5661   0.5804   0.5934   0.6172   0.6279   0.6492
  0.6591   0.6780   0.7028   0.7206   0.7458   0.7546   0.7676   0.8109
  0.8535   0.8777   0.8958   0.9236   0.9435   0.9708   1.0203   1.0521
  1.0753   1.0941   1.1646   1.1981   1.2643   1.3688   1.3799   1.3882
  1.4193   1.4571   1.4797   1.4968   1.5121   1.5353   1.5539   1.5791
  1.6154   1.6198   1.6646   1.6772   1.7242   1.7501   1.8112   1.8219
  1.8410   1.8519   1.8670   1.9111   1.9431   1.9695   1.9779   2.0186
  2.0564   2.0616   2.1058   2.1228   2.1467   2.2073   2.2083   2.2588
  2.2675   2.2845   2.2970   2.3047   2.3163   2.3557   2.3559   2.4248
  2.4807   2.5599   2.5983   2.6271   2.6936   2.7110   2.7315   2.7406
  2.8022   2.8602   2.8777   2.9014   2.9147   2.9239   2.9375   2.9543
  3.0113   3.0364   3.0407   3.0826   3.1061   3.1205   3.1249   3.1531
  3.1581   3.1749   3.2321   3.2620   3.3446   3.3546   3.3780   3.4064
  3.4316   3.4587   3.4920   3.5372   3.5865   3.6496   3.7028   3.7201
  3.8011   3.8216   3.8954   4.0520   4.0765   4.1927   4.3203   4.3629
  4.4125   4.4758   4.5328   4.6574   4.8142   4.8411   4.8606   4.9259
  4.9487   5.0478   5.1888   5.2437   5.2444   5.2687   5.2724   5.2937
  5.3183   5.3218   5.3478   5.3763   5.3792   5.4487   5.4928   5.5205
  5.5334   5.6088   5.6632   5.6970   5.7226   5.7261   5.7879   5.9362
  5.9607   6.0027   6.0573   6.1319   6.1730   6.2684   6.2793   6.3226
  6.3273   6.3433   6.3724   6.3917   6.3999   6.4440   6.4606   6.4944
  6.5091   6.5331   6.5400   6.5587   6.5635   6.5907   6.6058   6.6203
  6.6225   6.6280   6.7542   6.7915   6.8645   6.8828   6.8896   6.9068
  7.0021   7.0575   7.1034   7.1067   7.2081   7.2219   7.2555   7.2780
  7.3463   7.4187   7.4505   7.6465   8.6151  23.5286  23.8525  43.6862
 44.2023  44.2200  44.2318  44.3316  44.5055
 --------------------------------------------------------------
 
          Ground-State Mulliken Net Atomic Charges

     Atom                 Charge (a.u.)    Spin (a.u.)
  --------------------------------------------------------
      1 C                     0.317392      -0.002336
      2 O                    -0.551474      -0.000382
      3 H                     0.430806      -0.000140
      4 C                     0.418982      -0.001082
      5 O                    -0.284012      -0.000462
      6 O                    -0.280573      -0.000230
      7 O                    -0.553348       0.000123
      8 O                    -0.459601       0.505804
      9 O                    -0.469380       0.498739
     10 H                     0.431209      -0.000033
  --------------------------------------------------------
  Sum of atomic charges =    -1.000000
  Sum of spin   charges =     1.000000

 -----------------------------------------------------------------
                    Cartesian Multipole Moments
 -----------------------------------------------------------------
    Charge (ESU x 10^10)
                -4.8032
    Dipole Moment (Debye)
         X      -2.4588      Y     -13.0000      Z     -13.0854
       Tot      18.6084
    Quadrupole Moments (Debye-Ang)
        XX     -59.9344     XY      18.4200     YY     -46.6756
        XZ      11.4668     YZ      -8.7109     ZZ     -73.4591
    Octopole Moments (Debye-Ang^2)
       XXX      80.8122    XXY     -47.0237    XYY       8.3985
       YYY     -49.5412    XXZ     -94.3375    XYZ      22.4892
       YYZ     -55.1614    XZZ      45.5365    YZZ     -28.7275
       ZZZ    -200.5214
    Hexadecapole Moments (Debye-Ang^3)
      XXXX    -625.6506   XXXY     103.5682   XXYY    -127.3254
      XYYY      63.3379   YYYY    -266.2134   XXXZ     177.5683
      XXYZ     -56.2430   XYYZ      45.7544   YYYZ     -73.5169
      XXZZ    -263.5218   XYZZ      59.8429   YYZZ    -168.9786
      XZZZ     170.9214   YZZZ     -99.6246   ZZZZ    -710.0072
 -----------------------------------------------------------------
 Total job time:  228.95s(wall), 909.34s(cpu) 
 Thu Dec  7 16:08:07 2023

        *************************************************************
        *                                                           *
        *  Thank you very much for using Q-Chem.  Have a nice day.  *
        *                                                           *
        *************************************************************


