
Running Job 1 of 1 Q_in.in
qchem Q_in.in_383757.0 /scratch/ari.fischer/qChem1912892.hpc-mn1/qchem383757/ 0
/usr/local/qchem-5.4.1/exe/qcprog.exe_s Q_in.in_383757.0 /scratch/ari.fischer/qChem1912892.hpc-mn1/qchem383757/
                  Welcome to Q-Chem
     A Quantum Leap Into The Future Of Chemistry


 Q-Chem 5.4, Q-Chem, Inc., Pleasanton, CA (2021)

 License issued to: Nanyang Technological University (site)

 E. Epifanovsky,  A. T. B. Gilbert,  Xintian Feng,  Joonho Lee,  Yuezhi Mao,  
 N. Mardirossian,  P. Pokhilko,  A. White,  M. Wormit,  M. P. Coons,  
 A. L. Dempwolff,  Zhengting Gan,  D. Hait,  P. R. Horn,  L. D. Jacobson,  
 I. Kaliman,  J. Kussmann,  A. W. Lange,  Ka Un Lao,  D. S. Levine,  Jie Liu,  
 S. C. McKenzie,  A. F. Morrison,  K. Nanda,  F. Plasser,  D. R. Rehn,  
 M. L. Vidal,  Zhi-Qiang You,  Ying Zhu,  B. Alam,  B. Albrecht,  
 A. Aldossary,  E. Alguire,  J. H. Andersen,  D. Barton,  K. Begam,  A. Behn,  
 Y. A. Bernard,  E. J. Berquist,  H. Burton,  A. Carreras,  K. Carter-Fenk,  
 R. Chakraborty,  A. D. Chien,  K. D. Closser,  V. Cofer-Shabica,  
 S. Dasgupta,  Jia Deng,  M. de Wergifosse,  M. Diedenhofen,  Hainam Do,  
 S. Ehlert,  Po-Tung Fang,  S. Fatehi,  Qingguo Feng,  T. Friedhoff,  
 J. Gayvert,  Qinghui Ge,  G. Gidofalvi,  M. Goldey,  J. Gomes,  
 C. Gonzalez-Espinoza,  S. Gulania,  A. Gunina,  M. W. D. Hanson-Heine,  
 P. H. P. Harbach,  A. W. Hauser,  M. F. Herbst,  M. Hernandez Vera,  
 M. Hodecker,  Z. C. Holden,  S. Houck,  Xunkun Huang,  Kerwin Hui,  
 B. C. Huynh,  M. Ivanov,  Hyunjun Ji,  Hanjie Jiang,  B. Kaduk,  S. Kaehler,  
 K. Khistyaev,  Jaehoon Kim,  P. Klunzinger,  Z. Koczor-Benda,  
 Joong Hoon Koh,  D. Kosenkov,  L. Koulias,  T. Kowalczyk,  C. M. Krauter,  
 K. Kue,  A. Kunitsa,  T. Kus,  A. Landau,  K. V. Lawler,  D. Lefrancois,  
 S. Lehtola,  Rain Li,  Yi-Pei Li,  Jiashu Liang,  M. Liebenthal,  
 Hung-Hsuan Lin,  You-Sheng Lin,  Fenglai Liu,  Kuan-Yu Liu,  
 M. Loipersberger,  A. Luenser,  A. Manjanath,  P. Manohar,  E. Mansoor,  
 S. F. Manzer,  Shan-Ping Mao,  A. V. Marenich,  T. Markovich,  S. Mason,  
 S. A. Maurer,  P. F. McLaughlin,  M. F. S. J. Menger,  J.-M. Mewes,  
 S. A. Mewes,  P. Morgante,  J. W. Mullinax,  K. J. Oosterbaan,  G. Paran,  
 Alexander C. Paul,  Suranjan K. Paul,  F. Pavosevic,  Zheng Pei,  S. Prager,  
 E. I. Proynov,  E. Ramos,  B. Rana,  A. E. Rask,  A. Rettig,  R. M. Richard,  
 F. Rob,  E. Rossomme,  T. Scheele,  M. Scheurer,  M. Schneider,  
 N. Sergueev,  S. M. Sharada,  W. Skomorowski,  D. W. Small,  C. J. Stein,  
 Yu-Chuan Su,  E. J. Sundstrom,  Zhen Tao,  J. Thirman,  T. Tsuchimochi,  
 N. M. Tubman,  S. P. Veccham,  O. Vydrov,  J. Wenzel,  J. Witte,  A. Yamada,  
 Kun Yao,  S. Yeganeh,  S. R. Yost,  A. Zech,  Igor Ying Zhang,  Xing Zhang,  
 Yu Zhang,  D. Zuev,  A. Aspuru-Guzik,  A. T. Bell,  N. A. Besley,  
 K. B. Bravaya,  B. R. Brooks,  D. Casanova,  Jeng-Da Chai,  S. Coriani,  
 C. J. Cramer,  A. E. DePrince, III,  R. A. DiStasio Jr.,  A. Dreuw,  
 B. D. Dunietz,  T. R. Furlani,  W. A. Goddard III,  S. Grimme,  
 S. Hammes-Schiffer,  T. Head-Gordon,  W. J. Hehre,  Chao-Ping Hsu,  
 T.-C. Jagau,  Yousung Jung,  A. Klamt,  Jing Kong,  D. S. Lambrecht,  
 WanZhen Liang,  N. J. Mayhall,  C. W. McCurdy,  J. B. Neaton,  
 C. Ochsenfeld,  J. A. Parkhill,  R. Peverati,  V. A. Rassolov,  Yihan Shao,  
 L. V. Slipchenko,  T. Stauch,  R. P. Steele,  J. E. Subotnik,  
 A. J. W. Thom,  A. Tkatchenko,  D. G. Truhlar,  T. Van Voorhis,  
 T. A. Wesolowski,  K. B. Whaley,  H. L. Woodcock III,  P. M. Zimmerman,  
 S. Faraji,  P. M. W. Gill,  M. Head-Gordon,  J. M. Herbert,  A. I. Krylov

 Additional authors for Version 5.4.1: 
 S. Kotaru,  Shaozhi Li,  Xiangyuan Li,  F. Matz,  A. Molle,  Haisheng Ren,  
 Yingli Su,  Hung-Yi Tsai,  C. Utku,  Fang Wang

 Contributors to earlier versions of Q-Chem not listed above: 
 R. D. Adamson,  B. Austin,  R. Baer,  J. Baker,  G. J. O. Beran,  
 K. Brandhorst,  S. T. Brown,  E. F. C. Byrd,  A. K. Chakraborty,  
 G. K. L. Chan,  Chun-Min Chang,  Yunqing Chen,  C.-L. Cheng,  
 Siu Hung Chien,  D. M. Chipman,  D. L. Crittenden,  H. Dachsel,  
 R. J. Doerksen,  A. D. Dutoi,  R. G. Edgar,  J. Fosso-Tande,  
 L. Fusti-Molnar,  D. Ghosh,  A. Ghysels,  A. Golubeva-Zadorozhnaya,  
 J. Gonthier,  M. S. Gordon,  S. R. Gwaltney,  G. Hawkins,  J. E. Herr,  
 A. Heyden,  S. Hirata,  E. G. Hohenstein,  G. Kedziora,  F. J. Keil,  
 C. Kelley,  Jihan Kim,  R. A. King,  R. Z. Khaliullin,  P. P. Korambath,  
 W. Kurlancheek,  A. Laurent,  A. M. Lee,  M. S. Lee,  S. V. Levchenko,  
 Ching Yeh Lin,  D. Liotard,  E. Livshits,  R. C. Lochan,  I. Lotan,  
 L. A. Martinez-Martinez,  P. E. Maslen,  N. Nair,  D. P. O'Neill,  
 D. Neuhauser,  E. Neuscamman,  C. M. Oana,  R. Olivares-Amaya,  R. Olson,  
 T. M. Perrine,  B. Peters,  P. A. Pieniazek,  A. Prociuk,  Y. M. Rhee,  
 J. Ritchie,  M. A. Rohrdanz,  E. Rosta,  N. J. Russ,  H. F. Schaefer III,  
 M. W. Schmidt,  N. E. Schultz,  S. Sharma,  N. Shenvi,  C. D. Sherrill,  
 A. C. Simmonett,  A. Sodt,  T. Stein,  D. Stuck,  K. S. Thanthiriwatte,  
 V. Vanovschi,  L. Vogt,  Tao Wang,  A. Warshel,  M. A. Watson,  
 C. F. Williams,  Q. Wu,  X. Xu,  Jun Yang,  W. Zhang,  Yan Zhao

 Please cite Q-Chem as follows:
 Y. Shao et al., Mol. Phys. 113, 184-215 (2015)
 DOI: 10.1080/00268976.2014.952696

 Q-Chem 5.4.1 for Intel X86 EM64T Linux

 Parts of Q-Chem use Armadillo 9.800.1 (Horizon Scraper).
 http://arma.sourceforge.net/

 Q-Chem begins on Mon Feb  5 12:38:33 2024  

 Host: 
0

     Scratch files written to /scratch/ari.fischer/qChem1912892.hpc-mn1/qchem383757//
 Aug1521 |scratch|qcdevops|jenkins|workspace|build_RNUM 8249   
 Processing $rem in /usr/local/qchem-5.4.1/config/preferences:
 Processing $rem in /home/ari.fischer/.qchemrc:
 Symmetry turned off for PCM/SM12/SMD calculation

 Checking the input file for inconsistencies... 	...done.

--------------------------------------------------------------
User input:
--------------------------------------------------------------
$molecule
0 2
O        -0.4628443119    1.4062765168   -0.3338263962
C         0.0001780212    0.4576397441    0.5699888494
O        -0.9991184032   -0.4100108625    0.9945623619
C         1.1585387697   -0.3123762542   -0.0500006829
O         2.0694287861    0.4823349227   -0.5845675524
O         1.2217330546   -1.5180777080   -0.0011624366
H        -1.0496509914    2.0161099922    0.1307241003
H        -0.6649513630   -1.3165348992    0.9062656099
H         2.7994759286   -0.0533732966   -0.9357000371
H         0.4330768658    0.9910550084    1.4857371922
O         1.2872704652    1.6529693057    2.5904387587
H         2.0679795783    1.7852775305    2.0246481329
$end

$rem
BASIS = 6-311++G(3df,2p)
JOB_TYPE = SP
METHOD = wB97M-V
SCF_ALGORITHM = DIIS_GDM
MAX_SCF_CYCLES = 400
SCF_CONVERGENCE = 7
THRESH = 12
Solvent_method = SMD
$end
--------------------------------------------------------------
 ----------------------------------------------------------------
             Standard Nuclear Orientation (Angstroms)
    I     Atom           X                Y                Z
 ----------------------------------------------------------------
    1      O      -0.4628443119     1.4062765168    -0.3338263962
    2      C       0.0001780212     0.4576397441     0.5699888494
    3      O      -0.9991184032    -0.4100108625     0.9945623619
    4      C       1.1585387697    -0.3123762542    -0.0500006829
    5      O       2.0694287861     0.4823349227    -0.5845675524
    6      O       1.2217330546    -1.5180777080    -0.0011624366
    7      H      -1.0496509914     2.0161099922     0.1307241003
    8      H      -0.6649513630    -1.3165348992     0.9062656099
    9      H       2.7994759286    -0.0533732966    -0.9357000371
   10      H       0.4330768658     0.9910550084     1.4857371922
   11      O       1.2872704652     1.6529693057     2.5904387587
   12      H       2.0679795783     1.7852775305     2.0246481329
 ----------------------------------------------------------------
 Nuclear Repulsion Energy =         325.39385223 hartrees
 There are       29 alpha and       28 beta electrons
 Requested basis set is 6-311++G(3df,2p)
 There are 93 shells and 323 basis functions

 Total QAlloc Memory Limit 288000 MB
 Mega-Array Size       188 MB
 MEM_STATIC part       192 MB
 
 Citation of the SMD model:
 Marenich, A.V.; Cramer, C.J.; Truhlar, D.G.
 J. Phys. Chem. B 2009, 113, 6378-6396.
 iSolventCode=           1
 Solvent: water                                                           
 
 vradii
            1           2           3           4           5           6
    1   1.5200000   1.8500000   1.5200000   1.8500000   1.5200000   1.5200000
            7           8           9          10          11          12
    1   1.2000000   1.2000000   1.2000000   1.2000000   1.5200000   1.2000000
 Changing PCM_VDW_RADII to SMD_RADIUS
 Discretize the solute cavity surface with Lebedev spheres
	Using 110 Lebedev grid points for each H atom
	Using 194 Lebedev grid points for other atoms
	Atomic van der Waals radii will be scaled by 1.20
 Remove points where switching function is < 1.0e-08
 Keep 1055 surface tesserae and discard 853 interior tesserae
 Molecular Surface Area = 123.845 Angst**2

                       Distance Matrix (Angstroms)
             O (  1)   C (  2)   O (  3)   C (  4)   O (  5)   O (  6)
   C (  2)  1.389670
   O (  3)  2.313246  1.389847
   C (  4)  2.379749  1.522863  2.399193
   O (  5)  2.707203  2.369685  3.564536  1.321760
   O (  6)  3.391211  2.392043  2.674222  1.208344  2.249578
   H (  7)  0.965425  1.929747  2.575817  3.214127  3.548629  4.203220
   H (  8)  2.998729  1.924363  0.970180  2.290829  3.596575  2.103241
   H (  9)  3.624302  3.219364  4.275795  1.882610  0.971209  2.346911
   H ( 10)  2.070240  1.144783  2.062867  2.140962  2.687491  3.021357
   O ( 11)  3.416882  2.677244  3.468470  3.294097  3.473157  4.095880
   H ( 12)  3.480103  2.855601  3.909918  3.087297  2.916448  3.966383
             H (  7)   H (  8)   H (  9)   H ( 10)   O ( 11)
   H (  8)  3.443251
   H (  9)  4.498422  4.121974
   H ( 10)  2.255057  2.620386  3.543167
   O ( 11)  3.412224  3.932628  4.199051  1.545362
   H ( 12)  3.655113  4.282631  3.560812  1.895817  0.973207
 
 A cutoff of  1.0D-12 yielded   3980 shell pairs
 There are     47983 function pairs (     61095 Cartesian)
 Smallest overlap matrix eigenvalue = 2.80E-05

 Scale SEOQF with 1.000000e-01/1.000000e-01/1.000000e-01

 Standard Electronic Orientation quadrupole field applied
 Nucleus-field energy     =     0.0000000003 hartrees
 Guess from superposition of atomic densities
 Warning:  Energy on first SCF cycle will be non-variational
 SAD guess density has 57.000000 electrons

 -----------------------------------------------------------------------
  General SCF calculation program by
  Eric Jon Sundstrom, Paul Horn, Yuezhi Mao, Dmitri Zuev, Alec White,
  David Stuck, Shaama M.S., Shane Yost, Joonho Lee, David Small,
  Daniel Levine, Susi Lehtola, Hugh Burton, Evgeny Epifanovsky,
  Bang C. Huynh
 -----------------------------------------------------------------------
 Exchange:     0.1500 Hartree-Fock + 1.0000 wB97M-V + LR-HF
 Correlation:  1.0000 wB97M-V
 Using SG-2 standard quadrature grid
 Nonlocal Correlation:  VV10 with C = 0.0100 and b = 6.00 and scale = 1.00000
 Grid used for NLC:  SG-1 standard quadrature
 
 Citation of the SMD model:
 Marenich, A.V.; Cramer, C.J.; Truhlar, D.G.
 J. Phys. Chem. B 2009, 113, 6378-6396.
 iSolventCode=           1
 Solvent: water                                                           
 
 vradii
            1           2           3           4           5           6
    1   1.5200000   1.8500000   1.5200000   1.8500000   1.5200000   1.5200000
            7           8           9          10          11          12
    1   1.2000000   1.2000000   1.2000000   1.2000000   1.5200000   1.2000000
 using 4 threads for integral computing
 -------------------------------------------------------
 OpenMP Integral computing Module                
 Release: version 1.0, May 2013, Q-Chem Inc. Pittsburgh 
 -------------------------------------------------------
 -------------------------------------------------------
 OpenMP BLAS3 based DFT computing Module                
 Release: version 1.0, May 2013, Q-Chem Inc. Pittsburgh 
 -------------------------------------------------------
 A unrestricted SCF calculation will be
 performed using DIIS, GDM
 SCF converges when RMS gradient is below 1.0e-07
 ---------------------------------------
  Cycle       Energy         DIIS error
 ---------------------------------------
    1    -456.3696166875      1.32e-02  
    2    -455.0526648892      2.42e-03  Done DIIS. Switching to GDM
 ---------------------------------------
  Cycle       Energy        RMS Gradient
 ---------------------------------------
    1    -455.0526648892      3.26e-01   Descent step
    2    -455.2766061940      6.98e-02   Normal BFGS step
    3    -455.3136044511      6.56e-02   Normal BFGS step
    4    -455.3206925893      1.26e-02   Normal BFGS step
    5    -455.3244634336      1.71e-02   Normal BFGS step
    6    -455.3257276231      9.93e-03   Normal BFGS step
    7    -455.3260286227      5.00e-03   Normal BFGS step
    8    -455.3261174415      1.65e-03   Normal BFGS step
    9    -455.3261418433      8.07e-04   Normal BFGS step
   10    -455.3261442711      4.07e-04   Normal BFGS step
   11    -455.3261452127      2.33e-04   Normal BFGS step
   12    -455.3261454736      2.18e-04   Normal BFGS step
   13    -455.3261456195      1.72e-04   Normal BFGS step
   14    -455.3261457073      1.41e-04   Normal BFGS step
   15    -455.3261457969      1.25e-04   Normal BFGS step
   16    -455.3261458745      8.67e-05   Normal BFGS step
   17    -455.3261459203      2.85e-05   Normal BFGS step
   18    -455.3261459281      7.08e-06   Normal BFGS step
   19    -455.3261459287      3.29e-06   Normal BFGS step
   20    -455.3261459288      1.17e-06   Normal BFGS step
   21    -455.3261459288      5.02e-07   Normal BFGS step
   22    -455.3261459288      1.49e-07   Normal BFGS step
   23    -455.3261459288      4.57e-08  Convergence criterion met
 ---------------------------------------
 SCF time:   CPU 1073.82s  wall 273.00s 
<S^2> =          0.756531342
(3)  G-ENP(liq) elect-nuc-pol free energy of system     -455.326145929 a.u.
(4)  G-CDS(liq) cavity-dispersion-solvent structure 
     free energy                                                4.7172 kcal/mol
(6)  G-S(liq) free energy of system                     -455.318628600 a.u.
 SCF   energy in the final basis set =     -455.3186285999
 Total energy in the final basis set =     -455.3186285999
 
 --------------------------------------------------------------
 
                    Orbital Energies (a.u.)
 --------------------------------------------------------------
 
 Alpha MOs
 -- Occupied --
-19.3979 -19.3854 -19.3650 -19.3610 -19.3513 -10.5033 -10.4792  -1.2686
 -1.2195  -1.1804  -1.1526  -1.1337  -0.8649  -0.7490  -0.6873  -0.6709
 -0.6453  -0.6152  -0.5863  -0.5670  -0.5465  -0.5306  -0.5080  -0.4886
 -0.4555  -0.4522  -0.4392  -0.4228  -0.3850
 -- Virtual --
  0.0249   0.0419   0.0504   0.0573   0.0717   0.0823   0.0930   0.1023
  0.1101   0.1219   0.1393   0.1496   0.1523   0.1706   0.2042   0.2072
  0.2173   0.2209   0.2407   0.2494   0.2571   0.2647   0.2762   0.2904
  0.3035   0.3062   0.3164   0.3187   0.3211   0.3251   0.3329   0.3409
  0.3422   0.3474   0.3612   0.3751   0.3874   0.3930   0.4112   0.4160
  0.4228   0.4492   0.4715   0.4874   0.5079   0.5257   0.5591   0.5795
  0.5933   0.6005   0.6174   0.6303   0.6401   0.6494   0.6852   0.6939
  0.7198   0.7505   0.7628   0.7725   0.7929   0.8102   0.8396   0.8589
  0.8663   0.8839   0.8974   0.9163   0.9468   0.9584   0.9802   1.0099
  1.0162   1.0439   1.0508   1.0599   1.0773   1.0831   1.0930   1.1063
  1.1166   1.1328   1.1369   1.1638   1.1652   1.1804   1.1895   1.1953
  1.2211   1.2280   1.2333   1.2446   1.2580   1.2685   1.2923   1.3165
  1.3378   1.3469   1.3745   1.3835   1.4119   1.4179   1.4445   1.4502
  1.4722   1.4852   1.5059   1.5126   1.5434   1.5700   1.5852   1.5966
  1.6325   1.6434   1.6597   1.7345   1.7475   1.7535   1.7936   1.7995
  1.8331   1.8788   1.9381   1.9628   2.0142   2.0546   2.1126   2.1357
  2.1828   2.2297   2.2630   2.3173   2.3521   2.3969   2.4758   2.5068
  2.5631   2.7761   2.8244   2.8742   2.8947   2.9269   2.9408   2.9660
  2.9964   3.0239   3.0403   3.0883   3.1555   3.2178   3.2474   3.2524
  3.2778   3.2970   3.3009   3.3416   3.3755   3.4054   3.4139   3.4374
  3.4444   3.4672   3.5166   3.5403   3.5532   3.5752   3.6072   3.6133
  3.6403   3.6611   3.7085   3.7320   3.7631   3.8046   3.8666   3.9243
  3.9287   3.9725   3.9981   4.0470   4.0754   4.1097   4.1281   4.1419
  4.1721   4.2000   4.2558   4.2667   4.3046   4.3156   4.4373   4.4461
  4.5003   4.5259   4.5812   4.6857   4.7457   4.8558   4.8679   4.9087
  4.9394   5.0798   5.1055   5.1343   5.1761   5.1969   5.2149   5.2368
  5.2492   5.2571   5.2631   5.2938   5.3373   5.3496   5.3864   5.4031
  5.4213   5.4307   5.4597   5.4743   5.5016   5.5219   5.5597   5.5789
  5.5979   5.6142   5.6178   5.6487   5.6633   5.6880   5.6949   5.7109
  5.7346   5.7638   5.7783   5.8296   5.9225   6.0285   6.0632   6.1560
  6.1840   6.2316   6.3531   6.4537   6.5425   6.7807   7.0110   7.0255
  7.0941   7.1539   7.2027   7.2313   7.2641   7.4362   7.6174   7.7413
  7.7786   8.0585   8.1477   8.3143   8.5806   8.7118  14.4045  14.4632
 14.4684  14.4736  14.5142  14.5325  14.5701  14.5835  14.5874  14.6116
 14.6257  14.6461  14.6651  14.6993  14.7111  14.8470  14.8848  14.9468
 14.9601  15.0226  15.0636  15.1955  15.2720  15.3864  15.4035  24.7578
 25.4292  50.5154  50.7322  50.7949  50.8011  51.0313
 
 Beta MOs
 -- Occupied --
-19.3979 -19.3644 -19.3642 -19.3598 -19.3511 -10.5033 -10.4754  -1.2682
 -1.2171  -1.1797  -1.1505  -1.0788  -0.8601  -0.7449  -0.6827  -0.6649
 -0.6393  -0.6094  -0.5734  -0.5522  -0.5454  -0.5231  -0.4871  -0.4526
 -0.4371  -0.4300  -0.4261  -0.4041
 -- Virtual --
 -0.0811   0.0257   0.0423   0.0506   0.0585   0.0752   0.0833   0.0931
  0.1026   0.1105   0.1229   0.1410   0.1500   0.1532   0.1721   0.2059
  0.2104   0.2195   0.2225   0.2421   0.2505   0.2587   0.2675   0.2766
  0.2912   0.3052   0.3072   0.3165   0.3212   0.3230   0.3264   0.3350
  0.3417   0.3432   0.3484   0.3645   0.3767   0.3907   0.3994   0.4122
  0.4180   0.4320   0.4534   0.4735   0.4903   0.5095   0.5268   0.5626
  0.5810   0.5945   0.6033   0.6189   0.6336   0.6430   0.6515   0.6875
  0.6959   0.7206   0.7516   0.7640   0.7737   0.7954   0.8112   0.8408
  0.8641   0.8699   0.8849   0.8984   0.9184   0.9499   0.9606   0.9865
  1.0124   1.0184   1.0474   1.0555   1.0624   1.0793   1.0927   1.0984
  1.1113   1.1204   1.1380   1.1443   1.1657   1.1659   1.1856   1.1956
  1.1965   1.2219   1.2288   1.2361   1.2450   1.2597   1.2709   1.2945
  1.3173   1.3392   1.3493   1.3754   1.3859   1.4142   1.4223   1.4506
  1.4558   1.4764   1.4910   1.5073   1.5175   1.5462   1.5725   1.5870
  1.5992   1.6349   1.6457   1.6659   1.7351   1.7515   1.7540   1.7955
  1.8020   1.8357   1.8820   1.9399   1.9651   2.0167   2.0610   2.1164
  2.1384   2.1849   2.2335   2.2670   2.3221   2.3540   2.4006   2.4826
  2.5110   2.5668   2.7806   2.8262   2.8770   2.8962   2.9297   2.9435
  2.9694   3.0001   3.0256   3.0435   3.0896   3.1595   3.2237   3.2517
  3.2631   3.2827   3.3004   3.3039   3.3463   3.3768   3.4118   3.4359
  3.4507   3.4523   3.4826   3.5285   3.5535   3.5830   3.6105   3.6174
  3.6291   3.6429   3.6624   3.7117   3.7347   3.7642   3.8058   3.8683
  3.9268   3.9289   3.9744   4.0098   4.0481   4.0870   4.1121   4.1304
  4.1440   4.1911   4.2096   4.2561   4.2697   4.3085   4.3165   4.4324
  4.4362   4.4986   4.5179   4.5804   4.6871   4.7661   4.8587   4.8693
  4.9096   4.9433   5.1281   5.1323   5.1456   5.2015   5.2212   5.2296
  5.2478   5.2547   5.2679   5.2820   5.3090   5.3634   5.3820   5.3945
  5.4250   5.4402   5.4610   5.4749   5.4827   5.5056   5.5230   5.5605
  5.5795   5.5998   5.6191   5.6304   5.6518   5.6643   5.6911   5.6969
  5.7239   5.7384   5.7785   5.8019   5.8397   5.9245   6.0309   6.0656
  6.1569   6.1857   6.2338   6.3554   6.4545   6.5464   6.7844   7.0173
  7.0573   7.0946   7.1544   7.2048   7.2332   7.2699   7.4363   7.6298
  7.7564   7.7838   8.0641   8.1517   8.3326   8.5843   8.7178  14.5006
 14.5046  14.5234  14.5346  14.5727  14.5824  14.5868  14.5961  14.5981
 14.6152  14.6335  14.6503  14.6672  14.7068  14.7158  14.8485  14.8855
 14.9556  15.0245  15.0282  15.0676  15.1965  15.2744  15.3883  15.4039
 24.7611  25.4295  50.5298  50.7325  50.7954  50.8020  51.0315
 --------------------------------------------------------------
 
          Ground-State Mulliken Net Atomic Charges

     Atom                 Charge (a.u.)    Spin (a.u.)
  --------------------------------------------------------
      1 O                    -0.670529       0.024587
      2 C                     0.478781       0.168793
      3 O                    -0.714733       0.031305
      4 C                     0.803613      -0.005102
      5 O                    -0.534015       0.000579
      6 O                    -0.729723       0.009056
      7 H                     0.323678       0.000620
      8 H                     0.346213       0.002137
      9 H                     0.337700       0.000171
     10 H                     0.528467      -0.023332
     11 O                    -0.497245       0.804763
     12 H                     0.327793      -0.013576
  --------------------------------------------------------
  Sum of atomic charges =    -0.000000
  Sum of spin   charges =     1.000000

 -----------------------------------------------------------------
                    Cartesian Multipole Moments
 -----------------------------------------------------------------
    Charge (ESU x 10^10)
                -0.0000
    Dipole Moment (Debye)
         X       2.8820      Y       1.2511      Z      -1.4664
       Tot       3.4672
    Quadrupole Moments (Debye-Ang)
        XX     -29.8878     XY       0.9266     YY     -41.9357
        XZ      -2.1745     YZ      -0.1157     ZZ     -49.0569
    Octopole Moments (Debye-Ang^2)
       XXX     -30.9640    XXY       0.7639    XYY     -38.6544
       YYY     -24.6875    XXZ     -26.0754    XYZ       3.4638
       YYZ     -17.9314    XZZ     -22.3541    YZZ     -24.5883
       ZZZ     -90.4614
    Hexadecapole Moments (Debye-Ang^3)
      XXXX    -277.7441   XXXY      -3.5838   XXYY    -107.0326
      XYYY     -11.5434   YYYY    -328.1587   XXXZ     -37.2850
      XXYZ      -0.2937   XYYZ      -5.1521   YYYZ     -75.8116
      XXZZ    -109.5387   XYZZ      -7.2441   YYZZ    -132.5813
      XZZZ     -47.6874   YZZZ    -100.0364   ZZZZ    -441.7248
 -----------------------------------------------------------------
 Total job time:  274.01s(wall), 1076.25s(cpu) 
 Mon Feb  5 12:43:07 2024

        *************************************************************
        *                                                           *
        *  Thank you very much for using Q-Chem.  Have a nice day.  *
        *                                                           *
        *************************************************************


