
Running Job 1 of 1 Q_in.in
qchem Q_in.in_16783.0 /scratch/ari.fischer/qChem1789173.hpc-mn1/qchem16783/ 0
/usr/local/qchem-5.4.1/exe/qcprog.exe_s Q_in.in_16783.0 /scratch/ari.fischer/qChem1789173.hpc-mn1/qchem16783/
                  Welcome to Q-Chem
     A Quantum Leap Into The Future Of Chemistry


 Q-Chem 5.4, Q-Chem, Inc., Pleasanton, CA (2021)

 License issued to: Nanyang Technological University (site)

 E. Epifanovsky,  A. T. B. Gilbert,  Xintian Feng,  Joonho Lee,  Yuezhi Mao,  
 N. Mardirossian,  P. Pokhilko,  A. White,  M. Wormit,  M. P. Coons,  
 A. L. Dempwolff,  Zhengting Gan,  D. Hait,  P. R. Horn,  L. D. Jacobson,  
 I. Kaliman,  J. Kussmann,  A. W. Lange,  Ka Un Lao,  D. S. Levine,  Jie Liu,  
 S. C. McKenzie,  A. F. Morrison,  K. Nanda,  F. Plasser,  D. R. Rehn,  
 M. L. Vidal,  Zhi-Qiang You,  Ying Zhu,  B. Alam,  B. Albrecht,  
 A. Aldossary,  E. Alguire,  J. H. Andersen,  D. Barton,  K. Begam,  A. Behn,  
 Y. A. Bernard,  E. J. Berquist,  H. Burton,  A. Carreras,  K. Carter-Fenk,  
 R. Chakraborty,  A. D. Chien,  K. D. Closser,  V. Cofer-Shabica,  
 S. Dasgupta,  Jia Deng,  M. de Wergifosse,  M. Diedenhofen,  Hainam Do,  
 S. Ehlert,  Po-Tung Fang,  S. Fatehi,  Qingguo Feng,  T. Friedhoff,  
 J. Gayvert,  Qinghui Ge,  G. Gidofalvi,  M. Goldey,  J. Gomes,  
 C. Gonzalez-Espinoza,  S. Gulania,  A. Gunina,  M. W. D. Hanson-Heine,  
 P. H. P. Harbach,  A. W. Hauser,  M. F. Herbst,  M. Hernandez Vera,  
 M. Hodecker,  Z. C. Holden,  S. Houck,  Xunkun Huang,  Kerwin Hui,  
 B. C. Huynh,  M. Ivanov,  Hyunjun Ji,  Hanjie Jiang,  B. Kaduk,  S. Kaehler,  
 K. Khistyaev,  Jaehoon Kim,  P. Klunzinger,  Z. Koczor-Benda,  
 Joong Hoon Koh,  D. Kosenkov,  L. Koulias,  T. Kowalczyk,  C. M. Krauter,  
 K. Kue,  A. Kunitsa,  T. Kus,  A. Landau,  K. V. Lawler,  D. Lefrancois,  
 S. Lehtola,  Rain Li,  Yi-Pei Li,  Jiashu Liang,  M. Liebenthal,  
 Hung-Hsuan Lin,  You-Sheng Lin,  Fenglai Liu,  Kuan-Yu Liu,  
 M. Loipersberger,  A. Luenser,  A. Manjanath,  P. Manohar,  E. Mansoor,  
 S. F. Manzer,  Shan-Ping Mao,  A. V. Marenich,  T. Markovich,  S. Mason,  
 S. A. Maurer,  P. F. McLaughlin,  M. F. S. J. Menger,  J.-M. Mewes,  
 S. A. Mewes,  P. Morgante,  J. W. Mullinax,  K. J. Oosterbaan,  G. Paran,  
 Alexander C. Paul,  Suranjan K. Paul,  F. Pavosevic,  Zheng Pei,  S. Prager,  
 E. I. Proynov,  E. Ramos,  B. Rana,  A. E. Rask,  A. Rettig,  R. M. Richard,  
 F. Rob,  E. Rossomme,  T. Scheele,  M. Scheurer,  M. Schneider,  
 N. Sergueev,  S. M. Sharada,  W. Skomorowski,  D. W. Small,  C. J. Stein,  
 Yu-Chuan Su,  E. J. Sundstrom,  Zhen Tao,  J. Thirman,  T. Tsuchimochi,  
 N. M. Tubman,  S. P. Veccham,  O. Vydrov,  J. Wenzel,  J. Witte,  A. Yamada,  
 Kun Yao,  S. Yeganeh,  S. R. Yost,  A. Zech,  Igor Ying Zhang,  Xing Zhang,  
 Yu Zhang,  D. Zuev,  A. Aspuru-Guzik,  A. T. Bell,  N. A. Besley,  
 K. B. Bravaya,  B. R. Brooks,  D. Casanova,  Jeng-Da Chai,  S. Coriani,  
 C. J. Cramer,  A. E. DePrince, III,  R. A. DiStasio Jr.,  A. Dreuw,  
 B. D. Dunietz,  T. R. Furlani,  W. A. Goddard III,  S. Grimme,  
 S. Hammes-Schiffer,  T. Head-Gordon,  W. J. Hehre,  Chao-Ping Hsu,  
 T.-C. Jagau,  Yousung Jung,  A. Klamt,  Jing Kong,  D. S. Lambrecht,  
 WanZhen Liang,  N. J. Mayhall,  C. W. McCurdy,  J. B. Neaton,  
 C. Ochsenfeld,  J. A. Parkhill,  R. Peverati,  V. A. Rassolov,  Yihan Shao,  
 L. V. Slipchenko,  T. Stauch,  R. P. Steele,  J. E. Subotnik,  
 A. J. W. Thom,  A. Tkatchenko,  D. G. Truhlar,  T. Van Voorhis,  
 T. A. Wesolowski,  K. B. Whaley,  H. L. Woodcock III,  P. M. Zimmerman,  
 S. Faraji,  P. M. W. Gill,  M. Head-Gordon,  J. M. Herbert,  A. I. Krylov

 Additional authors for Version 5.4.1: 
 S. Kotaru,  Shaozhi Li,  Xiangyuan Li,  F. Matz,  A. Molle,  Haisheng Ren,  
 Yingli Su,  Hung-Yi Tsai,  C. Utku,  Fang Wang

 Contributors to earlier versions of Q-Chem not listed above: 
 R. D. Adamson,  B. Austin,  R. Baer,  J. Baker,  G. J. O. Beran,  
 K. Brandhorst,  S. T. Brown,  E. F. C. Byrd,  A. K. Chakraborty,  
 G. K. L. Chan,  Chun-Min Chang,  Yunqing Chen,  C.-L. Cheng,  
 Siu Hung Chien,  D. M. Chipman,  D. L. Crittenden,  H. Dachsel,  
 R. J. Doerksen,  A. D. Dutoi,  R. G. Edgar,  J. Fosso-Tande,  
 L. Fusti-Molnar,  D. Ghosh,  A. Ghysels,  A. Golubeva-Zadorozhnaya,  
 J. Gonthier,  M. S. Gordon,  S. R. Gwaltney,  G. Hawkins,  J. E. Herr,  
 A. Heyden,  S. Hirata,  E. G. Hohenstein,  G. Kedziora,  F. J. Keil,  
 C. Kelley,  Jihan Kim,  R. A. King,  R. Z. Khaliullin,  P. P. Korambath,  
 W. Kurlancheek,  A. Laurent,  A. M. Lee,  M. S. Lee,  S. V. Levchenko,  
 Ching Yeh Lin,  D. Liotard,  E. Livshits,  R. C. Lochan,  I. Lotan,  
 L. A. Martinez-Martinez,  P. E. Maslen,  N. Nair,  D. P. O'Neill,  
 D. Neuhauser,  E. Neuscamman,  C. M. Oana,  R. Olivares-Amaya,  R. Olson,  
 T. M. Perrine,  B. Peters,  P. A. Pieniazek,  A. Prociuk,  Y. M. Rhee,  
 J. Ritchie,  M. A. Rohrdanz,  E. Rosta,  N. J. Russ,  H. F. Schaefer III,  
 M. W. Schmidt,  N. E. Schultz,  S. Sharma,  N. Shenvi,  C. D. Sherrill,  
 A. C. Simmonett,  A. Sodt,  T. Stein,  D. Stuck,  K. S. Thanthiriwatte,  
 V. Vanovschi,  L. Vogt,  Tao Wang,  A. Warshel,  M. A. Watson,  
 C. F. Williams,  Q. Wu,  X. Xu,  Jun Yang,  W. Zhang,  Yan Zhao

 Please cite Q-Chem as follows:
 Y. Shao et al., Mol. Phys. 113, 184-215 (2015)
 DOI: 10.1080/00268976.2014.952696

 Q-Chem 5.4.1 for Intel X86 EM64T Linux

 Parts of Q-Chem use Armadillo 9.800.1 (Horizon Scraper).
 http://arma.sourceforge.net/

 Q-Chem begins on Mon Oct  2 18:24:17 2023  

 Host: 
0

     Scratch files written to /scratch/ari.fischer/qChem1789173.hpc-mn1/qchem16783//
 Aug1521 |scratch|qcdevops|jenkins|workspace|build_RNUM 8249   
 Processing $rem in /usr/local/qchem-5.4.1/config/preferences:
 Processing $rem in /home/ari.fischer/.qchemrc:
 Symmetry turned off for PCM/SM12/SMD calculation


!!********************************************.
!!******************Warning*******************.
!!Desired Analytical derivatives not available.
!!Finite difference job might take a long time.
!!********************************************.
!!********************************************.


 2-order derivative to be evaluated numerically with 1-order analytical derivatives

 Checking the input file for inconsistencies... 	...done.

--------------------------------------------------------------
User input:
--------------------------------------------------------------
$molecule
0 1
C         1.8026107909    0.1888674354   -1.5827592106
C         0.5574679866   -0.2103242722   -2.3513371899
O         0.4604046718   -1.6103622263   -2.2392152783
O         0.6789985874    0.2257359608   -3.6770076874
O         2.5917587778    1.0114181576   -1.9760263167
H        -0.4582013487   -1.8667010446   -2.3767097880
H        -0.2018245753    0.2711206666   -4.0651477320
H         1.9270653287   -0.3212966643   -0.6169267181
H        -0.2992872192    0.2665557867   -1.8651229790
$end

$rem
BASIS = 6-311++G(2df,2p)
GUI = 2
JOB_TYPE = Frequency
METHOD = wB97M-V
SOLVENT_METHOD = SMD
SCF_ALGORITHM = DIIS_GDM
MAX_SCF_CYCLES = 400
SCF_CONVERGENCE = 7
THRESH = 12
$end
--------------------------------------------------------------
 ----------------------------------------------------------------
             Standard Nuclear Orientation (Angstroms)
    I     Atom           X                Y                Z
 ----------------------------------------------------------------
    1      C       1.8026107909     0.1888674354    -1.5827592106
    2      C       0.5574679866    -0.2103242722    -2.3513371899
    3      O       0.4604046718    -1.6103622263    -2.2392152783
    4      O       0.6789985874     0.2257359608    -3.6770076874
    5      O       2.5917587778     1.0114181576    -1.9760263167
    6      H      -0.4582013487    -1.8667010446    -2.3767097880
    7      H      -0.2018245753     0.2711206666    -4.0651477320
    8      H       1.9270653287    -0.3212966643    -0.6169267181
    9      H      -0.2992872192     0.2665557867    -1.8651229790
 ----------------------------------------------------------------
 Nuclear Repulsion Energy =         178.84332655 hartrees
 There are       20 alpha and       20 beta electrons
 Requested basis set is 6-311++G(2df,2p)
 There are 64 shells and 210 basis functions

 Total QAlloc Memory Limit 288000 MB
 Mega-Array Size       188 MB
 MEM_STATIC part       192 MB
 
 Citation of the SMD model:
 Marenich, A.V.; Cramer, C.J.; Truhlar, D.G.
 J. Phys. Chem. B 2009, 113, 6378-6396.
 iSolventCode=           1
 Solvent: water                                                           
 
 vradii
            1           2           3           4           5           6
    1   1.8500000   1.8500000   1.5200000   1.5200000   1.5200000   1.2000000
            7           8           9
    1   1.2000000   1.2000000   1.2000000
 Changing PCM_VDW_RADII to SMD_RADIUS
 Discretize the solute cavity surface with Lebedev spheres
	Using 110 Lebedev grid points for each H atom
	Using 194 Lebedev grid points for other atoms
	Atomic van der Waals radii will be scaled by 1.20
 Remove points where switching function is < 1.0e-08
 Keep 784 surface tesserae and discard 626 interior tesserae
 Molecular Surface Area = 93.694 Angst**2

                       Distance Matrix (Angstroms)
             C (  1)   C (  2)   O (  3)   O (  4)   O (  5)   H (  6)
   C (  2)  1.516722
   O (  3)  2.338735  1.407870
   O (  4)  2.376918  1.400828  2.342282
   O (  5)  1.205821  2.402468  3.389052  2.677552
   H (  6)  3.157054  1.943145  0.963562  2.713354  4.212645
   H (  7)  3.191673  1.935319  2.704174  0.963619  3.566031  2.736208
   H (  8)  1.099358  2.212757  2.538622  3.349778  2.016209  3.342844
   H (  9)  2.122202  1.094463  2.059101  2.059523  2.987518  2.199491
             H (  7)   H (  8)
   H (  8)  4.095529
   H (  9)  2.202187  2.619200
 
 A cutoff of  1.0D-12 yielded   2012 shell pairs
 There are     21877 function pairs (     27459 Cartesian)
 Smallest overlap matrix eigenvalue = 9.11E-05
 Guess from superposition of atomic densities
 Warning:  Energy on first SCF cycle will be non-variational
 SAD guess density has 40.000000 electrons

 -----------------------------------------------------------------------
  General SCF calculation program by
  Eric Jon Sundstrom, Paul Horn, Yuezhi Mao, Dmitri Zuev, Alec White,
  David Stuck, Shaama M.S., Shane Yost, Joonho Lee, David Small,
  Daniel Levine, Susi Lehtola, Hugh Burton, Evgeny Epifanovsky,
  Bang C. Huynh
 -----------------------------------------------------------------------
 Exchange:     0.1500 Hartree-Fock + 1.0000 wB97M-V + LR-HF
 Correlation:  1.0000 wB97M-V
 Using SG-2 standard quadrature grid
 Nonlocal Correlation:  VV10 with C = 0.0100 and b = 6.00 and scale = 1.00000
 Grid used for NLC:  SG-1 standard quadrature
 using 8 threads for integral computing
 -------------------------------------------------------
 OpenMP Integral computing Module                
 Release: version 1.0, May 2013, Q-Chem Inc. Pittsburgh 
 -------------------------------------------------------
 
 Citation of the SMD model:
 Marenich, A.V.; Cramer, C.J.; Truhlar, D.G.
 J. Phys. Chem. B 2009, 113, 6378-6396.
 iSolventCode=           1
 Solvent: water                                                           
 
 vradii
            1           2           3           4           5           6
    1   1.8500000   1.8500000   1.5200000   1.5200000   1.5200000   1.2000000
            7           8           9
    1   1.2000000   1.2000000   1.2000000
 -------------------------------------------------------
 OpenMP BLAS3 based DFT computing Module                
 Release: version 1.0, May 2013, Q-Chem Inc. Pittsburgh 
 -------------------------------------------------------
 A restricted SCF calculation will be
 performed using DIIS, GDM
 SCF converges when RMS gradient is below 1.0e-07
 ---------------------------------------
  Cycle       Energy         DIIS error
 ---------------------------------------
    1    -305.1398190454      3.48e-02  
    2    -304.1754303514      5.43e-03  Done DIIS. Switching to GDM
 ---------------------------------------
  Cycle       Energy        RMS Gradient
 ---------------------------------------
    1    -304.1754303514      1.15e-01   Descent step
    2    -304.2741670252      6.39e-02   Normal BFGS step
    3    -304.3022288990      1.18e-02   Normal BFGS step
    4    -304.3028180105      5.70e-03   Normal BFGS step
    5    -304.3036723127      5.08e-04   Normal BFGS step
    6    -304.3036825204      2.23e-04   Normal BFGS step
    7    -304.3036836598      7.59e-05   Normal BFGS step
    8    -304.3036837264      4.06e-05   Normal BFGS step
    9    -304.3036837592      1.76e-05   Normal BFGS step
   10    -304.3036837623      1.02e-05   Normal BFGS step
   11    -304.3036837634      4.31e-06   Normal BFGS step
   12    -304.3036837636      9.19e-07   Normal BFGS step
   13    -304.3036837636      3.33e-07   Normal BFGS step
   14    -304.3036837636      1.05e-07   Normal BFGS step
   15    -304.3036837636      2.15e-08  Convergence criterion met
 ---------------------------------------
 SCF time:   CPU 238.88s  wall 31.00s 
(3)  G-ENP(liq) elect-nuc-pol free energy of system     -304.303683764 a.u.
(4)  G-CDS(liq) cavity-dispersion-solvent structure 
     free energy                                                3.8415 kcal/mol
(6)  G-S(liq) free energy of system                     -304.297561872 a.u.
 SCF   energy in the final basis set =     -304.2975618717
 Total energy in the final basis set =     -304.2975618717
 
 --------------------------------------------------------------
 
                    Orbital Energies (a.u.)
 --------------------------------------------------------------
 
 Alpha MOs
 -- Occupied --
-19.3556 -19.3522 -19.3513 -10.4546 -10.4448  -1.2172  -1.1926  -1.1430
 -0.8518  -0.7064  -0.6614  -0.6537  -0.6004  -0.5755  -0.5158  -0.5078
 -0.4924  -0.4262  -0.4185  -0.3816
 -- Virtual --
  0.0214   0.0399   0.0488   0.0555   0.0621   0.0876   0.1083   0.1163
  0.1303   0.1391   0.1444   0.1640   0.1731   0.2189   0.2319   0.2385
  0.2448   0.2646   0.2832   0.2901   0.2979   0.3053   0.3066   0.3184
  0.3339   0.3459   0.3585   0.3677   0.3828   0.4106   0.4302   0.4476
  0.5013   0.5475   0.5776   0.6017   0.6114   0.6355   0.6623   0.6678
  0.6811   0.6890   0.6971   0.7731   0.8006   0.8317   0.8373   0.8711
  0.8998   0.9350   0.9710   1.0069   1.0463   1.0952   1.1130   1.1214
  1.1283   1.1499   1.1622   1.1795   1.2011   1.2106   1.2390   1.2629
  1.2936   1.3284   1.3414   1.3451   1.4352   1.4422   1.4644   1.5142
  1.5285   1.5390   1.5847   1.6334   1.6684   1.7121   1.7761   1.8067
  1.8636   1.8949   1.9498   1.9615   2.1139   2.1621   2.2207   2.2371
  2.2942   2.3702   2.3895   2.4428   2.4647   2.5626   2.5804   2.6577
  2.7827   2.7976   2.8298   2.8790   2.9694   2.9958   3.0703   3.1366
  3.1643   3.2240   3.2484   3.2920   3.3461   3.3655   3.3946   3.4313
  3.4699   3.5395   3.5584   3.6243   3.6458   3.7060   3.7566   3.7754
  3.8136   3.8554   3.8745   3.9064   3.9520   4.0120   4.0843   4.1438
  4.1746   4.2185   4.2192   4.2575   4.2875   4.3539   4.4341   4.5267
  4.6424   4.7073   5.1085   5.1657   5.1792   5.1936   5.2145   5.2362
  5.2432   5.2869   5.2934   5.3395   5.3601   5.4092   5.4386   5.5156
  5.5331   5.5414   5.5759   5.6239   5.6432   5.6697   5.8031   5.8680
  6.0199   6.0883   6.1693   6.4040   6.4981   6.6937   6.7734   6.9382
  6.9864   7.0489   7.1032   7.1435   7.2205   7.2390   7.2727   7.3001
  7.3579   7.3674   7.4976   7.5400   7.6012   7.6843   7.7624   7.7862
  7.8651  24.7463  24.9575  50.5740  50.5872  50.7068
 --------------------------------------------------------------
 
          Ground-State Mulliken Net Atomic Charges

     Atom                 Charge (a.u.)
  ----------------------------------------
      1 C                     0.180236
      2 C                    -0.036669
      3 O                    -0.431517
      4 O                    -0.441192
      5 O                    -0.376294
      6 H                     0.347642
      7 H                     0.346534
      8 H                     0.188998
      9 H                     0.222261
  ----------------------------------------
  Sum of atomic charges =     0.000000

 -----------------------------------------------------------------
                    Cartesian Multipole Moments
 -----------------------------------------------------------------
    Charge (ESU x 10^10)
                -0.0000
    Dipole Moment (Debye)
         X      -6.4483      Y      -1.5508      Z       1.4436
       Tot       6.7874
    Quadrupole Moments (Debye-Ang)
        XX     -39.0923     XY      -2.8625     YY     -33.6188
        XZ      20.3556     YZ       3.8297     ZZ     -34.4902
    Octopole Moments (Debye-Ang^2)
       XXX    -133.7607    XXY     -14.5134    XYY     -49.7131
       YYY       7.6454    XXZ      95.0170    XYZ       5.4072
       YYZ      78.4383    XZZ     -97.6149    YZZ      -5.4864
       ZZZ     221.9154
    Hexadecapole Moments (Debye-Ang^3)
      XXXX    -498.5560   XXXY     -84.7745   XXYY    -115.3321
      XYYY     -29.2257   YYYY    -173.3876   XXXZ     281.9478
      XXYZ      27.9538   XYYZ     106.0574   YYYZ     -14.2253
      XXZZ    -319.8149   XYZZ     -25.6471   YYZZ    -236.9491
      XZZZ     422.9144   YZZZ      -6.1689   ZZZZ   -1139.6824
 -----------------------------------------------------------------
 Calculating analytic gradient of the SCF energy
 Gradient of CDS energy
            1           2           3           4           5           6
    1   0.0019415  -0.0002700   0.0002367  -0.0002653  -0.0009057  -0.0002827
    2   0.0014039  -0.0010878   0.0024266  -0.0013724  -0.0008855  -0.0004422
    3   0.0001420  -0.0034790  -0.0002822   0.0036634   0.0003208   0.0000491
            7           8           9
    1  -0.0002087  -0.0001275  -0.0001184
    2   0.0001825  -0.0002249  -0.0000001
    3  -0.0004422   0.0000237   0.0000043
 Gradient of SCF Energy
            1           2           3           4           5           6
    1  -0.0031103   0.0117773   0.0230863   0.0241446   0.0002561  -0.0214042
    2   0.0061901  -0.0081560   0.0020005   0.0012467  -0.0010949  -0.0020552
    3  -0.0024501  -0.0059095   0.0010666   0.0047047  -0.0026810  -0.0021596
            7           8           9
    1  -0.0201126  -0.0006987  -0.0139383
    2  -0.0005488  -0.0027062   0.0051237
    3  -0.0038703   0.0054121   0.0058870
 Max gradient component =       2.414E-02
 RMS gradient           =       9.863E-03
 Computing fast CPCM-SWIG gradient
 Updating gradient with PCM contributions...
 -- total gradient after adding PCM contribution --
---------------------------------------------------
  Atom         X              Y              Z     
---------------------------------------------------
   1       0.000026       0.000054      -0.000016
   2       0.000001      -0.000025      -0.000010
   3       0.000017       0.000002      -0.000046
   4       0.000000       0.000008       0.000025
   5      -0.000019       0.000003      -0.000004
   6       0.000006      -0.000012       0.000035
   7      -0.000028      -0.000018      -0.000001
   8       0.000004      -0.000003       0.000000
   9      -0.000008      -0.000009       0.000016
---------------------------------------------------
 Number of fixed atoms: 0
 Gradient time:  CPU 40.08 s  wall 6.46 s
 ######################################################
 ######################################################
 # Starting finite difference calculation for IDERIV  #
 Finite diff step size:  1.88973e-03 a.u.
 ----------------------------------------------------------------
             Standard Nuclear Orientation (Angstroms)
    I     Atom           X                Y                Z
 ----------------------------------------------------------------
    1      C       1.8036107909     0.1888674354    -1.5827592106
    2      C       0.5574679866    -0.2103242722    -2.3513371899
    3      O       0.4604046718    -1.6103622263    -2.2392152783
    4      O       0.6789985874     0.2257359608    -3.6770076874
    5      O       2.5917587778     1.0114181576    -1.9760263167
    6      H      -0.4582013487    -1.8667010446    -2.3767097880
    7      H      -0.2018245753     0.2711206666    -4.0651477320
    8      H       1.9270653287    -0.3212966643    -0.6169267181
    9      H      -0.2992872192     0.2665557867    -1.8651229790
 ----------------------------------------------------------------
 Nuclear Repulsion Energy =         178.84234961 hartrees
 There are       20 alpha and       20 beta electrons
 Discretize the solute cavity surface with Lebedev spheres
	Using 110 Lebedev grid points for each H atom
	Using 194 Lebedev grid points for other atoms
	Atomic van der Waals radii will be scaled by 1.20
 Remove points where switching function is < 1.0e-08
 Keep 784 surface tesserae and discard 626 interior tesserae
 Molecular Surface Area = 93.696 Angst**2

                       Distance Matrix (Angstroms)
             C (  1)   C (  2)   O (  3)   O (  4)   O (  5)   H (  6)
   C (  2)  1.517543
   O (  3)  2.339309  1.407870
   O (  4)  2.377391  1.400828  2.342282
   O (  5)  1.205166  2.402468  3.389052  2.677552
   H (  6)  3.157770  1.943145  0.963562  2.713354  4.212645
   H (  7)  3.192302  1.935319  2.704174  0.963619  3.566031  2.736208
   H (  8)  1.099246  2.212757  2.538622  3.349778  2.016209  3.342844
   H (  9)  2.123192  1.094463  2.059101  2.059523  2.987518  2.199491
             H (  7)   H (  8)
   H (  8)  4.095529
   H (  9)  2.202187  2.619200
 
 Requested basis set is 6-311++G(2df,2p)
 There are 64 shells and 210 basis functions
 A cutoff of  1.0D-12 yielded   2012 shell pairs
 There are     21877 function pairs (     27459 Cartesian)
 Smallest overlap matrix eigenvalue = 9.14E-05
 Guess MOs from SCF MO coefficient file

 -----------------------------------------------------------------------
  General SCF calculation program by
  Eric Jon Sundstrom, Paul Horn, Yuezhi Mao, Dmitri Zuev, Alec White,
  David Stuck, Shaama M.S., Shane Yost, Joonho Lee, David Small,
  Daniel Levine, Susi Lehtola, Hugh Burton, Evgeny Epifanovsky,
  Bang C. Huynh
 -----------------------------------------------------------------------
 Exchange:     0.1500 Hartree-Fock + 1.0000 wB97M-V + LR-HF
 Correlation:  1.0000 wB97M-V
 Using SG-2 standard quadrature grid
 Nonlocal Correlation:  VV10 with C = 0.0100 and b = 6.00 and scale = 1.00000
 Grid used for NLC:  SG-1 standard quadrature
 
 Citation of the SMD model:
 Marenich, A.V.; Cramer, C.J.; Truhlar, D.G.
 J. Phys. Chem. B 2009, 113, 6378-6396.
 iSolventCode=           1
 Solvent: water                                                           
 
 vradii
            1           2           3           4           5           6
    1   1.8500000   1.8500000   1.5200000   1.5200000   1.5200000   1.2000000
            7           8           9
    1   1.2000000   1.2000000   1.2000000
 -------------------------------------------------------
 OpenMP BLAS3 based DFT computing Module                
 Release: version 1.0, May 2013, Q-Chem Inc. Pittsburgh 
 -------------------------------------------------------
 A restricted SCF calculation will be
 performed using Roothaan-Hall, DIIS, GDM
 SCF converges when RMS gradient is below 1.0e-07
 ---------------------------------------
  Cycle       Energy         DIIS error
 ---------------------------------------
    1    -304.2618352909      9.99e-04  Roothaan Step
 ---------------------------------------
  Cycle       Energy         DIIS error
 ---------------------------------------
    1    -304.2920902378      1.22e-03  
    2    -304.2980659553      1.24e-03  Done DIIS. Switching to GDM
 ---------------------------------------
  Cycle       Energy        RMS Gradient
 ---------------------------------------
    1    -304.2980659553      2.05e-02   Normal BFGS step
    2    -304.2958050006      3.24e-02  Line search: overstep
    3    -304.3033605530      2.63e-03   Normal BFGS step
    4    -304.3036382656      1.05e-03   Normal BFGS step
    5    -304.3036748163      1.08e-03   Normal BFGS step
    6    -304.3036856082      1.18e-04   Normal BFGS step
    7    -304.3036862065      5.06e-05   Normal BFGS step
    8    -304.3036862876      1.18e-05   Normal BFGS step
    9    -304.3036862934      7.68e-06   Normal BFGS step
   10    -304.3036862947      2.84e-06   Normal BFGS step
   11    -304.3036862949      1.77e-06   Normal BFGS step
   12    -304.3036862949      1.03e-06   Normal BFGS step
   13    -304.3036862949      4.13e-07   Normal BFGS step
   14    -304.3036862949      7.98e-08  Convergence criterion met
 ---------------------------------------
 SCF time:   CPU 246.59s  wall 31.00s 
(3)  G-ENP(liq) elect-nuc-pol free energy of system     -304.303686295 a.u.
(4)  G-CDS(liq) cavity-dispersion-solvent structure 
     free energy                                                3.8438 kcal/mol
(6)  G-S(liq) free energy of system                     -304.297560738 a.u.
 SCF   energy in the final basis set =     -304.2975607385
 Total energy in the final basis set =     -304.2975607385
 
 --------------------------------------------------------------
 
                    Orbital Energies (a.u.)
 --------------------------------------------------------------
 
 Alpha MOs
 -- Occupied --
-19.3556 -19.3522 -19.3513 -10.4546 -10.4448  -1.2173  -1.1928  -1.1429
 -0.8516  -0.7064  -0.6614  -0.6536  -0.6004  -0.5757  -0.5159  -0.5079
 -0.4924  -0.4261  -0.4184  -0.3815
 -- Virtual --
  0.0215   0.0400   0.0488   0.0555   0.0621   0.0876   0.1083   0.1163
  0.1303   0.1391   0.1444   0.1640   0.1731   0.2190   0.2319   0.2385
  0.2448   0.2647   0.2831   0.2901   0.2979   0.3053   0.3066   0.3184
  0.3339   0.3459   0.3585   0.3676   0.3828   0.4106   0.4303   0.4477
  0.5013   0.5474   0.5777   0.6017   0.6115   0.6354   0.6625   0.6678
  0.6811   0.6890   0.6971   0.7732   0.8007   0.8317   0.8374   0.8712
  0.8998   0.9350   0.9710   1.0069   1.0463   1.0951   1.1130   1.1212
  1.1283   1.1499   1.1622   1.1795   1.2010   1.2105   1.2389   1.2628
  1.2936   1.3282   1.3414   1.3451   1.4351   1.4423   1.4644   1.5142
  1.5286   1.5391   1.5847   1.6336   1.6686   1.7120   1.7762   1.8068
  1.8636   1.8949   1.9498   1.9615   2.1138   2.1624   2.2208   2.2371
  2.2940   2.3702   2.3895   2.4428   2.4648   2.5629   2.5805   2.6577
  2.7827   2.7976   2.8299   2.8791   2.9693   2.9956   3.0700   3.1363
  3.1642   3.2241   3.2482   3.2920   3.3461   3.3655   3.3948   3.4315
  3.4700   3.5391   3.5585   3.6243   3.6459   3.7062   3.7567   3.7751
  3.8136   3.8554   3.8747   3.9064   3.9517   4.0116   4.0841   4.1438
  4.1739   4.2181   4.2192   4.2576   4.2875   4.3540   4.4339   4.5263
  4.6425   4.7067   5.1085   5.1657   5.1791   5.1937   5.2145   5.2363
  5.2432   5.2869   5.2934   5.3397   5.3602   5.4092   5.4385   5.5153
  5.5330   5.5417   5.5766   5.6238   5.6433   5.6699   5.8034   5.8692
  6.0199   6.0885   6.1695   6.4058   6.4980   6.6942   6.7750   6.9383
  6.9865   7.0490   7.1037   7.1439   7.2207   7.2390   7.2727   7.3001
  7.3579   7.3674   7.4977   7.5399   7.6013   7.6844   7.7627   7.7862
  7.8651  24.7464  24.9574  50.5740  50.5873  50.7077
 --------------------------------------------------------------
 
          Ground-State Mulliken Net Atomic Charges

     Atom                 Charge (a.u.)
  ----------------------------------------
      1 C                     0.179998
      2 C                    -0.036575
      3 O                    -0.431584
      4 O                    -0.441217
      5 O                    -0.375802
      6 H                     0.347621
      7 H                     0.346524
      8 H                     0.188872
      9 H                     0.222163
  ----------------------------------------
  Sum of atomic charges =     0.000000

 -----------------------------------------------------------------
                    Cartesian Multipole Moments
 -----------------------------------------------------------------
    Charge (ESU x 10^10)
                 0.0000
    Dipole Moment (Debye)
         X      -6.4427      Y      -1.5479      Z       1.4438
       Tot       6.7815
    Quadrupole Moments (Debye-Ang)
        XX     -39.0745     XY      -2.8564     YY     -33.6179
        XZ      20.3439     YZ       3.8245     ZZ     -34.4928
    Octopole Moments (Debye-Ang^2)
       XXX    -133.7173    XXY     -14.4974    XYY     -49.7097
       YYY       7.6585    XXZ      94.9805    XYZ       5.3973
       YYZ      78.4377    XZZ     -97.5941    YZZ      -5.4735
       ZZZ     221.9312
    Hexadecapole Moments (Debye-Ang^3)
      XXXX    -498.4799   XXXY     -84.7348   XXYY    -115.3292
      XYYY     -29.2088   YYYY    -173.3863   XXXZ     281.8534
      XXYZ      27.9283   XYYZ     106.0493   YYYZ     -14.2513
      XXZZ    -319.7529   XYZZ     -25.6240   YYZZ    -236.9507
      XZZZ     422.8755   YZZZ      -6.2037   ZZZZ   -1139.7708
 -----------------------------------------------------------------
 Calculating analytic gradient of the SCF energy
 Gradient of CDS energy
            1           2           3           4           5           6
    1   0.0019369  -0.0002712   0.0002367  -0.0002654  -0.0008991  -0.0002827
    2   0.0013983  -0.0010878   0.0024266  -0.0013725  -0.0008798  -0.0004423
    3   0.0001451  -0.0034788  -0.0002822   0.0036633   0.0003182   0.0000491
            7           8           9
    1  -0.0002087  -0.0001279  -0.0001185
    2   0.0001825  -0.0002249  -0.0000001
    3  -0.0004422   0.0000233   0.0000042
 Gradient of SCF Energy
            1           2           3           4           5           6
    1  -0.0019574   0.0114779   0.0230759   0.0241372  -0.0004309  -0.0213939
    2   0.0067599  -0.0081809   0.0019891   0.0012493  -0.0016713  -0.0020479
    3  -0.0024870  -0.0060192   0.0010657   0.0046995  -0.0024278  -0.0021601
            7           8           9
    1  -0.0201049  -0.0008379  -0.0139660
    2  -0.0005515  -0.0026591   0.0051125
    3  -0.0038634   0.0053256   0.0058666
 Max gradient component =       2.414E-02
 RMS gradient           =       9.853E-03
 Computing fast CPCM-SWIG gradient
 Updating gradient with PCM contributions...
 -- total gradient after adding PCM contribution --
---------------------------------------------------
  Atom         X              Y              Z     
---------------------------------------------------
   1       0.001173       0.000639      -0.000057
   2      -0.000285      -0.000059      -0.000132
   3       0.000020      -0.000005      -0.000045
   4       0.000004       0.000010       0.000025
   5      -0.000715      -0.000581       0.000253
   6       0.000005      -0.000009       0.000033
   7      -0.000029      -0.000021       0.000003
   8      -0.000130       0.000041      -0.000083
   9      -0.000044      -0.000015       0.000003
---------------------------------------------------
 Number of fixed atoms: 0
 Gradient time:  CPU 41.37 s  wall 6.12 s
 ----------------------------------------------------------------
             Standard Nuclear Orientation (Angstroms)
    I     Atom           X                Y                Z
 ----------------------------------------------------------------
    1      C       1.8016107909     0.1888674354    -1.5827592106
    2      C       0.5574679866    -0.2103242722    -2.3513371899
    3      O       0.4604046718    -1.6103622263    -2.2392152783
    4      O       0.6789985874     0.2257359608    -3.6770076874
    5      O       2.5917587778     1.0114181576    -1.9760263167
    6      H      -0.4582013487    -1.8667010446    -2.3767097880
    7      H      -0.2018245753     0.2711206666    -4.0651477320
    8      H       1.9270653287    -0.3212966643    -0.6169267181
    9      H      -0.2992872192     0.2665557867    -1.8651229790
 ----------------------------------------------------------------
 Nuclear Repulsion Energy =         178.84431098 hartrees
 There are       20 alpha and       20 beta electrons
 Discretize the solute cavity surface with Lebedev spheres
	Using 110 Lebedev grid points for each H atom
	Using 194 Lebedev grid points for other atoms
	Atomic van der Waals radii will be scaled by 1.20
 Remove points where switching function is < 1.0e-08
 Keep 784 surface tesserae and discard 626 interior tesserae
 Molecular Surface Area = 93.691 Angst**2

                       Distance Matrix (Angstroms)
             C (  1)   C (  2)   O (  3)   O (  4)   O (  5)   H (  6)
   C (  2)  1.515902
   O (  3)  2.338161  1.407870
   O (  4)  2.376446  1.400828  2.342282
   O (  5)  1.206475  2.402468  3.389052  2.677552
   H (  6)  3.156338  1.943145  0.963562  2.713354  4.212645
   H (  7)  3.191046  1.935319  2.704174  0.963619  3.566031  2.736208
   H (  8)  1.099472  2.212757  2.538622  3.349778  2.016209  3.342844
   H (  9)  2.121211  1.094463  2.059101  2.059523  2.987518  2.199491
             H (  7)   H (  8)
   H (  8)  4.095529
   H (  9)  2.202187  2.619200
 
 Requested basis set is 6-311++G(2df,2p)
 There are 64 shells and 210 basis functions
 A cutoff of  1.0D-12 yielded   2012 shell pairs
 There are     21877 function pairs (     27459 Cartesian)
 Smallest overlap matrix eigenvalue = 9.09E-05
 Guess MOs from SCF MO coefficient file

 -----------------------------------------------------------------------
  General SCF calculation program by
  Eric Jon Sundstrom, Paul Horn, Yuezhi Mao, Dmitri Zuev, Alec White,
  David Stuck, Shaama M.S., Shane Yost, Joonho Lee, David Small,
  Daniel Levine, Susi Lehtola, Hugh Burton, Evgeny Epifanovsky,
  Bang C. Huynh
 -----------------------------------------------------------------------
 Exchange:     0.1500 Hartree-Fock + 1.0000 wB97M-V + LR-HF
 Correlation:  1.0000 wB97M-V
 Using SG-2 standard quadrature grid
 Nonlocal Correlation:  VV10 with C = 0.0100 and b = 6.00 and scale = 1.00000
 Grid used for NLC:  SG-1 standard quadrature
 
 Citation of the SMD model:
 Marenich, A.V.; Cramer, C.J.; Truhlar, D.G.
 J. Phys. Chem. B 2009, 113, 6378-6396.
 iSolventCode=           1
 Solvent: water                                                           
 
 vradii
            1           2           3           4           5           6
    1   1.8500000   1.8500000   1.5200000   1.5200000   1.5200000   1.2000000
            7           8           9
    1   1.2000000   1.2000000   1.2000000
 -------------------------------------------------------
 OpenMP BLAS3 based DFT computing Module                
 Release: version 1.0, May 2013, Q-Chem Inc. Pittsburgh 
 -------------------------------------------------------
 A restricted SCF calculation will be
 performed using Roothaan-Hall, DIIS, GDM
 SCF converges when RMS gradient is below 1.0e-07
 ---------------------------------------
  Cycle       Energy         DIIS error
 ---------------------------------------
    1    -304.2618170558      9.98e-04  Roothaan Step
 ---------------------------------------
  Cycle       Energy         DIIS error
 ---------------------------------------
    1    -304.2920084445      1.23e-03  
    2    -304.2979488583      1.25e-03  Done DIIS. Switching to GDM
 ---------------------------------------
  Cycle       Energy        RMS Gradient
 ---------------------------------------
    1    -304.2979488583      2.10e-02   Normal BFGS step
    2    -304.2955989062      3.32e-02  Line search: overstep
    3    -304.3033494313      2.68e-03   Normal BFGS step
    4    -304.3036304735      1.06e-03   Normal BFGS step
    5    -304.3036674137      1.08e-03   Normal BFGS step
    6    -304.3036783648      1.19e-04   Normal BFGS step
    7    -304.3036789652      5.16e-05   Normal BFGS step
    8    -304.3036790479      1.15e-05   Normal BFGS step
    9    -304.3036790538      7.75e-06   Normal BFGS step
   10    -304.3036790550      2.87e-06   Normal BFGS step
   11    -304.3036790553      1.84e-06   Normal BFGS step
   12    -304.3036790553      1.06e-06   Normal BFGS step
   13    -304.3036790553      4.09e-07   Normal BFGS step
   14    -304.3036790553      8.19e-08  Convergence criterion met
 ---------------------------------------
 SCF time:   CPU 244.34s  wall 31.00s 
(3)  G-ENP(liq) elect-nuc-pol free energy of system     -304.303679055 a.u.
(4)  G-CDS(liq) cavity-dispersion-solvent structure 
     free energy                                                3.8392 kcal/mol
(6)  G-S(liq) free energy of system                     -304.297560837 a.u.
 SCF   energy in the final basis set =     -304.2975608368
 Total energy in the final basis set =     -304.2975608368
 
 --------------------------------------------------------------
 
                    Orbital Energies (a.u.)
 --------------------------------------------------------------
 
 Alpha MOs
 -- Occupied --
-19.3556 -19.3523 -19.3513 -10.4546 -10.4449  -1.2171  -1.1924  -1.1430
 -0.8521  -0.7064  -0.6615  -0.6537  -0.6004  -0.5754  -0.5157  -0.5078
 -0.4924  -0.4262  -0.4185  -0.3817
 -- Virtual --
  0.0214   0.0398   0.0488   0.0555   0.0621   0.0876   0.1083   0.1163
  0.1303   0.1392   0.1444   0.1639   0.1731   0.2189   0.2319   0.2385
  0.2448   0.2646   0.2832   0.2900   0.2979   0.3053   0.3066   0.3184
  0.3340   0.3459   0.3584   0.3677   0.3828   0.4107   0.4302   0.4476
  0.5012   0.5475   0.5776   0.6017   0.6113   0.6356   0.6621   0.6678
  0.6811   0.6889   0.6972   0.7731   0.8005   0.8316   0.8371   0.8711
  0.8998   0.9351   0.9710   1.0068   1.0463   1.0952   1.1131   1.1215
  1.1282   1.1500   1.1623   1.1794   1.2012   1.2107   1.2391   1.2630
  1.2936   1.3286   1.3414   1.3451   1.4352   1.4421   1.4645   1.5142
  1.5284   1.5390   1.5847   1.6332   1.6683   1.7121   1.7759   1.8066
  1.8636   1.8948   1.9498   1.9616   2.1140   2.1618   2.2206   2.2371
  2.2943   2.3701   2.3896   2.4427   2.4647   2.5623   2.5804   2.6577
  2.7827   2.7977   2.8297   2.8789   2.9695   2.9961   3.0706   3.1369
  3.1644   3.2240   3.2486   3.2919   3.3461   3.3655   3.3944   3.4312
  3.4697   3.5400   3.5583   3.6243   3.6458   3.7058   3.7565   3.7756
  3.8137   3.8554   3.8743   3.9064   3.9522   4.0124   4.0846   4.1437
  4.1752   4.2188   4.2192   4.2573   4.2875   4.3537   4.4343   4.5271
  4.6423   4.7080   5.1085   5.1657   5.1792   5.1935   5.2145   5.2362
  5.2432   5.2869   5.2934   5.3393   5.3601   5.4092   5.4387   5.5159
  5.5332   5.5410   5.5752   5.6239   5.6431   5.6696   5.8028   5.8669
  6.0199   6.0881   6.1691   6.4022   6.4982   6.6931   6.7718   6.9382
  6.9864   7.0488   7.1026   7.1431   7.2203   7.2390   7.2728   7.3001
  7.3579   7.3673   7.4976   7.5401   7.6011   7.6842   7.7622   7.7862
  7.8651  24.7461  24.9576  50.5740  50.5872  50.7058
 --------------------------------------------------------------
 
          Ground-State Mulliken Net Atomic Charges

     Atom                 Charge (a.u.)
  ----------------------------------------
      1 C                     0.180474
      2 C                    -0.036764
      3 O                    -0.431449
      4 O                    -0.441166
      5 O                    -0.376786
      6 H                     0.347663
      7 H                     0.346545
      8 H                     0.189125
      9 H                     0.222358
  ----------------------------------------
  Sum of atomic charges =     0.000000

 -----------------------------------------------------------------
                    Cartesian Multipole Moments
 -----------------------------------------------------------------
    Charge (ESU x 10^10)
                -0.0000
    Dipole Moment (Debye)
         X      -6.4539      Y      -1.5537      Z       1.4434
       Tot       6.7934
    Quadrupole Moments (Debye-Ang)
        XX     -39.1100     XY      -2.8685     YY     -33.6197
        XZ      20.3673     YZ       3.8349     ZZ     -34.4877
    Octopole Moments (Debye-Ang^2)
       XXX    -133.8041    XXY     -14.5294    XYY     -49.7164
       YYY       7.6324    XXZ      95.0534    XYZ       5.4170
       YYZ      78.4388    XZZ     -97.6357    YZZ      -5.4993
       ZZZ     221.8996
    Hexadecapole Moments (Debye-Ang^3)
      XXXX    -498.6319   XXXY     -84.8140   XXYY    -115.3350
      XYYY     -29.2425   YYYY    -173.3890   XXXZ     282.0420
      XXYZ      27.9794   XYYZ     106.0655   YYYZ     -14.1993
      XXZZ    -319.8768   XYZZ     -25.6701   YYZZ    -236.9475
      XZZZ     422.9531   YZZZ      -6.1341   ZZZZ   -1139.5942
 -----------------------------------------------------------------
 Calculating analytic gradient of the SCF energy
 Gradient of CDS energy
            1           2           3           4           5           6
    1   0.0019462  -0.0002687   0.0002367  -0.0002651  -0.0009124  -0.0002827
    2   0.0014096  -0.0010879   0.0024267  -0.0013723  -0.0008913  -0.0004422
    3   0.0001389  -0.0034791  -0.0002821   0.0036634   0.0003235   0.0000491
            7           8           9
    1  -0.0002087  -0.0001270  -0.0001183
    2   0.0001825  -0.0002250  -0.0000000
    3  -0.0004421   0.0000240   0.0000044
 Gradient of SCF Energy
            1           2           3           4           5           6
    1  -0.0042629   0.0120777   0.0230967   0.0241520   0.0009412  -0.0214145
    2   0.0056230  -0.0081305   0.0020120   0.0012442  -0.0005216  -0.0020624
    3  -0.0024158  -0.0057988   0.0010676   0.0047100  -0.0029329  -0.0021592
            7           8           9
    1  -0.0201203  -0.0005594  -0.0139106
    2  -0.0005460  -0.0027534   0.0051349
    3  -0.0038771   0.0054988   0.0059074
 Max gradient component =       2.415E-02
 RMS gradient           =       9.883E-03
 Computing fast CPCM-SWIG gradient
 Updating gradient with PCM contributions...
 -- total gradient after adding PCM contribution --
---------------------------------------------------
  Atom         X              Y              Z     
---------------------------------------------------
   1      -0.001121      -0.000529       0.000023
   2       0.000289       0.000011       0.000114
   3       0.000014       0.000009      -0.000047
   4      -0.000004       0.000005       0.000025
   5       0.000675       0.000585      -0.000260
   6       0.000007      -0.000016       0.000036
   7      -0.000027      -0.000015      -0.000004
   8       0.000138      -0.000047       0.000084
   9       0.000029      -0.000003       0.000029
---------------------------------------------------
 Number of fixed atoms: 0
 Gradient time:  CPU 41.78 s  wall 6.18 s
 ----------------------------------------------------------------
             Standard Nuclear Orientation (Angstroms)
    I     Atom           X                Y                Z
 ----------------------------------------------------------------
    1      C       1.8026107909     0.1898674354    -1.5827592106
    2      C       0.5574679866    -0.2103242722    -2.3513371899
    3      O       0.4604046718    -1.6103622263    -2.2392152783
    4      O       0.6789985874     0.2257359608    -3.6770076874
    5      O       2.5917587778     1.0114181576    -1.9760263167
    6      H      -0.4582013487    -1.8667010446    -2.3767097880
    7      H      -0.2018245753     0.2711206666    -4.0651477320
    8      H       1.9270653287    -0.3212966643    -0.6169267181
    9      H      -0.2992872192     0.2665557867    -1.8651229790
 ----------------------------------------------------------------
 Nuclear Repulsion Energy =         178.84816807 hartrees
 There are       20 alpha and       20 beta electrons
 Discretize the solute cavity surface with Lebedev spheres
	Using 110 Lebedev grid points for each H atom
	Using 194 Lebedev grid points for other atoms
	Atomic van der Waals radii will be scaled by 1.20
 Remove points where switching function is < 1.0e-08
 Keep 784 surface tesserae and discard 626 interior tesserae
 Molecular Surface Area = 93.695 Angst**2

                       Distance Matrix (Angstroms)
             C (  1)   C (  2)   O (  3)   O (  4)   O (  5)   H (  6)
   C (  2)  1.516986
   O (  3)  2.339504  1.407870
   O (  4)  2.376903  1.400828  2.342282
   O (  5)  1.205139  2.402468  3.389052  2.677552
   H (  6)  3.157705  1.943145  0.963562  2.713354  4.212645
   H (  7)  3.191648  1.935319  2.704174  0.963619  3.566031  2.736208
   H (  8)  1.099823  2.212757  2.538622  3.349778  2.016209  3.342844
   H (  9)  2.122165  1.094463  2.059101  2.059523  2.987518  2.199491
             H (  7)   H (  8)
   H (  8)  4.095529
   H (  9)  2.202187  2.619200
 
 Requested basis set is 6-311++G(2df,2p)
 There are 64 shells and 210 basis functions
 A cutoff of  1.0D-12 yielded   2012 shell pairs
 There are     21877 function pairs (     27459 Cartesian)
 Smallest overlap matrix eigenvalue = 9.12E-05
 Guess MOs from SCF MO coefficient file

 -----------------------------------------------------------------------
  General SCF calculation program by
  Eric Jon Sundstrom, Paul Horn, Yuezhi Mao, Dmitri Zuev, Alec White,
  David Stuck, Shaama M.S., Shane Yost, Joonho Lee, David Small,
  Daniel Levine, Susi Lehtola, Hugh Burton, Evgeny Epifanovsky,
  Bang C. Huynh
 -----------------------------------------------------------------------
 Exchange:     0.1500 Hartree-Fock + 1.0000 wB97M-V + LR-HF
 Correlation:  1.0000 wB97M-V
 Using SG-2 standard quadrature grid
 Nonlocal Correlation:  VV10 with C = 0.0100 and b = 6.00 and scale = 1.00000
 Grid used for NLC:  SG-1 standard quadrature
 
 Citation of the SMD model:
 Marenich, A.V.; Cramer, C.J.; Truhlar, D.G.
 J. Phys. Chem. B 2009, 113, 6378-6396.
 iSolventCode=           1
 Solvent: water                                                           
 
 vradii
            1           2           3           4           5           6
    1   1.8500000   1.8500000   1.5200000   1.5200000   1.5200000   1.2000000
            7           8           9
    1   1.2000000   1.2000000   1.2000000
 -------------------------------------------------------
 OpenMP BLAS3 based DFT computing Module                
 Release: version 1.0, May 2013, Q-Chem Inc. Pittsburgh 
 -------------------------------------------------------
 A restricted SCF calculation will be
 performed using Roothaan-Hall, DIIS, GDM
 SCF converges when RMS gradient is below 1.0e-07
 ---------------------------------------
  Cycle       Energy         DIIS error
 ---------------------------------------
    1    -304.2618074220      1.00e-03  Roothaan Step
 ---------------------------------------
  Cycle       Energy         DIIS error
 ---------------------------------------
    1    -304.2921001062      1.22e-03  
    2    -304.2980838545      1.24e-03  Done DIIS. Switching to GDM
 ---------------------------------------
  Cycle       Energy        RMS Gradient
 ---------------------------------------
    1    -304.2980838545      2.04e-02   Normal BFGS step
    2    -304.2958359463      3.22e-02  Line search: overstep
    3    -304.3033600780      2.62e-03   Normal BFGS step
    4    -304.3036372906      1.05e-03   Normal BFGS step
    5    -304.3036737881      1.08e-03   Normal BFGS step
    6    -304.3036845651      1.18e-04   Normal BFGS step
    7    -304.3036851626      5.04e-05   Normal BFGS step
    8    -304.3036852437      1.18e-05   Normal BFGS step
    9    -304.3036852495      7.73e-06   Normal BFGS step
   10    -304.3036852507      2.84e-06   Normal BFGS step
   11    -304.3036852509      1.78e-06   Normal BFGS step
   12    -304.3036852510      1.03e-06   Normal BFGS step
   13    -304.3036852510      4.13e-07   Normal BFGS step
   14    -304.3036852510      8.02e-08  Convergence criterion met
 ---------------------------------------
 SCF time:   CPU 245.35s  wall 31.00s 
(3)  G-ENP(liq) elect-nuc-pol free energy of system     -304.303685251 a.u.
(4)  G-CDS(liq) cavity-dispersion-solvent structure 
     free energy                                                3.8432 kcal/mol
(6)  G-S(liq) free energy of system                     -304.297560711 a.u.
 SCF   energy in the final basis set =     -304.2975607113
 Total energy in the final basis set =     -304.2975607113
 
 --------------------------------------------------------------
 
                    Orbital Energies (a.u.)
 --------------------------------------------------------------
 
 Alpha MOs
 -- Occupied --
-19.3556 -19.3522 -19.3513 -10.4546 -10.4448  -1.2173  -1.1928  -1.1429
 -0.8518  -0.7063  -0.6614  -0.6537  -0.6004  -0.5756  -0.5160  -0.5079
 -0.4924  -0.4261  -0.4184  -0.3815
 -- Virtual --
  0.0215   0.0400   0.0488   0.0555   0.0621   0.0876   0.1083   0.1163
  0.1302   0.1392   0.1444   0.1640   0.1731   0.2189   0.2319   0.2385
  0.2448   0.2646   0.2832   0.2901   0.2979   0.3053   0.3066   0.3184
  0.3339   0.3459   0.3584   0.3677   0.3828   0.4106   0.4303   0.4477
  0.5014   0.5475   0.5776   0.6018   0.6114   0.6355   0.6623   0.6678
  0.6811   0.6890   0.6972   0.7731   0.8006   0.8316   0.8375   0.8712
  0.8998   0.9351   0.9710   1.0068   1.0463   1.0951   1.1130   1.1213
  1.1281   1.1499   1.1622   1.1795   1.2010   1.2107   1.2391   1.2629
  1.2936   1.3284   1.3414   1.3450   1.4351   1.4422   1.4643   1.5142
  1.5285   1.5390   1.5849   1.6335   1.6685   1.7122   1.7761   1.8068
  1.8638   1.8948   1.9501   1.9616   2.1140   2.1621   2.2207   2.2371
  2.2944   2.3701   2.3896   2.4431   2.4647   2.5629   2.5805   2.6580
  2.7827   2.7978   2.8300   2.8790   2.9691   2.9956   3.0703   3.1363
  3.1638   3.2241   3.2485   3.2920   3.3461   3.3655   3.3948   3.4315
  3.4697   3.5395   3.5588   3.6246   3.6460   3.7060   3.7565   3.7756
  3.8136   3.8555   3.8742   3.9064   3.9518   4.0119   4.0844   4.1436
  4.1747   4.2182   4.2191   4.2576   4.2876   4.3539   4.4340   4.5264
  4.6420   4.7068   5.1081   5.1657   5.1791   5.1937   5.2145   5.2362
  5.2432   5.2869   5.2934   5.3398   5.3601   5.4091   5.4385   5.5157
  5.5332   5.5416   5.5768   5.6238   5.6432   5.6699   5.8032   5.8687
  6.0200   6.0884   6.1695   6.4063   6.4982   6.6943   6.7750   6.9383
  6.9866   7.0490   7.1037   7.1442   7.2207   7.2390   7.2728   7.3001
  7.3579   7.3674   7.4977   7.5403   7.6012   7.6843   7.7626   7.7862
  7.8651  24.7464  24.9577  50.5740  50.5873  50.7078
 --------------------------------------------------------------
 
          Ground-State Mulliken Net Atomic Charges

     Atom                 Charge (a.u.)
  ----------------------------------------
      1 C                     0.180273
      2 C                    -0.036729
      3 O                    -0.431572
      4 O                    -0.441216
      5 O                    -0.375809
      6 H                     0.347660
      7 H                     0.346538
      8 H                     0.188632
      9 H                     0.222223
  ----------------------------------------
  Sum of atomic charges =     0.000000

 -----------------------------------------------------------------
                    Cartesian Multipole Moments
 -----------------------------------------------------------------
    Charge (ESU x 10^10)
                -0.0000
    Dipole Moment (Debye)
         X      -6.4453      Y      -1.5467      Z       1.4421
       Tot       6.7834
    Quadrupole Moments (Debye-Ang)
        XX     -39.0819     XY      -2.8530     YY     -33.6150
        XZ      20.3464     YZ       3.8238     ZZ     -34.4885
    Octopole Moments (Debye-Ang^2)
       XXX    -133.7196    XXY     -14.4963    XYY     -49.7051
       YYY       7.6391    XXZ      94.9901    XYZ       5.3923
       YYZ      78.4310    XZZ     -97.5939    YZZ      -5.4805
       ZZZ     221.9166
    Hexadecapole Moments (Debye-Ang^3)
      XXXX    -498.4014   XXXY     -84.7414   XXYY    -115.3130
      XYYY     -29.2317   YYYY    -173.3876   XXXZ     281.8544
      XXYZ      27.9279   XYYZ     106.0432   YYYZ     -14.2139
      XXZZ    -319.7531   XYZZ     -25.6259   YYZZ    -236.9368
      XZZZ     422.8585   YZZZ      -6.1668   ZZZZ   -1139.7165
 -----------------------------------------------------------------
 Calculating analytic gradient of the SCF energy
 Gradient of CDS energy
            1           2           3           4           5           6
    1   0.0019359  -0.0002701   0.0002368  -0.0002654  -0.0009000  -0.0002827
    2   0.0013984  -0.0010888   0.0024268  -0.0013725  -0.0008786  -0.0004422
    3   0.0001443  -0.0034790  -0.0002821   0.0036634   0.0003181   0.0000491
            7           8           9
    1  -0.0002087  -0.0001275  -0.0001183
    2   0.0001825  -0.0002255  -0.0000000
    3  -0.0004422   0.0000242   0.0000043
 Gradient of SCF Energy
            1           2           3           4           5           6
    1  -0.0025329   0.0117766   0.0230040   0.0241543  -0.0003231  -0.0213994
    2   0.0072965  -0.0083027   0.0019464   0.0012454  -0.0018231  -0.0020657
    3  -0.0028888  -0.0059382   0.0010401   0.0047263  -0.0023633  -0.0021660
            7           8           9
    1  -0.0201124  -0.0006597  -0.0139073
    2  -0.0005452  -0.0028894   0.0051378
    3  -0.0038616   0.0055514   0.0059001
 Max gradient component =       2.415E-02
 RMS gradient           =       9.892E-03
 Computing fast CPCM-SWIG gradient
 Updating gradient with PCM contributions...
 -- total gradient after adding PCM contribution --
---------------------------------------------------
  Atom         X              Y              Z     
---------------------------------------------------
   1       0.000612       0.001175      -0.000473
   2       0.000006      -0.000172      -0.000039
   3      -0.000060      -0.000053      -0.000074
   4       0.000015       0.000010       0.000051
   5      -0.000601      -0.000736       0.000314
   6       0.000006      -0.000024       0.000029
   7      -0.000032      -0.000016       0.000005
   8       0.000041      -0.000188       0.000156
   9       0.000015       0.000004       0.000031
---------------------------------------------------
 Number of fixed atoms: 0
 Gradient time:  CPU 40.23 s  wall 5.97 s
 ----------------------------------------------------------------
             Standard Nuclear Orientation (Angstroms)
    I     Atom           X                Y                Z
 ----------------------------------------------------------------
    1      C       1.8026107909     0.1878674354    -1.5827592106
    2      C       0.5574679866    -0.2103242722    -2.3513371899
    3      O       0.4604046718    -1.6103622263    -2.2392152783
    4      O       0.6789985874     0.2257359608    -3.6770076874
    5      O       2.5917587778     1.0114181576    -1.9760263167
    6      H      -0.4582013487    -1.8667010446    -2.3767097880
    7      H      -0.2018245753     0.2711206666    -4.0651477320
    8      H       1.9270653287    -0.3212966643    -0.6169267181
    9      H      -0.2992872192     0.2665557867    -1.8651229790
 ----------------------------------------------------------------
 Nuclear Repulsion Energy =         178.83848485 hartrees
 There are       20 alpha and       20 beta electrons
 Discretize the solute cavity surface with Lebedev spheres
	Using 110 Lebedev grid points for each H atom
	Using 194 Lebedev grid points for other atoms
	Atomic van der Waals radii will be scaled by 1.20
 Remove points where switching function is < 1.0e-08
 Keep 784 surface tesserae and discard 626 interior tesserae
 Molecular Surface Area = 93.693 Angst**2

                       Distance Matrix (Angstroms)
             C (  1)   C (  2)   O (  3)   O (  4)   O (  5)   H (  6)
   C (  2)  1.516459
   O (  3)  2.337965  1.407870
   O (  4)  2.376934  1.400828  2.342282
   O (  5)  1.206503  2.402468  3.389052  2.677552
   H (  6)  3.156403  1.943145  0.963562  2.713354  4.212645
   H (  7)  3.191699  1.935319  2.704174  0.963619  3.566031  2.736208
   H (  8)  1.098895  2.212757  2.538622  3.349778  2.016209  3.342844
   H (  9)  2.122239  1.094463  2.059101  2.059523  2.987518  2.199491
             H (  7)   H (  8)
   H (  8)  4.095529
   H (  9)  2.202187  2.619200
 
 Requested basis set is 6-311++G(2df,2p)
 There are 64 shells and 210 basis functions
 A cutoff of  1.0D-12 yielded   2012 shell pairs
 There are     21877 function pairs (     27459 Cartesian)
 Smallest overlap matrix eigenvalue = 9.11E-05
 Guess MOs from SCF MO coefficient file

 -----------------------------------------------------------------------
  General SCF calculation program by
  Eric Jon Sundstrom, Paul Horn, Yuezhi Mao, Dmitri Zuev, Alec White,
  David Stuck, Shaama M.S., Shane Yost, Joonho Lee, David Small,
  Daniel Levine, Susi Lehtola, Hugh Burton, Evgeny Epifanovsky,
  Bang C. Huynh
 -----------------------------------------------------------------------
 Exchange:     0.1500 Hartree-Fock + 1.0000 wB97M-V + LR-HF
 Correlation:  1.0000 wB97M-V
 Using SG-2 standard quadrature grid
 Nonlocal Correlation:  VV10 with C = 0.0100 and b = 6.00 and scale = 1.00000
 Grid used for NLC:  SG-1 standard quadrature
 
 Citation of the SMD model:
 Marenich, A.V.; Cramer, C.J.; Truhlar, D.G.
 J. Phys. Chem. B 2009, 113, 6378-6396.
 iSolventCode=           1
 Solvent: water                                                           
 
 vradii
            1           2           3           4           5           6
    1   1.8500000   1.8500000   1.5200000   1.5200000   1.5200000   1.2000000
            7           8           9
    1   1.2000000   1.2000000   1.2000000
 -------------------------------------------------------
 OpenMP BLAS3 based DFT computing Module                
 Release: version 1.0, May 2013, Q-Chem Inc. Pittsburgh 
 -------------------------------------------------------
 A restricted SCF calculation will be
 performed using Roothaan-Hall, DIIS, GDM
 SCF converges when RMS gradient is below 1.0e-07
 ---------------------------------------
  Cycle       Energy         DIIS error
 ---------------------------------------
    1    -304.2618223947      9.98e-04  Roothaan Step
 ---------------------------------------
  Cycle       Energy         DIIS error
 ---------------------------------------
    1    -304.2920062364      1.23e-03  
    2    -304.2979518840      1.25e-03  Done DIIS. Switching to GDM
 ---------------------------------------
  Cycle       Energy        RMS Gradient
 ---------------------------------------
    1    -304.2979518840      2.10e-02   Normal BFGS step
    2    -304.2956033646      3.33e-02  Line search: overstep
    3    -304.3033503224      2.68e-03   Normal BFGS step
    4    -304.3036315456      1.06e-03   Normal BFGS step
    5    -304.3036685113      1.08e-03   Normal BFGS step
    6    -304.3036794578      1.19e-04   Normal BFGS step
    7    -304.3036800592      5.17e-05   Normal BFGS step
    8    -304.3036801419      1.15e-05   Normal BFGS step
    9    -304.3036801477      7.68e-06   Normal BFGS step
   10    -304.3036801489      2.87e-06   Normal BFGS step
   11    -304.3036801492      1.78e-06   Normal BFGS step
   12    -304.3036801492      1.03e-06   Normal BFGS step
   13    -304.3036801492      4.13e-07   Normal BFGS step
   14    -304.3036801492      8.03e-08  Convergence criterion met
 ---------------------------------------
 SCF time:   CPU 244.70s  wall 31.00s 
(3)  G-ENP(liq) elect-nuc-pol free energy of system     -304.303680149 a.u.
(4)  G-CDS(liq) cavity-dispersion-solvent structure 
     free energy                                                3.8399 kcal/mol
(6)  G-S(liq) free energy of system                     -304.297560916 a.u.
 SCF   energy in the final basis set =     -304.2975609156
 Total energy in the final basis set =     -304.2975609156
 
 --------------------------------------------------------------
 
                    Orbital Energies (a.u.)
 --------------------------------------------------------------
 
 Alpha MOs
 -- Occupied --
-19.3556 -19.3522 -19.3513 -10.4546 -10.4449  -1.2171  -1.1923  -1.1430
 -0.8519  -0.7065  -0.6615  -0.6537  -0.6004  -0.5754  -0.5156  -0.5078
 -0.4924  -0.4262  -0.4185  -0.3816
 -- Virtual --
  0.0214   0.0398   0.0488   0.0555   0.0620   0.0876   0.1083   0.1163
  0.1303   0.1391   0.1444   0.1639   0.1731   0.2189   0.2319   0.2385
  0.2449   0.2647   0.2831   0.2900   0.2979   0.3053   0.3066   0.3184
  0.3339   0.3459   0.3585   0.3676   0.3829   0.4107   0.4302   0.4476
  0.5011   0.5475   0.5777   0.6015   0.6114   0.6354   0.6623   0.6678
  0.6811   0.6890   0.6971   0.7731   0.8006   0.8317   0.8370   0.8711
  0.8999   0.9350   0.9709   1.0069   1.0463   1.0953   1.1130   1.1214
  1.1284   1.1500   1.1622   1.1794   1.2012   1.2105   1.2389   1.2630
  1.2935   1.3284   1.3414   1.3452   1.4352   1.4422   1.4645   1.5142
  1.5285   1.5391   1.5845   1.6334   1.6684   1.7120   1.7761   1.8065
  1.8634   1.8949   1.9494   1.9615   2.1139   2.1621   2.2207   2.2371
  2.2939   2.3702   2.3895   2.4424   2.4647   2.5623   2.5804   2.6573
  2.7828   2.7975   2.8297   2.8790   2.9697   2.9961   3.0703   3.1369
  3.1648   3.2240   3.2483   3.2919   3.3461   3.3656   3.3945   3.4312
  3.4701   3.5396   3.5580   3.6240   3.6457   3.7060   3.7568   3.7752
  3.8137   3.8554   3.8747   3.9064   3.9521   4.0121   4.0843   4.1440
  4.1745   4.2186   4.2193   4.2574   4.2874   4.3538   4.4343   4.5270
  4.6427   4.7078   5.1089   5.1656   5.1792   5.1935   5.2145   5.2362
  5.2432   5.2869   5.2934   5.3392   5.3602   5.4093   5.4386   5.5156
  5.5330   5.5412   5.5751   5.6239   5.6432   5.6696   5.8031   5.8674
  6.0198   6.0881   6.1691   6.4017   6.4981   6.6930   6.7719   6.9382
  6.9863   7.0488   7.1027   7.1429   7.2203   7.2390   7.2727   7.3001
  7.3579   7.3674   7.4976   7.5397   7.6012   7.6843   7.7622   7.7862
  7.8651  24.7461  24.9573  50.5740  50.5872  50.7058
 --------------------------------------------------------------
 
          Ground-State Mulliken Net Atomic Charges

     Atom                 Charge (a.u.)
  ----------------------------------------
      1 C                     0.180199
      2 C                    -0.036609
      3 O                    -0.431462
      4 O                    -0.441168
      5 O                    -0.376779
      6 H                     0.347624
      7 H                     0.346531
      8 H                     0.189363
      9 H                     0.222299
  ----------------------------------------
  Sum of atomic charges =     0.000000

 -----------------------------------------------------------------
                    Cartesian Multipole Moments
 -----------------------------------------------------------------
    Charge (ESU x 10^10)
                -0.0000
    Dipole Moment (Debye)
         X      -6.4513      Y      -1.5548      Z       1.4451
       Tot       6.7915
    Quadrupole Moments (Debye-Ang)
        XX     -39.1027     XY      -2.8719     YY     -33.6225
        XZ      20.3648     YZ       3.8356     ZZ     -34.4919
    Octopole Moments (Debye-Ang^2)
       XXX    -133.8018    XXY     -14.5305    XYY     -49.7209
       YYY       7.6518    XXZ      95.0438    XYZ       5.4220
       YYZ      78.4454    XZZ     -97.6358    YZZ      -5.4922
       ZZZ     221.9142
    Hexadecapole Moments (Debye-Ang^3)
      XXXX    -498.7106   XXXY     -84.8074   XXYY    -115.3511
      XYYY     -29.2195   YYYY    -173.3877   XXXZ     282.0410
      XXYZ      27.9797   XYYZ     106.0717   YYYZ     -14.2368
      XXZZ    -319.8766   XYZZ     -25.6681   YYZZ    -236.9615
      XZZZ     422.9701   YZZZ      -6.1710   ZZZZ   -1139.6483
 -----------------------------------------------------------------
 Calculating analytic gradient of the SCF energy
 Gradient of CDS energy
            1           2           3           4           5           6
    1   0.0019472  -0.0002699   0.0002366  -0.0002651  -0.0009115  -0.0002827
    2   0.0014095  -0.0010869   0.0024265  -0.0013723  -0.0008926  -0.0004422
    3   0.0001397  -0.0034789  -0.0002822   0.0036633   0.0003236   0.0000491
            7           8           9
    1  -0.0002087  -0.0001274  -0.0001185
    2   0.0001825  -0.0002244  -0.0000001
    3  -0.0004421   0.0000232   0.0000044
 Gradient of SCF Energy
            1           2           3           4           5           6
    1  -0.0036845   0.0117781   0.0231686   0.0241349   0.0008319  -0.0214091
    2   0.0050857  -0.0080095   0.0020547   0.0012481  -0.0003688  -0.0020446
    3  -0.0020122  -0.0058807   0.0010932   0.0046831  -0.0029971  -0.0021533
            7           8           9
    1  -0.0201128  -0.0007378  -0.0139693
    2  -0.0005523  -0.0025230   0.0051097
    3  -0.0038789   0.0052719   0.0058739
 Max gradient component =       2.413E-02
 RMS gradient           =       9.844E-03
 Computing fast CPCM-SWIG gradient
 Updating gradient with PCM contributions...
 -- total gradient after adding PCM contribution --
---------------------------------------------------
  Atom         X              Y              Z     
---------------------------------------------------
   1      -0.000556      -0.001065       0.000441
   2      -0.000003       0.000123       0.000019
   3       0.000095       0.000057      -0.000018
   4      -0.000014       0.000006      -0.000001
   5       0.000559       0.000740      -0.000321
   6       0.000006      -0.000001       0.000040
   7      -0.000024      -0.000020      -0.000006
   8      -0.000033       0.000182      -0.000156
   9      -0.000030      -0.000023       0.000001
---------------------------------------------------
 Number of fixed atoms: 0
 Gradient time:  CPU 40.51 s  wall 5.93 s
 ----------------------------------------------------------------
             Standard Nuclear Orientation (Angstroms)
    I     Atom           X                Y                Z
 ----------------------------------------------------------------
    1      C       1.8026107909     0.1888674354    -1.5817592106
    2      C       0.5574679866    -0.2103242722    -2.3513371899
    3      O       0.4604046718    -1.6103622263    -2.2392152783
    4      O       0.6789985874     0.2257359608    -3.6770076874
    5      O       2.5917587778     1.0114181576    -1.9760263167
    6      H      -0.4582013487    -1.8667010446    -2.3767097880
    7      H      -0.2018245753     0.2711206666    -4.0651477320
    8      H       1.9270653287    -0.3212966643    -0.6169267181
    9      H      -0.2992872192     0.2665557867    -1.8651229790
 ----------------------------------------------------------------
 Nuclear Repulsion Energy =         178.83005606 hartrees
 There are       20 alpha and       20 beta electrons
 Discretize the solute cavity surface with Lebedev spheres
	Using 110 Lebedev grid points for each H atom
	Using 194 Lebedev grid points for other atoms
	Atomic van der Waals radii will be scaled by 1.20
 Remove points where switching function is < 1.0e-08
 Keep 784 surface tesserae and discard 626 interior tesserae
 Molecular Surface Area = 93.698 Angst**2

                       Distance Matrix (Angstroms)
             C (  1)   C (  2)   O (  3)   O (  4)   O (  5)   H (  6)
   C (  2)  1.517229
   O (  3)  2.339015  1.407870
   O (  4)  2.377799  1.400828  2.342282
   O (  5)  1.206147  2.402468  3.389052  2.677552
   H (  6)  3.157306  1.943145  0.963562  2.713354  4.212645
   H (  7)  3.192451  1.935319  2.704174  0.963619  3.566031  2.736208
   H (  8)  1.098480  2.212757  2.538622  3.349778  2.016209  3.342844
   H (  9)  2.122335  1.094463  2.059101  2.059523  2.987518  2.199491
             H (  7)   H (  8)
   H (  8)  4.095529
   H (  9)  2.202187  2.619200
 
 Requested basis set is 6-311++G(2df,2p)
 There are 64 shells and 210 basis functions
 A cutoff of  1.0D-12 yielded   2012 shell pairs
 There are     21877 function pairs (     27459 Cartesian)
 Smallest overlap matrix eigenvalue = 9.13E-05
 Guess MOs from SCF MO coefficient file

 -----------------------------------------------------------------------
  General SCF calculation program by
  Eric Jon Sundstrom, Paul Horn, Yuezhi Mao, Dmitri Zuev, Alec White,
  David Stuck, Shaama M.S., Shane Yost, Joonho Lee, David Small,
  Daniel Levine, Susi Lehtola, Hugh Burton, Evgeny Epifanovsky,
  Bang C. Huynh
 -----------------------------------------------------------------------
 Exchange:     0.1500 Hartree-Fock + 1.0000 wB97M-V + LR-HF
 Correlation:  1.0000 wB97M-V
 Using SG-2 standard quadrature grid
 Nonlocal Correlation:  VV10 with C = 0.0100 and b = 6.00 and scale = 1.00000
 Grid used for NLC:  SG-1 standard quadrature
 
 Citation of the SMD model:
 Marenich, A.V.; Cramer, C.J.; Truhlar, D.G.
 J. Phys. Chem. B 2009, 113, 6378-6396.
 iSolventCode=           1
 Solvent: water                                                           
 
 vradii
            1           2           3           4           5           6
    1   1.8500000   1.8500000   1.5200000   1.5200000   1.5200000   1.2000000
            7           8           9
    1   1.2000000   1.2000000   1.2000000
 -------------------------------------------------------
 OpenMP BLAS3 based DFT computing Module                
 Release: version 1.0, May 2013, Q-Chem Inc. Pittsburgh 
 -------------------------------------------------------
 A restricted SCF calculation will be
 performed using Roothaan-Hall, DIIS, GDM
 SCF converges when RMS gradient is below 1.0e-07
 ---------------------------------------
  Cycle       Energy         DIIS error
 ---------------------------------------
    1    -304.2617833209      9.99e-04  Roothaan Step
 ---------------------------------------
  Cycle       Energy         DIIS error
 ---------------------------------------
    1    -304.2920520623      1.22e-03  
    2    -304.2980170262      1.25e-03  Done DIIS. Switching to GDM
 ---------------------------------------
  Cycle       Energy        RMS Gradient
 ---------------------------------------
    1    -304.2980170262      2.08e-02   Normal BFGS step
    2    -304.2957135070      3.29e-02  Line search: overstep
    3    -304.3033553496      2.65e-03   Normal BFGS step
    4    -304.3036347349      1.06e-03   Normal BFGS step
    5    -304.3036714698      1.08e-03   Normal BFGS step
    6    -304.3036823487      1.18e-04   Normal BFGS step
    7    -304.3036829472      5.08e-05   Normal BFGS step
    8    -304.3036830292      1.16e-05   Normal BFGS step
    9    -304.3036830350      7.75e-06   Normal BFGS step
   10    -304.3036830362      2.85e-06   Normal BFGS step
   11    -304.3036830365      1.83e-06   Normal BFGS step
   12    -304.3036830365      1.06e-06   Normal BFGS step
   13    -304.3036830365      4.14e-07   Normal BFGS step
   14    -304.3036830365      8.14e-08  Convergence criterion met
 ---------------------------------------
 SCF time:   CPU 246.35s  wall 32.00s 
(3)  G-ENP(liq) elect-nuc-pol free energy of system     -304.303683037 a.u.
(4)  G-CDS(liq) cavity-dispersion-solvent structure 
     free energy                                                3.8417 kcal/mol
(6)  G-S(liq) free energy of system                     -304.297560876 a.u.
 SCF   energy in the final basis set =     -304.2975608758
 Total energy in the final basis set =     -304.2975608758
 
 --------------------------------------------------------------
 
                    Orbital Energies (a.u.)
 --------------------------------------------------------------
 
 Alpha MOs
 -- Occupied --
-19.3556 -19.3522 -19.3513 -10.4546 -10.4448  -1.2171  -1.1925  -1.1429
 -0.8517  -0.7066  -0.6614  -0.6536  -0.6004  -0.5756  -0.5157  -0.5078
 -0.4924  -0.4261  -0.4185  -0.3816
 -- Virtual --
  0.0214   0.0399   0.0488   0.0555   0.0621   0.0876   0.1083   0.1163
  0.1303   0.1392   0.1444   0.1640   0.1731   0.2189   0.2320   0.2385
  0.2448   0.2646   0.2831   0.2901   0.2978   0.3053   0.3066   0.3184
  0.3339   0.3459   0.3585   0.3676   0.3828   0.4105   0.4302   0.4476
  0.5012   0.5475   0.5778   0.6018   0.6114   0.6355   0.6623   0.6678
  0.6811   0.6889   0.6970   0.7731   0.8005   0.8316   0.8371   0.8711
  0.8999   0.9351   0.9709   1.0069   1.0463   1.0952   1.1131   1.1214
  1.1283   1.1499   1.1622   1.1794   1.2010   1.2106   1.2390   1.2630
  1.2935   1.3285   1.3413   1.3450   1.4351   1.4421   1.4645   1.5142
  1.5286   1.5391   1.5847   1.6335   1.6683   1.7121   1.7759   1.8066
  1.8636   1.8948   1.9495   1.9615   2.1139   2.1618   2.2206   2.2369
  2.2941   2.3701   2.3895   2.4422   2.4647   2.5622   2.5803   2.6576
  2.7827   2.7976   2.8299   2.8789   2.9693   2.9957   3.0703   3.1369
  3.1642   3.2242   3.2486   3.2919   3.3459   3.3654   3.3946   3.4313
  3.4698   3.5397   3.5581   3.6246   3.6457   3.7056   3.7569   3.7752
  3.8134   3.8553   3.8749   3.9063   3.9519   4.0117   4.0841   4.1438
  4.1748   4.2189   4.2190   4.2575   4.2875   4.3534   4.4341   4.5264
  4.6432   4.7072   5.1091   5.1657   5.1791   5.1935   5.2145   5.2363
  5.2432   5.2868   5.2933   5.3394   5.3600   5.4093   5.4386   5.5157
  5.5329   5.5413   5.5755   5.6239   5.6431   5.6696   5.8032   5.8685
  6.0199   6.0881   6.1692   6.4025   6.4980   6.6935   6.7727   6.9382
  6.9863   7.0488   7.1028   7.1430   7.2204   7.2389   7.2726   7.3001
  7.3579   7.3673   7.4977   7.5399   7.6011   7.6841   7.7623   7.7861
  7.8651  24.7460  24.9571  50.5740  50.5871  50.7062
 --------------------------------------------------------------
 
          Ground-State Mulliken Net Atomic Charges

     Atom                 Charge (a.u.)
  ----------------------------------------
      1 C                     0.180147
      2 C                    -0.036780
      3 O                    -0.431507
      4 O                    -0.441238
      5 O                    -0.376383
      6 H                     0.347632
      7 H                     0.346556
      8 H                     0.189352
      9 H                     0.222221
  ----------------------------------------
  Sum of atomic charges =     0.000000

 -----------------------------------------------------------------
                    Cartesian Multipole Moments
 -----------------------------------------------------------------
    Charge (ESU x 10^10)
                -0.0000
    Dipole Moment (Debye)
         X      -6.4479      Y      -1.5524      Z       1.4475
       Tot       6.7883
    Quadrupole Moments (Debye-Ang)
        XX     -39.0951     XY      -2.8668     YY     -33.6202
        XZ      20.3622     YZ       3.8311     ZZ     -34.5002
    Octopole Moments (Debye-Ang^2)
       XXX    -133.7743    XXY     -14.5257    XYY     -49.7147
       YYY       7.6422    XXZ      95.0311    XYZ       5.4117
       YYZ      78.4381    XZZ     -97.6342    YZZ      -5.4876
       ZZZ     221.9229
    Hexadecapole Moments (Debye-Ang^3)
      XXXX    -498.6205   XXXY     -84.8134   XXYY    -115.3400
      XYYY     -29.2377   YYYY    -173.3976   XXXZ     281.9735
      XXYZ      27.9649   XYYZ     106.0533   YYYZ     -14.2282
      XXZZ    -319.8480   XYZZ     -25.6529   YYZZ    -236.9440
      XZZZ     422.9408   YZZZ      -6.1734   ZZZZ   -1139.6265
 -----------------------------------------------------------------
 Calculating analytic gradient of the SCF energy
 Gradient of CDS energy
            1           2           3           4           5           6
    1   0.0019446  -0.0002704   0.0002366  -0.0002652  -0.0009083  -0.0002827
    2   0.0014062  -0.0010880   0.0024267  -0.0013724  -0.0008883  -0.0004422
    3   0.0001425  -0.0034802  -0.0002822   0.0036634   0.0003231   0.0000491
            7           8           9
    1  -0.0002087  -0.0001277  -0.0001183
    2   0.0001825  -0.0002243  -0.0000001
    3  -0.0004422   0.0000220   0.0000043
 Gradient of SCF Energy
            1           2           3           4           5           6
    1  -0.0031491   0.0116703   0.0230841   0.0240717   0.0005085  -0.0214016
    2   0.0057470  -0.0081980   0.0020094   0.0012474  -0.0007810  -0.0020507
    3  -0.0013911  -0.0061591   0.0010669   0.0046414  -0.0029978  -0.0021545
            7           8           9
    1  -0.0201074  -0.0007710  -0.0139055
    2  -0.0005507  -0.0025549   0.0051314
    3  -0.0038813   0.0049646   0.0059109
 Max gradient component =       2.407E-02
 RMS gradient           =       9.831E-03
 Computing fast CPCM-SWIG gradient
 Updating gradient with PCM contributions...
 -- total gradient after adding PCM contribution --
---------------------------------------------------
  Atom         X              Y              Z     
---------------------------------------------------
   1      -0.000014      -0.000404       0.001070
   2      -0.000090      -0.000064      -0.000255
   3       0.000019       0.000011      -0.000040
   4      -0.000071       0.000009      -0.000044
   5       0.000229       0.000315      -0.000326
   6       0.000005      -0.000009       0.000037
   7      -0.000025      -0.000019      -0.000012
   8      -0.000070       0.000162      -0.000468
   9       0.000017       0.000000       0.000038
---------------------------------------------------
 Number of fixed atoms: 0
 Gradient time:  CPU 40.62 s  wall 5.96 s
 ----------------------------------------------------------------
             Standard Nuclear Orientation (Angstroms)
    I     Atom           X                Y                Z
 ----------------------------------------------------------------
    1      C       1.8026107909     0.1888674354    -1.5837592106
    2      C       0.5574679866    -0.2103242722    -2.3513371899
    3      O       0.4604046718    -1.6103622263    -2.2392152783
    4      O       0.6789985874     0.2257359608    -3.6770076874
    5      O       2.5917587778     1.0114181576    -1.9760263167
    6      H      -0.4582013487    -1.8667010446    -2.3767097880
    7      H      -0.2018245753     0.2711206666    -4.0651477320
    8      H       1.9270653287    -0.3212966643    -0.6169267181
    9      H      -0.2992872192     0.2665557867    -1.8651229790
 ----------------------------------------------------------------
 Nuclear Repulsion Energy =         178.85658975 hartrees
 There are       20 alpha and       20 beta electrons
 Discretize the solute cavity surface with Lebedev spheres
	Using 110 Lebedev grid points for each H atom
	Using 194 Lebedev grid points for other atoms
	Atomic van der Waals radii will be scaled by 1.20
 Remove points where switching function is < 1.0e-08
 Keep 784 surface tesserae and discard 626 interior tesserae
 Molecular Surface Area = 93.689 Angst**2

                       Distance Matrix (Angstroms)
             C (  1)   C (  2)   O (  3)   O (  4)   O (  5)   H (  6)
   C (  2)  1.516216
   O (  3)  2.338454  1.407870
   O (  4)  2.376037  1.400828  2.342282
   O (  5)  1.205495  2.402468  3.389052  2.677552
   H (  6)  3.156803  1.943145  0.963562  2.713354  4.212645
   H (  7)  3.190896  1.935319  2.704174  0.963619  3.566031  2.736208
   H (  8)  1.100237  2.212757  2.538622  3.349778  2.016209  3.342844
   H (  9)  2.122069  1.094463  2.059101  2.059523  2.987518  2.199491
             H (  7)   H (  8)
   H (  8)  4.095529
   H (  9)  2.202187  2.619200
 
 Requested basis set is 6-311++G(2df,2p)
 There are 64 shells and 210 basis functions
 A cutoff of  1.0D-12 yielded   2012 shell pairs
 There are     21877 function pairs (     27459 Cartesian)
 Smallest overlap matrix eigenvalue = 9.10E-05
 Guess MOs from SCF MO coefficient file

 -----------------------------------------------------------------------
  General SCF calculation program by
  Eric Jon Sundstrom, Paul Horn, Yuezhi Mao, Dmitri Zuev, Alec White,
  David Stuck, Shaama M.S., Shane Yost, Joonho Lee, David Small,
  Daniel Levine, Susi Lehtola, Hugh Burton, Evgeny Epifanovsky,
  Bang C. Huynh
 -----------------------------------------------------------------------
 Exchange:     0.1500 Hartree-Fock + 1.0000 wB97M-V + LR-HF
 Correlation:  1.0000 wB97M-V
[...]
     3   -7.087006014149078e-02  -1.716141645450926e-02  -1.215709266729479e-02
     4    1.407470581570116e-04   7.746329154948655e-04  -6.082271761538877e-04
     5   -1.066450682042944e-03  -3.580490725832595e-05  -1.788796617881060e-04
     6    6.983083109580251e-02   1.501449306019595e-02   1.364736497269413e-02
     7   -7.645824982810957e-05   4.839456880012818e-04  -5.094262708241226e-05
     8    4.485922304253416e-04   1.206271903220183e-04   1.399330639433160e-04
     9   -8.154620818299937e-04   1.294141116136249e-03  -7.166332957812874e-04


     7 Order 1, Length 27
    Atom      X          Y          Z
     1   -5.883081106028538e-04  -2.185834761860687e-03   1.587015531253520e-03
     2    5.263797915099015e-03   2.497332992752716e-04   7.372131587687501e-03
     3   -3.513628035222240e-05  -1.809359955491103e-03   9.832220573400402e-04
     4   -4.500685600137040e-01   2.296549602809046e-02  -1.914322082200509e-01
     5    8.600820404790271e-04   1.026633936331707e-03  -6.305778440757151e-04
     6   -1.097226295472057e-04   2.835924793739946e-05  -7.645824982810957e-05
     7    4.426511514840193e-01  -1.982750682203888e-02   1.798551769725807e-01
     8    6.431949166254038e-04   9.641405005279347e-05   5.551418284891384e-04
     9    1.383620772990235e-03  -5.438032693699407e-04   1.786532843807447e-03

Order 1, Length 27
    Atom      X          Y          Z
     1   -1.560399638185134e-03   1.223068742295605e-03  -4.878806078860962e-04
     2    1.180015650333233e-02  -3.069147475747689e-03   9.121549311478851e-03
     3   -3.280943619964461e-04  -1.408436719898090e-04   1.070256919542276e-04
     4    1.145193976913540e-02  -5.498019146115470e-03   1.599463546542076e-02
     5    1.001617337904893e-04   3.265158549002530e-05  -8.724590875976089e-04
     6   -2.123995668187624e-04  -3.677073572544659e-04   4.839456880012818e-04
     7   -1.982750682203888e-02   8.505871888037078e-03  -2.452819925307624e-02
     8   -2.101546432179175e-04  -1.547749600539135e-04  -5.461476891335416e-05
     9   -1.213799131872287e-03  -5.312591924318416e-04   2.359918719625943e-04

Order 1, Length 27
    Atom      X          Y          Z
     1    1.708034236631316e-03   2.943133486174245e-03  -6.323545760893957e-03
     2   -3.975897833705901e-02   3.352940831917120e-03  -2.674330064111594e-02
     3    8.767961817474903e-04  -8.036104427138562e-04   1.021546362195726e-03
     4   -1.421914418940783e-01   1.931418905272298e-02  -1.038266375992538e-01
     5    5.950820197322875e-04   1.465919841081687e-04   1.446973341144984e-03
     6    1.425032694659883e-04   6.299160676804295e-04  -5.094262708241226e-05
     7    1.798551769725807e-01  -2.452819925307624e-02   1.323204379018943e-01
     8   -1.335655845197083e-03  -2.108637312889982e-04  -5.144981720587841e-04
     9    1.088844956390791e-04  -8.434529409882812e-04   2.669954586378737e-03


     8 Order 1, Length 27
    Atom      X          Y          Z
     1   -7.105632817314805e-02   1.943711513896546e-02  -3.922183614411805e-02
     2    8.975556190811949e-03   3.988014555743300e-03  -2.219714413660545e-02
     3   -1.202459548072288e-03  -4.776095110076582e-04   4.269814618664251e-05
     4   -5.703101211225413e-03  -3.985396075039582e-04  -4.625023843151201e-03
     5    9.090464480707211e-03  -2.454556589303146e-02   2.648174240920943e-02
     6    1.525162901884200e-04  -2.801638517597488e-04   4.485922304253416e-04
     7    6.431949166254038e-04  -2.101546432179175e-04  -1.335655845197083e-03
     8    5.798635597703244e-02   1.588737978470807e-03   3.846869007730601e-02
     9    1.113116648980824e-03   8.973070795203650e-04   1.937935614945583e-03

Order 1, Length 27
    Atom      X          Y          Z
     1    2.313183631170884e-02  -9.795136117584394e-02   8.660894507080785e-02
     2   -9.955466629967722e-03   1.004098355796711e-02   6.649032515223610e-04
     3    2.296628185835825e-03   2.667485670828260e-03  -1.185174656271048e-04
     4   -4.155585007166997e-04   8.569993241418872e-04  -1.556412570511276e-03
     5   -1.531559410100305e-02  -1.230657492689027e-02   3.349386741627200e-02
     6    1.971558877888009e-04   5.424617327199585e-04   1.206271903220183e-04
     7    9.641405005279347e-05  -1.547749600539135e-04  -2.108637312889982e-04
     8    1.588737978470807e-03   9.704200207026545e-02  -1.181740241023773e-01
     9   -1.624384081451135e-03  -7.379033688403229e-04  -8.284560872774966e-04

Order 1, Length 27
    Atom      X          Y          Z
     1   -4.415763822398878e-02   8.250400638635245e-02  -2.470159607592307e-01
     2   -2.458025507972268e-03   1.452839359052698e-02  -4.277106129840019e-03
     3    1.722224428708593e-03  -3.754367515793933e-04   1.052284944923466e-03
     4   -2.778212337061924e-03   6.523267407660210e-04  -1.980852405326279e-03
     5    1.072981245466931e-02   2.187148649556512e-02  -3.160000644765138e-03
     6    1.889377539084155e-04   1.380525957164136e-05   1.399330639433160e-04
     7    5.551418284891384e-04  -5.461476891335416e-05  -5.144981720587841e-04
     8    3.846869007730601e-02  -1.181740241023773e-01   2.568914067503782e-01
     9   -2.269942940972669e-03  -9.645884362803823e-04  -1.135171887488884e-03


     9 Order 1, Length 27
    Atom      X          Y          Z
     1   -1.917276081146313e-02   1.171103174816844e-02   1.309507940035094e-02
     2   -2.246579508819087e-01   9.057924668812922e-02   8.582025427722775e-02
     3    8.613627054195092e-03  -3.091263076320644e-03  -1.259486931045392e-03
     4    4.406730904981915e-03  -1.102692434177915e-04   2.752510580317549e-03
     5   -1.963761286900993e-03  -3.376474281705235e-03  -2.525048768275352e-03
     6    2.001460920891190e-03   3.723009123753710e-04  -8.154620818299937e-04
     7    1.383620772990235e-03  -1.213799131872287e-03   1.088844956390791e-04
     8    1.113116648980824e-03  -1.624384081451135e-03  -2.269942940972669e-03
     9    2.282751045358803e-01  -9.324742482265273e-02  -9.490674295670851e-02

Order 1, Length 27
    Atom      X          Y          Z
     1   -3.098022795995668e-03   7.137199613916463e-03   5.029431930549229e-03
     2    7.617682030353201e-02  -8.630561462035526e-02  -4.842365188824362e-02
     3    2.617726191993106e-02  -3.838003409467983e-02  -1.274601778343592e-02
     4   -7.181424476117420e-03   7.727562471546375e-03   1.174457841244184e-02
     5   -1.071329647408932e-03  -2.646708169808431e-03  -5.744458946340240e-04
     6    1.890984169442510e-03   2.594741043292955e-03   1.294141116136249e-03
     7   -5.438032693699407e-04  -5.312591924318416e-04  -8.434529409882812e-04
     8    8.973070795203650e-04  -7.379033688403229e-04  -9.645884362803823e-04
     9   -9.324742482265273e-02   1.111423597639204e-01   4.548396976956384e-02

Order 1, Length 27
    Atom      X          Y          Z
     1   -6.789518647415610e-03   7.938660792425821e-03   1.153263162409717e-02
     2    6.967831974717334e-02  -4.477764458448404e-02  -9.204434066415451e-02
     3    1.471406653510138e-03   2.030673079212886e-03   6.736738109623944e-03
     4    2.905890107111470e-02  -5.810841501914145e-03  -3.497590491499432e-02
     5   -2.310442711978597e-03  -4.163646053350626e-03  -1.553577137149287e-03
     6    7.404899028972100e-05  -1.078293697634382e-04  -7.166332957812874e-04
     7    1.786532843807447e-03   2.359918719625943e-04   2.669954586378737e-03
     8    1.937935614945583e-03  -8.284560872774966e-04  -1.135171887488884e-03
     9   -9.490674295670851e-02   4.548396976956384e-02   1.094863920090152e-01




 # Finishing finite difference calculation for IDERIV #
 ######################################################
 ######################################################
 Requested basis set is 6-311++G(2df,2p)
 There are 64 shells and 210 basis functions
 **********************************************************************
 **                                                                  **
 **                       VIBRATIONAL ANALYSIS                       **
 **                       --------------------                       **
 **                                                                  **
 **        VIBRATIONAL FREQUENCIES (CM**-1) AND NORMAL MODES         **
 **     FORCE CONSTANTS (mDYN/ANGSTROM) AND REDUCED MASSES (AMU)     **
 **                  INFRARED INTENSITIES (KM/MOL)                   **
 **                                                                  **
 **********************************************************************
 

 Mode:                 1                      2                      3
 Frequency:        99.19                 243.26                 289.44
 Force Cnst:      0.0191                 0.0437                 0.1092
 Red. Mass:       3.3027                 1.2545                 2.2120
 IR Active:          YES                    YES                    YES
 IR Intens:       13.548                127.242                 82.292
 Raman Active:       YES                    YES                    YES
               X      Y      Z        X      Y      Z        X      Y      Z
 C          0.178 -0.153 -0.108   -0.010 -0.003  0.002   -0.001  0.020 -0.023
 C          0.073 -0.022 -0.008   -0.004  0.017 -0.023    0.018  0.015 -0.078
 O         -0.163  0.003  0.040    0.042  0.020  0.063    0.046  0.016 -0.023
 O          0.044 -0.075 -0.031   -0.048 -0.058 -0.051   -0.136 -0.058 -0.118
 O         -0.100  0.210  0.094    0.017 -0.017  0.029    0.104  0.006  0.159
 H         -0.199  0.152  0.002    0.159 -0.069 -0.569   -0.099  0.055  0.902
 H          0.016  0.157  0.061   -0.125  0.747  0.223   -0.202  0.132  0.055
 H          0.496 -0.552 -0.359   -0.040 -0.010  0.002   -0.161 -0.028 -0.024
 H          0.188  0.142  0.038   -0.004  0.046 -0.054    0.046  0.006 -0.023
 TransDip   0.107 -0.007 -0.050   -0.003  0.317 -0.173   -0.115  0.078  0.255

 Mode:                 4                      5                      6
 Frequency:       309.10                 411.03                 563.30
 Force Cnst:      0.0814                 0.3000                 1.3664
 Red. Mass:       1.4463                 3.0143                 7.3090
 IR Active:          YES                    YES                    YES
 IR Intens:      217.002                  9.684                 37.002
 Raman Active:       YES                    YES                    YES
               X      Y      Z        X      Y      Z        X      Y      Z
 C         -0.018  0.027  0.033   -0.073 -0.147 -0.088   -0.022  0.027 -0.111
 C          0.018 -0.048  0.018   -0.112  0.074 -0.043    0.155 -0.244 -0.221
 O         -0.031 -0.051 -0.052    0.154  0.073  0.152   -0.118 -0.251  0.304
 O          0.090 -0.000  0.041    0.082  0.109 -0.024   -0.014  0.361 -0.087
 O         -0.053  0.009 -0.081   -0.115 -0.093 -0.020    0.051  0.044  0.043
 H         -0.144  0.041  0.546    0.179 -0.181  0.483   -0.099 -0.114 -0.117
 H          0.058  0.747  0.207    0.149  0.163 -0.169   -0.025  0.042 -0.106
 H         -0.014  0.172  0.108    0.140 -0.540 -0.325   -0.424  0.426  0.152
 H          0.009 -0.051 -0.003   -0.192  0.020 -0.151    0.243 -0.194 -0.095
 TransDip  -0.065  0.319  0.341   -0.041 -0.087 -0.026   -0.001 -0.091 -0.172

 Mode:                 7                      8                      9
 Frequency:       663.99                 871.10                1024.81
 Force Cnst:      1.0080                 1.3403                 1.0357
 Red. Mass:       3.8806                 2.9980                 1.6738
 IR Active:          YES                    YES                    YES
 IR Intens:       54.181                 66.188                 12.299
 Raman Active:       YES                    YES                    YES
               X      Y      Z        X      Y      Z        X      Y      Z
 C          0.012 -0.147  0.169    0.150  0.033  0.305    0.141 -0.142 -0.031
 C          0.301  0.036 -0.026   -0.107 -0.005 -0.011   -0.121  0.005 -0.001
 O          0.039  0.114  0.011   -0.027 -0.057  0.016    0.005  0.038 -0.007
 O         -0.061  0.024 -0.107   -0.031  0.061 -0.165   -0.004 -0.003 -0.004
 O         -0.213 -0.087 -0.060    0.009  0.007 -0.052   -0.018  0.039  0.015
 H         -0.024  0.327  0.050    0.004 -0.193  0.054    0.119 -0.395  0.058
 H         -0.238 -0.231  0.255   -0.049 -0.002 -0.144    0.127  0.083 -0.290
 H         -0.184  0.199  0.376    0.660 -0.169  0.138   -0.268  0.600  0.419
 H          0.460  0.225  0.094   -0.361 -0.138 -0.371    0.051  0.175  0.142
 TransDip   0.100 -0.035  0.211    0.142 -0.055  0.211    0.012 -0.111 -0.015

 Mode:                10                     11                     12
 Frequency:      1200.99                1216.39                1258.29
 Force Cnst:      1.3498                 0.9298                 2.0404
 Red. Mass:       1.5883                 1.0666                 2.1873
 IR Active:          YES                    YES                    YES
 IR Intens:       14.376                135.405                146.128
 Raman Active:       YES                    YES                    YES
               X      Y      Z        X      Y      Z        X      Y      Z
 C         -0.045  0.050  0.015    0.024 -0.018  0.009    0.017 -0.063 -0.099
 C         -0.003  0.067  0.124   -0.003 -0.009 -0.009   -0.057  0.074  0.203
 O         -0.000 -0.096 -0.005    0.033  0.003  0.016    0.026 -0.077  0.005
 O          0.005  0.016 -0.104   -0.037 -0.013  0.011    0.065  0.037 -0.138
 O         -0.004 -0.014 -0.005   -0.009 -0.001 -0.001   -0.005  0.009  0.023
 H          0.011 -0.157 -0.005   -0.139  0.649 -0.068   -0.125  0.465 -0.055
 H          0.127  0.119 -0.373    0.225  0.180 -0.543   -0.256 -0.162  0.532
 H         -0.001 -0.175 -0.108   -0.021  0.037  0.046   -0.137  0.281  0.095
 H          0.421  0.321  0.661   -0.111 -0.368  0.147   -0.365 -0.224 -0.068
 TransDip   0.014  0.082  0.089    0.054  0.288 -0.230   -0.094  0.120  0.356

 Mode:                13                     14                     15
 Frequency:      1286.54                1381.24                1422.92
 Force Cnst:      3.6344                 1.3235                 1.7078
 Red. Mass:       3.7268                 1.1774                 1.4316
 IR Active:          YES                    YES                    YES
 IR Intens:      345.049                  7.643                 89.878
 Raman Active:       YES                    YES                    YES
               X      Y      Z        X      Y      Z        X      Y      Z
 C          0.060 -0.038  0.033   -0.051  0.009 -0.049   -0.026  0.002 -0.024
 C          0.017  0.335 -0.135   -0.025 -0.059  0.016    0.006  0.128 -0.119
 O          0.024 -0.251  0.009    0.033 -0.011 -0.005   -0.020 -0.024  0.013
 O         -0.037 -0.033  0.120   -0.014  0.008  0.008    0.023 -0.018  0.015
 O         -0.016  0.015 -0.020   -0.009 -0.034  0.040   -0.020 -0.035  0.032
 H         -0.125  0.241 -0.011   -0.049  0.265 -0.013    0.017 -0.146  0.007
 H          0.046 -0.010 -0.050    0.029  0.012 -0.086   -0.061 -0.058  0.189
 H         -0.318 -0.080  0.057    0.628  0.383  0.046    0.556  0.346  0.063
 H         -0.060  0.571 -0.513    0.147  0.527 -0.250    0.014 -0.474  0.491
 TransDip   0.072  0.539 -0.242   -0.034  0.045 -0.068    0.040  0.231 -0.193

 Mode:                16                     17                     18
 Frequency:      1482.80                1805.31                3024.40
 Force Cnst:      2.3673                19.8892                 5.8623
 Red. Mass:       1.8274                10.3578                 1.0878
 IR Active:          YES                    YES                    YES
 IR Intens:       18.835                319.467                 65.341
 Raman Active:       YES                    YES                    YES
               X      Y      Z        X      Y      Z        X      Y      Z
 C         -0.024  0.008 -0.075    0.507  0.484 -0.175   -0.013  0.037 -0.075
 C          0.183  0.075  0.138   -0.066 -0.049 -0.024   -0.005  0.007  0.005
 O         -0.050 -0.001 -0.012   -0.002 -0.001 -0.003   -0.000 -0.001  0.000
 O         -0.050 -0.003 -0.006    0.013  0.002  0.009    0.000 -0.000  0.000
 O         -0.023 -0.031  0.027   -0.320 -0.330  0.155    0.000 -0.000  0.001
 H          0.085 -0.482  0.046   -0.012  0.046 -0.020   -0.001 -0.003 -0.001
 H          0.162  0.143 -0.443   -0.032 -0.026  0.116   -0.001  0.000 -0.001
 H          0.145  0.181 -0.031   -0.344 -0.041 -0.306    0.128 -0.449  0.872
 H         -0.317 -0.270 -0.464    0.025  0.057  0.013    0.092 -0.053 -0.055
 TransDip   0.120  0.036 -0.060    0.422  0.368 -0.121    0.005  0.155 -0.207

 Mode:                19                     20                     21
 Frequency:      3051.61                3827.66                3829.02
 Force Cnst:      5.9466                 9.2103                 9.2177
 Red. Mass:       1.0838                 1.0670                 1.0671
 IR Active:          YES                    YES                    YES
 IR Intens:       36.523                101.818                217.196
 Raman Active:       YES                    YES                    YES
               X      Y      Z        X      Y      Z        X      Y      Z
 C          0.000 -0.005  0.009    0.000  0.000 -0.000   -0.000 -0.000  0.000
 C         -0.066  0.035  0.035   -0.001  0.001  0.000   -0.002  0.000  0.001
 O          0.000  0.000  0.000   -0.057 -0.018 -0.008   -0.017 -0.006 -0.002
 O          0.001 -0.000  0.000    0.016 -0.001  0.007   -0.054  0.004 -0.026
 O          0.000  0.001 -0.000    0.000  0.000 -0.000    0.000  0.000 -0.000
 H         -0.005  0.002 -0.004    0.910  0.263  0.132    0.272  0.079  0.039
 H         -0.005 -0.004  0.001   -0.261  0.015 -0.118    0.869 -0.051  0.394
 H         -0.020  0.054 -0.103    0.000  0.000 -0.000    0.001 -0.000  0.002
 H          0.791 -0.420 -0.421    0.004  0.003 -0.003    0.006 -0.002  0.002
 TransDip  -0.029  0.099  0.164    0.247  0.204 -0.040    0.409 -0.004  0.236

 STANDARD THERMODYNAMIC QUANTITIES AT   298.15 K  AND     1.00 ATM

   This Molecule has  0 Imaginary Frequencies
   Zero point vibrational energy:       41.833 kcal/mol

   Atom    1 Element C  Has Mass   12.00000
   Atom    2 Element C  Has Mass   12.00000
   Atom    3 Element O  Has Mass   15.99491
   Atom    4 Element O  Has Mass   15.99491
   Atom    5 Element O  Has Mass   15.99491
   Atom    6 Element H  Has Mass    1.00783
   Atom    7 Element H  Has Mass    1.00783
   Atom    8 Element H  Has Mass    1.00783
   Atom    9 Element H  Has Mass    1.00783
   Molecular Mass:    76.016050 amu
   Principal axes and moments of inertia in amu*Bohr^2:
                             1           2           3
    Eigenvalues --      199.54538   418.53102   575.58228
          X               0.71357     0.17205     0.67913
          Y               0.64659    -0.53491    -0.54387
          Z               0.26970     0.82721    -0.49294
   Rotational Symmetry Number is   1
   The Molecule is an Asymmetric Top
   Translational Enthalpy:        0.889 kcal/mol
   Rotational Enthalpy:           0.889 kcal/mol
   Vibrational Enthalpy:         43.624 kcal/mol
   gas constant (RT):             0.592 kcal/mol
   Translational Entropy:        38.900  cal/mol.K
   Rotational Entropy:           25.378  cal/mol.K
   Vibrational Entropy:          10.319  cal/mol.K

   Total Enthalpy:               45.994 kcal/mol
   Total Entropy:                74.597  cal/mol.K
 Total job time:  1978.39s(wall), 15230.98s(cpu) 
 Mon Oct  2 18:57:16 2023

        *************************************************************
        *                                                           *
        *  Thank you very much for using Q-Chem.  Have a nice day.  *
        *                                                           *
        *************************************************************


