
Running Job 1 of 1 Q_in.in
qchem Q_in.in_233484.0 /scratch/ari.fischer/qChem1853809.hpc-mn1/qchem233484/ 0
/usr/local/qchem-5.4.1/exe/qcprog.exe_s Q_in.in_233484.0 /scratch/ari.fischer/qChem1853809.hpc-mn1/qchem233484/
                  Welcome to Q-Chem
     A Quantum Leap Into The Future Of Chemistry


 Q-Chem 5.4, Q-Chem, Inc., Pleasanton, CA (2021)

 License issued to: Nanyang Technological University (site)

 E. Epifanovsky,  A. T. B. Gilbert,  Xintian Feng,  Joonho Lee,  Yuezhi Mao,  
 N. Mardirossian,  P. Pokhilko,  A. White,  M. Wormit,  M. P. Coons,  
 A. L. Dempwolff,  Zhengting Gan,  D. Hait,  P. R. Horn,  L. D. Jacobson,  
 I. Kaliman,  J. Kussmann,  A. W. Lange,  Ka Un Lao,  D. S. Levine,  Jie Liu,  
 S. C. McKenzie,  A. F. Morrison,  K. Nanda,  F. Plasser,  D. R. Rehn,  
 M. L. Vidal,  Zhi-Qiang You,  Ying Zhu,  B. Alam,  B. Albrecht,  
 A. Aldossary,  E. Alguire,  J. H. Andersen,  D. Barton,  K. Begam,  A. Behn,  
 Y. A. Bernard,  E. J. Berquist,  H. Burton,  A. Carreras,  K. Carter-Fenk,  
 R. Chakraborty,  A. D. Chien,  K. D. Closser,  V. Cofer-Shabica,  
 S. Dasgupta,  Jia Deng,  M. de Wergifosse,  M. Diedenhofen,  Hainam Do,  
 S. Ehlert,  Po-Tung Fang,  S. Fatehi,  Qingguo Feng,  T. Friedhoff,  
 J. Gayvert,  Qinghui Ge,  G. Gidofalvi,  M. Goldey,  J. Gomes,  
 C. Gonzalez-Espinoza,  S. Gulania,  A. Gunina,  M. W. D. Hanson-Heine,  
 P. H. P. Harbach,  A. W. Hauser,  M. F. Herbst,  M. Hernandez Vera,  
 M. Hodecker,  Z. C. Holden,  S. Houck,  Xunkun Huang,  Kerwin Hui,  
 B. C. Huynh,  M. Ivanov,  Hyunjun Ji,  Hanjie Jiang,  B. Kaduk,  S. Kaehler,  
 K. Khistyaev,  Jaehoon Kim,  P. Klunzinger,  Z. Koczor-Benda,  
 Joong Hoon Koh,  D. Kosenkov,  L. Koulias,  T. Kowalczyk,  C. M. Krauter,  
 K. Kue,  A. Kunitsa,  T. Kus,  A. Landau,  K. V. Lawler,  D. Lefrancois,  
 S. Lehtola,  Rain Li,  Yi-Pei Li,  Jiashu Liang,  M. Liebenthal,  
 Hung-Hsuan Lin,  You-Sheng Lin,  Fenglai Liu,  Kuan-Yu Liu,  
 M. Loipersberger,  A. Luenser,  A. Manjanath,  P. Manohar,  E. Mansoor,  
 S. F. Manzer,  Shan-Ping Mao,  A. V. Marenich,  T. Markovich,  S. Mason,  
 S. A. Maurer,  P. F. McLaughlin,  M. F. S. J. Menger,  J.-M. Mewes,  
 S. A. Mewes,  P. Morgante,  J. W. Mullinax,  K. J. Oosterbaan,  G. Paran,  
 Alexander C. Paul,  Suranjan K. Paul,  F. Pavosevic,  Zheng Pei,  S. Prager,  
 E. I. Proynov,  E. Ramos,  B. Rana,  A. E. Rask,  A. Rettig,  R. M. Richard,  
 F. Rob,  E. Rossomme,  T. Scheele,  M. Scheurer,  M. Schneider,  
 N. Sergueev,  S. M. Sharada,  W. Skomorowski,  D. W. Small,  C. J. Stein,  
 Yu-Chuan Su,  E. J. Sundstrom,  Zhen Tao,  J. Thirman,  T. Tsuchimochi,  
 N. M. Tubman,  S. P. Veccham,  O. Vydrov,  J. Wenzel,  J. Witte,  A. Yamada,  
 Kun Yao,  S. Yeganeh,  S. R. Yost,  A. Zech,  Igor Ying Zhang,  Xing Zhang,  
 Yu Zhang,  D. Zuev,  A. Aspuru-Guzik,  A. T. Bell,  N. A. Besley,  
 K. B. Bravaya,  B. R. Brooks,  D. Casanova,  Jeng-Da Chai,  S. Coriani,  
 C. J. Cramer,  A. E. DePrince, III,  R. A. DiStasio Jr.,  A. Dreuw,  
 B. D. Dunietz,  T. R. Furlani,  W. A. Goddard III,  S. Grimme,  
 S. Hammes-Schiffer,  T. Head-Gordon,  W. J. Hehre,  Chao-Ping Hsu,  
 T.-C. Jagau,  Yousung Jung,  A. Klamt,  Jing Kong,  D. S. Lambrecht,  
 WanZhen Liang,  N. J. Mayhall,  C. W. McCurdy,  J. B. Neaton,  
 C. Ochsenfeld,  J. A. Parkhill,  R. Peverati,  V. A. Rassolov,  Yihan Shao,  
 L. V. Slipchenko,  T. Stauch,  R. P. Steele,  J. E. Subotnik,  
 A. J. W. Thom,  A. Tkatchenko,  D. G. Truhlar,  T. Van Voorhis,  
 T. A. Wesolowski,  K. B. Whaley,  H. L. Woodcock III,  P. M. Zimmerman,  
 S. Faraji,  P. M. W. Gill,  M. Head-Gordon,  J. M. Herbert,  A. I. Krylov

 Additional authors for Version 5.4.1: 
 S. Kotaru,  Shaozhi Li,  Xiangyuan Li,  F. Matz,  A. Molle,  Haisheng Ren,  
 Yingli Su,  Hung-Yi Tsai,  C. Utku,  Fang Wang

 Contributors to earlier versions of Q-Chem not listed above: 
 R. D. Adamson,  B. Austin,  R. Baer,  J. Baker,  G. J. O. Beran,  
 K. Brandhorst,  S. T. Brown,  E. F. C. Byrd,  A. K. Chakraborty,  
 G. K. L. Chan,  Chun-Min Chang,  Yunqing Chen,  C.-L. Cheng,  
 Siu Hung Chien,  D. M. Chipman,  D. L. Crittenden,  H. Dachsel,  
 R. J. Doerksen,  A. D. Dutoi,  R. G. Edgar,  J. Fosso-Tande,  
 L. Fusti-Molnar,  D. Ghosh,  A. Ghysels,  A. Golubeva-Zadorozhnaya,  
 J. Gonthier,  M. S. Gordon,  S. R. Gwaltney,  G. Hawkins,  J. E. Herr,  
 A. Heyden,  S. Hirata,  E. G. Hohenstein,  G. Kedziora,  F. J. Keil,  
 C. Kelley,  Jihan Kim,  R. A. King,  R. Z. Khaliullin,  P. P. Korambath,  
 W. Kurlancheek,  A. Laurent,  A. M. Lee,  M. S. Lee,  S. V. Levchenko,  
 Ching Yeh Lin,  D. Liotard,  E. Livshits,  R. C. Lochan,  I. Lotan,  
 L. A. Martinez-Martinez,  P. E. Maslen,  N. Nair,  D. P. O'Neill,  
 D. Neuhauser,  E. Neuscamman,  C. M. Oana,  R. Olivares-Amaya,  R. Olson,  
 T. M. Perrine,  B. Peters,  P. A. Pieniazek,  A. Prociuk,  Y. M. Rhee,  
 J. Ritchie,  M. A. Rohrdanz,  E. Rosta,  N. J. Russ,  H. F. Schaefer III,  
 M. W. Schmidt,  N. E. Schultz,  S. Sharma,  N. Shenvi,  C. D. Sherrill,  
 A. C. Simmonett,  A. Sodt,  T. Stein,  D. Stuck,  K. S. Thanthiriwatte,  
 V. Vanovschi,  L. Vogt,  Tao Wang,  A. Warshel,  M. A. Watson,  
 C. F. Williams,  Q. Wu,  X. Xu,  Jun Yang,  W. Zhang,  Yan Zhao

 Please cite Q-Chem as follows:
 Y. Shao et al., Mol. Phys. 113, 184-215 (2015)
 DOI: 10.1080/00268976.2014.952696

 Q-Chem 5.4.1 for Intel X86 EM64T Linux

 Parts of Q-Chem use Armadillo 9.800.1 (Horizon Scraper).
 http://arma.sourceforge.net/

 Q-Chem begins on Wed Dec  6 11:05:28 2023  

 Host: 
0

     Scratch files written to /scratch/ari.fischer/qChem1853809.hpc-mn1/qchem233484//
 Aug1521 |scratch|qcdevops|jenkins|workspace|build_RNUM 8249   
 Processing $rem in /usr/local/qchem-5.4.1/config/preferences:
 Processing $rem in /home/ari.fischer/.qchemrc:
 Symmetry turned off for PCM/SM12/SMD calculation

 Checking the input file for inconsistencies... 	...done.

--------------------------------------------------------------
User input:
--------------------------------------------------------------
$molecule
-1 2
C         1.4980164545    0.7660547243   -0.1383624944
O         1.8026323618    1.4121745551    0.8766832452
O         1.9798924524    0.8168866210   -1.2928620119
C         0.3676719600   -0.2762671958    0.0083766160
O        -0.0592124773   -0.7989272362   -1.1237456197
O        -0.4187979559   -0.3089060280    1.0215964248
H         0.0738809553   -1.0384616266    1.7114023966
O         1.5892850633   -1.6572546214    0.7212176276
O         1.0518619496   -1.9085083887    1.8610669549
H         0.5714289363   -0.4987389036   -1.8095437390
$end

$rem
BASIS = def2-TZVPD
JOB_TYPE = SP
METHOD = wB97M-V
SCF_ALGORITHM = DIIS_GDM
MAX_SCF_CYCLES = 400
SCF_CONVERGENCE = 7
THRESH = 12
Solvent_method = SMD
$end
--------------------------------------------------------------
 ----------------------------------------------------------------
             Standard Nuclear Orientation (Angstroms)
    I     Atom           X                Y                Z
 ----------------------------------------------------------------
    1      C       1.4980164545     0.7660547243    -0.1383624944
    2      O       1.8026323618     1.4121745551     0.8766832452
    3      O       1.9798924524     0.8168866210    -1.2928620119
    4      C       0.3676719600    -0.2762671958     0.0083766160
    5      O      -0.0592124773    -0.7989272362    -1.1237456197
    6      O      -0.4187979559    -0.3089060280     1.0215964248
    7      H       0.0738809553    -1.0384616266     1.7114023966
    8      O       1.5892850633    -1.6572546214     0.7212176276
    9      O       1.0518619496    -1.9085083887     1.8610669549
   10      H       0.5714289363    -0.4987389036    -1.8095437390
 ----------------------------------------------------------------
 Nuclear Repulsion Energy =         396.51812469 hartrees
 There are       32 alpha and       31 beta electrons
 Requested basis set is def2-TZVPD
 There are 120 shells and 332 basis functions

 Total QAlloc Memory Limit 288000 MB
 Mega-Array Size       188 MB
 MEM_STATIC part       192 MB
 
 Citation of the SMD model:
 Marenich, A.V.; Cramer, C.J.; Truhlar, D.G.
 J. Phys. Chem. B 2009, 113, 6378-6396.
 iSolventCode=           1
 Solvent: water                                                           
 
 vradii
            1           2           3           4           5           6
    1   1.8500000   1.5200000   1.5200000   1.8500000   1.5200000   1.5200000
            7           8           9          10
    1   1.2000000   1.5200000   1.5200000   1.2000000
 Changing PCM_VDW_RADII to SMD_RADIUS
 Discretize the solute cavity surface with Lebedev spheres
	Using 110 Lebedev grid points for each H atom
	Using 194 Lebedev grid points for other atoms
	Atomic van der Waals radii will be scaled by 1.20
 Remove points where switching function is < 1.0e-08
 Keep 951 surface tesserae and discard 821 interior tesserae
 Molecular Surface Area = 113.207 Angst**2

                       Distance Matrix (Angstroms)
             C (  1)   O (  2)   O (  3)   C (  4)   O (  5)   O (  6)
   O (  2)  1.241201
   O (  3)  1.252061  2.256705
   C (  4)  1.544554  2.379896  2.342533
   O (  5)  2.417666  3.515274  2.607183  1.317993
   O (  6)  2.485000  2.813871  3.518216  1.283049  2.229779
   H (  7)  2.950605  3.113030  4.012580  1.888796  2.848360  1.118399
   O (  8)  2.572865  3.080760  3.214104  1.976767  2.618809  2.437349
   O (  9)  3.368985  3.543953  4.270397  2.562184  3.372649  2.329437
   H ( 10)  2.291531  3.518987  1.995395  1.842782  0.978847  3.005319
             H (  7)   O (  8)   O (  9)
   O (  8)  1.913066
   O (  9)  1.317508  1.284994
   H ( 10)  3.596653  2.963603  3.961269
 
 A cutoff of  1.0D-12 yielded   6852 shell pairs
 There are     53206 function pairs (     69593 Cartesian)
 Smallest overlap matrix eigenvalue = 7.95E-06

 Scale SEOQF with 1.000000e-01/1.000000e-01/1.000000e-01

 Standard Electronic Orientation quadrupole field applied
 Nucleus-field energy     =     0.0000000015 hartrees
 Guess from superposition of atomic densities
 Warning:  Energy on first SCF cycle will be non-variational
 SAD guess density has 62.000000 electrons

 -----------------------------------------------------------------------
  General SCF calculation program by
  Eric Jon Sundstrom, Paul Horn, Yuezhi Mao, Dmitri Zuev, Alec White,
  David Stuck, Shaama M.S., Shane Yost, Joonho Lee, David Small,
  Daniel Levine, Susi Lehtola, Hugh Burton, Evgeny Epifanovsky,
  Bang C. Huynh
 -----------------------------------------------------------------------
 Exchange:     0.1500 Hartree-Fock + 1.0000 wB97M-V + LR-HF
 Correlation:  1.0000 wB97M-V
 Using SG-2 standard quadrature grid
 Nonlocal Correlation:  VV10 with C = 0.0100 and b = 6.00 and scale = 1.00000
 Grid used for NLC:  SG-1 standard quadrature
 
 Citation of the SMD model:
 Marenich, A.V.; Cramer, C.J.; Truhlar, D.G.
 J. Phys. Chem. B 2009, 113, 6378-6396.
 iSolventCode=           1
 Solvent: water                                                           
 
 vradii
            1           2           3           4           5           6
    1   1.8500000   1.5200000   1.5200000   1.8500000   1.5200000   1.5200000
            7           8           9          10
    1   1.2000000   1.5200000   1.5200000   1.2000000
 using 4 threads for integral computing
 -------------------------------------------------------
 OpenMP Integral computing Module                
 Release: version 1.0, May 2013, Q-Chem Inc. Pittsburgh 
 -------------------------------------------------------
 -------------------------------------------------------
 OpenMP BLAS3 based DFT computing Module                
 Release: version 1.0, May 2013, Q-Chem Inc. Pittsburgh 
 -------------------------------------------------------
 A unrestricted SCF calculation will be
 performed using DIIS, GDM
 SCF converges when RMS gradient is below 1.0e-07
 ---------------------------------------
  Cycle       Energy         DIIS error
 ---------------------------------------
    1    -530.0022776272      1.32e-02  
    2    -528.6562067711      2.44e-03  Done DIIS. Switching to GDM
 ---------------------------------------
  Cycle       Energy        RMS Gradient
 ---------------------------------------
    1    -528.6562067711      1.30e-01   Descent step
    2    -528.8680117742      2.89e-02   Normal BFGS step
    3    -528.9002419698      1.06e-02   Normal BFGS step
    4    -528.9011177100      1.04e-02   Normal BFGS step
    5    -528.9016327835      2.68e-03   Normal BFGS step
    6    -528.9017090770      1.27e-03   Normal BFGS step
    7    -528.9017277088      8.13e-04   Normal BFGS step
    8    -528.9017321086      4.97e-04   Normal BFGS step
    9    -528.9017338822      2.52e-04   Normal BFGS step
   10    -528.9017343014      1.66e-04   Normal BFGS step
   11    -528.9017344160      1.18e-04   Normal BFGS step
   12    -528.9017344834      9.66e-05   Normal BFGS step
   13    -528.9017345145      8.24e-05   Normal BFGS step
   14    -528.9017345344      4.39e-05   Normal BFGS step
   15    -528.9017345416      1.52e-05   Normal BFGS step
   16    -528.9017345435      5.03e-06   Normal BFGS step
   17    -528.9017345438      2.12e-06   Normal BFGS step
   18    -528.9017345438      1.26e-06   Normal BFGS step
   19    -528.9017345438      5.08e-07   Normal BFGS step
   20    -528.9017345437      2.39e-07   Normal BFGS step
   21    -528.9017345438      1.08e-07   Normal BFGS step
   22    -528.9017345441      5.20e-08  Convergence criterion met
 ---------------------------------------
 SCF time:   CPU 1828.54s  wall 460.00s 
<S^2> =          0.756186613
(3)  G-ENP(liq) elect-nuc-pol free energy of system     -528.901734544 a.u.
(4)  G-CDS(liq) cavity-dispersion-solvent structure 
     free energy                                                4.4950 kcal/mol
(6)  G-S(liq) free energy of system                     -528.894571349 a.u.
 SCF   energy in the final basis set =     -528.8945713492
 Total energy in the final basis set =     -528.8945713492
 
 --------------------------------------------------------------
 
                    Orbital Energies (a.u.)
 --------------------------------------------------------------
 
 Alpha MOs
 -- Occupied --
-19.4265 -19.4232 -19.3844 -19.3528 -19.3013 -19.2984 -10.5092 -10.4580
 -1.3359  -1.2545  -1.1821  -1.1765  -1.0981  -0.9482  -0.7891  -0.7316
 -0.6966  -0.6207  -0.6086  -0.6036  -0.5992  -0.5481  -0.5426  -0.5257
 -0.5089  -0.4796  -0.4583  -0.3945  -0.3847  -0.3826  -0.3738  -0.3602
 -- Virtual --
  0.0417   0.0462   0.0582   0.0636   0.0709   0.0901   0.0956   0.1051
  0.1060   0.1117   0.1409   0.1448   0.1463   0.1515   0.1589   0.1626
  0.1693   0.1860   0.1894   0.1960   0.2021   0.2128   0.2342   0.2406
  0.2431   0.2599   0.2694   0.2791   0.2806   0.2859   0.3209   0.3214
  0.3334   0.3369   0.3559   0.3607   0.3681   0.3844   0.3865   0.3909
  0.4036   0.4088   0.4135   0.4178   0.4220   0.4461   0.4509   0.4529
  0.4750   0.4774   0.4874   0.5020   0.5060   0.5098   0.5215   0.5236
  0.5269   0.5404   0.5500   0.5809   0.5859   0.5929   0.6010   0.6159
  0.6174   0.6261   0.6372   0.6425   0.6566   0.6591   0.6678   0.6770
  0.6878   0.6976   0.7041   0.7167   0.7246   0.7338   0.7428   0.7470
  0.7659   0.7690   0.7886   0.7987   0.8111   0.8337   0.8469   0.8555
  0.8627   0.8749   0.8986   0.9148   0.9280   0.9294   0.9417   0.9610
  0.9867   0.9923   1.0009   1.0124   1.0306   1.0561   1.0745   1.0912
  1.1177   1.1308   1.1515   1.1619   1.1820   1.1929   1.2053   1.2240
  1.2350   1.2671   1.2972   1.3119   1.3209   1.3376   1.3554   1.3662
  1.3913   1.4311   1.4655   1.4774   1.5970   1.6237   1.6453   1.6876
  1.7024   1.7334   1.7564   1.7603   1.8131   1.8323   1.8562   1.8727
  1.8870   1.9069   1.9307   1.9735   2.0037   2.0312   2.0608   2.0902
  2.1172   2.1547   2.1792   2.2105   2.2323   2.2438   2.2898   2.3102
  2.3307   2.3459   2.3645   2.3789   2.3970   2.4240   2.4268   2.4508
  2.4857   2.5251   2.5631   2.5883   2.6258   2.6815   2.7107   2.7366
  2.7938   2.8100   2.8523   2.8775   2.8917   2.9513   2.9855   3.0544
  3.0742   3.1166   3.1422   3.1641   3.2131   3.2281   3.2577   3.2802
  3.2873   3.3000   3.3320   3.3536   3.3900   3.4160   3.4502   3.4606
  3.4965   3.5013   3.5465   3.5765   3.5884   3.6039   3.6395   3.6712
  3.6744   3.6820   3.7076   3.7547   3.8100   3.8485   3.9437   3.9849
  4.0329   4.1313   4.1920   4.2434   4.3671   4.3815   4.4661   4.6894
  4.7061   4.8104   4.8374   4.8531   4.8868   4.9336   4.9992   5.0793
  5.1712   5.2283   5.2762   5.3011   5.3159   5.3237   5.3478   5.3742
  5.3900   5.4346   5.4699   5.4859   5.5119   5.5330   5.5711   5.6361
  5.6706   5.7058   5.7128   5.7184   5.7602   5.8378   5.9286   6.0494
  6.1020   6.1511   6.1866   6.2369   6.2818   6.3145   6.3292   6.4010
  6.4257   6.4450   6.4795   6.5750   6.5984   6.6130   6.6389   6.6439
  6.6557   6.6628   6.6799   6.6931   6.7152   6.7413   6.7663   6.8629
  6.9297   6.9525   6.9639   7.0125   7.0528   7.0673   7.0879   7.1301
  7.1998   7.2058   7.2474   7.3082   7.3476   7.3897   7.3966   7.4593
  7.5623   7.5983   7.6435   8.7504  23.6290  24.0086  44.3051  44.6036
 44.6506  44.7079  44.8892  44.9826
 
 Beta MOs
 -- Occupied --
-19.4108 -19.4085 -19.3845 -19.3529 -19.3013 -19.2984 -10.5095 -10.4580
 -1.3092  -1.2526  -1.1821  -1.1762  -1.0981  -0.9081  -0.7870  -0.7303
 -0.6912  -0.6190  -0.6029  -0.5798  -0.5483  -0.5400  -0.5332  -0.5176
 -0.4995  -0.4738  -0.4566  -0.3860  -0.3819  -0.3740  -0.3500
 -- Virtual --
 -0.0179   0.0422   0.0489   0.0584   0.0639   0.0716   0.0904   0.0959
  0.1058   0.1067   0.1122   0.1412   0.1450   0.1471   0.1516   0.1597
  0.1631   0.1707   0.1876   0.1897   0.1980   0.2021   0.2131   0.2357
  0.2413   0.2467   0.2636   0.2715   0.2801   0.2815   0.2877   0.3214
  0.3231   0.3347   0.3398   0.3577   0.3615   0.3702   0.3858   0.3872
  0.3920   0.4040   0.4095   0.4148   0.4189   0.4225   0.4477   0.4518
  0.4531   0.4763   0.4784   0.4878   0.5028   0.5067   0.5110   0.5224
  0.5241   0.5280   0.5432   0.5513   0.5838   0.5867   0.5939   0.6015
  0.6169   0.6190   0.6272   0.6380   0.6437   0.6574   0.6608   0.6683
  0.6780   0.6886   0.6980   0.7049   0.7177   0.7271   0.7344   0.7445
  0.7486   0.7667   0.7705   0.7890   0.7993   0.8113   0.8339   0.8478
  0.8557   0.8637   0.8779   0.9001   0.9157   0.9289   0.9297   0.9427
  0.9634   0.9896   0.9949   1.0020   1.0131   1.0322   1.0573   1.0754
  1.0919   1.1194   1.1314   1.1540   1.1659   1.1846   1.1939   1.2059
  1.2255   1.2369   1.2682   1.2979   1.3126   1.3212   1.3382   1.3557
  1.3675   1.3960   1.4332   1.4665   1.4798   1.6037   1.6257   1.6650
  1.6924   1.7072   1.7469   1.7591   1.7632   1.8163   1.8349   1.8568
  1.8751   1.8903   1.9083   1.9347   1.9773   2.0052   2.0334   2.0646
  2.0948   2.1277   2.1554   2.1819   2.2145   2.2350   2.2494   2.3051
  2.3205   2.3314   2.3473   2.3654   2.3800   2.4002   2.4270   2.4315
  2.4534   2.4871   2.5316   2.5674   2.5922   2.6282   2.6844   2.7112
  2.7389   2.7965   2.8108   2.8538   2.8825   2.9298   2.9513   2.9946
  3.0547   3.0812   3.1310   3.1462   3.1709   3.2267   3.2465   3.2607
  3.2819   3.2915   3.3023   3.3362   3.3620   3.3982   3.4178   3.4549
  3.4621   3.4985   3.5056   3.5474   3.5770   3.5939   3.6044   3.6399
  3.6722   3.6761   3.6880   3.7077   3.7619   3.8105   3.8498   3.9445
  3.9872   4.0360   4.1318   4.2004   4.2447   4.3678   4.3821   4.4819
  4.6919   4.7113   4.8241   4.8534   4.8735   4.9010   4.9521   5.0160
  5.0944   5.1977   5.2408   5.2770   5.3025   5.3168   5.3262   5.3587
  5.3952   5.4139   5.4391   5.4727   5.4997   5.5176   5.5536   5.5770
  5.6373   5.6723   5.7094   5.7147   5.7438   5.7825   5.8424   5.9300
  6.0504   6.1020   6.1518   6.1881   6.2411   6.2826   6.3146   6.3827
  6.4105   6.4309   6.4650   6.5149   6.5796   6.6143   6.6425   6.6466
  6.6613   6.6715   6.6984   6.7109   6.7148   6.7369   6.7532   6.7729
  6.8832   6.9390   6.9583   6.9780   7.0153   7.0600   7.0720   7.0954
  7.1340   7.2083   7.2237   7.2667   7.3089   7.3490   7.3917   7.4013
  7.4598   7.5676   7.5990   7.6616   8.7697  23.6287  24.0085  44.3182
 44.6038  44.6509  44.7138  44.8951  44.9835
 --------------------------------------------------------------
 
          Ground-State Mulliken Net Atomic Charges

     Atom                 Charge (a.u.)    Spin (a.u.)
  --------------------------------------------------------
      1 C                     0.765490      -0.000235
      2 O                    -0.799854       0.000346
      3 O                    -0.850330       0.000037
      4 C                     0.718227      -0.006463
      5 O                    -0.516357      -0.004867
      6 O                    -0.646347      -0.000244
      7 H                     0.416473      -0.015152
      8 O                    -0.215276       0.522660
      9 O                    -0.283053       0.503955
     10 H                     0.411027      -0.000039
  --------------------------------------------------------
  Sum of atomic charges =    -1.000000
  Sum of spin   charges =     1.000000

 -----------------------------------------------------------------
                    Cartesian Multipole Moments
 -----------------------------------------------------------------
    Charge (ESU x 10^10)
                -4.8032
    Dipole Moment (Debye)
         X      -8.3441      Y      -2.9225      Z      -2.3192
       Tot       9.1402
    Quadrupole Moments (Debye-Ang)
        XX     -68.6079     XY      -8.0970     YY     -59.8116
        XZ      -1.3657     YZ       1.2596     ZZ     -52.8058
    Octopole Moments (Debye-Ang^2)
       XXX    -181.0498    XXY      -6.0624    XYY     -70.5586
       YYY      32.3615    XXZ      -9.0057    XYZ       6.5510
       YYZ     -20.7115    XZZ     -61.8496    YZZ       4.3489
       ZZZ     -39.1518
    Hexadecapole Moments (Debye-Ang^3)
      XXXX    -613.8551   XXXY     -59.2088   XXYY    -203.1572
      XYYY     -25.1694   YYYY    -452.1792   XXXZ     -10.6621
      XXYZ      32.3958   XYYZ     -26.1875   YYYZ      79.2224
      XXZZ    -184.8462   XYZZ     -15.4019   YYZZ    -153.9951
      XZZZ     -29.4421   YZZZ      84.4878   ZZZZ    -360.8712
 -----------------------------------------------------------------
 Total job time:  460.26s(wall), 1831.28s(cpu) 
 Wed Dec  6 11:13:09 2023

        *************************************************************
        *                                                           *
        *  Thank you very much for using Q-Chem.  Have a nice day.  *
        *                                                           *
        *************************************************************


