
Running Job 1 of 2 Q_in.in
qchem Q_in.in_88599.0 /scratch/ari.fischer/qChem1710971.hpc-mn1/qchem88599/ 0
/usr/local/qchem-5.4.1/exe/qcprog.exe_s Q_in.in_88599.0 /scratch/ari.fischer/qChem1710971.hpc-mn1/qchem88599/
                  Welcome to Q-Chem
     A Quantum Leap Into The Future Of Chemistry


 Q-Chem 5.4, Q-Chem, Inc., Pleasanton, CA (2021)

 License issued to: Nanyang Technological University (site)

 E. Epifanovsky,  A. T. B. Gilbert,  Xintian Feng,  Joonho Lee,  Yuezhi Mao,  
 N. Mardirossian,  P. Pokhilko,  A. White,  M. Wormit,  M. P. Coons,  
 A. L. Dempwolff,  Zhengting Gan,  D. Hait,  P. R. Horn,  L. D. Jacobson,  
 I. Kaliman,  J. Kussmann,  A. W. Lange,  Ka Un Lao,  D. S. Levine,  Jie Liu,  
 S. C. McKenzie,  A. F. Morrison,  K. Nanda,  F. Plasser,  D. R. Rehn,  
 M. L. Vidal,  Zhi-Qiang You,  Ying Zhu,  B. Alam,  B. Albrecht,  
 A. Aldossary,  E. Alguire,  J. H. Andersen,  D. Barton,  K. Begam,  A. Behn,  
 Y. A. Bernard,  E. J. Berquist,  H. Burton,  A. Carreras,  K. Carter-Fenk,  
 R. Chakraborty,  A. D. Chien,  K. D. Closser,  V. Cofer-Shabica,  
 S. Dasgupta,  Jia Deng,  M. de Wergifosse,  M. Diedenhofen,  Hainam Do,  
 S. Ehlert,  Po-Tung Fang,  S. Fatehi,  Qingguo Feng,  T. Friedhoff,  
 J. Gayvert,  Qinghui Ge,  G. Gidofalvi,  M. Goldey,  J. Gomes,  
 C. Gonzalez-Espinoza,  S. Gulania,  A. Gunina,  M. W. D. Hanson-Heine,  
 P. H. P. Harbach,  A. W. Hauser,  M. F. Herbst,  M. Hernandez Vera,  
 M. Hodecker,  Z. C. Holden,  S. Houck,  Xunkun Huang,  Kerwin Hui,  
 B. C. Huynh,  M. Ivanov,  Hyunjun Ji,  Hanjie Jiang,  B. Kaduk,  S. Kaehler,  
 K. Khistyaev,  Jaehoon Kim,  P. Klunzinger,  Z. Koczor-Benda,  
 Joong Hoon Koh,  D. Kosenkov,  L. Koulias,  T. Kowalczyk,  C. M. Krauter,  
 K. Kue,  A. Kunitsa,  T. Kus,  A. Landau,  K. V. Lawler,  D. Lefrancois,  
 S. Lehtola,  Rain Li,  Yi-Pei Li,  Jiashu Liang,  M. Liebenthal,  
 Hung-Hsuan Lin,  You-Sheng Lin,  Fenglai Liu,  Kuan-Yu Liu,  
 M. Loipersberger,  A. Luenser,  A. Manjanath,  P. Manohar,  E. Mansoor,  
 S. F. Manzer,  Shan-Ping Mao,  A. V. Marenich,  T. Markovich,  S. Mason,  
 S. A. Maurer,  P. F. McLaughlin,  M. F. S. J. Menger,  J.-M. Mewes,  
 S. A. Mewes,  P. Morgante,  J. W. Mullinax,  K. J. Oosterbaan,  G. Paran,  
 Alexander C. Paul,  Suranjan K. Paul,  F. Pavosevic,  Zheng Pei,  S. Prager,  
 E. I. Proynov,  E. Ramos,  B. Rana,  A. E. Rask,  A. Rettig,  R. M. Richard,  
 F. Rob,  E. Rossomme,  T. Scheele,  M. Scheurer,  M. Schneider,  
 N. Sergueev,  S. M. Sharada,  W. Skomorowski,  D. W. Small,  C. J. Stein,  
 Yu-Chuan Su,  E. J. Sundstrom,  Zhen Tao,  J. Thirman,  T. Tsuchimochi,  
 N. M. Tubman,  S. P. Veccham,  O. Vydrov,  J. Wenzel,  J. Witte,  A. Yamada,  
 Kun Yao,  S. Yeganeh,  S. R. Yost,  A. Zech,  Igor Ying Zhang,  Xing Zhang,  
 Yu Zhang,  D. Zuev,  A. Aspuru-Guzik,  A. T. Bell,  N. A. Besley,  
 K. B. Bravaya,  B. R. Brooks,  D. Casanova,  Jeng-Da Chai,  S. Coriani,  
 C. J. Cramer,  A. E. DePrince, III,  R. A. DiStasio Jr.,  A. Dreuw,  
 B. D. Dunietz,  T. R. Furlani,  W. A. Goddard III,  S. Grimme,  
 S. Hammes-Schiffer,  T. Head-Gordon,  W. J. Hehre,  Chao-Ping Hsu,  
 T.-C. Jagau,  Yousung Jung,  A. Klamt,  Jing Kong,  D. S. Lambrecht,  
 WanZhen Liang,  N. J. Mayhall,  C. W. McCurdy,  J. B. Neaton,  
 C. Ochsenfeld,  J. A. Parkhill,  R. Peverati,  V. A. Rassolov,  Yihan Shao,  
 L. V. Slipchenko,  T. Stauch,  R. P. Steele,  J. E. Subotnik,  
 A. J. W. Thom,  A. Tkatchenko,  D. G. Truhlar,  T. Van Voorhis,  
 T. A. Wesolowski,  K. B. Whaley,  H. L. Woodcock III,  P. M. Zimmerman,  
 S. Faraji,  P. M. W. Gill,  M. Head-Gordon,  J. M. Herbert,  A. I. Krylov

 Additional authors for Version 5.4.1: 
 S. Kotaru,  Shaozhi Li,  Xiangyuan Li,  F. Matz,  A. Molle,  Haisheng Ren,  
 Yingli Su,  Hung-Yi Tsai,  C. Utku,  Fang Wang

 Contributors to earlier versions of Q-Chem not listed above: 
 R. D. Adamson,  B. Austin,  R. Baer,  J. Baker,  G. J. O. Beran,  
 K. Brandhorst,  S. T. Brown,  E. F. C. Byrd,  A. K. Chakraborty,  
 G. K. L. Chan,  Chun-Min Chang,  Yunqing Chen,  C.-L. Cheng,  
 Siu Hung Chien,  D. M. Chipman,  D. L. Crittenden,  H. Dachsel,  
 R. J. Doerksen,  A. D. Dutoi,  R. G. Edgar,  J. Fosso-Tande,  
 L. Fusti-Molnar,  D. Ghosh,  A. Ghysels,  A. Golubeva-Zadorozhnaya,  
 J. Gonthier,  M. S. Gordon,  S. R. Gwaltney,  G. Hawkins,  J. E. Herr,  
 A. Heyden,  S. Hirata,  E. G. Hohenstein,  G. Kedziora,  F. J. Keil,  
 C. Kelley,  Jihan Kim,  R. A. King,  R. Z. Khaliullin,  P. P. Korambath,  
 W. Kurlancheek,  A. Laurent,  A. M. Lee,  M. S. Lee,  S. V. Levchenko,  
 Ching Yeh Lin,  D. Liotard,  E. Livshits,  R. C. Lochan,  I. Lotan,  
 L. A. Martinez-Martinez,  P. E. Maslen,  N. Nair,  D. P. O'Neill,  
 D. Neuhauser,  E. Neuscamman,  C. M. Oana,  R. Olivares-Amaya,  R. Olson,  
 T. M. Perrine,  B. Peters,  P. A. Pieniazek,  A. Prociuk,  Y. M. Rhee,  
 J. Ritchie,  M. A. Rohrdanz,  E. Rosta,  N. J. Russ,  H. F. Schaefer III,  
 M. W. Schmidt,  N. E. Schultz,  S. Sharma,  N. Shenvi,  C. D. Sherrill,  
 A. C. Simmonett,  A. Sodt,  T. Stein,  D. Stuck,  K. S. Thanthiriwatte,  
 V. Vanovschi,  L. Vogt,  Tao Wang,  A. Warshel,  M. A. Watson,  
 C. F. Williams,  Q. Wu,  X. Xu,  Jun Yang,  W. Zhang,  Yan Zhao

 Please cite Q-Chem as follows:
 Y. Shao et al., Mol. Phys. 113, 184-215 (2015)
 DOI: 10.1080/00268976.2014.952696

 Q-Chem 5.4.1 for Intel X86 EM64T Linux

 Parts of Q-Chem use Armadillo 9.800.1 (Horizon Scraper).
 http://arma.sourceforge.net/

 Q-Chem begins on Thu Aug 31 16:35:18 2023  

 Host: 
0

     Scratch files written to /scratch/ari.fischer/qChem1710971.hpc-mn1/qchem88599//
 Aug1521 |scratch|qcdevops|jenkins|workspace|build_RNUM 8249   
 Processing $rem in /usr/local/qchem-5.4.1/config/preferences:
 Processing $rem in /home/ari.fischer/.qchemrc:
 Symmetry turned off for PCM/SM12/SMD calculation


!!********************************************.
!!******************Warning*******************.
!!Desired Analytical derivatives not available.
!!Finite difference job might take a long time.
!!********************************************.
!!********************************************.


 2-order derivative to be evaluated numerically with 1-order analytical derivatives

 Checking the input file for inconsistencies... 	...done.

--------------------------------------------------------------
User input:
--------------------------------------------------------------
$molecule
-1 2
O   -0.4268954    1.0291152    0.2121394
C   -0.6392513   -0.1715734    0.4605697
O   -1.2753298   -1.0208365   -0.1973000
H   -0.1844583   -0.5559033    1.4359004
O   -0.2128196   -2.1505383    2.2090421
H   -0.7380683   -2.3443676    1.4097700
$end

$rem
BASIS = 6-311++G(2df,2p)
GUI = 2
JOB_TYPE = Frequency
METHOD = wB97M-V
SOLVENT_METHOD = SMD
SCF_ALGORITHM = DIIS_GDM
MAX_SCF_CYCLES = 400
SCF_CONVERGENCE = 7
THRESH = 12
$end

--------------------------------------------------------------
 ----------------------------------------------------------------
             Standard Nuclear Orientation (Angstroms)
    I     Atom           X                Y                Z
 ----------------------------------------------------------------
    1      O      -0.4268954000     1.0291152000     0.2121394000
    2      C      -0.6392513000    -0.1715734000     0.4605697000
    3      O      -1.2753298000    -1.0208365000    -0.1973000000
    4      H      -0.1844583000    -0.5559033000     1.4359004000
    5      O      -0.2128196000    -2.1505383000     2.2090421000
    6      H      -0.7380683000    -2.3443676000     1.4097700000
 ----------------------------------------------------------------
 Nuclear Repulsion Energy =         104.56992469 hartrees
 There are       17 alpha and       16 beta electrons
 Requested basis set is 6-311++G(2df,2p)
 There are 44 shells and 156 basis functions

 Total QAlloc Memory Limit 288000 MB
 Mega-Array Size       188 MB
 MEM_STATIC part       192 MB
 
 Citation of the SMD model:
 Marenich, A.V.; Cramer, C.J.; Truhlar, D.G.
 J. Phys. Chem. B 2009, 113, 6378-6396.
 iSolventCode=           1
 Solvent: water                                                           
 
 vradii
            1           2           3           4           5           6
    1   1.5200000   1.8500000   1.5200000   1.2000000   1.5200000   1.2000000
 Changing PCM_VDW_RADII to SMD_RADIUS
 Discretize the solute cavity surface with Lebedev spheres
	Using 110 Lebedev grid points for each H atom
	Using 194 Lebedev grid points for other atoms
	Atomic van der Waals radii will be scaled by 1.20
 Remove points where switching function is < 1.0e-08
 Keep 621 surface tesserae and discard 375 interior tesserae
 Molecular Surface Area = 79.801 Angst**2

                       Distance Matrix (Angstroms)
             O (  1)   C (  2)   O (  3)   H (  4)   O (  5)
   C (  2)  1.244374
   O (  3)  2.256055  1.248454
   H (  4)  2.017090  1.142723  2.018293
   O (  5)  3.760804  2.674940  2.862802  1.772403
   H (  6)  3.593262  2.373137  2.150130  1.872371  0.975854
 
 A cutoff of  1.0D-12 yielded    942 shell pairs
 There are     11943 function pairs (     15204 Cartesian)
 Smallest overlap matrix eigenvalue = 8.41E-04
 Guess from superposition of atomic densities
 Warning:  Energy on first SCF cycle will be non-variational
 SAD guess density has 32.000000 electrons

 -----------------------------------------------------------------------
  General SCF calculation program by
  Eric Jon Sundstrom, Paul Horn, Yuezhi Mao, Dmitri Zuev, Alec White,
  David Stuck, Shaama M.S., Shane Yost, Joonho Lee, David Small,
  Daniel Levine, Susi Lehtola, Hugh Burton, Evgeny Epifanovsky,
  Bang C. Huynh
 -----------------------------------------------------------------------
 Exchange:     0.1500 Hartree-Fock + 1.0000 wB97M-V + LR-HF
 Correlation:  1.0000 wB97M-V
 Using SG-2 standard quadrature grid
 Nonlocal Correlation:  VV10 with C = 0.0100 and b = 6.00 and scale = 1.00000
 Grid used for NLC:  SG-1 standard quadrature
 using 8 threads for integral computing
 -------------------------------------------------------
 OpenMP Integral computing Module                
 Release: version 1.0, May 2013, Q-Chem Inc. Pittsburgh 
 -------------------------------------------------------
 
 Citation of the SMD model:
 Marenich, A.V.; Cramer, C.J.; Truhlar, D.G.
 J. Phys. Chem. B 2009, 113, 6378-6396.
 iSolventCode=           1
 Solvent: water                                                           
 
 vradii
            1           2           3           4           5           6
    1   1.5200000   1.8500000   1.5200000   1.2000000   1.5200000   1.2000000
 -------------------------------------------------------
 OpenMP BLAS3 based DFT computing Module                
 Release: version 1.0, May 2013, Q-Chem Inc. Pittsburgh 
 -------------------------------------------------------
 A unrestricted SCF calculation will be
 performed using DIIS, GDM
 SCF converges when RMS gradient is below 1.0e-07
 ---------------------------------------
  Cycle       Energy         DIIS error
 ---------------------------------------
    1    -265.0576080846      1.81e-02  
    2    -264.8894334774      4.25e-03  Done DIIS. Switching to GDM
 ---------------------------------------
  Cycle       Energy        RMS Gradient
 ---------------------------------------
    1    -264.8894334774      2.04e-01   Descent step
    2    -265.0594690756      3.41e-02   Normal BFGS step
    3    -265.0707663872      7.89e-02   Normal BFGS step
    4    -265.0756360706      2.15e-02   Normal BFGS step
    5    -265.0787077356      2.39e-02   Normal BFGS step
    6    -265.0830218027      1.95e-02   Normal BFGS step
    7    -265.0838735785      8.74e-03   Normal BFGS step
    8    -265.0842560991      3.25e-03   Normal BFGS step
    9    -265.0843376064      1.80e-03   Normal BFGS step
   10    -265.0843446512      1.22e-03   Normal BFGS step
   11    -265.0843478393      4.22e-04   Normal BFGS step
   12    -265.0843484702      1.34e-04   Normal BFGS step
   13    -265.0843485561      6.32e-05   Normal BFGS step
   14    -265.0843485716      2.64e-05   Normal BFGS step
   15    -265.0843485747      1.26e-05   Normal BFGS step
   16    -265.0843485753      8.25e-06   Normal BFGS step
   17    -265.0843485755      7.38e-06   Normal BFGS step
   18    -265.0843485757      6.32e-06   Normal BFGS step
   19    -265.0843485758      4.80e-06   Normal BFGS step
   20    -265.0843485760      3.87e-06   Normal BFGS step
   21    -265.0843485761      1.97e-06   Normal BFGS step
   22    -265.0843485761      1.03e-06   Normal BFGS step
   23    -265.0843485761      4.39e-07   Normal BFGS step
   24    -265.0843485761      2.27e-07   Normal BFGS step
   25    -265.0843485761      8.92e-08  Convergence criterion met
 ---------------------------------------
 SCF time:   CPU 204.53s  wall 27.00s 
<S^2> =          0.755685179
(3)  G-ENP(liq) elect-nuc-pol free energy of system     -265.084348576 a.u.
(4)  G-CDS(liq) cavity-dispersion-solvent structure 
     free energy                                                4.2269 kcal/mol
(6)  G-S(liq) free energy of system                     -265.077612549 a.u.
 SCF   energy in the final basis set =     -265.0776125487
 Total energy in the final basis set =     -265.0776125487
 
 --------------------------------------------------------------
 
                    Orbital Energies (a.u.)
 --------------------------------------------------------------
 
 Alpha MOs
 -- Occupied --
-19.3756 -19.3000 -19.2981 -10.4462  -1.1801  -1.1218  -1.0945  -0.6828
 -0.5899  -0.5679  -0.5450  -0.5262  -0.4900  -0.4457  -0.3830  -0.3779
 -0.3552
 -- Virtual --
  0.0417   0.0670   0.0806   0.0910   0.1108   0.1296   0.1454   0.2120
  0.2251   0.2267   0.2495   0.2567   0.2662   0.2839   0.2931   0.3158
  0.3218   0.3313   0.3612   0.3976   0.4142   0.4991   0.5397   0.5720
  0.6099   0.6236   0.7119   0.7309   0.7748   0.8065   0.8255   0.8644
  0.9597   0.9859   1.0211   1.0659   1.1061   1.1253   1.1433   1.1537
  1.1812   1.1978   1.2108   1.2159   1.2376   1.3469   1.4066   1.4858
  1.5495   1.6011   1.6018   1.6239   1.6290   1.7050   1.7713   1.7903
  1.8978   1.8995   1.9653   2.1128   2.1574   2.1786   2.3295   2.4086
  2.5193   2.5720   2.6471   2.7393   2.7908   2.8406   3.0110   3.1395
  3.1609   3.2437   3.2638   3.3220   3.4756   3.5157   3.5898   3.6347
  3.6712   3.7196   3.7315   3.9565   4.0546   4.0838   4.1258   4.2272
  4.4755   4.9801   5.0715   5.0832   5.1144   5.1393   5.1412   5.1628
  5.1785   5.1810   5.1841   5.2140   5.2362   5.2439   5.2586   5.3221
  5.3849   5.3861   5.4768   5.5327   5.5580   5.6187   5.6207   5.7203
  5.8453   6.0482   6.2585   6.4834   6.7935   6.8454   6.9054   6.9080
  6.9707   6.9786   7.0136   7.0392   7.0590   7.1173   7.2620   7.3236
  7.3717   7.3721   7.5044   7.6296   7.6943   7.7502   7.8128  25.1709
 50.4147  50.6642  50.6974
 
 Beta MOs
 -- Occupied --
-19.3535 -19.2981 -19.2975 -10.4443  -1.1770  -1.0933  -1.0614  -0.6686
 -0.5799  -0.5449  -0.5396  -0.5243  -0.4174  -0.3816  -0.3729  -0.3619
 -- Virtual --
 -0.0659   0.0442   0.0688   0.0812   0.0923   0.1115   0.1321   0.1467
  0.2132   0.2298   0.2310   0.2518   0.2574   0.2695   0.2886   0.3013
  0.3165   0.3221   0.3329   0.3643   0.4028   0.4156   0.5058   0.5476
  0.5761   0.6109   0.6284   0.7155   0.7314   0.7781   0.8073   0.8272
  0.8677   0.9608   0.9924   1.0241   1.0720   1.1073   1.1274   1.1442
  1.1627   1.2018   1.2160   1.2169   1.2320   1.2439   1.3571   1.4156
  1.4976   1.5567   1.6180   1.6236   1.6373   1.6403   1.7079   1.7759
  1.7967   1.9093   1.9099   1.9929   2.1138   2.1593   2.1978   2.3386
  2.4099   2.5226   2.5752   2.6569   2.7560   2.7928   2.8427   3.0123
  3.1417   3.1627   3.2483   3.2671   3.3268   3.4771   3.5155   3.5948
  3.6366   3.6729   3.7291   3.7315   3.9690   4.0580   4.0853   4.1171
  4.2376   4.4699   4.9948   5.1169   5.1349   5.1652   5.1722   5.1759
  5.1825   5.1842   5.1992   5.2147   5.2463   5.2492   5.2621   5.2895
  5.3409   5.3876   5.4115   5.4810   5.5357   5.5590   5.6385   5.6681
  5.7322   5.8456   6.0524   6.2596   6.4864   6.8592   6.8958   6.9099
  6.9371   6.9983   7.0199   7.0316   7.0526   7.0877   7.1795   7.3250
  7.3257   7.3749   7.3871   7.5510   7.6430   7.7013   7.7537   7.8159
 25.1722  50.4300  50.6650  50.6986
 --------------------------------------------------------------
 
          Ground-State Mulliken Net Atomic Charges

     Atom                 Charge (a.u.)    Spin (a.u.)
  --------------------------------------------------------
      1 O                    -0.612631       0.056603
      2 C                     0.192663       0.085385
      3 O                    -0.596563       0.028166
      4 H                     0.140640      -0.012432
      5 O                    -0.443070       0.851346
      6 H                     0.318962      -0.009068
  --------------------------------------------------------
  Sum of atomic charges =    -1.000000
  Sum of spin   charges =     1.000000

 -----------------------------------------------------------------
                    Cartesian Multipole Moments
 -----------------------------------------------------------------
    Charge (ESU x 10^10)
                -4.8032
    Dipole Moment (Debye)
         X       3.3036      Y       0.4696      Z      -1.6329
       Tot       3.7149
    Quadrupole Moments (Debye-Ang)
        XX     -30.1156     XY      -0.4650     YY     -34.1584
        XZ      -2.3173     YZ       4.1479     ZZ     -34.3166
    Octopole Moments (Debye-Ang^2)
       XXX      54.5121    XXY      19.2974    XYY      15.8937
       YYY      44.4107    XXZ     -15.4563    XYZ       3.2761
       YYZ     -28.2194    XZZ      17.4053    YZZ      33.3459
       ZZZ     -76.2148
    Hexadecapole Moments (Debye-Ang^3)
      XXXX    -121.6396   XXXY     -35.4653   XXYY     -71.4890
      XYYY     -14.7018   YYYY    -288.6627   XXXZ       8.2466
      XXYZ      27.3080   XYYZ      -3.7192   YYYZ      99.5701
      XXZZ     -59.2597   XYZZ     -10.4279   YYZZ    -122.9804
      XZZZ      17.5765   YZZZ     135.2731   ZZZZ    -291.9952
 -----------------------------------------------------------------
 Calculating analytic gradient of the SCF energy
 Gradient of CDS energy
            1           2           3           4           5           6
    1  -0.0003380  -0.0004811   0.0009560  -0.0002065   0.0001960  -0.0001265
    2  -0.0019111   0.0015275   0.0011433  -0.0004777   0.0001351  -0.0004171
    3   0.0003954  -0.0016094   0.0010573  -0.0001068   0.0002656  -0.0000022
 Gradient of SCF Energy
            1           2           3           4           5           6
    1  -0.0046167   0.0041287   0.0142412  -0.0146099  -0.0128173   0.0136740
    2  -0.0324739   0.0004853   0.0194828   0.0163627  -0.0036156  -0.0002414
    3   0.0087956   0.0068003   0.0143369  -0.0333966  -0.0199983   0.0234621
 Max gradient component =       3.340E-02
 RMS gradient           =       1.653E-02
 Computing fast CPCM-SWIG gradient
 Updating gradient with PCM contributions...
 -- total gradient after adding PCM contribution --
---------------------------------------------------
  Atom         X              Y              Z     
---------------------------------------------------
   1      -0.000026       0.000018      -0.000020
   2      -0.000035      -0.000089      -0.000046
   3       0.000078      -0.000001       0.000016
   4      -0.000028       0.000061       0.000002
   5      -0.000026       0.000005      -0.000006
   6       0.000036       0.000006       0.000053
---------------------------------------------------
 Number of fixed atoms: 0
 Gradient time:  CPU 19.23 s  wall 2.85 s
 ######################################################
 ######################################################
 # Starting finite difference calculation for IDERIV  #
 Finite diff step size:  1.88973e-03 a.u.
 ----------------------------------------------------------------
             Standard Nuclear Orientation (Angstroms)
    I     Atom           X                Y                Z
 ----------------------------------------------------------------
    1      O      -0.4258954000     1.0291152000     0.2121394000
    2      C      -0.6392513000    -0.1715734000     0.4605697000
    3      O      -1.2753298000    -1.0208365000    -0.1973000000
    4      H      -0.1844583000    -0.5559033000     1.4359004000
    5      O      -0.2128196000    -2.1505383000     2.2090421000
    6      H      -0.7380683000    -2.3443676000     1.4097700000
 ----------------------------------------------------------------
 Nuclear Repulsion Energy =         104.56484850 hartrees
 There are       17 alpha and       16 beta electrons
 Discretize the solute cavity surface with Lebedev spheres
	Using 110 Lebedev grid points for each H atom
	Using 194 Lebedev grid points for other atoms
	Atomic van der Waals radii will be scaled by 1.20
 Remove points where switching function is < 1.0e-08
 Keep 621 surface tesserae and discard 375 interior tesserae
 Molecular Surface Area = 79.804 Angst**2

                       Distance Matrix (Angstroms)
             O (  1)   C (  2)   O (  3)   H (  4)   O (  5)
   C (  2)  1.244545
   O (  3)  2.256431  1.248454
   H (  4)  2.016970  1.142723  2.018293
   O (  5)  3.760747  2.674940  2.862802  1.772403
   H (  6)  3.593349  2.373137  2.150130  1.872371  0.975854
 
 Requested basis set is 6-311++G(2df,2p)
 There are 44 shells and 156 basis functions
 A cutoff of  1.0D-12 yielded    942 shell pairs
 There are     11943 function pairs (     15204 Cartesian)
 Smallest overlap matrix eigenvalue = 8.41E-04
 Guess MOs from SCF MO coefficient file

 -----------------------------------------------------------------------
  General SCF calculation program by
  Eric Jon Sundstrom, Paul Horn, Yuezhi Mao, Dmitri Zuev, Alec White,
  David Stuck, Shaama M.S., Shane Yost, Joonho Lee, David Small,
  Daniel Levine, Susi Lehtola, Hugh Burton, Evgeny Epifanovsky,
  Bang C. Huynh
 -----------------------------------------------------------------------
 Exchange:     0.1500 Hartree-Fock + 1.0000 wB97M-V + LR-HF
 Correlation:  1.0000 wB97M-V
 Using SG-2 standard quadrature grid
 Nonlocal Correlation:  VV10 with C = 0.0100 and b = 6.00 and scale = 1.00000
 Grid used for NLC:  SG-1 standard quadrature
 
 Citation of the SMD model:
 Marenich, A.V.; Cramer, C.J.; Truhlar, D.G.
 J. Phys. Chem. B 2009, 113, 6378-6396.
 iSolventCode=           1
 Solvent: water                                                           
 
 vradii
            1           2           3           4           5           6
    1   1.5200000   1.8500000   1.5200000   1.2000000   1.5200000   1.2000000
 -------------------------------------------------------
 OpenMP BLAS3 based DFT computing Module                
 Release: version 1.0, May 2013, Q-Chem Inc. Pittsburgh 
 -------------------------------------------------------
 A unrestricted SCF calculation will be
 performed using Roothaan-Hall, DIIS, GDM
 SCF converges when RMS gradient is below 1.0e-07
 ---------------------------------------
  Cycle       Energy         DIIS error
 ---------------------------------------
    1    -264.9745201290      3.61e-04  Roothaan Step
 ---------------------------------------
  Cycle       Energy         DIIS error
 ---------------------------------------
    1    -265.0802469071      4.77e-04  
    2    -265.0818728362      5.55e-04  Done DIIS. Switching to GDM
 ---------------------------------------
  Cycle       Energy        RMS Gradient
 ---------------------------------------
    1    -265.0818728362      1.74e-02   Normal BFGS step
    2    -265.0810163813      2.78e-02  Line search: overstep
    3    -265.0841844601      6.68e-03   Normal BFGS step
    4    -265.0842789546      4.60e-03   Normal BFGS step
    5    -265.0843184575      2.20e-03   Normal BFGS step
    6    -265.0843374469      1.30e-03   Normal BFGS step
    7    -265.0843457918      4.61e-04   Normal BFGS step
    8    -265.0843475674      2.21e-04   Normal BFGS step
    9    -265.0843477901      1.18e-04   Normal BFGS step
   10    -265.0843478568      6.27e-05   Normal BFGS step
   11    -265.0843478737      3.58e-05   Normal BFGS step
   12    -265.0843478791      1.20e-05   Normal BFGS step
   13    -265.0843478799      3.15e-06   Normal BFGS step
   14    -265.0843478801      1.66e-06   Normal BFGS step
   15    -265.0843478801      7.42e-07   Normal BFGS step
   16    -265.0843478801      2.05e-07   Normal BFGS step
   17    -265.0843478801      1.39e-07   Normal BFGS step
   18    -265.0843478801      1.27e-07   Normal BFGS step
   19    -265.0843478801      1.12e-07   Normal BFGS step
   20    -265.0843478801      8.38e-08  Convergence criterion met
 ---------------------------------------
 SCF time:   CPU 174.55s  wall 22.00s 
<S^2> =          0.755686998
(3)  G-ENP(liq) elect-nuc-pol free energy of system     -265.084347880 a.u.
(4)  G-CDS(liq) cavity-dispersion-solvent structure 
     free energy                                                4.2265 kcal/mol
(6)  G-S(liq) free energy of system                     -265.077612493 a.u.
 SCF   energy in the final basis set =     -265.0776124934
 Total energy in the final basis set =     -265.0776124934
 
 --------------------------------------------------------------
 
                    Orbital Energies (a.u.)
 --------------------------------------------------------------
 
 Alpha MOs
 -- Occupied --
-19.3755 -19.3000 -19.2981 -10.4462  -1.1800  -1.1218  -1.0945  -0.6828
 -0.5899  -0.5679  -0.5450  -0.5262  -0.4899  -0.4457  -0.3830  -0.3779
 -0.3552
 -- Virtual --
  0.0417   0.0670   0.0806   0.0910   0.1108   0.1296   0.1454   0.2120
  0.2251   0.2267   0.2495   0.2567   0.2662   0.2839   0.2931   0.3158
  0.3218   0.3313   0.3612   0.3976   0.4142   0.4990   0.5397   0.5720
  0.6099   0.6235   0.7119   0.7308   0.7747   0.8065   0.8255   0.8644
  0.9597   0.9859   1.0211   1.0658   1.1061   1.1253   1.1433   1.1537
  1.1812   1.1979   1.2108   1.2159   1.2376   1.3469   1.4066   1.4858
  1.5495   1.6012   1.6018   1.6238   1.6289   1.7050   1.7710   1.7903
  1.8979   1.8994   1.9654   2.1127   2.1575   2.1786   2.3295   2.4085
  2.5192   2.5720   2.6471   2.7393   2.7906   2.8406   3.0109   3.1395
  3.1609   3.2437   3.2639   3.3221   3.4753   3.5156   3.5898   3.6347
  3.6710   3.7196   3.7316   3.9565   4.0544   4.0838   4.1258   4.2273
  4.4754   4.9801   5.0715   5.0832   5.1145   5.1393   5.1412   5.1628
  5.1785   5.1810   5.1840   5.2140   5.2361   5.2438   5.2586   5.3221
  5.3849   5.3861   5.4767   5.5327   5.5575   5.6187   5.6207   5.7202
  5.8449   6.0480   6.2580   6.4835   6.7935   6.8454   6.9054   6.9079
  6.9706   6.9786   7.0136   7.0389   7.0586   7.1171   7.2620   7.3234
  7.3716   7.3723   7.5045   7.6298   7.6941   7.7503   7.8126  25.1704
 50.4148  50.6642  50.6972
 
 Beta MOs
 -- Occupied --
-19.3535 -19.2981 -19.2975 -10.4443  -1.1769  -1.0933  -1.0614  -0.6686
 -0.5799  -0.5449  -0.5396  -0.5243  -0.4174  -0.3816  -0.3730  -0.3619
 -- Virtual --
 -0.0659   0.0442   0.0688   0.0812   0.0923   0.1115   0.1321   0.1467
  0.2132   0.2298   0.2310   0.2518   0.2573   0.2695   0.2886   0.3013
  0.3165   0.3221   0.3329   0.3643   0.4028   0.4156   0.5057   0.5476
  0.5760   0.6109   0.6284   0.7154   0.7314   0.7781   0.8073   0.8271
  0.8677   0.9608   0.9924   1.0240   1.0719   1.1073   1.1274   1.1442
  1.1627   1.2019   1.2160   1.2169   1.2320   1.2439   1.3572   1.4157
  1.4975   1.5567   1.6180   1.6235   1.6373   1.6404   1.7079   1.7755
  1.7967   1.9093   1.9099   1.9929   2.1136   2.1595   2.1978   2.3386
  2.4098   2.5225   2.5751   2.6569   2.7560   2.7926   2.8426   3.0122
  3.1417   3.1627   3.2483   3.2672   3.3268   3.4768   3.5154   3.5948
  3.6365   3.6727   3.7291   3.7316   3.9690   4.0577   4.0853   4.1171
  4.2376   4.4698   4.9949   5.1169   5.1349   5.1652   5.1722   5.1759
  5.1825   5.1841   5.1992   5.2147   5.2462   5.2492   5.2621   5.2895
  5.3409   5.3877   5.4115   5.4809   5.5358   5.5585   5.6385   5.6681
  5.7321   5.8452   6.0522   6.2592   6.4865   6.8591   6.8958   6.9099
  6.9369   6.9983   7.0198   7.0316   7.0519   7.0876   7.1795   7.3249
  7.3257   7.3750   7.3872   7.5511   7.6432   7.7010   7.7538   7.8158
 25.1717  50.4300  50.6650  50.6984
 --------------------------------------------------------------
 
          Ground-State Mulliken Net Atomic Charges

     Atom                 Charge (a.u.)    Spin (a.u.)
  --------------------------------------------------------
      1 O                    -0.612681       0.056635
      2 C                     0.192633       0.085410
      3 O                    -0.596365       0.028193
      4 H                     0.140607      -0.012425
      5 O                    -0.443157       0.851254
      6 H                     0.318962      -0.009068
  --------------------------------------------------------
  Sum of atomic charges =    -1.000000
  Sum of spin   charges =     1.000000

 -----------------------------------------------------------------
                    Cartesian Multipole Moments
 -----------------------------------------------------------------
    Charge (ESU x 10^10)
                -4.8032
    Dipole Moment (Debye)
         X       3.2997      Y       0.4693      Z      -1.6342
       Tot       3.7120
    Quadrupole Moments (Debye-Ang)
        XX     -30.1121     XY      -0.4676     YY     -34.1590
        XZ      -2.3170     YZ       4.1506     ZZ     -34.3193
    Octopole Moments (Debye-Ang^2)
       XXX      54.4886    XXY      19.2987    XYY      15.8828
       YYY      44.4121    XXZ     -15.4576    XYZ       3.2742
       YYZ     -28.2252    XZZ      17.3994    YZZ      33.3503
       ZZZ     -76.2220
    Hexadecapole Moments (Debye-Ang^3)
      XXXX    -121.6007   XXXY     -35.4842   XXYY     -71.4789
      XYYY     -14.7212   YYYY    -288.6737   XXXZ       8.2450
      XXYZ      27.3101   XYYZ      -3.7190   YYYZ      99.5871
      XXZZ     -59.2551   XYZZ     -10.4362   YYZZ    -122.9937
      XZZZ      17.5759   YZZZ     135.2877   ZZZZ    -292.0139
 -----------------------------------------------------------------
 Calculating analytic gradient of the SCF energy
 Gradient of CDS energy
            1           2           3           4           5           6
    1  -0.0003402  -0.0004789   0.0009560  -0.0002065   0.0001960  -0.0001265
    2  -0.0019145   0.0015309   0.0011433  -0.0004777   0.0001351  -0.0004171
    3   0.0003961  -0.0016101   0.0010573  -0.0001068   0.0002656  -0.0000022
 Gradient of SCF Energy
            1           2           3           4           5           6
    1  -0.0045571   0.0040504   0.0142464  -0.0145954  -0.0128149   0.0136707
    2  -0.0322810   0.0003508   0.0194176   0.0163732  -0.0036178  -0.0002428
    3   0.0087899   0.0068223   0.0143362  -0.0334118  -0.0199913   0.0234547
 Max gradient component =       3.341E-02
 RMS gradient           =       1.650E-02
 Computing fast CPCM-SWIG gradient
 Updating gradient with PCM contributions...
 -- total gradient after adding PCM contribution --
---------------------------------------------------
  Atom         X              Y              Z     
---------------------------------------------------
   1       0.000084       0.000225      -0.000012
   2      -0.000178      -0.000200      -0.000014
   3       0.000081      -0.000110       0.000002
   4       0.000003       0.000080      -0.000024
   5      -0.000024      -0.000001       0.000000
   6       0.000034       0.000006       0.000048
---------------------------------------------------
 Number of fixed atoms: 0
 Gradient time:  CPU 18.40 s  wall 2.80 s
 ----------------------------------------------------------------
             Standard Nuclear Orientation (Angstroms)
    I     Atom           X                Y                Z
 ----------------------------------------------------------------
    1      O      -0.4278954000     1.0291152000     0.2121394000
    2      C      -0.6392513000    -0.1715734000     0.4605697000
    3      O      -1.2753298000    -1.0208365000    -0.1973000000
    4      H      -0.1844583000    -0.5559033000     1.4359004000
    5      O      -0.2128196000    -2.1505383000     2.2090421000
    6      H      -0.7380683000    -2.3443676000     1.4097700000
 ----------------------------------------------------------------
 Nuclear Repulsion Energy =         104.57498594 hartrees
 There are       17 alpha and       16 beta electrons
 Discretize the solute cavity surface with Lebedev spheres
	Using 110 Lebedev grid points for each H atom
	Using 194 Lebedev grid points for other atoms
	Atomic van der Waals radii will be scaled by 1.20
 Remove points where switching function is < 1.0e-08
 Keep 620 surface tesserae and discard 376 interior tesserae
 Molecular Surface Area = 79.799 Angst**2

                       Distance Matrix (Angstroms)
             O (  1)   C (  2)   O (  3)   H (  4)   O (  5)
   C (  2)  1.244203
   O (  3)  2.255679  1.248454
   H (  4)  2.017210  1.142723  2.018293
   O (  5)  3.760861  2.674940  2.862802  1.772403
   H (  6)  3.593176  2.373137  2.150130  1.872371  0.975854
 
 Requested basis set is 6-311++G(2df,2p)
 There are 44 shells and 156 basis functions
 A cutoff of  1.0D-12 yielded    942 shell pairs
 There are     11943 function pairs (     15204 Cartesian)
 Smallest overlap matrix eigenvalue = 8.41E-04
 Guess MOs from SCF MO coefficient file

 -----------------------------------------------------------------------
  General SCF calculation program by
  Eric Jon Sundstrom, Paul Horn, Yuezhi Mao, Dmitri Zuev, Alec White,
  David Stuck, Shaama M.S., Shane Yost, Joonho Lee, David Small,
  Daniel Levine, Susi Lehtola, Hugh Burton, Evgeny Epifanovsky,
  Bang C. Huynh
 -----------------------------------------------------------------------
 Exchange:     0.1500 Hartree-Fock + 1.0000 wB97M-V + LR-HF
 Correlation:  1.0000 wB97M-V
 Using SG-2 standard quadrature grid
 Nonlocal Correlation:  VV10 with C = 0.0100 and b = 6.00 and scale = 1.00000
 Grid used for NLC:  SG-1 standard quadrature
 
 Citation of the SMD model:
 Marenich, A.V.; Cramer, C.J.; Truhlar, D.G.
 J. Phys. Chem. B 2009, 113, 6378-6396.
 iSolventCode=           1
 Solvent: water                                                           
 
 vradii
            1           2           3           4           5           6
    1   1.5200000   1.8500000   1.5200000   1.2000000   1.5200000   1.2000000
 -------------------------------------------------------
 OpenMP BLAS3 based DFT computing Module                
 Release: version 1.0, May 2013, Q-Chem Inc. Pittsburgh 
 -------------------------------------------------------
 A unrestricted SCF calculation will be
 performed using Roothaan-Hall, DIIS, GDM
 SCF converges when RMS gradient is below 1.0e-07
 ---------------------------------------
  Cycle       Energy         DIIS error
 ---------------------------------------
    1    -264.9745139960      3.61e-04  Roothaan Step
 ---------------------------------------
  Cycle       Energy         DIIS error
 ---------------------------------------
    1    -265.0802473258      4.77e-04  
    2    -265.0818762234      5.54e-04  Done DIIS. Switching to GDM
 ---------------------------------------
  Cycle       Energy        RMS Gradient
 ---------------------------------------
    1    -265.0818762234      1.75e-02   Normal BFGS step
    2    -265.0810263441      2.77e-02  Line search: overstep
    3    -265.0841848113      6.72e-03   Normal BFGS step
    4    -265.0842796598      4.62e-03   Normal BFGS step
    5    -265.0843194295      2.21e-03   Normal BFGS step
    6    -265.0843385943      1.30e-03   Normal BFGS step
    7    -265.0843469702      4.55e-04   Normal BFGS step
    8    -265.0843487472      2.18e-04   Normal BFGS step
    9    -265.0843489700      1.19e-04   Normal BFGS step
   10    -265.0843490365      6.32e-05   Normal BFGS step
   11    -265.0843490534      3.60e-05   Normal BFGS step
   12    -265.0843490589      1.20e-05   Normal BFGS step
   13    -265.0843490597      3.08e-06   Normal BFGS step
   14    -265.0843490598      1.64e-06   Normal BFGS step
   15    -265.0843490598      8.73e-07   Normal BFGS step
   16    -265.0843490598      7.94e-07   Normal BFGS step
   17    -265.0843490598      6.95e-07   Normal BFGS step
   18    -265.0843490598      5.40e-07   Normal BFGS step
   19    -265.0843490598      4.49e-07   Normal BFGS step
   20    -265.0843490598      3.10e-07   Normal BFGS step
   21    -265.0843490598      1.84e-07   Normal BFGS step
   22    -265.0843490598      5.29e-08  Convergence criterion met
 ---------------------------------------
 SCF time:   CPU 191.89s  wall 24.00s 
<S^2> =          0.755683358
(3)  G-ENP(liq) elect-nuc-pol free energy of system     -265.084349060 a.u.
(4)  G-CDS(liq) cavity-dispersion-solvent structure 
     free energy                                                4.2273 kcal/mol
(6)  G-S(liq) free energy of system                     -265.077612396 a.u.
 SCF   energy in the final basis set =     -265.0776123957
 Total energy in the final basis set =     -265.0776123957
 
 --------------------------------------------------------------
 
                    Orbital Energies (a.u.)
 --------------------------------------------------------------
 
 Alpha MOs
 -- Occupied --
-19.3756 -19.2999 -19.2980 -10.4461  -1.1801  -1.1219  -1.0945  -0.6828
 -0.5899  -0.5679  -0.5450  -0.5262  -0.4900  -0.4457  -0.3830  -0.3778
 -0.3552
 -- Virtual --
  0.0417   0.0670   0.0806   0.0910   0.1108   0.1297   0.1454   0.2120
  0.2251   0.2267   0.2495   0.2567   0.2663   0.2839   0.2931   0.3158
  0.3218   0.3313   0.3612   0.3976   0.4142   0.4991   0.5397   0.5720
  0.6099   0.6236   0.7119   0.7309   0.7748   0.8065   0.8256   0.8644
  0.9596   0.9859   1.0211   1.0659   1.1061   1.1253   1.1434   1.1537
  1.1812   1.1977   1.2108   1.2159   1.2376   1.3469   1.4066   1.4858
  1.5494   1.6011   1.6018   1.6240   1.6291   1.7049   1.7717   1.7903
  1.8978   1.8996   1.9652   2.1130   2.1573   2.1786   2.3295   2.4086
  2.5194   2.5721   2.6470   2.7393   2.7910   2.8406   3.0110   3.1395
  3.1610   3.2437   3.2637   3.3220   3.4758   3.5158   3.5898   3.6348
  3.6714   3.7196   3.7315   3.9565   4.0548   4.0839   4.1258   4.2272
  4.4756   4.9800   5.0714   5.0832   5.1144   5.1393   5.1412   5.1629
  5.1785   5.1810   5.1841   5.2140   5.2362   5.2439   5.2587   5.3222
  5.3848   5.3861   5.4769   5.5327   5.5584   5.6187   5.6207   5.7205
  5.8457   6.0484   6.2589   6.4833   6.7935   6.8455   6.9054   6.9081
  6.9707   6.9786   7.0136   7.0396   7.0594   7.1175   7.2620   7.3238
  7.3717   7.3719   7.5044   7.6293   7.6946   7.7501   7.8129  25.1713
 50.4147  50.6643  50.6976
 
 Beta MOs
 -- Occupied --
-19.3535 -19.2981 -19.2974 -10.4443  -1.1770  -1.0932  -1.0614  -0.6686
 -0.5799  -0.5449  -0.5396  -0.5243  -0.4174  -0.3816  -0.3729  -0.3619
 -- Virtual --
 -0.0659   0.0442   0.0688   0.0812   0.0923   0.1115   0.1322   0.1467
  0.2132   0.2298   0.2310   0.2518   0.2574   0.2696   0.2886   0.3013
  0.3165   0.3221   0.3329   0.3643   0.4029   0.4156   0.5059   0.5476
  0.5761   0.6109   0.6285   0.7155   0.7315   0.7781   0.8073   0.8272
  0.8677   0.9607   0.9924   1.0241   1.0720   1.1074   1.1274   1.1443
  1.1627   1.2017   1.2160   1.2169   1.2320   1.2439   1.3571   1.4156
  1.4976   1.5567   1.6180   1.6238   1.6374   1.6403   1.7078   1.7762
  1.7967   1.9093   1.9100   1.9928   2.1140   2.1592   2.1977   2.3386
  2.4099   2.5227   2.5752   2.6568   2.7560   2.7930   2.8427   3.0124
  3.1417   3.1627   3.2482   3.2671   3.3267   3.4774   3.5156   3.5948
  3.6366   3.6731   3.7291   3.7314   3.9690   4.0582   4.0853   4.1172
  4.2376   4.4700   4.9947   5.1169   5.1348   5.1652   5.1722   5.1759
  5.1825   5.1843   5.1991   5.2148   5.2463   5.2493   5.2621   5.2895
  5.3409   5.3876   5.4115   5.4811   5.5357   5.5594   5.6385   5.6682
  5.7324   5.8460   6.0526   6.2601   6.4863   6.8593   6.8958   6.9099
  6.9372   6.9983   7.0199   7.0316   7.0532   7.0879   7.1796   7.3252
  7.3257   7.3748   7.3871   7.5509   7.6428   7.7015   7.7537   7.8160
 25.1726  50.4300  50.6651  50.6988
 --------------------------------------------------------------
 
          Ground-State Mulliken Net Atomic Charges

     Atom                 Charge (a.u.)    Spin (a.u.)
  --------------------------------------------------------
      1 O                    -0.612582       0.056571
      2 C                     0.192692       0.085360
      3 O                    -0.596761       0.028137
      4 H                     0.140672      -0.012440
      5 O                    -0.442982       0.851439
      6 H                     0.318961      -0.009067
  --------------------------------------------------------
  Sum of atomic charges =    -1.000000
  Sum of spin   charges =     1.000000

 -----------------------------------------------------------------
                    Cartesian Multipole Moments
 -----------------------------------------------------------------
    Charge (ESU x 10^10)
                -4.8032
    Dipole Moment (Debye)
         X       3.3075      Y       0.4700      Z      -1.6316
       Tot       3.7179
    Quadrupole Moments (Debye-Ang)
        XX     -30.1192     XY      -0.4625     YY     -34.1577
        XZ      -2.3176     YZ       4.1451     ZZ     -34.3138
    Octopole Moments (Debye-Ang^2)
       XXX      54.5357    XXY      19.2961    XYY      15.9047
       YYY      44.4092    XXZ     -15.4551    XYZ       3.2781
       YYZ     -28.2137    XZZ      17.4112    YZZ      33.3416
       ZZZ     -76.2076
    Hexadecapole Moments (Debye-Ang^3)
      XXXX    -121.6787   XXXY     -35.4464   XXYY     -71.4991
      XYYY     -14.6823   YYYY    -288.6517   XXXZ       8.2482
      XXYZ      27.3059   XYYZ      -3.7193   YYYZ      99.5530
      XXZZ     -59.2642   XYZZ     -10.4196   YYZZ    -122.9670
      XZZZ      17.5770   YZZZ     135.2584   ZZZZ    -291.9764
 -----------------------------------------------------------------
 Calculating analytic gradient of the SCF energy
 Gradient of CDS energy
            1           2           3           4           5           6
    1  -0.0003358  -0.0004833   0.0009560  -0.0002065   0.0001960  -0.0001265
    2  -0.0019077   0.0015241   0.0011433  -0.0004777   0.0001351  -0.0004171
    3   0.0003947  -0.0016087   0.0010573  -0.0001068   0.0002656  -0.0000022
 Gradient of SCF Energy
            1           2           3           4           5           6
    1  -0.0046759   0.0042068   0.0142359  -0.0146244  -0.0128197   0.0136773
    2  -0.0326663   0.0006195   0.0195480   0.0163521  -0.0036134  -0.0002400
    3   0.0088012   0.0067785   0.0143376  -0.0333814  -0.0200054   0.0234695
 Max gradient component =       3.338E-02
 RMS gradient           =       1.655E-02
 Computing fast CPCM-SWIG gradient
 Updating gradient with PCM contributions...
 -- total gradient after adding PCM contribution --
---------------------------------------------------
  Atom         X              Y              Z     
---------------------------------------------------
   1      -0.000136      -0.000188      -0.000027
   2       0.000109       0.000022      -0.000077
   3       0.000075       0.000108       0.000030
   4      -0.000059       0.000042       0.000029
   5      -0.000028       0.000011      -0.000013
   6       0.000039       0.000006       0.000058
---------------------------------------------------
 Number of fixed atoms: 0
 Gradient time:  CPU 18.83 s  wall 2.74 s
 ----------------------------------------------------------------
             Standard Nuclear Orientation (Angstroms)
    I     Atom           X                Y                Z
 ----------------------------------------------------------------
    1      O      -0.4268954000     1.0301152000     0.2121394000
    2      C      -0.6392513000    -0.1715734000     0.4605697000
    3      O      -1.2753298000    -1.0208365000    -0.1973000000
    4      H      -0.1844583000    -0.5559033000     1.4359004000
    5      O      -0.2128196000    -2.1505383000     2.2090421000
    6      H      -0.7380683000    -2.3443676000     1.4097700000
 ----------------------------------------------------------------
 Nuclear Repulsion Energy =         104.54491549 hartrees
 There are       17 alpha and       16 beta electrons
 Discretize the solute cavity surface with Lebedev spheres
	Using 110 Lebedev grid points for each H atom
	Using 194 Lebedev grid points for other atoms
	Atomic van der Waals radii will be scaled by 1.20
 Remove points where switching function is < 1.0e-08
 Keep 622 surface tesserae and discard 374 interior tesserae
 Molecular Surface Area = 79.811 Angst**2

                       Distance Matrix (Angstroms)
             O (  1)   C (  2)   O (  3)   H (  4)   O (  5)
   C (  2)  1.245339
   O (  3)  2.256964  1.248454
   H (  4)  2.017875  1.142723  2.018293
   O (  5)  3.761649  2.674940  2.862802  1.772403
   H (  6)  3.594201  2.373137  2.150130  1.872371  0.975854
 
 Requested basis set is 6-311++G(2df,2p)
 There are 44 shells and 156 basis functions
 A cutoff of  1.0D-12 yielded    942 shell pairs
 There are     11943 function pairs (     15204 Cartesian)
 Smallest overlap matrix eigenvalue = 8.42E-04
 Guess MOs from SCF MO coefficient file

 -----------------------------------------------------------------------
  General SCF calculation program by
  Eric Jon Sundstrom, Paul Horn, Yuezhi Mao, Dmitri Zuev, Alec White,
  David Stuck, Shaama M.S., Shane Yost, Joonho Lee, David Small,
  Daniel Levine, Susi Lehtola, Hugh Burton, Evgeny Epifanovsky,
  Bang C. Huynh
 -----------------------------------------------------------------------
 Exchange:     0.1500 Hartree-Fock + 1.0000 wB97M-V + LR-HF
 Correlation:  1.0000 wB97M-V
 Using SG-2 standard quadrature grid
 Nonlocal Correlation:  VV10 with C = 0.0100 and b = 6.00 and scale = 1.00000
 Grid used for NLC:  SG-1 standard quadrature
 
 Citation of the SMD model:
 Marenich, A.V.; Cramer, C.J.; Truhlar, D.G.
 J. Phys. Chem. B 2009, 113, 6378-6396.
 iSolventCode=           1
 Solvent: water                                                           
 
 vradii
            1           2           3           4           5           6
    1   1.5200000   1.8500000   1.5200000   1.2000000   1.5200000   1.2000000
 -------------------------------------------------------
 OpenMP BLAS3 based DFT computing Module                
 Release: version 1.0, May 2013, Q-Chem Inc. Pittsburgh 
 -------------------------------------------------------
 A unrestricted SCF calculation will be
 performed using Roothaan-Hall, DIIS, GDM
 SCF converges when RMS gradient is below 1.0e-07
 ---------------------------------------
  Cycle       Energy         DIIS error
 ---------------------------------------
    1    -264.9745058763      3.61e-04  Roothaan Step
 ---------------------------------------
  Cycle       Energy         DIIS error
 ---------------------------------------
    1    -265.0802235477      4.78e-04  
    2    -265.0818481706      5.57e-04  Done DIIS. Switching to GDM
 ---------------------------------------
  Cycle       Energy        RMS Gradient
 ---------------------------------------
    1    -265.0818481706      1.74e-02   Normal BFGS step
    2    -265.0809770767      2.80e-02  Line search: overstep
    3    -265.0841783522      6.73e-03   Normal BFGS step
    4    -265.0842738177      4.64e-03   Normal BFGS step
    5    -265.0843141352      2.21e-03   Normal BFGS step
    6    -265.0843333378      1.31e-03   Normal BFGS step
    7    -265.0843417848      4.62e-04   Normal BFGS step
    8    -265.0843435558      2.23e-04   Normal BFGS step
    9    -265.0843437784      1.19e-04   Normal BFGS step
   10    -265.0843438453      6.27e-05   Normal BFGS step
   11    -265.0843438623      3.59e-05   Normal BFGS step
   12    -265.0843438678      1.20e-05   Normal BFGS step
   13    -265.0843438686      3.18e-06   Normal BFGS step
   14    -265.0843438687      1.68e-06   Normal BFGS step
   15    -265.0843438687      7.49e-07   Normal BFGS step
   16    -265.0843438687      2.08e-07   Normal BFGS step
   17    -265.0843438687      1.05e-07   Normal BFGS step
   18    -265.0843438687      4.80e-08  Convergence criterion met
 ---------------------------------------
 SCF time:   CPU 159.19s  wall 21.00s 
<S^2> =          0.755680373
(3)  G-ENP(liq) elect-nuc-pol free energy of system     -265.084343869 a.u.
(4)  G-CDS(liq) cavity-dispersion-solvent structure 
     free energy                                                4.2246 kcal/mol
(6)  G-S(liq) free energy of system                     -265.077611472 a.u.
 SCF   energy in the final basis set =     -265.0776114725
 Total energy in the final basis set =     -265.0776114725
 
 --------------------------------------------------------------
 
                    Orbital Energies (a.u.)
 --------------------------------------------------------------
 
 Alpha MOs
 -- Occupied --
-19.3756 -19.2999 -19.2982 -10.4463  -1.1798  -1.1219  -1.0944  -0.6828
 -0.5899  -0.5679  -0.5449  -0.5260  -0.4900  -0.4457  -0.3830  -0.3779
 -0.3552
 -- Virtual --
  0.0417   0.0670   0.0806   0.0910   0.1108   0.1295   0.1454   0.2120
  0.2251   0.2267   0.2495   0.2567   0.2662   0.2839   0.2931   0.3158
  0.3218   0.3313   0.3611   0.3976   0.4142   0.4987   0.5395   0.5719
  0.6099   0.6233   0.7119   0.7308   0.7745   0.8065   0.8254   0.8645
  0.9595   0.9859   1.0211   1.0658   1.1060   1.1254   1.1433   1.1537
  1.1812   1.1978   1.2108   1.2159   1.2376   1.3468   1.4064   1.4856
  1.5494   1.6010   1.6018   1.6238   1.6289   1.7048   1.7708   1.7901
  1.8978   1.8992   1.9651   2.1123   2.1572   2.1784   2.3294   2.4083
  2.5193   2.5717   2.6466   2.7392   2.7904   2.8405   3.0109   3.1394
  3.1610   3.2439   3.2640   3.3222   3.4749   3.5159   3.5896   3.6341
  3.6706   3.7196   3.7316   3.9565   4.0537   4.0833   4.1257   4.2272
  4.4751   4.9801   5.0714   5.0831   5.1144   5.1393   5.1411   5.1629
  5.1785   5.1810   5.1840   5.2139   5.2360   5.2437   5.2584   5.3220
  5.3843   5.3857   5.4765   5.5319   5.5570   5.6186   5.6206   5.7194
  5.8443   6.0467   6.2566   6.4817   6.7934   6.8441   6.9053   6.9072
  6.9704   6.9785   7.0135   7.0383   7.0580   7.1167   7.2619   7.3234
  7.3713   7.3718   7.5043   7.6296   7.6935   7.7500   7.8121  25.1688
 50.4147  50.6636  50.6965
 
 Beta MOs
 -- Occupied --
-19.3536 -19.2981 -19.2976 -10.4444  -1.1767  -1.0931  -1.0614  -0.6687
 -0.5798  -0.5449  -0.5395  -0.5241  -0.4174  -0.3816  -0.3730  -0.3619
 -- Virtual --
 -0.0659   0.0442   0.0688   0.0812   0.0923   0.1115   0.1320   0.1467
  0.2132   0.2298   0.2310   0.2518   0.2573   0.2695   0.2886   0.3013
  0.3165   0.3221   0.3329   0.3643   0.4028   0.4156   0.5054   0.5474
  0.5760   0.6109   0.6282   0.7154   0.7314   0.7779   0.8073   0.8271
  0.8677   0.9607   0.9923   1.0241   1.0719   1.1073   1.1275   1.1442
  1.1627   1.2018   1.2159   1.2170   1.2320   1.2439   1.3571   1.4155
  1.4974   1.5567   1.6178   1.6235   1.6372   1.6403   1.7077   1.7753
  1.7965   1.9092   1.9097   1.9927   2.1133   2.1592   2.1976   2.3385
  2.4097   2.5226   2.5748   2.6565   2.7559   2.7924   2.8425   3.0122
  3.1417   3.1627   3.2485   3.2673   3.3270   3.4765   3.5157   3.5946
  3.6359   3.6723   3.7291   3.7316   3.9690   4.0569   4.0848   4.1171
  4.2376   4.4695   4.9949   5.1169   5.1348   5.1653   5.1721   5.1759
  5.1824   5.1841   5.1991   5.2146   5.2461   5.2491   5.2620   5.2894
  5.3407   5.3871   5.4111   5.4808   5.5349   5.5580   5.6384   5.6679
  5.7314   5.8447   6.0509   6.2578   6.4846   6.8575   6.8958   6.9098
  6.9364   6.9982   7.0197   7.0316   7.0508   7.0873   7.1793   7.3248
  7.3254   7.3748   7.3868   7.5509   7.6430   7.7004   7.7536   7.8152
 25.1701  50.4299  50.6644  50.6977
 --------------------------------------------------------------
 
          Ground-State Mulliken Net Atomic Charges

     Atom                 Charge (a.u.)    Spin (a.u.)
  --------------------------------------------------------
      1 O                    -0.613539       0.056480
      2 C                     0.192543       0.085332
      3 O                    -0.595983       0.028097
      4 H                     0.140788      -0.012486
      5 O                    -0.442781       0.851650
      6 H                     0.318973      -0.009073
  --------------------------------------------------------
  Sum of atomic charges =    -1.000000
  Sum of spin   charges =     1.000000

 -----------------------------------------------------------------
                    Cartesian Multipole Moments
 -----------------------------------------------------------------
    Charge (ESU x 10^10)
                -4.8032
    Dipole Moment (Debye)
         X       3.3018      Y       0.4557      Z      -1.6304
       Tot       3.7105
    Quadrupole Moments (Debye-Ang)
        XX     -30.1140     XY      -0.4567     YY     -34.1585
        XZ      -2.3170     YZ       4.1384     ZZ     -34.3099
    Octopole Moments (Debye-Ang^2)
       XXX      54.5053    XXY      19.2753    XYY      15.8920
       YYY      44.3345    XXZ     -15.4564    XYZ       3.2785
       YYZ     -28.2040    XZZ      17.4031    YZZ      33.3126
       ZZZ     -76.1939
    Hexadecapole Moments (Debye-Ang^3)
      XXXX    -121.6224   XXXY     -35.4337   XXYY     -71.4959
      XYYY     -14.6638   YYYY    -288.6909   XXXZ       8.2487
      XXYZ      27.3008   XYYZ      -3.7222   YYYZ      99.5062
      XXZZ     -59.2545   XYZZ     -10.4154   YYZZ    -122.9495
      XZZZ      17.5730   YZZZ     135.2144   ZZZZ    -291.9319
 -----------------------------------------------------------------
 Calculating analytic gradient of the SCF energy
 Gradient of CDS energy
            1           2           3           4           5           6
    1  -0.0003414  -0.0004776   0.0009560  -0.0002065   0.0001960  -0.0001265
    2  -0.0019321   0.0015485   0.0011433  -0.0004777   0.0001351  -0.0004171
    3   0.0003994  -0.0016134   0.0010573  -0.0001068   0.0002656  -0.0000022
 Gradient of SCF Energy
            1           2           3           4           5           6
    1  -0.0044250   0.0039858   0.0141859  -0.0146055  -0.0128052   0.0136640
    2  -0.0314453  -0.0004003   0.0193701   0.0163107  -0.0035955  -0.0002397
    3   0.0086035   0.0069803   0.0143122  -0.0333522  -0.0199886   0.0234449
 Max gradient component =       3.335E-02
 RMS gradient           =       1.639E-02
 Computing fast CPCM-SWIG gradient
 Updating gradient with PCM contributions...
 -- total gradient after adding PCM contribution --
---------------------------------------------------
  Atom         X              Y              Z     
---------------------------------------------------
   1       0.000180       0.001120      -0.000205
   2      -0.000138      -0.000927       0.000136
   3      -0.000028      -0.000205      -0.000040
   4      -0.000025      -0.000021       0.000070
   5      -0.000028       0.000022      -0.000018
   6       0.000039       0.000011       0.000056
---------------------------------------------------
 Number of fixed atoms: 0
 Gradient time:  CPU 18.69 s  wall 2.74 s
 ----------------------------------------------------------------
             Standard Nuclear Orientation (Angstroms)
    I     Atom           X                Y                Z
 ----------------------------------------------------------------
    1      O      -0.4268954000     1.0281152000     0.2121394000
    2      C      -0.6392513000    -0.1715734000     0.4605697000
    3      O      -1.2753298000    -1.0208365000    -0.1973000000
    4      H      -0.1844583000    -0.5559033000     1.4359004000
    5      O      -0.2128196000    -2.1505383000     2.2090421000
    6      H      -0.7380683000    -2.3443676000     1.4097700000
 ----------------------------------------------------------------
 Nuclear Repulsion Energy =         104.59496320 hartrees
 There are       17 alpha and       16 beta electrons
 Discretize the solute cavity surface with Lebedev spheres
	Using 110 Lebedev grid points for each H atom
	Using 194 Lebedev grid points for other atoms
	Atomic van der Waals radii will be scaled by 1.20
 Remove points where switching function is < 1.0e-08
 Keep 621 surface tesserae and discard 375 interior tesserae
 Molecular Surface Area = 79.792 Angst**2

                       Distance Matrix (Angstroms)
             O (  1)   C (  2)   O (  3)   H (  4)   O (  5)
   C (  2)  1.243409
   O (  3)  2.255146  1.248454
   H (  4)  2.016304  1.142723  2.018293
   O (  5)  3.759958  2.674940  2.862802  1.772403
   H (  6)  3.592323  2.373137  2.150130  1.872371  0.975854
 
 Requested basis set is 6-311++G(2df,2p)
 There are 44 shells and 156 basis functions
 A cutoff of  1.0D-12 yielded    942 shell pairs
 There are     11943 function pairs (     15204 Cartesian)
 Smallest overlap matrix eigenvalue = 8.40E-04
 Guess MOs from SCF MO coefficient file

 -----------------------------------------------------------------------
  General SCF calculation program by
  Eric Jon Sundstrom, Paul Horn, Yuezhi Mao, Dmitri Zuev, Alec White,
  David Stuck, Shaama M.S., Shane Yost, Joonho Lee, David Small,
  Daniel Levine, Susi Lehtola, Hugh Burton, Evgeny Epifanovsky,
  Bang C. Huynh
 -----------------------------------------------------------------------
 Exchange:     0.1500 Hartree-Fock + 1.0000 wB97M-V + LR-HF
 Correlation:  1.0000 wB97M-V
 Using SG-2 standard quadrature grid
 Nonlocal Correlation:  VV10 with C = 0.0100 and b = 6.00 and scale = 1.00000
 Grid used for NLC:  SG-1 standard quadrature
 
 Citation of the SMD model:
 Marenich, A.V.; Cramer, C.J.; Truhlar, D.G.
 J. Phys. Chem. B 2009, 113, 6378-6396.
 iSolventCode=           1
 Solvent: water                                                           
 
 vradii
            1           2           3           4           5           6
    1   1.5200000   1.8500000   1.5200000   1.2000000   1.5200000   1.2000000
 -------------------------------------------------------
 OpenMP BLAS3 based DFT computing Module                
 Release: version 1.0, May 2013, Q-Chem Inc. Pittsburgh 
 -------------------------------------------------------
 A unrestricted SCF calculation will be
 performed using Roothaan-Hall, DIIS, GDM
 SCF converges when RMS gradient is below 1.0e-07
 ---------------------------------------
  Cycle       Energy         DIIS error
 ---------------------------------------
    1    -264.9744925079      3.63e-04  Roothaan Step
 ---------------------------------------
  Cycle       Energy         DIIS error
 ---------------------------------------
    1    -265.0802699146      4.76e-04  
    2    -265.0819019942      5.52e-04  Done DIIS. Switching to GDM
 ---------------------------------------
  Cycle       Energy        RMS Gradient
 ---------------------------------------
    1    -265.0819019942      1.75e-02   Normal BFGS step
    2    -265.0810668054      2.75e-02  Line search: overstep
    3    -265.0841907131      6.62e-03   Normal BFGS step
    4    -265.0842839331      4.53e-03   Normal BFGS step
    5    -265.0843222077      2.19e-03   Normal BFGS step
    6    -265.0843409068      1.29e-03   Normal BFGS step
    7    -265.0843490652      4.61e-04   Normal BFGS step
    8    -265.0843508455      2.15e-04   Normal BFGS step
    9    -265.0843510671      1.18e-04   Normal BFGS step
   10    -265.0843511329      6.27e-05   Normal BFGS step
   11    -265.0843511495      3.59e-05   Normal BFGS step
   12    -265.0843511549      1.20e-05   Normal BFGS step
   13    -265.0843511557      3.08e-06   Normal BFGS step
   14    -265.0843511558      1.60e-06   Normal BFGS step
   15    -265.0843511558      7.23e-07   Normal BFGS step
   16    -265.0843511558      2.06e-07   Normal BFGS step
   17    -265.0843511558      1.02e-07   Normal BFGS step
   18    -265.0843511558      3.59e-08  Convergence criterion met
 ---------------------------------------
 SCF time:   CPU 160.03s  wall 20.00s 
<S^2> =          0.755690005
(3)  G-ENP(liq) elect-nuc-pol free energy of system     -265.084351156 a.u.
(4)  G-CDS(liq) cavity-dispersion-solvent structure 
     free energy                                                4.2292 kcal/mol
(6)  G-S(liq) free energy of system                     -265.077611537 a.u.
 SCF   energy in the final basis set =     -265.0776115366
 Total energy in the final basis set =     -265.0776115366
 
 --------------------------------------------------------------
 
                    Orbital Energies (a.u.)
 --------------------------------------------------------------
 
 Alpha MOs
 -- Occupied --
-19.3755 -19.3000 -19.2979 -10.4460  -1.1803  -1.1218  -1.0947  -0.6827
 -0.5899  -0.5679  -0.5451  -0.5264  -0.4899  -0.4456  -0.3830  -0.3779
 -0.3551
 -- Virtual --
  0.0417   0.0670   0.0806   0.0910   0.1108   0.1298   0.1453   0.2120
  0.2251   0.2268   0.2495   0.2567   0.2663   0.2839   0.2931   0.3158
  0.3218   0.3313   0.3612   0.3976   0.4142   0.4995   0.5399   0.5721
  0.6099   0.6238   0.7120   0.7309   0.7750   0.8065   0.8256   0.8643
  0.9598   0.9859   1.0211   1.0659   1.1061   1.1252   1.1434   1.1537
  1.1812   1.1978   1.2109   1.2159   1.2376   1.3470   1.4067   1.4860
  1.5495   1.6013   1.6019   1.6241   1.6291   1.7051   1.7719   1.7905
  1.8979   1.8998   1.9656   2.1133   2.1576   2.1788   2.3296   2.4088
  2.5193   2.5724   2.6475   2.7394   2.7912   2.8408   3.0110   3.1395
  3.1609   3.2434   3.2637   3.3218   3.4762   3.5155   3.5900   3.6354
  3.6718   3.7197   3.7315   3.9566   4.0556   4.0845   4.1258   4.2273
  4.4759   4.9800   5.0715   5.0832   5.1145   5.1392   5.1412   5.1628
  5.1785   5.1811   5.1842   5.2140   5.2364   5.2440   5.2589   5.3223
  5.3854   5.3865   5.4770   5.5335   5.5589   5.6188   5.6207   5.7212
  5.8463   6.0496   6.2603   6.4852   6.7936   6.8468   6.9054   6.9089
  6.9709   6.9786   7.0137   7.0401   7.0601   7.1179   7.2622   7.3238
  7.3719   7.3725   7.5045   7.6295   7.6952   7.7504   7.8134  25.1729
 50.4148  50.6649  50.6983
 
 Beta MOs
 -- Occupied --
-19.3535 -19.2981 -19.2973 -10.4442  -1.1772  -1.0934  -1.0613  -0.6686
 -0.5799  -0.5449  -0.5396  -0.5245  -0.4174  -0.3816  -0.3729  -0.3619
 -- Virtual --
 -0.0659   0.0442   0.0688   0.0812   0.0923   0.1115   0.1323   0.1467
  0.2132   0.2299   0.2310   0.2518   0.2574   0.2696   0.2886   0.3014
  0.3165   0.3221   0.3329   0.3643   0.4029   0.4156   0.5062   0.5478
  0.5761   0.6110   0.6287   0.7155   0.7315   0.7784   0.8073   0.8273
  0.8676   0.9609   0.9924   1.0241   1.0720   1.1074   1.1273   1.1443
  1.1627   1.2018   1.2161   1.2169   1.2320   1.2440   1.3572   1.4158
  1.4977   1.5567   1.6182   1.6238   1.6374   1.6404   1.7080   1.7764
  1.7970   1.9094   1.9102   1.9931   2.1143   2.1595   2.1979   2.3387
  2.4101   2.5226   2.5756   2.6573   2.7561   2.7932   2.8428   3.0124
  3.1418   3.1627   3.2480   3.2670   3.3266   3.4778   3.5153   3.5950
  3.6372   3.6735   3.7292   3.7315   3.9691   4.0590   4.0859   4.1172
  4.2377   4.4703   4.9947   5.1170   5.1349   5.1652   5.1722   5.1759
  5.1825   5.1843   5.1992   5.2148   5.2464   5.2494   5.2622   5.2896
  5.3411   5.3882   5.4118   5.4813   5.5365   5.5600   5.6385   5.6684
  5.7331   5.8466   6.0539   6.2615   6.4881   6.8609   6.8958   6.9099
  6.9377   6.9984   7.0201   7.0317   7.0543   7.0882   7.1797   7.3252
  7.3260   7.3751   7.3875   7.5511   7.6429   7.7021   7.7539   7.8166
 25.1742  50.4301  50.6657  50.6995
 --------------------------------------------------------------
 
          Ground-State Mulliken Net Atomic Charges

     Atom                 Charge (a.u.)    Spin (a.u.)
  --------------------------------------------------------
      1 O                    -0.611722       0.056726
      2 C                     0.192783       0.085439
      3 O                    -0.597144       0.028235
      4 H                     0.140491      -0.012379
      5 O                    -0.443359       0.851042
      6 H                     0.318950      -0.009063
  --------------------------------------------------------
  Sum of atomic charges =    -1.000000
  Sum of spin   charges =     1.000000

 -----------------------------------------------------------------
                    Cartesian Multipole Moments
 -----------------------------------------------------------------
    Charge (ESU x 10^10)
                -4.8032
    Dipole Moment (Debye)
         X       3.3054      Y       0.4836      Z      -1.6354
       Tot       3.7194
    Quadrupole Moments (Debye-Ang)
        XX     -30.1172     XY      -0.4734     YY     -34.1582
        XZ      -2.3176     YZ       4.1573     ZZ     -34.3232
    Octopole Moments (Debye-Ang^2)
       XXX      54.5190    XXY      19.3195    XYY      15.8955
       YYY      44.4869    XXZ     -15.4563    XYZ       3.2738
       YYZ     -28.2350    XZZ      17.4075    YZZ      33.3793
       ZZZ     -76.2357
    Hexadecapole Moments (Debye-Ang^3)
      XXXX    -121.6569   XXXY     -35.4969   XXYY     -71.4821
      XYYY     -14.7397   YYYY    -288.6350   XXXZ       8.2446
      XXYZ      27.3152   XYYZ      -3.7161   YYYZ      99.6342
      XXZZ     -59.2649   XYZZ     -10.4404   YYZZ    -123.0115
      XZZZ      17.5799   YZZZ     135.3320   ZZZZ    -292.0587
 -----------------------------------------------------------------
 Calculating analytic gradient of the SCF energy
 Gradient of CDS energy
            1           2           3           4           5           6
    1  -0.0003346  -0.0004845   0.0009560  -0.0002065   0.0001960  -0.0001265
    2  -0.0018903   0.0015067   0.0011433  -0.0004777   0.0001351  -0.0004171
    3   0.0003914  -0.0016054   0.0010573  -0.0001068   0.0002656  -0.0000022
 Gradient of SCF Energy
            1           2           3           4           5           6
    1  -0.0048099   0.0042732   0.0142965  -0.0146143  -0.0128294   0.0136840
    2  -0.0335094   0.0013777   0.0195957   0.0164147  -0.0036358  -0.0002430
    3   0.0089893   0.0066190   0.0143615  -0.0334411  -0.0200080   0.0234793
 Max gradient component =       3.351E-02
 RMS gradient           =       1.667E-02
 Computing fast CPCM-SWIG gradient
 Updating gradient with PCM contributions...
 -- total gradient after adding PCM contribution --
---------------------------------------------------
  Atom         X              Y              Z     
---------------------------------------------------
   1      -0.000233      -0.001091       0.000167
   2       0.000071       0.000755      -0.000229
   3       0.000185       0.000203       0.000072
   4      -0.000031       0.000143      -0.000066
   5      -0.000024      -0.000012       0.000005
   6       0.000033       0.000001       0.000050
---------------------------------------------------
 Number of fixed atoms: 0
 Gradient time:  CPU 18.79 s  wall 2.76 s
 ----------------------------------------------------------------
             Standard Nuclear Orientation (Angstroms)
    I     Atom           X                Y                Z
 ----------------------------------------------------------------
    1      O      -0.4268954000     1.0291152000     0.2131394000
    2      C      -0.6392513000    -0.1715734000     0.4605697000
    3      O      -1.2753298000    -1.0208365000    -0.1973000000
    4      H      -0.1844583000    -0.5559033000     1.4359004000
    5      O      -0.2128196000    -2.1505383000     2.2090421000
    6      H      -0.7380683000    -2.3443676000     1.4097700000
 ----------------------------------------------------------------
 Nuclear Repulsion Energy =         104.57399677 hartrees
 There are       17 alpha and       16 beta electrons
 Discretize the solute cavity surface with Lebedev spheres
	Using 110 Lebedev grid points for each H atom
	Using 194 Lebedev grid points for other atoms
	Atomic van der Waals radii will be scaled by 1.20
 Remove points where switching function is < 1.0e-08
 Keep 621 surface tesserae and discard 375 interior tesserae
 Molecular Surface Area = 79.799 Angst**2

                       Distance Matrix (Angstroms)
             O (  1)   C (  2)   O (  3)   H (  4)   O (  5)
   C (  2)  1.244174
   O (  3)  2.256237  1.248454
   H (  4)  2.016483  1.142723  2.018293
   O (  5)  3.760273  2.674940  2.862802  1.772403
   H (  6)  3.592929  2.373137  2.150130  1.872371  0.975854
 
 Requested basis set is 6-311++G(2df,2p)
 There are 44 shells and 156 basis functions
 A cutoff of  1.0D-12 yielded    942 shell pairs
 There are     11943 function pairs (     15204 Cartesian)
 Smallest overlap matrix eigenvalue = 8.41E-04
 Guess MOs from SCF MO coefficient file

 -----------------------------------------------------------------------
  General SCF calculation program by
  Eric Jon Sundstrom, Paul Horn, Yuezhi Mao, Dmitri Zuev, Alec White,
  David Stuck, Shaama M.S., Shane Yost, Joonho Lee, David Small,
  Daniel Levine, Susi Lehtola, Hugh Burton, Evgeny Epifanovsky,
  Bang C. Huynh
 -----------------------------------------------------------------------
 Exchange:     0.1500 Hartree-Fock + 1.0000 wB97M-V + LR-HF
 Correlation:  1.0000 wB97M-V
 Using SG-2 standard quadrature grid
 Nonlocal Correlation:  VV10 with C = 0.0100 and b = 6.00 and scale = 1.00000
 Grid used for NLC:  SG-1 standard quadrature
 
 Citation of the SMD model:
 Marenich, A.V.; Cramer, C.J.; Truhlar, D.G.
 J. Phys. Chem. B 2009, 113, 6378-6396.
 iSolventCode=           1
 Solvent: water                                                           
 
 vradii
            1           2           3           4           5           6
    1   1.5200000   1.8500000   1.5200000   1.2000000   1.5200000   1.2000000
 -------------------------------------------------------
 OpenMP BLAS3 based DFT computing Module                
 Release: version 1.0, May 2013, Q-Chem Inc. Pittsburgh 
 -------------------------------------------------------
 A unrestricted SCF calculation will be
 performed using Roothaan-Hall, DIIS, GDM
 SCF converges when RMS gradient is below 1.0e-07
 ---------------------------------------
  Cycle       Energy         DIIS error
 ---------------------------------------
    1    -264.9745492728      3.61e-04  Roothaan Step
 ---------------------------------------
  Cycle       Energy         DIIS error
 ---------------------------------------
    1    -265.0802542109      4.76e-04  
    2    -265.0818789931      5.54e-04  Done DIIS. Switching to GDM
 ---------------------------------------
  Cycle       Energy        RMS Gradient
 ---------------------------------------
    1    -265.0818789931      1.74e-02   Normal BFGS step
    2    -265.0810264091      2.78e-02  Line search: overstep
    3    -265.0841857954      6.68e-03   Normal BFGS step
    4    -265.0842802589      4.60e-03   Normal BFGS step
    5    -265.0843197881      2.20e-03   Normal BFGS step
    6    -265.0843387609      1.30e-03   Normal BFGS step
    7    -265.0843471208      4.60e-04   Normal BFGS step
    8    -265.0843489010      2.22e-04   Normal BFGS step
    9    -265.0843491241      1.18e-04   Normal BFGS step
   10    -265.0843491914      6.27e-05   Normal BFGS step
   11    -265.0843492083      3.58e-05   Normal BFGS step
   12    -265.0843492138      1.19e-05   Normal BFGS step
   13    -265.0843492146      3.15e-06   Normal BFGS step
   14    -265.0843492147      1.67e-06   Normal BFGS step
   15    -265.0843492147      7.48e-07   Normal BFGS step
   16    -265.0843492147      4.59e-07   Normal BFGS step
   17    -265.0843492147      4.13e-07   Normal BFGS step
   18    -265.0843492147      3.53e-07   Normal BFGS step
   19    -265.0843492147      2.59e-07   Normal BFGS step
   20    -265.0843492147      2.28e-07   Normal BFGS step
   21    -265.0843492147      1.62e-07   Normal BFGS step
   22    -265.0843492147      8.17e-08  Convergence criterion met
 ---------------------------------------
 SCF time:   CPU 191.28s  wall 24.00s 
<S^2> =          0.755690798
(3)  G-ENP(liq) elect-nuc-pol free energy of system     -265.084349215 a.u.
(4)  G-CDS(liq) cavity-dispersion-solvent structure 
     free energy                                                4.2274 kcal/mol
(6)  G-S(liq) free energy of system                     -265.077612442 a.u.
 SCF   energy in the final basis set =     -265.0776124423
 Total energy in the final basis set =     -265.0776124423
 
 --------------------------------------------------------------
 
                    Orbital Energies (a.u.)
 --------------------------------------------------------------
 
 Alpha MOs
 -- Occupied --
-19.3755 -19.3000 -19.2981 -10.4462  -1.1801  -1.1218  -1.0946  -0.6828
 -0.5899  -0.5679  -0.5451  -0.5263  -0.4899  -0.4456  -0.3830  -0.3779
 -0.3551
 -- Virtual --
  0.0417   0.0670   0.0806   0.0910   0.1108   0.1297   0.1453   0.2120
  0.2251   0.2267   0.2495   0.2567   0.2662   0.2839   0.2931   0.3158
  0.3218   0.3313   0.3612   0.3976   0.4142   0.4992   0.5398   0.5720
  0.6099   0.6236   0.7119   0.7308   0.7748   0.8065   0.8255   0.8644
  0.9598   0.9859   1.0211   1.0658   1.1061   1.1252   1.1433   1.1537
  1.1812   1.1979   1.2109   1.2159   1.2376   1.3470   1.4067   1.4859
  1.5495   1.6012   1.6019   1.6238   1.6289   1.7051   1.7710   1.7904
  1.8979   1.8995   1.9656   2.1128   2.1576   2.1787   2.3295   2.4086
  2.5191   2.5721   2.6473   2.7393   2.7907   2.8406   3.0109   3.1395
  3.1609   3.2436   3.2639   3.3220   3.4754   3.5155   3.5899   3.6350
  3.6711   3.7197   3.7317   3.9566   4.0548   4.0841   4.1258   4.2273
  4.4756   4.9802   5.0715   5.0832   5.1145   5.1393   5.1412   5.1628
  5.1785   5.1810   5.1840   5.2140   5.2362   5.2438   5.2587   5.3222
  5.3853   5.3862   5.4767   5.5332   5.5577   5.6188   5.6207   5.7205
  5.8451   6.0486   6.2586   6.4845   6.7936   6.8460   6.9054   6.9083
  6.9707   6.9786   7.0137   7.0391   7.0589   7.1173   7.2621   7.3234
  7.3720   7.3723   7.5045   7.6300   7.6943   7.7504   7.8129  25.1712
 50.4148  50.6644  50.6975
 
 Beta MOs
 -- Occupied --
-19.3535 -19.2981 -19.2975 -10.4443  -1.1770  -1.0934  -1.0613  -0.6686
 -0.5799  -0.5449  -0.5396  -0.5243  -0.4174  -0.3817  -0.3730  -0.3618
 -- Virtual --
 -0.0659   0.0442   0.0688   0.0812   0.0923   0.1115   0.1322   0.1467
  0.2132   0.2299   0.2310   0.2518   0.2573   0.2695   0.2886   0.3014
  0.3165   0.3221   0.3329   0.3643   0.4028   0.4156   0.5059   0.5477
  0.5761   0.6110   0.6285   0.7154   0.7314   0.7782   0.8073   0.8272
  0.8677   0.9609   0.9924   1.0240   1.0719   1.1073   1.1273   1.1442
  1.1627   1.2019   1.2160   1.2169   1.2320   1.2440   1.3572   1.4158
  1.4976   1.5567   1.6180   1.6235   1.6373   1.6404   1.7080   1.7755
  1.7968   1.9094   1.9100   1.9931   2.1137   2.1596   2.1979   2.3387
  2.4099   2.5224   2.5753   2.6571   2.7560   2.7927   2.8427   3.0122
  3.1418   3.1627   3.2482   3.2672   3.3268   3.4770   3.5153   3.5949
  3.6368   3.6728   3.7292   3.7316   3.9691   4.0581   4.0856   4.1172
  4.2377   4.4700   4.9948   5.1170   5.1349   5.1652   5.1722   5.1759
  5.1825   5.1841   5.1992   5.2147   5.2463   5.2492   5.2622   5.2896
  5.3409   5.3880   5.4116   5.4810   5.5362   5.5587   5.6385   5.6682
  5.7324   5.8454   6.0528   6.2598   6.4874   6.8599   6.8958   6.9099
  6.9371   6.9983   7.0199   7.0317   7.0523   7.0877   7.1796   7.3249
  7.3259   7.3751   7.3874   7.5512   7.6433   7.7013   7.7540   7.8160
 25.1724  50.4301  50.6653  50.6987
 --------------------------------------------------------------
 
          Ground-State Mulliken Net Atomic Charges

     Atom                 Charge (a.u.)    Spin (a.u.)
  --------------------------------------------------------
      1 O                    -0.612249       0.056721
      2 C                     0.192669       0.085456
      3 O                    -0.596519       0.028249
      4 H                     0.140509      -0.012392
      5 O                    -0.443367       0.851031
      6 H                     0.318956      -0.009065
  --------------------------------------------------------
  Sum of atomic charges =    -1.000000
  Sum of spin   charges =     1.000000

 -----------------------------------------------------------------
                    Cartesian Multipole Moments
 -----------------------------------------------------------------
    Charge (ESU x 10^10)
                -4.8032
    Dipole Moment (Debye)
         X       3.3030      Y       0.4746      Z      -1.6394
       Tot       3.7179
    Quadrupole Moments (Debye-Ang)
        XX     -30.1144     XY      -0.4656     YY     -34.1638
        XZ      -2.3153     YZ       4.1529     ZZ     -34.3252
    Octopole Moments (Debye-Ang^2)
       XXX      54.5100    XXY      19.2996    XYY      15.8937
       YYY      44.4384    XXZ     -15.4649    XYZ       3.2757
       YYZ     -28.2475    XZZ      17.4069    YZZ      33.3650
       ZZZ     -76.2569
    Hexadecapole Moments (Debye-Ang^3)
      XXXX    -121.6356   XXXY     -35.4650   XXYY     -71.4891
      XYYY     -14.7058   YYYY    -288.7192   XXXZ       8.2554
      XXYZ      27.3052   XYYZ      -3.7107   YYYZ      99.6044
      XXZZ     -59.2660   XYZZ     -10.4326   YYZZ    -123.0307
      XZZZ      17.5906   YZZZ     135.3028   ZZZZ    -292.0711
 -----------------------------------------------------------------
 Calculating analytic gradient of the SCF energy
 Gradient of CDS energy
            1           2           3           4           5           6
    1  -0.0003373  -0.0004818   0.0009560  -0.0002065   0.0001960  -0.0001265
    2  -0.0019071   0.0015235   0.0011433  -0.0004777   0.0001351  -0.0004171
    3   0.0003930  -0.0016070   0.0010573  -0.0001068   0.0002656  -0.0000022
 Gradient of SCF Energy
            1           2           3           4           5           6
    1  -0.0046220   0.0041553   0.0142353  -0.0146220  -0.0128176   0.0136710
    2  -0.0326667   0.0006820   0.0194412   0.0164177  -0.0036303  -0.0002439
    3   0.0088903   0.0066944   0.0143731  -0.0334252  -0.0199922   0.0234596
 Max gradient component =       3.343E-02
 RMS gradient           =       1.655E-02
 Computing fast CPCM-SWIG gradient
 Updating gradient with PCM contributions...
 -- total gradient after adding PCM contribution --
---------------------------------------------------
  Atom         X              Y              Z     
---------------------------------------------------
   1      -0.000018      -0.000168       0.000132
   2      -0.000006       0.000083      -0.000214
   3       0.000063      -0.000061       0.000064
   4      -0.000046       0.000156      -0.000037
   5      -0.000021      -0.000014       0.000011
   6       0.000030       0.000004       0.000044
---------------------------------------------------
 Number of fixed atoms: 0
 Gradient time:  CPU 19.88 s  wall 2.99 s
 ----------------------------------------------------------------
             Standard Nuclear Orientation (Angstroms)
    I     Atom           X                Y                Z
 ----------------------------------------------------------------
    1      O      -0.4268954000     1.0291152000     0.2111394000
    2      C      -0.6392513000    -0.1715734000     0.4605697000
    3      O      -1.2753298000    -1.0208365000    -0.1973000000
    4      H      -0.1844583000    -0.5559033000     1.4359004000
    5      O      -0.2128196000    -2.1505383000     2.2090421000
    6      H      -0.7380683000    -2.3443676000     1.4097700000
 ----------------------------------------------------------------
 Nuclear Repulsion Energy =         104.56583825 hartrees
 There are       17 alpha and       16 beta electrons
[...]
  1.8949   1.8977   1.9152   2.1140   2.1488   2.1758   2.3272   2.4087
  2.5203   2.5643   2.5998   2.7281   2.7963   2.8409   3.0075   3.1379
  3.1643   3.2505   3.2527   3.3239   3.4784   3.5140   3.5903   3.6271
  3.6696   3.7163   3.7481   3.9531   4.0534   4.0814   4.1481   4.2152
  4.4879   4.9951   5.0627   5.0765   5.0950   5.1234   5.1243   5.1664
  5.1773   5.1839   5.1879   5.2096   5.2374   5.2462   5.2605   5.3263
  5.3717   5.3746   5.4823   5.5276   5.5665   5.5936   5.6016   5.7089
  5.8564   6.0378   6.2477   6.4511   6.7712   6.8329   6.8822   6.9084
  6.9617   6.9732   7.0147   7.0389   7.0615   7.0823   7.2373   7.3299
  7.3568   7.3682   7.4961   7.6118   7.6989   7.7514   7.8129  25.1730
 50.3904  50.6565  50.6991
 
 Beta MOs
 -- Occupied --
-19.3610 -19.2945 -19.2941 -10.4407  -1.1726  -1.0882  -1.0614  -0.6715
 -0.5793  -0.5457  -0.5370  -0.5204  -0.4216  -0.3786  -0.3707  -0.3619
 -- Virtual --
 -0.0654   0.0438   0.0691   0.0813   0.0920   0.1123   0.1316   0.1477
  0.2124   0.2280   0.2300   0.2511   0.2585   0.2688   0.2912   0.2955
  0.3154   0.3219   0.3346   0.3641   0.4040   0.4154   0.5046   0.5386
  0.5792   0.6116   0.6260   0.7112   0.7331   0.7753   0.8086   0.8297
  0.8748   0.9610   0.9897   1.0286   1.0644   1.1103   1.1313   1.1464
  1.1577   1.1923   1.1957   1.2172   1.2373   1.2467   1.3563   1.4017
  1.5035   1.5513   1.6169   1.6221   1.6302   1.6415   1.7020   1.7831
  1.7867   1.9069   1.9103   1.9432   2.1146   2.1502   2.1964   2.3371
  2.4103   2.5233   2.5671   2.6096   2.7441   2.7975   2.8423   3.0085
  3.1397   3.1660   3.2537   3.2556   3.3271   3.4795   3.5136   3.5942
  3.6283   3.6711   3.7264   3.7498   3.9655   4.0557   4.0846   4.1436
  4.2264   4.4864   5.0197   5.1115   5.1311   5.1590   5.1678   5.1795
  5.1818   5.1862   5.1899   5.2096   5.2437   5.2476   5.2632   5.2822
  5.3430   5.3763   5.3983   5.4858   5.5294   5.5671   5.6204   5.6510
  5.7159   5.8578   6.0404   6.2484   6.4529   6.8433   6.8797   6.9122
  6.9391   6.9946   7.0040   7.0292   7.0595   7.0746   7.1508   7.3013
  7.3307   7.3677   7.3701   7.5410   7.6252   7.7035   7.7541   7.8149
 25.1740  50.4064  50.6569  50.6999
 --------------------------------------------------------------
 
          Ground-State Mulliken Net Atomic Charges

     Atom                 Charge (a.u.)    Spin (a.u.)
  --------------------------------------------------------
      1 O                    -0.631988       0.035840
      2 C                     0.190124       0.058456
      3 O                    -0.613318       0.015111
      4 H                     0.136858      -0.012555
      5 O                    -0.402859       0.912488
      6 H                     0.321184      -0.009340
  --------------------------------------------------------
  Sum of atomic charges =    -1.000000
  Sum of spin   charges =     1.000000

 -----------------------------------------------------------------
                    Cartesian Multipole Moments
 -----------------------------------------------------------------
    Charge (ESU x 10^10)
                -4.8032
    Dipole Moment (Debye)
         X       3.4768      Y       0.1969      Z      -1.2053
       Tot       3.6850
    Quadrupole Moments (Debye-Ang)
        XX     -30.3003     XY      -0.4484     YY     -34.1285
        XZ      -2.3375     YZ       3.7600     ZZ     -33.5566
    Octopole Moments (Debye-Ang^2)
       XXX      55.0824    XXY      19.4252    XYY      16.1866
       YYY      44.1108    XXZ     -15.3663    XYZ       3.2178
       YYZ     -27.4305    XZZ      17.4652    YZZ      32.4952
       ZZZ     -74.2913
    Hexadecapole Moments (Debye-Ang^3)
      XXXX    -122.0689   XXXY     -35.7435   XXYY     -73.2356
      XYYY     -14.5671   YYYY    -296.8950   XXXZ       8.8996
      XXYZ      28.2484   XYYZ      -3.6262   YYYZ     101.1826
      XXZZ     -59.2468   XYZZ     -10.4484   YYZZ    -123.2873
      XZZZ      17.9831   YZZZ     135.9667   ZZZZ    -288.6690
 -----------------------------------------------------------------
 Calculating analytic gradient of the SCF energy
 Gradient of CDS energy
            1           2           3           4           5           6
    1  -0.0003140  -0.0005538   0.0010150  -0.0002117   0.0001961  -0.0001315
    2  -0.0019681   0.0014876   0.0012460  -0.0004789   0.0001177  -0.0004042
    3   0.0004652  -0.0017128   0.0011049  -0.0001138   0.0002745  -0.0000179
 Gradient of SCF Energy
            1           2           3           4           5           6
    1  -0.0037147   0.0074757   0.0115646  -0.0165895  -0.0102704   0.0115344
    2  -0.0308552   0.0007523   0.0175666   0.0150755   0.0002681  -0.0028074
    3   0.0095067   0.0123621   0.0107239  -0.0360609  -0.0176408   0.0211089
 Max gradient component =       3.606E-02
 RMS gradient           =       1.604E-02
 Computing fast CPCM-SWIG gradient
 Updating gradient with PCM contributions...
 -- total gradient after adding PCM contribution --
---------------------------------------------------
  Atom         X              Y              Z     
---------------------------------------------------
   1       0.000356       0.000293       0.000456
   2       0.001912       0.000065       0.003240
   3      -0.001751      -0.001181      -0.002529
   4      -0.001094      -0.000910      -0.001270
   5       0.002266       0.002529       0.002556
   6      -0.001688      -0.000795      -0.002454
---------------------------------------------------
 Number of fixed atoms: 0
 Gradient time:  CPU 19.52 s  wall 3.08 s
rPathMan2.  file_steps = 952
 IRC --- Status = 3.  Assess initial corrector step
 IRC --- bisector search: b =  0.000000 E =     -265.077855 G.B =  -0.004948
 IRC --- bisector search: b =  0.019355 E =     -265.077840 G.B =   0.006540
 IRC --- performed gradient/energy interpolation
 IRC --- bisector search:  estimate b(min) =   8.373716269347313E-003
 ----------------------------------------------------------------
             Standard Nuclear Orientation (Angstroms)
    I     Atom           X                Y                Z
 ----------------------------------------------------------------
    1      O      -0.4402288632     1.0384545248     0.1847694975
    2      C      -0.6331293769    -0.1610883365     0.4657204691
    3      O      -1.2671180219    -1.0280266605    -0.1787213574
    4      H      -0.1715526343    -0.5136987239     1.4349615875
    5      O      -0.2242995028    -2.2124343118     2.2223887344
    6      H      -0.7404999113    -2.3373102610     1.4010035868
 ----------------------------------------------------------------
 Nuclear Repulsion Energy =         103.95709416 hartrees
 There are       17 alpha and       16 beta electrons
 Discretize the solute cavity surface with Lebedev spheres
	Using 110 Lebedev grid points for each H atom
	Using 194 Lebedev grid points for other atoms
	Atomic van der Waals radii will be scaled by 1.20
 Remove points where switching function is < 1.0e-08
 Keep 622 surface tesserae and discard 374 interior tesserae
 Molecular Surface Area = 80.184 Angst**2

                       Distance Matrix (Angstroms)
             O (  1)   C (  2)   O (  3)   H (  4)   O (  5)
   C (  2)  1.247015
   O (  3)  2.255264  1.252529
   H (  4)  2.011056  1.129963  2.017119
   O (  5)  3.842759  2.731491  2.873260  1.873106
   H (  6)  3.600719  2.371123  2.118273  1.910605  0.978126
 
 Applying Cartesian multipole field
    Component          Value
    ---------          -----
     (2,0,0)        1.00000E-11
     (0,2,0)        2.00000E-11
     (0,0,2)       -3.00000E-11
 Nucleus-field energy     =     0.0000000002 hartrees
 Requested basis set is 6-311++G(2df,2p)
 There are 44 shells and 156 basis functions
 A cutoff of  1.0D-12 yielded    940 shell pairs
 There are     11934 function pairs (     15194 Cartesian)
 Smallest overlap matrix eigenvalue = 8.39E-04
 Guess MOs from SCF MO coefficient file

 -----------------------------------------------------------------------
  General SCF calculation program by
  Eric Jon Sundstrom, Paul Horn, Yuezhi Mao, Dmitri Zuev, Alec White,
  David Stuck, Shaama M.S., Shane Yost, Joonho Lee, David Small,
  Daniel Levine, Susi Lehtola, Hugh Burton, Evgeny Epifanovsky,
  Bang C. Huynh
 -----------------------------------------------------------------------
 Exchange:     0.1500 Hartree-Fock + 1.0000 wB97M-V + LR-HF
 Correlation:  1.0000 wB97M-V
 Using SG-2 standard quadrature grid
 Nonlocal Correlation:  VV10 with C = 0.0100 and b = 6.00 and scale = 1.00000
 Grid used for NLC:  SG-1 standard quadrature
 
 Citation of the SMD model:
 Marenich, A.V.; Cramer, C.J.; Truhlar, D.G.
 J. Phys. Chem. B 2009, 113, 6378-6396.
 iSolventCode=           1
 Solvent: water                                                           
 
 vradii
            1           2           3           4           5           6
    1   1.5200000   1.8500000   1.5200000   1.2000000   1.5200000   1.2000000
 -------------------------------------------------------
 OpenMP BLAS3 based DFT computing Module                
 Release: version 1.0, May 2013, Q-Chem Inc. Pittsburgh 
 -------------------------------------------------------
 A unrestricted SCF calculation will be
 performed using Roothaan-Hall, DIIS, GDM
 SCF converges when RMS gradient is below 1.0e-07
 ---------------------------------------
  Cycle       Energy         DIIS error
 ---------------------------------------
    1    -264.9728352458      3.90e-04  Roothaan Step
 ---------------------------------------
  Cycle       Energy         DIIS error
 ---------------------------------------
    1    -265.0799547964      5.00e-04  
    2    -265.0819061814      5.73e-04  Done DIIS. Switching to GDM
 ---------------------------------------
  Cycle       Energy        RMS Gradient
 ---------------------------------------
    1    -265.0819061814      1.74e-02   Normal BFGS step
    2    -265.0810846576      2.44e-02  Line search: overstep
    3    -265.0843825232      6.75e-03   Normal BFGS step
    4    -265.0844897284      4.75e-03   Normal BFGS step
    5    -265.0845260621      1.65e-03   Normal BFGS step
    6    -265.0845424485      9.22e-04   Normal BFGS step
    7    -265.0845470392      6.36e-04   Normal BFGS step
    8    -265.0845482399      1.46e-04   Normal BFGS step
    9    -265.0845483448      8.19e-05   Normal BFGS step
   10    -265.0845483655      4.60e-05   Normal BFGS step
   11    -265.0845483713      1.87e-05   Normal BFGS step
   12    -265.0845483733      8.39e-06   Normal BFGS step
   13    -265.0845483738      3.51e-06   Normal BFGS step
   14    -265.0845483738      1.24e-06   Normal BFGS step
   15    -265.0845483739      6.01e-07   Normal BFGS step
   16    -265.0845483739      5.59e-07   Normal BFGS step
   17    -265.0845483739      5.23e-07   Normal BFGS step
   18    -265.0845483739      4.41e-07   Normal BFGS step
   19    -265.0845483739      4.16e-07   Normal BFGS step
   20    -265.0845483739      3.57e-07   Normal BFGS step
   21    -265.0845483739      2.26e-07   Normal BFGS step
   22    -265.0845483739      1.05e-07   Normal BFGS step
   23    -265.0845483739      4.15e-08  Convergence criterion met
 ---------------------------------------
 SCF time:   CPU 206.45s  wall 26.00s 
<S^2> =          0.754569820
(3)  G-ENP(liq) elect-nuc-pol free energy of system     -265.084548374 a.u.
(4)  G-CDS(liq) cavity-dispersion-solvent structure 
     free energy                                                4.1872 kcal/mol
(6)  G-S(liq) free energy of system                     -265.077875635 a.u.
 SCF   energy in the final basis set =     -265.0778756349
 Total energy in the final basis set =     -265.0778756349
 
 --------------------------------------------------------------
 
                    Orbital Energies (a.u.)
 --------------------------------------------------------------
 
 Alpha MOs
 -- Occupied --
-19.3834 -19.2956 -19.2952 -10.4426  -1.1756  -1.1272  -1.0895  -0.6807
 -0.5911  -0.5677  -0.5412  -0.5224  -0.4976  -0.4512  -0.3799  -0.3743
 -0.3574
 -- Virtual --
  0.0418   0.0670   0.0805   0.0908   0.1114   0.1304   0.1461   0.2112
  0.2231   0.2266   0.2487   0.2579   0.2656   0.2810   0.2923   0.3147
  0.3219   0.3325   0.3606   0.3995   0.4136   0.4984   0.5339   0.5754
  0.6105   0.6225   0.7085   0.7321   0.7734   0.8086   0.8285   0.8705
  0.9609   0.9817   1.0241   1.0549   1.1089   1.1283   1.1447   1.1491
  1.1688   1.1926   1.2095   1.2164   1.2342   1.3452   1.3948   1.4923
  1.5400   1.5813   1.6014   1.6265   1.6337   1.7006   1.7741   1.7824
  1.8972   1.8993   1.9142   2.1132   2.1511   2.1783   2.3257   2.4089
  2.5198   2.5670   2.6020   2.7318   2.7955   2.8409   3.0069   3.1375
  3.1631   3.2493   3.2526   3.3239   3.4780   3.5147   3.5903   3.6300
  3.6683   3.7167   3.7383   3.9513   4.0533   4.0836   4.1401   4.2242
  4.4834   4.9894   5.0633   5.0767   5.0951   5.1220   5.1246   5.1660
  5.1770   5.1837   5.1873   5.2095   5.2374   5.2460   5.2601   5.3284
  5.3733   5.3784   5.4802   5.5298   5.5642   5.6023   5.6106   5.7099
  5.8500   6.0406   6.2514   6.4614   6.7718   6.8375   6.8836   6.9079
  6.9620   6.9743   7.0153   7.0394   7.0626   7.0877   7.2506   7.3286
  7.3604   7.3697   7.4951   7.6170   7.6982   7.7509   7.8139  25.1723
 50.3929  50.6595  50.6994
 
 Beta MOs
 -- Occupied --
-19.3603 -19.2949 -19.2943 -10.4413  -1.1734  -1.0893  -1.0622  -0.6702
 -0.5796  -0.5459  -0.5376  -0.5211  -0.4214  -0.3791  -0.3712  -0.3613
 -- Virtual --
 -0.0656   0.0440   0.0691   0.0812   0.0920   0.1123   0.1321   0.1475
  0.2124   0.2279   0.2307   0.2512   0.2585   0.2689   0.2913   0.2949
  0.3154   0.3220   0.3347   0.3640   0.4039   0.4151   0.5047   0.5395
  0.5794   0.6113   0.6265   0.7113   0.7325   0.7763   0.8094   0.8298
  0.8746   0.9617   0.9883   1.0278   1.0636   1.1098   1.1305   1.1461
  1.1572   1.1911   1.1969   1.2172   1.2375   1.2472   1.3562   1.4026
  1.5047   1.5495   1.6168   1.6219   1.6296   1.6414   1.7030   1.7809
  1.7871   1.9092   1.9118   1.9424   2.1139   2.1525   2.1988   2.3356
  2.4104   2.5230   2.5696   2.6113   2.7479   2.7968   2.8424   3.0078
  3.1392   3.1647   3.2525   3.2556   3.3272   3.4791   3.5143   3.5944
  3.6313   3.6697   3.7270   3.7398   3.9641   4.0554   4.0867   4.1352
  4.2355   4.4816   5.0117   5.1118   5.1311   5.1588   5.1676   5.1792
  5.1819   5.1858   5.1896   5.2095   5.2435   5.2475   5.2632   5.2820
  5.3444   5.3802   5.4007   5.4839   5.5316   5.5648   5.6294   5.6589
  5.7175   5.8514   6.0433   6.2521   6.4633   6.8486   6.8800   6.9118
  6.9392   6.9950   7.0046   7.0306   7.0584   7.0763   7.1603   7.3107
  7.3295   7.3713   7.3721   7.5413   7.6294   7.7030   7.7536   7.8160
 25.1733  50.4089  50.6600  50.7002
 --------------------------------------------------------------
 
          Ground-State Mulliken Net Atomic Charges

     Atom                 Charge (a.u.)    Spin (a.u.)
  --------------------------------------------------------
      1 O                    -0.630747       0.036995
      2 C                     0.190710       0.059870
      3 O                    -0.608754       0.016091
      4 H                     0.133238      -0.012697
      5 O                    -0.404762       0.908714
      6 H                     0.320314      -0.008973
  --------------------------------------------------------
  Sum of atomic charges =    -1.000000
  Sum of spin   charges =     1.000000

 -----------------------------------------------------------------
                    Cartesian Multipole Moments
 -----------------------------------------------------------------
    Charge (ESU x 10^10)
                -4.8032
    Dipole Moment (Debye)
         X       3.4544      Y       0.2245      Z      -1.2583
       Tot       3.6833
    Quadrupole Moments (Debye-Ang)
        XX     -30.2600     XY      -0.4418     YY     -34.2034
        XZ      -2.3107     YZ       3.8531     ZZ     -33.6323
    Octopole Moments (Debye-Ang^2)
       XXX      55.0109    XXY      19.4043    XYY      16.2000
       YYY      44.3456    XXZ     -15.3902    XYZ       3.1793
       YYZ     -27.6395    XZZ      17.4925    YZZ      32.6681
       ZZZ     -74.4663
    Hexadecapole Moments (Debye-Ang^3)
      XXXX    -121.8640   XXXY     -35.6953   XXYY     -73.2668
      XYYY     -14.6095   YYYY    -297.8920   XXXZ       8.9861
      XXYZ      28.3075   XYYZ      -3.5227   YYYZ     101.8753
      XXZZ     -59.2292   XYZZ     -10.5156   YYZZ    -123.7870
      XZZZ      18.1268   YZZZ     136.4609   ZZZZ    -288.9043
 -----------------------------------------------------------------
 Calculating analytic gradient of the SCF energy
 Gradient of CDS energy
            1           2           3           4           5           6
    1  -0.0003156  -0.0005300   0.0009865  -0.0002057   0.0001967  -0.0001318
    2  -0.0019628   0.0015122   0.0012147  -0.0004782   0.0001179  -0.0004039
    3   0.0004597  -0.0016844   0.0010718  -0.0001038   0.0002753  -0.0000186
 Gradient of SCF Energy
            1           2           3           4           5           6
    1  -0.0036196   0.0052728   0.0127320  -0.0155874  -0.0120764   0.0132786
    2  -0.0310207   0.0007028   0.0187435   0.0143366  -0.0003167  -0.0024455
    3   0.0097551   0.0086152   0.0121237  -0.0339702  -0.0204343   0.0239105
 Max gradient component =       3.397E-02
 RMS gradient           =       1.625E-02
 Computing fast CPCM-SWIG gradient
 Updating gradient with PCM contributions...
 -- total gradient after adding PCM contribution --
---------------------------------------------------
  Atom         X              Y              Z     
---------------------------------------------------
   1       0.000598       0.000238       0.000900
   2      -0.000444       0.000112      -0.000816
   3      -0.000568      -0.000295      -0.000948
   4      -0.000112      -0.001460       0.000682
   5       0.000435       0.001748      -0.000182
   6       0.000091      -0.000342       0.000364
---------------------------------------------------
 Number of fixed atoms: 0
 Gradient time:  CPU 19.68 s  wall 2.95 s
rPathMan2.  file_steps = 952
 IRC --- Status = 4.  Checking bisector search.
 IRC --- Bisector search finished successfully.
 ------------------------------------------------------------------------
 Reaction path following.  The coordinates are cartesian              
 Step   3 E=    -265.077876 |G|=  0.003091 S_lin= 0.1677 S_tot= 0.1693
 ------------------------------------------------------------------------
  IRC -- convergence criterion reached.
 ----------------------------------------------------------------
             Standard Nuclear Orientation (Angstroms)
    I     Atom           X                Y                Z
 ----------------------------------------------------------------
    1      O      -0.4268954000     1.0291152000     0.2121394000
    2      C      -0.6392513000    -0.1715734000     0.4605697000
    3      O      -1.2753298000    -1.0208365000    -0.1973000000
    4      H      -0.1844583000    -0.5559033000     1.4359004000
    5      O      -0.2128196000    -2.1505383000     2.2090421000
    6      H      -0.7380683000    -2.3443676000     1.4097700000
 ----------------------------------------------------------------
 Nuclear Repulsion Energy =         104.56992469 hartrees
 There are       17 alpha and       16 beta electrons
 Here is where we should summarize the reaction path
 Total job time:  1908.75s(wall), 14611.51s(cpu) 
 Thu Aug 31 17:23:11 2023

        *************************************************************
        *                                                           *
        *  Thank you very much for using Q-Chem.  Have a nice day.  *
        *                                                           *
        *************************************************************


