
Running Job 1 of 2 Q_in.in
qchem Q_in.in_259486.0 /scratch/ari.fischer/qChem1687312.hpc-mn1/qchem259486/ 0
/usr/local/qchem-5.4.1/exe/qcprog.exe_s Q_in.in_259486.0 /scratch/ari.fischer/qChem1687312.hpc-mn1/qchem259486/
                  Welcome to Q-Chem
     A Quantum Leap Into The Future Of Chemistry


 Q-Chem 5.4, Q-Chem, Inc., Pleasanton, CA (2021)

 License issued to: Nanyang Technological University (site)

 E. Epifanovsky,  A. T. B. Gilbert,  Xintian Feng,  Joonho Lee,  Yuezhi Mao,  
 N. Mardirossian,  P. Pokhilko,  A. White,  M. Wormit,  M. P. Coons,  
 A. L. Dempwolff,  Zhengting Gan,  D. Hait,  P. R. Horn,  L. D. Jacobson,  
 I. Kaliman,  J. Kussmann,  A. W. Lange,  Ka Un Lao,  D. S. Levine,  Jie Liu,  
 S. C. McKenzie,  A. F. Morrison,  K. Nanda,  F. Plasser,  D. R. Rehn,  
 M. L. Vidal,  Zhi-Qiang You,  Ying Zhu,  B. Alam,  B. Albrecht,  
 A. Aldossary,  E. Alguire,  J. H. Andersen,  D. Barton,  K. Begam,  A. Behn,  
 Y. A. Bernard,  E. J. Berquist,  H. Burton,  A. Carreras,  K. Carter-Fenk,  
 R. Chakraborty,  A. D. Chien,  K. D. Closser,  V. Cofer-Shabica,  
 S. Dasgupta,  Jia Deng,  M. de Wergifosse,  M. Diedenhofen,  Hainam Do,  
 S. Ehlert,  Po-Tung Fang,  S. Fatehi,  Qingguo Feng,  T. Friedhoff,  
 J. Gayvert,  Qinghui Ge,  G. Gidofalvi,  M. Goldey,  J. Gomes,  
 C. Gonzalez-Espinoza,  S. Gulania,  A. Gunina,  M. W. D. Hanson-Heine,  
 P. H. P. Harbach,  A. W. Hauser,  M. F. Herbst,  M. Hernandez Vera,  
 M. Hodecker,  Z. C. Holden,  S. Houck,  Xunkun Huang,  Kerwin Hui,  
 B. C. Huynh,  M. Ivanov,  Hyunjun Ji,  Hanjie Jiang,  B. Kaduk,  S. Kaehler,  
 K. Khistyaev,  Jaehoon Kim,  P. Klunzinger,  Z. Koczor-Benda,  
 Joong Hoon Koh,  D. Kosenkov,  L. Koulias,  T. Kowalczyk,  C. M. Krauter,  
 K. Kue,  A. Kunitsa,  T. Kus,  A. Landau,  K. V. Lawler,  D. Lefrancois,  
 S. Lehtola,  Rain Li,  Yi-Pei Li,  Jiashu Liang,  M. Liebenthal,  
 Hung-Hsuan Lin,  You-Sheng Lin,  Fenglai Liu,  Kuan-Yu Liu,  
 M. Loipersberger,  A. Luenser,  A. Manjanath,  P. Manohar,  E. Mansoor,  
 S. F. Manzer,  Shan-Ping Mao,  A. V. Marenich,  T. Markovich,  S. Mason,  
 S. A. Maurer,  P. F. McLaughlin,  M. F. S. J. Menger,  J.-M. Mewes,  
 S. A. Mewes,  P. Morgante,  J. W. Mullinax,  K. J. Oosterbaan,  G. Paran,  
 Alexander C. Paul,  Suranjan K. Paul,  F. Pavosevic,  Zheng Pei,  S. Prager,  
 E. I. Proynov,  E. Ramos,  B. Rana,  A. E. Rask,  A. Rettig,  R. M. Richard,  
 F. Rob,  E. Rossomme,  T. Scheele,  M. Scheurer,  M. Schneider,  
 N. Sergueev,  S. M. Sharada,  W. Skomorowski,  D. W. Small,  C. J. Stein,  
 Yu-Chuan Su,  E. J. Sundstrom,  Zhen Tao,  J. Thirman,  T. Tsuchimochi,  
 N. M. Tubman,  S. P. Veccham,  O. Vydrov,  J. Wenzel,  J. Witte,  A. Yamada,  
 Kun Yao,  S. Yeganeh,  S. R. Yost,  A. Zech,  Igor Ying Zhang,  Xing Zhang,  
 Yu Zhang,  D. Zuev,  A. Aspuru-Guzik,  A. T. Bell,  N. A. Besley,  
 K. B. Bravaya,  B. R. Brooks,  D. Casanova,  Jeng-Da Chai,  S. Coriani,  
 C. J. Cramer,  A. E. DePrince, III,  R. A. DiStasio Jr.,  A. Dreuw,  
 B. D. Dunietz,  T. R. Furlani,  W. A. Goddard III,  S. Grimme,  
 S. Hammes-Schiffer,  T. Head-Gordon,  W. J. Hehre,  Chao-Ping Hsu,  
 T.-C. Jagau,  Yousung Jung,  A. Klamt,  Jing Kong,  D. S. Lambrecht,  
 WanZhen Liang,  N. J. Mayhall,  C. W. McCurdy,  J. B. Neaton,  
 C. Ochsenfeld,  J. A. Parkhill,  R. Peverati,  V. A. Rassolov,  Yihan Shao,  
 L. V. Slipchenko,  T. Stauch,  R. P. Steele,  J. E. Subotnik,  
 A. J. W. Thom,  A. Tkatchenko,  D. G. Truhlar,  T. Van Voorhis,  
 T. A. Wesolowski,  K. B. Whaley,  H. L. Woodcock III,  P. M. Zimmerman,  
 S. Faraji,  P. M. W. Gill,  M. Head-Gordon,  J. M. Herbert,  A. I. Krylov

 Additional authors for Version 5.4.1: 
 S. Kotaru,  Shaozhi Li,  Xiangyuan Li,  F. Matz,  A. Molle,  Haisheng Ren,  
 Yingli Su,  Hung-Yi Tsai,  C. Utku,  Fang Wang

 Contributors to earlier versions of Q-Chem not listed above: 
 R. D. Adamson,  B. Austin,  R. Baer,  J. Baker,  G. J. O. Beran,  
 K. Brandhorst,  S. T. Brown,  E. F. C. Byrd,  A. K. Chakraborty,  
 G. K. L. Chan,  Chun-Min Chang,  Yunqing Chen,  C.-L. Cheng,  
 Siu Hung Chien,  D. M. Chipman,  D. L. Crittenden,  H. Dachsel,  
 R. J. Doerksen,  A. D. Dutoi,  R. G. Edgar,  J. Fosso-Tande,  
 L. Fusti-Molnar,  D. Ghosh,  A. Ghysels,  A. Golubeva-Zadorozhnaya,  
 J. Gonthier,  M. S. Gordon,  S. R. Gwaltney,  G. Hawkins,  J. E. Herr,  
 A. Heyden,  S. Hirata,  E. G. Hohenstein,  G. Kedziora,  F. J. Keil,  
 C. Kelley,  Jihan Kim,  R. A. King,  R. Z. Khaliullin,  P. P. Korambath,  
 W. Kurlancheek,  A. Laurent,  A. M. Lee,  M. S. Lee,  S. V. Levchenko,  
 Ching Yeh Lin,  D. Liotard,  E. Livshits,  R. C. Lochan,  I. Lotan,  
 L. A. Martinez-Martinez,  P. E. Maslen,  N. Nair,  D. P. O'Neill,  
 D. Neuhauser,  E. Neuscamman,  C. M. Oana,  R. Olivares-Amaya,  R. Olson,  
 T. M. Perrine,  B. Peters,  P. A. Pieniazek,  A. Prociuk,  Y. M. Rhee,  
 J. Ritchie,  M. A. Rohrdanz,  E. Rosta,  N. J. Russ,  H. F. Schaefer III,  
 M. W. Schmidt,  N. E. Schultz,  S. Sharma,  N. Shenvi,  C. D. Sherrill,  
 A. C. Simmonett,  A. Sodt,  T. Stein,  D. Stuck,  K. S. Thanthiriwatte,  
 V. Vanovschi,  L. Vogt,  Tao Wang,  A. Warshel,  M. A. Watson,  
 C. F. Williams,  Q. Wu,  X. Xu,  Jun Yang,  W. Zhang,  Yan Zhao

 Please cite Q-Chem as follows:
 Y. Shao et al., Mol. Phys. 113, 184-215 (2015)
 DOI: 10.1080/00268976.2014.952696

 Q-Chem 5.4.1 for Intel X86 EM64T Linux

 Parts of Q-Chem use Armadillo 9.800.1 (Horizon Scraper).
 http://arma.sourceforge.net/

 Q-Chem begins on Tue Aug 15 13:41:15 2023  

 Host: 
0

     Scratch files written to /scratch/ari.fischer/qChem1687312.hpc-mn1/qchem259486//
 Aug1521 |scratch|qcdevops|jenkins|workspace|build_RNUM 8249   
 Processing $rem in /usr/local/qchem-5.4.1/config/preferences:
 Processing $rem in /home/ari.fischer/.qchemrc:
 Symmetry turned off for PCM/SM12/SMD calculation


!!********************************************.
!!******************Warning*******************.
!!Desired Analytical derivatives not available.
!!Finite difference job might take a long time.
!!********************************************.
!!********************************************.


 2-order derivative to be evaluated numerically with 1-order analytical derivatives

 Checking the input file for inconsistencies... 	...done.

--------------------------------------------------------------
User input:
--------------------------------------------------------------
$molecule
-1 2
O   -0.2779840    0.9808736    0.4617916
C   -0.6900011   -0.1620969    0.3527143
O   -1.4087758   -0.5160551   -0.7294780
H   -0.4122997   -0.9727942    1.2992235
O   -0.1226248   -1.8320755    2.1286212
H   -0.5651373   -2.7119559    2.0172490
$end

$rem
BASIS = 6-311++G(2df,2p)
GUI = 2
JOB_TYPE = Frequency
METHOD = wB97M-V
SCF_ALGORITHM = DIIS_GDM
MAX_SCF_CYCLES = 400
SCF_CONVERGENCE = 6
THRESH = 11
SYMMETRY_IGNORE = 1
solvent_method = SMD
$end

--------------------------------------------------------------
 ----------------------------------------------------------------
             Standard Nuclear Orientation (Angstroms)
    I     Atom           X                Y                Z
 ----------------------------------------------------------------
    1      O      -0.2779840000     0.9808736000     0.4617916000
    2      C      -0.6900011000    -0.1620969000     0.3527143000
    3      O      -1.4087758000    -0.5160551000    -0.7294780000
    4      H      -0.4122997000    -0.9727942000     1.2992235000
    5      O      -0.1226248000    -1.8320755000     2.1286212000
    6      H      -0.5651373000    -2.7119559000     2.0172490000
 ----------------------------------------------------------------
 Nuclear Repulsion Energy =         102.95721897 hartrees
 There are       17 alpha and       16 beta electrons
 Requested basis set is 6-311++G(2df,2p)
 There are 44 shells and 156 basis functions

 Total QAlloc Memory Limit 288000 MB
 Mega-Array Size       188 MB
 MEM_STATIC part       192 MB
 
 Citation of the SMD model:
 Marenich, A.V.; Cramer, C.J.; Truhlar, D.G.
 J. Phys. Chem. B 2009, 113, 6378-6396.
 iSolventCode=           1
 Solvent: water                                                           
 
 vradii
            1           2           3           4           5           6
    1   1.5200000   1.8500000   1.5200000   1.2000000   1.5200000   1.2000000
 Changing PCM_VDW_RADII to SMD_RADIUS
 Discretize the solute cavity surface with Lebedev spheres
	Using 110 Lebedev grid points for each H atom
	Using 194 Lebedev grid points for other atoms
	Atomic van der Waals radii will be scaled by 1.20
 Remove points where switching function is < 1.0e-08
 Keep 634 surface tesserae and discard 362 interior tesserae
 Molecular Surface Area = 81.414 Angst**2

                       Distance Matrix (Angstroms)
             O (  1)   C (  2)   O (  3)   H (  4)   O (  5)
   C (  2)  1.219851
   O (  3)  2.222298  1.346501
   H (  4)  2.129824  1.276804  2.305907
   O (  5)  3.273399  2.502916  3.399239  1.228892
   H (  6)  4.017324  3.047630  3.616382  1.887751  0.991166
 
 A cutoff of  1.0D-11 yielded    927 shell pairs
 There are     11751 function pairs (     14927 Cartesian)
 Smallest overlap matrix eigenvalue = 6.62E-04
 Guess from superposition of atomic densities
 Warning:  Energy on first SCF cycle will be non-variational
 SAD guess density has 32.000000 electrons

 -----------------------------------------------------------------------
  General SCF calculation program by
  Eric Jon Sundstrom, Paul Horn, Yuezhi Mao, Dmitri Zuev, Alec White,
  David Stuck, Shaama M.S., Shane Yost, Joonho Lee, David Small,
  Daniel Levine, Susi Lehtola, Hugh Burton, Evgeny Epifanovsky,
  Bang C. Huynh
 -----------------------------------------------------------------------
 Exchange:     0.1500 Hartree-Fock + 1.0000 wB97M-V + LR-HF
 Correlation:  1.0000 wB97M-V
 Using SG-2 standard quadrature grid
 Nonlocal Correlation:  VV10 with C = 0.0100 and b = 6.00 and scale = 1.00000
 Grid used for NLC:  SG-1 standard quadrature
 using 4 threads for integral computing
 -------------------------------------------------------
 OpenMP Integral computing Module                
 Release: version 1.0, May 2013, Q-Chem Inc. Pittsburgh 
 -------------------------------------------------------
 
 Citation of the SMD model:
 Marenich, A.V.; Cramer, C.J.; Truhlar, D.G.
 J. Phys. Chem. B 2009, 113, 6378-6396.
 iSolventCode=           1
 Solvent: water                                                           
 
 vradii
            1           2           3           4           5           6
    1   1.5200000   1.8500000   1.5200000   1.2000000   1.5200000   1.2000000
 -------------------------------------------------------
 OpenMP BLAS3 based DFT computing Module                
 Release: version 1.0, May 2013, Q-Chem Inc. Pittsburgh 
 -------------------------------------------------------
 A unrestricted SCF calculation will be
 performed using DIIS, GDM
 SCF converges when RMS gradient is below 1.0e-06
 ---------------------------------------
  Cycle       Energy         DIIS error
 ---------------------------------------
    1    -264.9900566387      1.73e-02  
    2    -264.9034642556      4.28e-03  Done DIIS. Switching to GDM
 ---------------------------------------
  Cycle       Energy        RMS Gradient
 ---------------------------------------
    1    -264.9034642556      2.06e-01   Descent step
    2    -265.0699990126      2.62e-02   Normal BFGS step
    3    -265.0803711649      7.49e-03   Normal BFGS step
    4    -265.0806848879      1.23e-02   Normal BFGS step
    5    -265.0812125542      1.95e-03   Normal BFGS step
    6    -265.0812407083      2.09e-03   Normal BFGS step
    7    -265.0812526153      1.33e-03   Normal BFGS step
    8    -265.0812586313      4.90e-04   Normal BFGS step
    9    -265.0812598302      2.89e-04   Normal BFGS step
   10    -265.0812601777      1.11e-04   Normal BFGS step
   11    -265.0812602447      1.73e-04   Normal BFGS step
   12    -265.0812602812      6.38e-05   Normal BFGS step
   13    -265.0812602949      4.57e-05   Normal BFGS step
   14    -265.0812603025      1.51e-05   Normal BFGS step
   15    -265.0812603039      3.89e-06   Normal BFGS step
   16    -265.0812603040      1.30e-06   Normal BFGS step
   17    -265.0812603040      6.10e-07  Convergence criterion met
 ---------------------------------------
 SCF time:   CPU 96.75s  wall 25.00s 
<S^2> =          0.756031700
(3)  G-ENP(liq) elect-nuc-pol free energy of system     -265.081260304 a.u.
(4)  G-CDS(liq) cavity-dispersion-solvent structure 
     free energy                                                4.4126 kcal/mol
(6)  G-S(liq) free energy of system                     -265.074228458 a.u.
 SCF   energy in the final basis set =     -265.0742284579
 Total energy in the final basis set =     -265.0742284579
 
 --------------------------------------------------------------
 
                    Orbital Energies (a.u.)
 --------------------------------------------------------------
 
 Alpha MOs
 -- Occupied --
-19.3398 -19.3205 -19.3113 -10.4633  -1.2018  -1.0866  -1.0790  -0.7031
 -0.6108  -0.5559  -0.5363  -0.5343  -0.4627  -0.4113  -0.3907  -0.3835
 -0.3352
 -- Virtual --
  0.0416   0.0633   0.0846   0.0871   0.1075   0.1090   0.1549   0.2206
  0.2271   0.2305   0.2374   0.2489   0.2562   0.2885   0.3103   0.3185
  0.3187   0.3401   0.3540   0.3875   0.4101   0.4793   0.5170   0.5863
  0.6064   0.6181   0.7209   0.7358   0.7887   0.8245   0.8288   0.8774
  0.9109   0.9983   1.0338   1.0520   1.0896   1.1201   1.1379   1.1578
  1.1768   1.2027   1.2074   1.2124   1.2366   1.3991   1.4081   1.4376
  1.5700   1.6070   1.6352   1.6445   1.6640   1.7785   1.8160   1.8325
  1.9237   1.9492   1.9802   2.0695   2.1718   2.3029   2.3609   2.4018
  2.4892   2.5441   2.6541   2.7730   2.8034   2.8352   3.0430   3.0977
  3.1095   3.2403   3.3502   3.4297   3.4373   3.4697   3.5720   3.5878
  3.6075   3.6726   3.7337   3.8922   3.9474   3.9765   4.1045   4.1992
  4.2785   4.4744   5.1217   5.1369   5.1407   5.1438   5.1647   5.1775
  5.1817   5.1845   5.2206   5.2475   5.2537   5.2652   5.3002   5.3133
  5.3441   5.3851   5.4142   5.5721   5.5817   5.6099   5.6337   5.6977
  5.9605   6.0269   6.3350   6.3441   6.6580   6.7960   6.8870   6.9355
  6.9771   6.9836   7.0013   7.0819   7.1088   7.1366   7.1529   7.2925
  7.3217   7.3494   7.5639   7.6491   7.6874   7.7095   7.7646  24.9988
 50.4809  50.5542  50.6752
 
 Beta MOs
 -- Occupied --
-19.3335 -19.3112 -19.3063 -10.4573  -1.1890  -1.0670  -1.0635  -0.6712
 -0.5961  -0.5345  -0.5271  -0.5167  -0.4077  -0.3999  -0.3847  -0.3614
 -- Virtual --
 -0.0594   0.0444   0.0632   0.0855   0.0909   0.1077   0.1163   0.1555
  0.2208   0.2288   0.2327   0.2394   0.2497   0.2566   0.2899   0.3102
  0.3186   0.3190   0.3457   0.3576   0.3927   0.4230   0.4916   0.5277
  0.6001   0.6111   0.6237   0.7298   0.7408   0.7938   0.8294   0.8308
  0.8828   0.9146   1.0026   1.0365   1.0588   1.0927   1.1262   1.1412
  1.1689   1.1824   1.2060   1.2152   1.2214   1.2445   1.4045   1.4205
  1.4439   1.5806   1.6132   1.6405   1.6499   1.6757   1.7928   1.8259
  1.8395   1.9321   1.9602   1.9964   2.0761   2.1775   2.3086   2.3714
  2.4087   2.5014   2.5555   2.6646   2.7813   2.8103   2.8424   3.0612
  3.1048   3.1382   3.2525   3.3686   3.4427   3.4551   3.4900   3.5852
  3.5954   3.6247   3.6926   3.7388   3.9055   3.9583   3.9843   4.1169
  4.2091   4.2870   4.4980   5.1338   5.1504   5.1572   5.1585   5.1742
  5.1861   5.1936   5.1967   5.2299   5.2641   5.2735   5.2771   5.3198
  5.3293   5.3640   5.3995   5.4371   5.5804   5.5958   5.6171   5.6459
  5.7184   5.9765   6.0377   6.3438   6.3698   6.6719   6.8189   6.9051
  6.9602   6.9981   7.0081   7.0166   7.1104   7.1360   7.1601   7.1691
  7.3056   7.3292   7.3739   7.5848   7.6735   7.7229   7.7240   7.7889
 25.0040  50.4880  50.5580  50.6802
 --------------------------------------------------------------
 
          Ground-State Mulliken Net Atomic Charges

     Atom                 Charge (a.u.)    Spin (a.u.)
  --------------------------------------------------------
      1 O                    -0.427138       0.213502
      2 C                     0.097756       0.298543
      3 O                    -0.646285       0.171649
      4 H                     0.454720       0.031596
      5 O                    -0.807414       0.283614
      6 H                     0.328361       0.001096
  --------------------------------------------------------
  Sum of atomic charges =    -1.000000
  Sum of spin   charges =     1.000000

 -----------------------------------------------------------------
                    Cartesian Multipole Moments
 -----------------------------------------------------------------
    Charge (ESU x 10^10)
                -4.8032
    Dipole Moment (Debye)
         X       2.8769      Y       0.2894      Z      -1.4793
       Tot       3.2478
    Quadrupole Moments (Debye-Ang)
        XX     -31.3404     XY       0.6777     YY     -27.5378
        XZ      -5.7362     YZ       0.8995     ZZ     -37.4297
    Octopole Moments (Debye-Ang^2)
       XXX      56.6565    XXY      15.6473    XYY      10.2486
       YYY      19.1469    XXZ      -9.9157    XYZ       7.5502
       YYZ     -13.8011    XZZ      15.5524    YZZ      23.7587
       ZZZ     -71.4532
    Hexadecapole Moments (Debye-Ang^3)
      XXXX    -140.2459   XXXY     -24.3740   XXYY     -59.3353
      XYYY       4.0656   YYYY    -164.9311   XXXZ     -15.3043
      XXYZ      19.9065   XYYZ     -19.5008   YYYZ      38.4734
      XXZZ     -66.9243   XYZZ       2.0368   YYZZ     -83.7588
      XZZZ     -11.6230   YZZZ     102.7878   ZZZZ    -325.6179
 -----------------------------------------------------------------
 Calculating analytic gradient of the SCF energy
 Gradient of CDS energy
            1           2           3           4           5           6
    1  -0.0006223  -0.0029435   0.0034607   0.0000821   0.0002208  -0.0001978
    2  -0.0013698  -0.0002058   0.0019085  -0.0002897   0.0003501  -0.0003933
    3  -0.0003585  -0.0047960   0.0050993  -0.0003010   0.0004060  -0.0000498
 Gradient of SCF Energy
            1           2           3           4           5           6
    1  -0.0252252   0.0535522  -0.0166296  -0.0105867  -0.0015650   0.0004543
    2  -0.0408599  -0.0116504   0.0120730   0.0499961  -0.0035790  -0.0059797
    3  -0.0223290   0.1006339  -0.0359579  -0.0443642  -0.0023031   0.0043203
 Max gradient component =       1.006E-01
 RMS gradient           =       3.520E-02
 Computing fast CPCM-SWIG gradient
 Updating gradient with PCM contributions...
 -- total gradient after adding PCM contribution --
---------------------------------------------------
  Atom         X              Y              Z     
---------------------------------------------------
   1      -0.015964       0.007100      -0.031326
   2       0.054725      -0.041197       0.116618
   3      -0.035261       0.014627      -0.070041
   4      -0.002409       0.043299      -0.025091
   5       0.004022       0.002573       0.002573
   6      -0.005113      -0.026402       0.007266
---------------------------------------------------
 Number of fixed atoms: 0
 Gradient time:  CPU 13.02 s  wall 4.14 s
 ######################################################
 ######################################################
 # Starting finite difference calculation for IDERIV  #
 Finite diff step size:  1.88973e-03 a.u.
 ----------------------------------------------------------------
             Standard Nuclear Orientation (Angstroms)
    I     Atom           X                Y                Z
 ----------------------------------------------------------------
    1      O      -0.2769840000     0.9808736000     0.4617916000
    2      C      -0.6900011000    -0.1620969000     0.3527143000
    3      O      -1.4087758000    -0.5160551000    -0.7294780000
    4      H      -0.4122997000    -0.9727942000     1.2992235000
    5      O      -0.1226248000    -1.8320755000     2.1286212000
    6      H      -0.5651373000    -2.7119559000     2.0172490000
 ----------------------------------------------------------------
 Nuclear Repulsion Energy =         102.94803075 hartrees
 There are       17 alpha and       16 beta electrons
 Discretize the solute cavity surface with Lebedev spheres
	Using 110 Lebedev grid points for each H atom
	Using 194 Lebedev grid points for other atoms
	Atomic van der Waals radii will be scaled by 1.20
 Remove points where switching function is < 1.0e-08
 Keep 634 surface tesserae and discard 362 interior tesserae
 Molecular Surface Area = 81.418 Angst**2

                       Distance Matrix (Angstroms)
             O (  1)   C (  2)   O (  3)   H (  4)   O (  5)
   C (  2)  1.220190
   O (  3)  2.222807  1.346501
   H (  4)  2.129887  1.276804  2.305907
   O (  5)  3.273352  2.502916  3.399239  1.228892
   H (  6)  4.017396  3.047630  3.616382  1.887751  0.991166
 
 Requested basis set is 6-311++G(2df,2p)
 There are 44 shells and 156 basis functions
 A cutoff of  1.0D-11 yielded    927 shell pairs
 There are     11751 function pairs (     14927 Cartesian)
 Smallest overlap matrix eigenvalue = 6.62E-04
 Guess MOs from SCF MO coefficient file

 -----------------------------------------------------------------------
  General SCF calculation program by
  Eric Jon Sundstrom, Paul Horn, Yuezhi Mao, Dmitri Zuev, Alec White,
  David Stuck, Shaama M.S., Shane Yost, Joonho Lee, David Small,
  Daniel Levine, Susi Lehtola, Hugh Burton, Evgeny Epifanovsky,
  Bang C. Huynh
 -----------------------------------------------------------------------
 Exchange:     0.1500 Hartree-Fock + 1.0000 wB97M-V + LR-HF
 Correlation:  1.0000 wB97M-V
 Using SG-2 standard quadrature grid
 Nonlocal Correlation:  VV10 with C = 0.0100 and b = 6.00 and scale = 1.00000
 Grid used for NLC:  SG-1 standard quadrature
 
 Citation of the SMD model:
 Marenich, A.V.; Cramer, C.J.; Truhlar, D.G.
 J. Phys. Chem. B 2009, 113, 6378-6396.
 iSolventCode=           1
 Solvent: water                                                           
 
 vradii
            1           2           3           4           5           6
    1   1.5200000   1.8500000   1.5200000   1.2000000   1.5200000   1.2000000
 -------------------------------------------------------
 OpenMP BLAS3 based DFT computing Module                
 Release: version 1.0, May 2013, Q-Chem Inc. Pittsburgh 
 -------------------------------------------------------
 A unrestricted SCF calculation will be
 performed using Roothaan-Hall, DIIS, GDM
 SCF converges when RMS gradient is below 1.0e-06
 ---------------------------------------
  Cycle       Energy         DIIS error
 ---------------------------------------
    1    -264.9677462059      3.90e-04  Roothaan Step
 ---------------------------------------
  Cycle       Energy         DIIS error
 ---------------------------------------
    1    -265.0766752247      4.97e-04  
    2    -265.0784263128      5.91e-04  Done DIIS. Switching to GDM
 ---------------------------------------
  Cycle       Energy        RMS Gradient
 ---------------------------------------
    1    -265.0784263128      1.62e-02   Normal BFGS step
    2    -265.0766583937      2.62e-02  Line search: overstep
    3    -265.0811332906      4.18e-03   Normal BFGS step
    4    -265.0812329992      3.25e-03   Normal BFGS step
    5    -265.0812701738      1.59e-03   Normal BFGS step
    6    -265.0812824834      1.32e-03   Normal BFGS step
    7    -265.0812869542      6.55e-04   Normal BFGS step
    8    -265.0812887286      3.58e-04   Normal BFGS step
    9    -265.0812889430      2.51e-04   Normal BFGS step
   10    -265.0812890684      5.25e-05   Normal BFGS step
   11    -265.0812890765      2.60e-05   Normal BFGS step
   12    -265.0812890787      1.80e-05   Normal BFGS step
   13    -265.0812890794      1.11e-05   Normal BFGS step
   14    -265.0812890798      5.23e-06   Normal BFGS step
   15    -265.0812890799      2.88e-06   Normal BFGS step
   16    -265.0812890800      8.58e-07  Convergence criterion met
 ---------------------------------------
 SCF time:   CPU 101.15s  wall 25.00s 
<S^2> =          0.756032442
(3)  G-ENP(liq) elect-nuc-pol free energy of system     -265.081289080 a.u.
(4)  G-CDS(liq) cavity-dispersion-solvent structure 
     free energy                                                4.4118 kcal/mol
(6)  G-S(liq) free energy of system                     -265.074258412 a.u.
 SCF   energy in the final basis set =     -265.0742584124
 Total energy in the final basis set =     -265.0742584124
 
 --------------------------------------------------------------
 
                    Orbital Energies (a.u.)
 --------------------------------------------------------------
 
 Alpha MOs
 -- Occupied --
-19.3398 -19.3205 -19.3114 -10.4634  -1.2016  -1.0866  -1.0790  -0.7031
 -0.6108  -0.5559  -0.5363  -0.5342  -0.4627  -0.4113  -0.3907  -0.3835
 -0.3352
 -- Virtual --
  0.0416   0.0633   0.0846   0.0871   0.1075   0.1090   0.1549   0.2206
  0.2271   0.2305   0.2374   0.2489   0.2562   0.2885   0.3103   0.3185
  0.3187   0.3400   0.3540   0.3875   0.4101   0.4792   0.5168   0.5862
  0.6064   0.6180   0.7208   0.7358   0.7886   0.8245   0.8288   0.8773
  0.9109   0.9983   1.0338   1.0520   1.0896   1.1201   1.1378   1.1578
  1.1768   1.2027   1.2073   1.2124   1.2366   1.3990   1.4081   1.4376
  1.5700   1.6071   1.6350   1.6444   1.6640   1.7784   1.8156   1.8324
  1.9237   1.9491   1.9801   2.0695   2.1717   2.3029   2.3608   2.4018
  2.4891   2.5440   2.6540   2.7730   2.8035   2.8351   3.0429   3.0977
  3.1094   3.2404   3.3503   3.4296   3.4372   3.4699   3.5721   3.5874
  3.6074   3.6725   3.7337   3.8922   3.9474   3.9765   4.1039   4.1991
  4.2784   4.4744   5.1217   5.1369   5.1407   5.1439   5.1647   5.1775
  5.1816   5.1845   5.2206   5.2474   5.2537   5.2652   5.3002   5.3133
  5.3441   5.3849   5.4142   5.5715   5.5814   5.6099   5.6334   5.6976
  5.9599   6.0268   6.3340   6.3437   6.6576   6.7955   6.8870   6.9355
  6.9771   6.9835   7.0010   7.0819   7.1086   7.1364   7.1528   7.2925
  7.3215   7.3495   7.5638   7.6488   7.6874   7.7095   7.7645  24.9981
 50.4809  50.5541  50.6747
 
 Beta MOs
 -- Occupied --
-19.3335 -19.3112 -19.3063 -10.4574  -1.1889  -1.0670  -1.0635  -0.6712
 -0.5961  -0.5345  -0.5270  -0.5167  -0.4077  -0.3999  -0.3847  -0.3615
 -- Virtual --
 -0.0594   0.0444   0.0632   0.0855   0.0909   0.1077   0.1162   0.1555
  0.2208   0.2288   0.2327   0.2394   0.2497   0.2566   0.2899   0.3102
  0.3186   0.3190   0.3457   0.3575   0.3927   0.4230   0.4915   0.5276
  0.6000   0.6111   0.6237   0.7297   0.7407   0.7937   0.8293   0.8308
  0.8827   0.9146   1.0027   1.0366   1.0588   1.0927   1.1262   1.1412
  1.1689   1.1824   1.2060   1.2152   1.2213   1.2445   1.4045   1.4204
  1.4439   1.5806   1.6132   1.6403   1.6497   1.6757   1.7928   1.8256
  1.8395   1.9321   1.9601   1.9962   2.0761   2.1773   2.3086   2.3714
  2.4087   2.5014   2.5554   2.6645   2.7813   2.8103   2.8424   3.0612
  3.1047   3.1381   3.2526   3.3687   3.4426   3.4549   3.4902   3.5853
  3.5949   3.6247   3.6924   3.7388   3.9055   3.9583   3.9843   4.1163
  4.2090   4.2869   4.4980   5.1338   5.1504   5.1572   5.1585   5.1742
  5.1860   5.1936   5.1967   5.2299   5.2639   5.2734   5.2771   5.3198
  5.3293   5.3640   5.3993   5.4371   5.5798   5.5956   5.6171   5.6456
  5.7184   5.9759   6.0376   6.3428   6.3694   6.6716   6.8184   6.9051
  6.9602   6.9981   7.0080   7.0162   7.1104   7.1357   7.1600   7.1690
  7.3056   7.3291   7.3739   7.5848   7.6732   7.7231   7.7237   7.7889
 25.0034  50.4880  50.5579  50.6797
 --------------------------------------------------------------
 
          Ground-State Mulliken Net Atomic Charges

     Atom                 Charge (a.u.)    Spin (a.u.)
  --------------------------------------------------------
      1 O                    -0.427436       0.213454
      2 C                     0.097759       0.298563
      3 O                    -0.645993       0.171680
      4 H                     0.454722       0.031589
      5 O                    -0.807416       0.283623
      6 H                     0.328363       0.001092
  --------------------------------------------------------
  Sum of atomic charges =    -1.000000
  Sum of spin   charges =     1.000000

 -----------------------------------------------------------------
                    Cartesian Multipole Moments
 -----------------------------------------------------------------
    Charge (ESU x 10^10)
                -4.8032
    Dipole Moment (Debye)
         X       2.8731      Y       0.2871      Z      -1.4810
       Tot       3.2451
    Quadrupole Moments (Debye-Ang)
        XX     -31.3378     XY       0.6770     YY     -27.5375
        XZ      -5.7355     YZ       0.9000     ZZ     -37.4295
    Octopole Moments (Debye-Ang^2)
       XXX      56.6333    XXY      15.6449    XYY      10.2388
       YYY      19.1405    XXZ      -9.9189    XYZ       7.5478
       YYZ     -13.8028    XZZ      15.5442    YZZ      23.7556
       ZZZ     -71.4576
    Hexadecapole Moments (Debye-Ang^3)
      XXXX    -140.2155   XXXY     -24.3862   XXYY     -59.3279
      XYYY       4.0513   YYYY    -164.9294   XXXZ     -15.3064
      XXYZ      19.9085   XYYZ     -19.5021   YYYZ      38.4740
      XXZZ     -66.9185   XYZZ       2.0320   YYZZ     -83.7571
      XZZZ     -11.6275   YZZZ     102.7874   ZZZZ    -325.6153
 -----------------------------------------------------------------
 Calculating analytic gradient of the SCF energy
 Gradient of CDS energy
            1           2           3           4           5           6
    1  -0.0006251  -0.0029409   0.0034609   0.0000821   0.0002208  -0.0001978
    2  -0.0013749  -0.0002006   0.0019083  -0.0002897   0.0003501  -0.0003933
    3  -0.0003588  -0.0047959   0.0050995  -0.0003010   0.0004060  -0.0000498
 Gradient of SCF Energy
            1           2           3           4           5           6
    1  -0.0250652   0.0534065  -0.0166538  -0.0105770  -0.0015628   0.0004522
    2  -0.0404510  -0.0119851   0.0120020   0.0499889  -0.0035725  -0.0059823
    3  -0.0222432   0.1006119  -0.0360170  -0.0443711  -0.0022999   0.0043194
 Max gradient component =       1.006E-01
 RMS gradient           =       3.516E-02
 Computing fast CPCM-SWIG gradient
 Updating gradient with PCM contributions...
 -- total gradient after adding PCM contribution --
---------------------------------------------------
  Atom         X              Y              Z     
---------------------------------------------------
   1      -0.015738       0.007523      -0.031213
   2       0.054532      -0.041495       0.116618
   3      -0.035310       0.014509      -0.070147
   4      -0.002391       0.043293      -0.025100
   5       0.004020       0.002573       0.002576
   6      -0.005113      -0.026402       0.007266
---------------------------------------------------
 Number of fixed atoms: 0
 Gradient time:  CPU 13.62 s  wall 3.73 s
 ----------------------------------------------------------------
             Standard Nuclear Orientation (Angstroms)
    I     Atom           X                Y                Z
 ----------------------------------------------------------------
    1      O      -0.2789840000     0.9808736000     0.4617916000
    2      C      -0.6900011000    -0.1620969000     0.3527143000
    3      O      -1.4087758000    -0.5160551000    -0.7294780000
    4      H      -0.4122997000    -0.9727942000     1.2992235000
    5      O      -0.1226248000    -1.8320755000     2.1286212000
    6      H      -0.5651373000    -2.7119559000     2.0172490000
 ----------------------------------------------------------------
 Nuclear Repulsion Energy =         102.96639583 hartrees
 There are       17 alpha and       16 beta electrons
 Discretize the solute cavity surface with Lebedev spheres
	Using 110 Lebedev grid points for each H atom
	Using 194 Lebedev grid points for other atoms
	Atomic van der Waals radii will be scaled by 1.20
 Remove points where switching function is < 1.0e-08
 Keep 634 surface tesserae and discard 362 interior tesserae
 Molecular Surface Area = 81.410 Angst**2

                       Distance Matrix (Angstroms)
             O (  1)   C (  2)   O (  3)   H (  4)   O (  5)
   C (  2)  1.219514
   O (  3)  2.221789  1.346501
   H (  4)  2.129761  1.276804  2.305907
   O (  5)  3.273446  2.502916  3.399239  1.228892
   H (  6)  4.017253  3.047630  3.616382  1.887751  0.991166
 
 Requested basis set is 6-311++G(2df,2p)
 There are 44 shells and 156 basis functions
 A cutoff of  1.0D-11 yielded    927 shell pairs
 There are     11751 function pairs (     14927 Cartesian)
 Smallest overlap matrix eigenvalue = 6.61E-04
 Guess MOs from SCF MO coefficient file

 -----------------------------------------------------------------------
  General SCF calculation program by
  Eric Jon Sundstrom, Paul Horn, Yuezhi Mao, Dmitri Zuev, Alec White,
  David Stuck, Shaama M.S., Shane Yost, Joonho Lee, David Small,
  Daniel Levine, Susi Lehtola, Hugh Burton, Evgeny Epifanovsky,
  Bang C. Huynh
 -----------------------------------------------------------------------
 Exchange:     0.1500 Hartree-Fock + 1.0000 wB97M-V + LR-HF
 Correlation:  1.0000 wB97M-V
 Using SG-2 standard quadrature grid
 Nonlocal Correlation:  VV10 with C = 0.0100 and b = 6.00 and scale = 1.00000
 Grid used for NLC:  SG-1 standard quadrature
 
 Citation of the SMD model:
 Marenich, A.V.; Cramer, C.J.; Truhlar, D.G.
 J. Phys. Chem. B 2009, 113, 6378-6396.
 iSolventCode=           1
 Solvent: water                                                           
 
 vradii
            1           2           3           4           5           6
    1   1.5200000   1.8500000   1.5200000   1.2000000   1.5200000   1.2000000
 -------------------------------------------------------
 OpenMP BLAS3 based DFT computing Module                
 Release: version 1.0, May 2013, Q-Chem Inc. Pittsburgh 
 -------------------------------------------------------
 A unrestricted SCF calculation will be
 performed using Roothaan-Hall, DIIS, GDM
 SCF converges when RMS gradient is below 1.0e-06
 ---------------------------------------
  Cycle       Energy         DIIS error
 ---------------------------------------
    1    -264.9676788329      3.90e-04  Roothaan Step
 ---------------------------------------
  Cycle       Energy         DIIS error
 ---------------------------------------
    1    -265.0766054736      4.98e-04  
    2    -265.0783459325      5.94e-04  Done DIIS. Switching to GDM
 ---------------------------------------
  Cycle       Energy        RMS Gradient
 ---------------------------------------
    1    -265.0783459325      1.63e-02   Normal BFGS step
    2    -265.0765529682      2.64e-02  Line search: overstep
    3    -265.0810749030      4.17e-03   Normal BFGS step
    4    -265.0811747245      3.24e-03   Normal BFGS step
    5    -265.0812122293      1.59e-03   Normal BFGS step
    6    -265.0812244865      1.32e-03   Normal BFGS step
    7    -265.0812289723      6.50e-04   Normal BFGS step
    8    -265.0812307395      3.56e-04   Normal BFGS step
    9    -265.0812309575      2.51e-04   Normal BFGS step
   10    -265.0812310828      5.27e-05   Normal BFGS step
   11    -265.0812310914      2.92e-05   Normal BFGS step
   12    -265.0812310940      2.01e-05   Normal BFGS step
   13    -265.0812310949      1.19e-05   Normal BFGS step
   14    -265.0812310953      5.89e-06   Normal BFGS step
   15    -265.0812310955      2.98e-06   Normal BFGS step
   16    -265.0812310956      8.30e-07  Convergence criterion met
 ---------------------------------------
 SCF time:   CPU 102.50s  wall 27.00s 
<S^2> =          0.756031012
(3)  G-ENP(liq) elect-nuc-pol free energy of system     -265.081231096 a.u.
(4)  G-CDS(liq) cavity-dispersion-solvent structure 
     free energy                                                4.4133 kcal/mol
(6)  G-S(liq) free energy of system                     -265.074198076 a.u.
 SCF   energy in the final basis set =     -265.0741980762
 Total energy in the final basis set =     -265.0741980762
 
 --------------------------------------------------------------
 
                    Orbital Energies (a.u.)
 --------------------------------------------------------------
 
 Alpha MOs
 -- Occupied --
-19.3398 -19.3205 -19.3112 -10.4632  -1.2020  -1.0866  -1.0789  -0.7031
 -0.6108  -0.5559  -0.5363  -0.5344  -0.4627  -0.4113  -0.3906  -0.3834
 -0.3352
 -- Virtual --
  0.0416   0.0633   0.0846   0.0872   0.1075   0.1090   0.1549   0.2206
  0.2271   0.2305   0.2374   0.2489   0.2562   0.2885   0.3103   0.3185
  0.3187   0.3401   0.3540   0.3875   0.4101   0.4794   0.5171   0.5863
  0.6063   0.6181   0.7210   0.7358   0.7888   0.8246   0.8288   0.8774
  0.9109   0.9983   1.0337   1.0520   1.0897   1.1201   1.1379   1.1578
  1.1768   1.2027   1.2074   1.2124   1.2366   1.3991   1.4081   1.4376
  1.5700   1.6070   1.6353   1.6447   1.6640   1.7785   1.8163   1.8325
  1.9237   1.9493   1.9804   2.0695   2.1720   2.3030   2.3609   2.4019
  2.4892   2.5442   2.6542   2.7731   2.8034   2.8352   3.0430   3.0977
  3.1096   3.2402   3.3501   3.4297   3.4375   3.4695   3.5720   3.5883
  3.6077   3.6728   3.7337   3.8922   3.9474   3.9765   4.1052   4.1994
  4.2786   4.4744   5.1216   5.1369   5.1407   5.1438   5.1648   5.1775
  5.1818   5.1846   5.2207   5.2476   5.2538   5.2652   5.3002   5.3133
  5.3441   5.3852   5.4143   5.5726   5.5819   5.6099   5.6340   5.6977
  5.9611   6.0269   6.3360   6.3445   6.6583   6.7964   6.8871   6.9355
  6.9771   6.9838   7.0016   7.0819   7.1089   7.1369   7.1531   7.2924
  7.3218   7.3494   7.5639   7.6493   7.6875   7.7096   7.7648  24.9994
 50.4809  50.5543  50.6757
 
 Beta MOs
 -- Occupied --
-19.3335 -19.3112 -19.3062 -10.4572  -1.1892  -1.0669  -1.0635  -0.6712
 -0.5961  -0.5345  -0.5272  -0.5167  -0.4077  -0.3999  -0.3847  -0.3614
 -- Virtual --
 -0.0594   0.0444   0.0632   0.0855   0.0910   0.1077   0.1163   0.1555
  0.2208   0.2288   0.2327   0.2394   0.2497   0.2566   0.2899   0.3102
  0.3186   0.3190   0.3457   0.3576   0.3927   0.4231   0.4917   0.5278
  0.6001   0.6111   0.6237   0.7299   0.7408   0.7939   0.8294   0.8309
  0.8828   0.9146   1.0026   1.0365   1.0588   1.0927   1.1262   1.1412
  1.1689   1.1824   1.2060   1.2152   1.2214   1.2445   1.4045   1.4205
  1.4438   1.5806   1.6131   1.6406   1.6500   1.6757   1.7929   1.8262
  1.8396   1.9321   1.9604   1.9965   2.0761   2.1776   2.3087   2.3715
  2.4087   2.5015   2.5556   2.6647   2.7814   2.8103   2.8424   3.0613
  3.1048   3.1383   3.2525   3.3685   3.4427   3.4552   3.4898   3.5852
  3.5958   3.6248   3.6927   3.7388   3.9055   3.9583   3.9844   4.1175
  4.2093   4.2871   4.4979   5.1338   5.1504   5.1572   5.1585   5.1742
  5.1862   5.1937   5.1968   5.2300   5.2642   5.2735   5.2771   5.3198
  5.3293   5.3641   5.3996   5.4372   5.5809   5.5961   5.6171   5.6462
  5.7185   5.9772   6.0378   6.3448   6.3702   6.6723   6.8194   6.9052
  6.9603   6.9982   7.0082   7.0169   7.1105   7.1362   7.1603   7.1692
  7.3055   7.3294   7.3739   7.5849   7.6737   7.7228   7.7242   7.7890
 25.0047  50.4880  50.5581  50.6807
 --------------------------------------------------------------
 
          Ground-State Mulliken Net Atomic Charges

     Atom                 Charge (a.u.)    Spin (a.u.)
  --------------------------------------------------------
      1 O                    -0.426841       0.213551
      2 C                     0.097752       0.298520
      3 O                    -0.646577       0.171619
      4 H                     0.454719       0.031603
      5 O                    -0.807413       0.283606
      6 H                     0.328359       0.001101
  --------------------------------------------------------
  Sum of atomic charges =    -1.000000
  Sum of spin   charges =     1.000000

 -----------------------------------------------------------------
                    Cartesian Multipole Moments
 -----------------------------------------------------------------
    Charge (ESU x 10^10)
                -4.8032
    Dipole Moment (Debye)
         X       2.8807      Y       0.2917      Z      -1.4775
       Tot       3.2506
    Quadrupole Moments (Debye-Ang)
        XX     -31.3430     XY       0.6784     YY     -27.5381
        XZ      -5.7369     YZ       0.8990     ZZ     -37.4299
    Octopole Moments (Debye-Ang^2)
       XXX      56.6798    XXY      15.6497    XYY      10.2585
       YYY      19.1533    XXZ      -9.9126    XYZ       7.5526
       YYZ     -13.7994    XZZ      15.5606    YZZ      23.7618
       ZZZ     -71.4488
    Hexadecapole Moments (Debye-Ang^3)
      XXXX    -140.2764   XXXY     -24.3618   XXYY     -59.3427
      XYYY       4.0798   YYYY    -164.9328   XXXZ     -15.3022
      XXYZ      19.9045   XYYZ     -19.4995   YYYZ      38.4729
      XXZZ     -66.9302   XYZZ       2.0417   YYZZ     -83.7605
      XZZZ     -11.6186   YZZZ     102.7883   ZZZZ    -325.6205
 -----------------------------------------------------------------
 Calculating analytic gradient of the SCF energy
 Gradient of CDS energy
            1           2           3           4           5           6
    1  -0.0006194  -0.0029461   0.0034604   0.0000821   0.0002208  -0.0001978
    2  -0.0013649  -0.0002109   0.0019086  -0.0002897   0.0003501  -0.0003933
    3  -0.0003583  -0.0047962   0.0050992  -0.0003010   0.0004060  -0.0000498
 Gradient of SCF Energy
            1           2           3           4           5           6
    1  -0.0253846   0.0536975  -0.0166055  -0.0105964  -0.0015672   0.0004563
    2  -0.0412693  -0.0113154   0.0121439   0.0500034  -0.0035856  -0.0059771
    3  -0.0224149   0.1006559  -0.0358987  -0.0443573  -0.0023063   0.0043212
 Max gradient component =       1.007E-01
 RMS gradient           =       3.525E-02
 Computing fast CPCM-SWIG gradient
 Updating gradient with PCM contributions...
 -- total gradient after adding PCM contribution --
---------------------------------------------------
  Atom         X              Y              Z     
---------------------------------------------------
   1      -0.016190       0.006677      -0.031438
   2       0.054918      -0.040898       0.116619
   3      -0.035212       0.014746      -0.069935
   4      -0.002426       0.043304      -0.025083
   5       0.004024       0.002573       0.002570
   6      -0.005113      -0.026402       0.007267
---------------------------------------------------
 Number of fixed atoms: 0
 Gradient time:  CPU 13.42 s  wall 3.67 s
 ----------------------------------------------------------------
             Standard Nuclear Orientation (Angstroms)
    I     Atom           X                Y                Z
 ----------------------------------------------------------------
    1      O      -0.2779840000     0.9818736000     0.4617916000
    2      C      -0.6900011000    -0.1620969000     0.3527143000
    3      O      -1.4087758000    -0.5160551000    -0.7294780000
    4      H      -0.4122997000    -0.9727942000     1.2992235000
    5      O      -0.1226248000    -1.8320755000     2.1286212000
    6      H      -0.5651373000    -2.7119559000     2.0172490000
 ----------------------------------------------------------------
 Nuclear Repulsion Energy =         102.93280535 hartrees
 There are       17 alpha and       16 beta electrons
 Discretize the solute cavity surface with Lebedev spheres
	Using 110 Lebedev grid points for each H atom
	Using 194 Lebedev grid points for other atoms
	Atomic van der Waals radii will be scaled by 1.20
 Remove points where switching function is < 1.0e-08
 Keep 634 surface tesserae and discard 362 interior tesserae
 Molecular Surface Area = 81.423 Angst**2

                       Distance Matrix (Angstroms)
             O (  1)   C (  2)   O (  3)   H (  4)   O (  5)
   C (  2)  1.220788
   O (  3)  2.222972  1.346501
   H (  4)  2.130741  1.276804  2.305907
   O (  5)  3.274258  2.502916  3.399239  1.228892
   H (  6)  4.018244  3.047630  3.616382  1.887751  0.991166
 
 Requested basis set is 6-311++G(2df,2p)
 There are 44 shells and 156 basis functions
 A cutoff of  1.0D-11 yielded    927 shell pairs
 There are     11751 function pairs (     14927 Cartesian)
 Smallest overlap matrix eigenvalue = 6.62E-04
 Guess MOs from SCF MO coefficient file

 -----------------------------------------------------------------------
  General SCF calculation program by
  Eric Jon Sundstrom, Paul Horn, Yuezhi Mao, Dmitri Zuev, Alec White,
  David Stuck, Shaama M.S., Shane Yost, Joonho Lee, David Small,
  Daniel Levine, Susi Lehtola, Hugh Burton, Evgeny Epifanovsky,
  Bang C. Huynh
 -----------------------------------------------------------------------
 Exchange:     0.1500 Hartree-Fock + 1.0000 wB97M-V + LR-HF
 Correlation:  1.0000 wB97M-V
 Using SG-2 standard quadrature grid
 Nonlocal Correlation:  VV10 with C = 0.0100 and b = 6.00 and scale = 1.00000
 Grid used for NLC:  SG-1 standard quadrature
 
 Citation of the SMD model:
 Marenich, A.V.; Cramer, C.J.; Truhlar, D.G.
 J. Phys. Chem. B 2009, 113, 6378-6396.
 iSolventCode=           1
 Solvent: water                                                           
 
 vradii
            1           2           3           4           5           6
    1   1.5200000   1.8500000   1.5200000   1.2000000   1.5200000   1.2000000
 -------------------------------------------------------
 OpenMP BLAS3 based DFT computing Module                
 Release: version 1.0, May 2013, Q-Chem Inc. Pittsburgh 
 -------------------------------------------------------
 A unrestricted SCF calculation will be
 performed using Roothaan-Hall, DIIS, GDM
 SCF converges when RMS gradient is below 1.0e-06
 ---------------------------------------
  Cycle       Energy         DIIS error
 ---------------------------------------
    1    -264.9676968560      3.90e-04  Roothaan Step
 ---------------------------------------
  Cycle       Energy         DIIS error
 ---------------------------------------
    1    -265.0766300286      4.97e-04  
    2    -265.0783871356      5.91e-04  Done DIIS. Switching to GDM
 ---------------------------------------
  Cycle       Energy        RMS Gradient
 ---------------------------------------
    1    -265.0783871356      1.61e-02   Normal BFGS step
    2    -265.0766317809      2.61e-02  Line search: overstep
    3    -265.0810872876      4.20e-03   Normal BFGS step
    4    -265.0811870799      3.27e-03   Normal BFGS step
    5    -265.0812241660      1.60e-03   Normal BFGS step
    6    -265.0812365668      1.33e-03   Normal BFGS step
    7    -265.0812410709      6.58e-04   Normal BFGS step
    8    -265.0812428605      3.61e-04   Normal BFGS step
    9    -265.0812430756      2.52e-04   Normal BFGS step
   10    -265.0812432020      5.22e-05   Normal BFGS step
   11    -265.0812432099      2.45e-05   Normal BFGS step
   12    -265.0812432120      1.70e-05   Normal BFGS step
   13    -265.0812432126      1.07e-05   Normal BFGS step
   14    -265.0812432130      4.89e-06   Normal BFGS step
   15    -265.0812432131      2.81e-06   Normal BFGS step
   16    -265.0812432132      8.65e-07  Convergence criterion met
 ---------------------------------------
 SCF time:   CPU 102.45s  wall 26.00s 
<S^2> =          0.756038437
(3)  G-ENP(liq) elect-nuc-pol free energy of system     -265.081243213 a.u.
(4)  G-CDS(liq) cavity-dispersion-solvent structure 
     free energy                                                4.4109 kcal/mol
(6)  G-S(liq) free energy of system                     -265.074213970 a.u.
 SCF   energy in the final basis set =     -265.0742139699
 Total energy in the final basis set =     -265.0742139699
 
 --------------------------------------------------------------
 
                    Orbital Energies (a.u.)
 --------------------------------------------------------------
 
 Alpha MOs
 -- Occupied --
-19.3398 -19.3206 -19.3114 -10.4635  -1.2013  -1.0866  -1.0790  -0.7031
 -0.6108  -0.5558  -0.5362  -0.5341  -0.4627  -0.4113  -0.3907  -0.3835
 -0.3353
 -- Virtual --
  0.0416   0.0633   0.0846   0.0870   0.1075   0.1089   0.1549   0.2206
  0.2271   0.2305   0.2374   0.2489   0.2562   0.2884   0.3103   0.3185
  0.3187   0.3400   0.3540   0.3875   0.4100   0.4790   0.5167   0.5862
  0.6063   0.6179   0.7206   0.7358   0.7887   0.8244   0.8288   0.8773
  0.9108   0.9983   1.0338   1.0520   1.0896   1.1201   1.1379   1.1578
  1.1768   1.2027   1.2073   1.2124   1.2365   1.3989   1.4078   1.4374
  1.5700   1.6070   1.6351   1.6445   1.6638   1.7783   1.8156   1.8324
  1.9236   1.9490   1.9800   2.0692   2.1715   2.3029   2.3608   2.4017
  2.4888   2.5438   2.6538   2.7729   2.8034   2.8351   3.0430   3.0975
  3.1094   3.2406   3.3503   3.4297   3.4370   3.4701   3.5718   3.5866
  3.6076   3.6723   3.7337   3.8923   3.9472   3.9765   4.1031   4.1988
  4.2784   4.4744   5.1217   5.1369   5.1407   5.1439   5.1646   5.1774
  5.1816   5.1844   5.2205   5.2473   5.2536   5.2648   5.3001   5.3133
  5.3440   5.3845   5.4141   5.5713   5.5809   5.6098   5.6330   5.6975
  5.9594   6.0263   6.3319   6.3435   6.6567   6.7938   6.8870   6.9354
  6.9770   6.9834   7.0005   7.0819   7.1084   7.1357   7.1525   7.2924
  7.3215   7.3494   7.5638   7.6485   7.6872   7.7096   7.7643  24.9970
 50.4809  50.5540  50.6740
 
 Beta MOs
 -- Occupied --
-19.3335 -19.3112 -19.3064 -10.4575  -1.1886  -1.0670  -1.0635  -0.6712
 -0.5960  -0.5344  -0.5269  -0.5167  -0.4076  -0.3999  -0.3847  -0.3614
 -- Virtual --
 -0.0595   0.0444   0.0632   0.0855   0.0909   0.1077   0.1161   0.1555
  0.2208   0.2288   0.2327   0.2394   0.2497   0.2566   0.2899   0.3102
  0.3186   0.3190   0.3456   0.3576   0.3927   0.4229   0.4913   0.5276
  0.6000   0.6110   0.6236   0.7295   0.7407   0.7937   0.8292   0.8308
  0.8827   0.9144   1.0026   1.0366   1.0588   1.0927   1.1262   1.1412
  1.1689   1.1824   1.2060   1.2152   1.2213   1.2444   1.4044   1.4201
  1.4437   1.5806   1.6131   1.6404   1.6498   1.6755   1.7927   1.8255
  1.8394   1.9319   1.9600   1.9962   2.0758   2.1771   2.3086   2.3713
  2.4086   2.5010   2.5552   2.6644   2.7812   2.8102   2.8423   3.0612
  3.1046   3.1381   3.2528   3.3688   3.4427   3.4547   3.4904   3.5849
  3.5941   3.6248   3.6922   3.7388   3.9055   3.9581   3.9842   4.1155
  4.2086   4.2869   4.4980   5.1339   5.1505   5.1572   5.1585   5.1741
  5.1860   5.1936   5.1967   5.2298   5.2639   5.2733   5.2767   5.3198
  5.3293   5.3639   5.3989   5.4370   5.5796   5.5950   5.6171   5.6452
  5.7183   5.9754   6.0371   6.3407   6.3693   6.6706   6.8167   6.9051
  6.9602   6.9981   7.0079   7.0157   7.1104   7.1353   7.1593   7.1688
  7.3055   7.3291   7.3738   7.5847   7.6729   7.7231   7.7236   7.7887
 25.0022  50.4880  50.5578  50.6789
 --------------------------------------------------------------
 
          Ground-State Mulliken Net Atomic Charges

     Atom                 Charge (a.u.)    Spin (a.u.)
  --------------------------------------------------------
      1 O                    -0.427989       0.213483
      2 C                     0.097722       0.298498
      3 O                    -0.645668       0.171654
      4 H                     0.454808       0.031461
      5 O                    -0.807258       0.283817
      6 H                     0.328384       0.001088
  --------------------------------------------------------
  Sum of atomic charges =    -1.000000
  Sum of spin   charges =     1.000000

 -----------------------------------------------------------------
                    Cartesian Multipole Moments
 -----------------------------------------------------------------
    Charge (ESU x 10^10)
                -4.8032
    Dipole Moment (Debye)
         X       2.8735      Y       0.2795      Z      -1.4812
       Tot       3.2448
    Quadrupole Moments (Debye-Ang)
        XX     -31.3359     XY       0.6826     YY     -27.5408
        XZ      -5.7326     YZ       0.8926     ZZ     -37.4254
    Octopole Moments (Debye-Ang^2)
       XXX      56.6419    XXY      15.6307    XYY      10.2475
       YYY      19.0951    XXZ      -9.9223    XYZ       7.5502
       YYZ     -13.7980    XZZ      15.5489    YZZ      23.7330
       ZZZ     -71.4483
    Hexadecapole Moments (Debye-Ang^3)
      XXXX    -140.2100   XXXY     -24.3545   XXYY     -59.3420
      XYYY       4.0845   YYYY    -164.9867   XXXZ     -15.2906
      XXYZ      19.9010   XYYZ     -19.4968   YYYZ      38.4305
      XXZZ     -66.9161   XYZZ       2.0434   YYZZ     -83.7471
      XZZZ     -11.6152   YZZZ     102.7407   ZZZZ    -325.5706
 -----------------------------------------------------------------
 Calculating analytic gradient of the SCF energy
 Gradient of CDS energy
            1           2           3           4           5           6
    1  -0.0006273  -0.0029384   0.0034606   0.0000821   0.0002208  -0.0001978
    2  -0.0013850  -0.0001908   0.0019086  -0.0002897   0.0003501  -0.0003933
    3  -0.0003598  -0.0047946   0.0050993  -0.0003010   0.0004060  -0.0000498
 Gradient of SCF Energy
            1           2           3           4           5           6
    1  -0.0248143   0.0532358  -0.0167170  -0.0105981  -0.0015575   0.0004510
    2  -0.0397675  -0.0126736   0.0120205   0.0499754  -0.0035635  -0.0059914
    3  -0.0222027   0.1006145  -0.0360669  -0.0443679  -0.0022987   0.0043217
 Max gradient component =       1.006E-01
 RMS gradient           =       3.511E-02
 Computing fast CPCM-SWIG gradient
 Updating gradient with PCM contributions...
 -- total gradient after adding PCM contribution --
---------------------------------------------------
  Atom         X              Y              Z     
---------------------------------------------------
   1      -0.015543       0.008232      -0.031178
   2       0.054463      -0.042190       0.116640
   3      -0.035407       0.014530      -0.070221
   4      -0.002426       0.043261      -0.025089
   5       0.004023       0.002565       0.002578
   6      -0.005110      -0.026399       0.007269
---------------------------------------------------
 Number of fixed atoms: 0
 Gradient time:  CPU 13.14 s  wall 3.59 s
 ----------------------------------------------------------------
             Standard Nuclear Orientation (Angstroms)
    I     Atom           X                Y                Z
 ----------------------------------------------------------------
    1      O      -0.2779840000     0.9798736000     0.4617916000
    2      C      -0.6900011000    -0.1620969000     0.3527143000
    3      O      -1.4087758000    -0.5160551000    -0.7294780000
    4      H      -0.4122997000    -0.9727942000     1.2992235000
    5      O      -0.1226248000    -1.8320755000     2.1286212000
    6      H      -0.5651373000    -2.7119559000     2.0172490000
 ----------------------------------------------------------------
 Nuclear Repulsion Energy =         102.98165850 hartrees
 There are       17 alpha and       16 beta electrons
 Discretize the solute cavity surface with Lebedev spheres
	Using 110 Lebedev grid points for each H atom
	Using 194 Lebedev grid points for other atoms
	Atomic van der Waals radii will be scaled by 1.20
 Remove points where switching function is < 1.0e-08
 Keep 634 surface tesserae and discard 362 interior tesserae
 Molecular Surface Area = 81.405 Angst**2

                       Distance Matrix (Angstroms)
             O (  1)   C (  2)   O (  3)   H (  4)   O (  5)
   C (  2)  1.218915
   O (  3)  2.221625  1.346501
   H (  4)  2.128907  1.276804  2.305907
   O (  5)  3.272540  2.502916  3.399239  1.228892
   H (  6)  4.016405  3.047630  3.616382  1.887751  0.991166
 
 Requested basis set is 6-311++G(2df,2p)
 There are 44 shells and 156 basis functions
 A cutoff of  1.0D-11 yielded    927 shell pairs
 There are     11751 function pairs (     14927 Cartesian)
 Smallest overlap matrix eigenvalue = 6.61E-04
 Guess MOs from SCF MO coefficient file

 -----------------------------------------------------------------------
  General SCF calculation program by
  Eric Jon Sundstrom, Paul Horn, Yuezhi Mao, Dmitri Zuev, Alec White,
  David Stuck, Shaama M.S., Shane Yost, Joonho Lee, David Small,
  Daniel Levine, Susi Lehtola, Hugh Burton, Evgeny Epifanovsky,
  Bang C. Huynh
 -----------------------------------------------------------------------
 Exchange:     0.1500 Hartree-Fock + 1.0000 wB97M-V + LR-HF
 Correlation:  1.0000 wB97M-V
 Using SG-2 standard quadrature grid
 Nonlocal Correlation:  VV10 with C = 0.0100 and b = 6.00 and scale = 1.00000
 Grid used for NLC:  SG-1 standard quadrature
 
 Citation of the SMD model:
 Marenich, A.V.; Cramer, C.J.; Truhlar, D.G.
 J. Phys. Chem. B 2009, 113, 6378-6396.
 iSolventCode=           1
 Solvent: water                                                           
 
 vradii
            1           2           3           4           5           6
    1   1.5200000   1.8500000   1.5200000   1.2000000   1.5200000   1.2000000
 -------------------------------------------------------
 OpenMP BLAS3 based DFT computing Module                
 Release: version 1.0, May 2013, Q-Chem Inc. Pittsburgh 
 -------------------------------------------------------
 A unrestricted SCF calculation will be
 performed using Roothaan-Hall, DIIS, GDM
 SCF converges when RMS gradient is below 1.0e-06
 ---------------------------------------
  Cycle       Energy         DIIS error
 ---------------------------------------
    1    -264.9677197233      3.90e-04  Roothaan Step
 ---------------------------------------
  Cycle       Energy         DIIS error
 ---------------------------------------
    1    -265.0766512844      4.98e-04  
    2    -265.0783868394      5.94e-04  Done DIIS. Switching to GDM
 ---------------------------------------
  Cycle       Energy        RMS Gradient
 ---------------------------------------
    1    -265.0783868394      1.64e-02   Normal BFGS step
    2    -265.0765828190      2.65e-02  Line search: overstep
    3    -265.0811192860      4.14e-03   Normal BFGS step
    4    -265.0812190079      3.22e-03   Normal BFGS step
    5    -265.0812565290      1.58e-03   Normal BFGS step
    6    -265.0812686826      1.31e-03   Normal BFGS step
    7    -265.0812731164      6.48e-04   Normal BFGS step
    8    -265.0812748656      3.53e-04   Normal BFGS step
    9    -265.0812750829      2.49e-04   Normal BFGS step
   10    -265.0812752067      5.32e-05   Normal BFGS step
   11    -265.0812752155      2.98e-05   Normal BFGS step
   12    -265.0812752182      2.05e-05   Normal BFGS step
   13    -265.0812752191      1.20e-05   Normal BFGS step
   14    -265.0812752196      6.05e-06   Normal BFGS step
   15    -265.0812752198      3.02e-06   Normal BFGS step
   16    -265.0812752198      8.37e-07  Convergence criterion met
 ---------------------------------------
 SCF time:   CPU 104.04s  wall 27.00s 
<S^2> =          0.756025020
(3)  G-ENP(liq) elect-nuc-pol free energy of system     -265.081275220 a.u.
(4)  G-CDS(liq) cavity-dispersion-solvent structure 
     free energy                                                4.4142 kcal/mol
(6)  G-S(liq) free energy of system                     -265.074240799 a.u.
 SCF   energy in the final basis set =     -265.0742407992
 Total energy in the final basis set =     -265.0742407992
 
 --------------------------------------------------------------
 
                    Orbital Energies (a.u.)
 --------------------------------------------------------------
 
 Alpha MOs
 -- Occupied --
-19.3398 -19.3205 -19.3112 -10.4631  -1.2023  -1.0866  -1.0789  -0.7031
 -0.6109  -0.5560  -0.5364  -0.5345  -0.4627  -0.4113  -0.3907  -0.3834
 -0.3351
 -- Virtual --
  0.0416   0.0633   0.0846   0.0872   0.1076   0.1091   0.1549   0.2206
  0.2271   0.2305   0.2374   0.2489   0.2562   0.2885   0.3103   0.3185
  0.3187   0.3401   0.3540   0.3876   0.4101   0.4796   0.5172   0.5864
  0.6064   0.6182   0.7212   0.7358   0.7887   0.8247   0.8288   0.8774
  0.9111   0.9984   1.0337   1.0519   1.0896   1.1201   1.1378   1.1578
  1.1768   1.2027   1.2074   1.2124   1.2367   1.3992   1.4084   1.4378
  1.5701   1.6070   1.6353   1.6446   1.6642   1.7786   1.8164   1.8326
  1.9239   1.9494   1.9804   2.0699   2.1722   2.3030   2.3610   2.4020
  2.4896   2.5445   2.6544   2.7731   2.8034   2.8353   3.0430   3.0978
  3.1096   3.2400   3.3501   3.4297   3.4376   3.4693   3.5723   3.5891
  3.6075   3.6730   3.7337   3.8922   3.9476   3.9765   4.1060   4.1997
  4.2785   4.4744   5.1216   5.1369   5.1407   5.1438   5.1648   5.1775
  5.1818   5.1847   5.2207   5.2477   5.2539   5.2655   5.3002   5.3134
  5.3442   5.3856   5.4144   5.5729   5.5825   5.6099   5.6344   5.6978
  5.9616   6.0274   6.3381   6.3446   6.6593   6.7981   6.8871   6.9356
  6.9772   6.9839   7.0021   7.0820   7.1091   7.1376   7.1534   7.2926
  7.3218   7.3495   7.5640   7.6496   7.6876   7.7095   7.7650  25.0006
 50.4810  50.5544  50.6765
 
 Beta MOs
 -- Occupied --
-19.3335 -19.3111 -19.3061 -10.4571  -1.1895  -1.0670  -1.0635  -0.6711
 -0.5962  -0.5346  -0.5273  -0.5167  -0.4077  -0.3999  -0.3847  -0.3614
 -- Virtual --
 -0.0592   0.0444   0.0632   0.0855   0.0910   0.1077   0.1164   0.1554
  0.2208   0.2288   0.2327   0.2394   0.2497   0.2566   0.2899   0.3102
  0.3186   0.3190   0.3457   0.3575   0.3927   0.4231   0.4919   0.5279
  0.6002   0.6111   0.6238   0.7301   0.7408   0.7938   0.8295   0.8309
  0.8828   0.9148   1.0027   1.0365   1.0587   1.0927   1.1261   1.1412
  1.1689   1.1824   1.2060   1.2152   1.2214   1.2446   1.4046   1.4208
  1.4440   1.5807   1.6132   1.6406   1.6499   1.6758   1.7930   1.8263
  1.8396   1.9322   1.9605   1.9966   2.0765   2.1778   2.3087   2.3715
  2.4088   2.5018   2.5558   2.6649   2.7814   2.8103   2.8425   3.0612
  3.1050   3.1383   3.2523   3.3685   3.4427   3.4554   3.4895   3.5856
  3.5966   3.6246   3.6929   3.7388   3.9054   3.9585   3.9844   4.1182
  4.2096   4.2872   4.4980   5.1338   5.1504   5.1571   5.1585   5.1743
  5.1862   5.1937   5.1968   5.2300   5.2642   5.2737   5.2775   5.3199
  5.3294   5.3642   5.4000   5.4373   5.5812   5.5966   5.6171   5.6466
  5.7186   5.9777   6.0384   6.3470   6.3703   6.6733   6.8211   6.9052
  6.9603   6.9982   7.0083   7.0174   7.1105   7.1365   7.1609   7.1694
  7.3056   7.3294   7.3740   7.5849   7.6740   7.7223   7.7247   7.7892
 25.0058  50.4881  50.5583  50.6815
 --------------------------------------------------------------
 
          Ground-State Mulliken Net Atomic Charges

     Atom                 Charge (a.u.)    Spin (a.u.)
  --------------------------------------------------------
      1 O                    -0.426287       0.213523
      2 C                     0.097790       0.298584
      3 O                    -0.646902       0.171645
      4 H                     0.454633       0.031732
      5 O                    -0.807571       0.283411
      6 H                     0.328338       0.001105
  --------------------------------------------------------
  Sum of atomic charges =    -1.000000
  Sum of spin   charges =     1.000000

 -----------------------------------------------------------------
                    Cartesian Multipole Moments
 -----------------------------------------------------------------
    Charge (ESU x 10^10)
                -4.8032
    Dipole Moment (Debye)
         X       2.8803      Y       0.2993      Z      -1.4774
       Tot       3.2509
    Quadrupole Moments (Debye-Ang)
        XX     -31.3449     XY       0.6728     YY     -27.5348
        XZ      -5.7397     YZ       0.9064     ZZ     -37.4340
    Octopole Moments (Debye-Ang^2)
       XXX      56.6712    XXY      15.6639    XYY      10.2499
       YYY      19.1987    XXZ      -9.9092    XYZ       7.5502
       YYZ     -13.8043    XZZ      15.5559    YZZ      23.7844
       ZZZ     -71.4581
    Hexadecapole Moments (Debye-Ang^3)
      XXXX    -140.2819   XXXY     -24.3935   XXYY     -59.3286
      XYYY       4.0466   YYYY    -164.8758   XXXZ     -15.3180
      XXYZ      19.9120   XYYZ     -19.5048   YYYZ      38.5165
      XXZZ     -66.9326   XYZZ       2.0303   YYZZ     -83.7706
      XZZZ     -11.6309   YZZZ     102.8351   ZZZZ    -325.6654
 -----------------------------------------------------------------
 Calculating analytic gradient of the SCF energy
 Gradient of CDS energy
            1           2           3           4           5           6
    1  -0.0006173  -0.0029485   0.0034607   0.0000821   0.0002208  -0.0001978
    2  -0.0013549  -0.0002206   0.0019083  -0.0002897   0.0003501  -0.0003933
    3  -0.0003572  -0.0047974   0.0050994  -0.0003010   0.0004060  -0.0000498
 Gradient of SCF Energy
            1           2           3           4           5           6
    1  -0.0256393   0.0538717  -0.0165422  -0.0105753  -0.0015725   0.0004575
    2  -0.0419596  -0.0106201   0.0121253   0.0500169  -0.0035946  -0.0059680
    3  -0.0224560   0.1006539  -0.0358488  -0.0443605  -0.0023075   0.0043189
 Max gradient component =       1.007E-01
 RMS gradient           =       3.530E-02
 Computing fast CPCM-SWIG gradient
 Updating gradient with PCM contributions...
 -- total gradient after adding PCM contribution --
---------------------------------------------------
  Atom         X              Y              Z     
---------------------------------------------------
   1      -0.016389       0.005960      -0.031475
   2       0.054990      -0.040196       0.116597
   3      -0.035115       0.014724      -0.069861
   4      -0.002391       0.043336      -0.025093
   5       0.004021       0.002581       0.002568
   6      -0.005116      -0.026405       0.007264
---------------------------------------------------
 Number of fixed atoms: 0
 Gradient time:  CPU 13.42 s  wall 3.64 s
 ----------------------------------------------------------------
             Standard Nuclear Orientation (Angstroms)
    I     Atom           X                Y                Z
 ----------------------------------------------------------------
    1      O      -0.2779840000     0.9808736000     0.4627916000
    2      C      -0.6900011000    -0.1620969000     0.3527143000
    3      O      -1.4087758000    -0.5160551000    -0.7294780000
    4      H      -0.4122997000    -0.9727942000     1.2992235000
    5      O      -0.1226248000    -1.8320755000     2.1286212000
    6      H      -0.5651373000    -2.7119559000     2.0172490000
 ----------------------------------------------------------------
 Nuclear Repulsion Energy =         102.95408721 hartrees
 There are       17 alpha and       16 beta electrons
 Discretize the solute cavity surface with Lebedev spheres
	Using 110 Lebedev grid points for each H atom
	Using 194 Lebedev grid points for other atoms
	Atomic van der Waals radii will be scaled by 1.20
 Remove points where switching function is < 1.0e-08
 Keep 634 surface tesserae and discard 362 interior tesserae
 Molecular Surface Area = 81.414 Angst**2

                       Distance Matrix (Angstroms)
             O (  1)   C (  2)   O (  3)   H (  4)   O (  5)
   C (  2)  1.219941
   O (  3)  2.222834  1.346501
   H (  4)  2.129431  1.276804  2.305907
   O (  5)  3.272890  2.502916  3.399239  1.228892
   H (  6)  4.016937  3.047630  3.616382  1.887751  0.991166
 
 Requested basis set is 6-311++G(2df,2p)
 There are 44 shells and 156 basis functions
 A cutoff of  1.0D-11 yielded    927 shell pairs
 There are     11751 function pairs (     14927 Cartesian)
 Smallest overlap matrix eigenvalue = 6.62E-04
 Guess MOs from SCF MO coefficient file

 -----------------------------------------------------------------------
  General SCF calculation program by
  Eric Jon Sundstrom, Paul Horn, Yuezhi Mao, Dmitri Zuev, Alec White,
  David Stuck, Shaama M.S., Shane Yost, Joonho Lee, David Small,
  Daniel Levine, Susi Lehtola, Hugh Burton, Evgeny Epifanovsky,
  Bang C. Huynh
 -----------------------------------------------------------------------
 Exchange:     0.1500 Hartree-Fock + 1.0000 wB97M-V + LR-HF
 Correlation:  1.0000 wB97M-V
 Using SG-2 standard quadrature grid
 Nonlocal Correlation:  VV10 with C = 0.0100 and b = 6.00 and scale = 1.00000
 Grid used for NLC:  SG-1 standard quadrature
 
 Citation of the SMD model:
 Marenich, A.V.; Cramer, C.J.; Truhlar, D.G.
 J. Phys. Chem. B 2009, 113, 6378-6396.
 iSolventCode=           1
 Solvent: water                                                           
 
 vradii
            1           2           3           4           5           6
    1   1.5200000   1.8500000   1.5200000   1.2000000   1.5200000   1.2000000
 -------------------------------------------------------
 OpenMP BLAS3 based DFT computing Module                
 Release: version 1.0, May 2013, Q-Chem Inc. Pittsburgh 
 -------------------------------------------------------
 A unrestricted SCF calculation will be
 performed using Roothaan-Hall, DIIS, GDM
 SCF converges when RMS gradient is below 1.0e-06
 ---------------------------------------
  Cycle       Energy         DIIS error
 ---------------------------------------
    1    -264.9677770198      3.90e-04  Roothaan Step
 ---------------------------------------
  Cycle       Energy         DIIS error
 ---------------------------------------
    1    -265.0767085931      4.96e-04  
    2    -265.0784622834      5.91e-04  Done DIIS. Switching to GDM
 ---------------------------------------
  Cycle       Energy        RMS Gradient
 ---------------------------------------
    1    -265.0784622834      1.62e-02   Normal BFGS step
    2    -265.0767008434      2.61e-02  Line search: overstep
    3    -265.0811629794      4.18e-03   Normal BFGS step
    4    -265.0812626589      3.26e-03   Normal BFGS step
    5    -265.0812997910      1.59e-03   Normal BFGS step
    6    -265.0813120923      1.32e-03   Normal BFGS step
    7    -265.0813165589      6.57e-04   Normal BFGS step
    8    -265.0813183313      3.56e-04   Normal BFGS step
    9    -265.0813185421      2.50e-04   Normal BFGS step
   10    -265.0813186670      5.20e-05   Normal BFGS step
   11    -265.0813186749      2.49e-05   Normal BFGS step
   12    -265.0813186770      1.72e-05   Normal BFGS step
   13    -265.0813186776      1.08e-05   Normal BFGS step
   14    -265.0813186780      4.93e-06   Normal BFGS step
   15    -265.0813186781      2.80e-06   Normal BFGS step
   16    -265.0813186782      8.52e-07  Convergence criterion met
 ---------------------------------------
 SCF time:   CPU 102.86s  wall 26.00s 
<S^2> =          0.756029179
(3)  G-ENP(liq) elect-nuc-pol free energy of system     -265.081318678 a.u.
(4)  G-CDS(liq) cavity-dispersion-solvent structure 
     free energy                                                4.4121 kcal/mol
(6)  G-S(liq) free energy of system                     -265.074287510 a.u.
 SCF   energy in the final basis set =     -265.0742875104
 Total energy in the final basis set =     -265.0742875104
 
 --------------------------------------------------------------
 
                    Orbital Energies (a.u.)
 --------------------------------------------------------------
 
 Alpha MOs
 -- Occupied --
-19.3398 -19.3205 -19.3114 -10.4633  -1.2017  -1.0866  -1.0790  -0.7031
 -0.6108  -0.5559  -0.5363  -0.5343  -0.4627  -0.4113  -0.3907  -0.3835
 -0.3351
 -- Virtual --
  0.0416   0.0633   0.0846   0.0871   0.1075   0.1090   0.1549   0.2206
  0.2271   0.2305   0.2374   0.2488   0.2562   0.2885   0.3103   0.3185
  0.3187   0.3401   0.3540   0.3875   0.4101   0.4794   0.5168   0.5863
  0.6063   0.6181   0.7209   0.7357   0.7887   0.8245   0.8288   0.8773
  0.9110   0.9984   1.0337   1.0519   1.0897   1.1201   1.1378   1.1579
  1.1768   1.2027   1.2073   1.2124   1.2366   1.3991   1.4083   1.4377
  1.5700   1.6071   1.6350   1.6444   1.6641   1.7786   1.8156   1.8324
  1.9237   1.9492   1.9801   2.0697   2.1717   2.3029   2.3609   2.4019
  2.4892   2.5441   2.6542   2.7730   2.8034   2.8352   3.0429   3.0977
  3.1094   3.2403   3.3503   3.4296   3.4373   3.4698   3.5723   3.5877
  3.6073   3.6726   3.7337   3.8922   3.9475   3.9765   4.1042   4.1993
  4.2783   4.4744   5.1217   5.1369   5.1407   5.1439   5.1647   5.1775
  5.1816   5.1845   5.2206   5.2474   5.2537   5.2653   5.3002   5.3134
  5.3441   5.3852   5.4143   5.5716   5.5816   5.6099   5.6336   5.6977
  5.9600   6.0270   6.3349   6.3437   6.6581   6.7963   6.8870   6.9355
  6.9771   6.9836   7.0012   7.0820   7.1086   7.1367   7.1529   7.2926
  7.3215   7.3496   7.5639   7.6489   7.6874   7.7095   7.7646  24.9985
 50.4809  50.5541  50.6751
 
 Beta MOs
 -- Occupied --
-19.3335 -19.3112 -19.3063 -10.4573  -1.1890  -1.0670  -1.0635  -0.6712
 -0.5961  -0.5345  -0.5271  -0.5167  -0.4077  -0.3999  -0.3847  -0.3615
 -- Virtual --
 -0.0593   0.0444   0.0632   0.0855   0.0909   0.1077   0.1163   0.1555
  0.2208   0.2288   0.2327   0.2394   0.2497   0.2566   0.2899   0.3102
  0.3186   0.3189   0.3457   0.3575   0.3927   0.4230   0.4917   0.5276
  0.6001   0.6110   0.6237   0.7298   0.7407   0.7937   0.8293   0.8308
  0.8827   0.9147   1.0027   1.0365   1.0587   1.0927   1.1261   1.1412
  1.1689   1.1824   1.2060   1.2153   1.2213   1.2445   1.4045   1.4206
  1.4440   1.5806   1.6133   1.6403   1.6497   1.6757   1.7929   1.8256
  1.8394   1.9320   1.9602   1.9963   2.0763   2.1773   2.3086   2.3714
  2.4088   2.5015   2.5555   2.6647   2.7813   2.8103   2.8424   3.0612
  3.1048   3.1381   3.2525   3.3687   3.4425   3.4550   3.4901   3.5855
  3.5953   3.6246   3.6925   3.7388   3.9054   3.9584   3.9843   4.1166
  4.2091   4.2869   4.4980   5.1338   5.1504   5.1572   5.1585   5.1742
  5.1860   5.1936   5.1968   5.2299   5.2639   5.2735   5.2773   5.3198
  5.3293   5.3641   5.3996   5.4372   5.5798   5.5958   5.6171   5.6458
  5.7185   5.9760   6.0379   6.3437   6.3694   6.6720   6.8193   6.9050
  6.9602   6.9982   7.0080   7.0164   7.1105   7.1358   7.1603   7.1690
  7.3057   7.3291   7.3740   7.5849   7.6734   7.7229   7.7240   7.7889
 25.0038  50.4880  50.5579  50.6800
 --------------------------------------------------------------
 
          Ground-State Mulliken Net Atomic Charges

     Atom                 Charge (a.u.)    Spin (a.u.)
  --------------------------------------------------------
      1 O                    -0.427201       0.213431
      2 C                     0.097796       0.298610
      3 O                    -0.646101       0.171695
      4 H                     0.454658       0.031653
      5 O                    -0.807507       0.283515
      6 H                     0.328354       0.001096
  --------------------------------------------------------
  Sum of atomic charges =    -1.000000
  Sum of spin   charges =     1.000000

 -----------------------------------------------------------------
                    Cartesian Multipole Moments
 -----------------------------------------------------------------
    Charge (ESU x 10^10)
                -4.8032
    Dipole Moment (Debye)
         X       2.8758      Y       0.2897      Z      -1.4834
       Tot       3.2488
    Quadrupole Moments (Debye-Ang)
        XX     -31.3381     XY       0.6794     YY     -27.5392
        XZ      -5.7344     YZ       0.9003     ZZ     -37.4346
    Octopole Moments (Debye-Ang^2)
       XXX      56.6504    XXY      15.6446    XYY      10.2474
       YYY      19.1509    XXZ      -9.9247    XYZ       7.5498
       YYZ     -13.8154    XZZ      15.5519    YZZ      23.7613
       ZZZ     -71.4828
    Hexadecapole Moments (Debye-Ang^3)
      XXXX    -140.2304   XXXY     -24.3665   XXYY     -59.3330
      XYYY       4.0698   YYYY    -164.9439   XXXZ     -15.2946
      XXYZ      19.9039   XYYZ     -19.4962   YYYZ      38.4709
      XXZZ     -66.9295   XYZZ       2.0388   YYZZ     -83.7790
      XZZZ     -11.6154   YZZZ     102.7855   ZZZZ    -325.6763
 -----------------------------------------------------------------
 Calculating analytic gradient of the SCF energy
 Gradient of CDS energy
            1           2           3           4           5           6
    1  -0.0006225  -0.0029433   0.0034607   0.0000821   0.0002208  -0.0001978
    2  -0.0013712  -0.0002041   0.0019082  -0.0002897   0.0003501  -0.0003933
    3  -0.0003594  -0.0047956   0.0050998  -0.0003010   0.0004060  -0.0000498
 Gradient of SCF Energy
            1           2           3           4           5           6
    1  -0.0251393   0.0535196  -0.0166805  -0.0105909  -0.0015621   0.0004532
    2  -0.0407371  -0.0117047   0.0119912   0.0500062  -0.0035775  -0.0059781
    3  -0.0222575   0.1005742  -0.0359726  -0.0443600  -0.0023015   0.0043174
 Max gradient component =       1.006E-01
 RMS gradient           =       3.518E-02
 Computing fast CPCM-SWIG gradient
 Updating gradient with PCM contributions...
 -- total gradient after adding PCM contribution --
---------------------------------------------------
  Atom         X              Y              Z     
---------------------------------------------------
   1      -0.015852       0.007249      -0.031173
   2       0.054706      -0.041239       0.116505
   3      -0.035353       0.014496      -0.070084
   4      -0.002411       0.043323      -0.025084
   5       0.004024       0.002575       0.002571
   6      -0.005115      -0.026403       0.007265
---------------------------------------------------
 Number of fixed atoms: 0
 Gradient time:  CPU 13.46 s  wall 3.66 s
 ----------------------------------------------------------------
             Standard Nuclear Orientation (Angstroms)
    I     Atom           X                Y                Z
 ----------------------------------------------------------------
    1      O      -0.2779840000     0.9808736000     0.4607916000
    2      C      -0.6900011000    -0.1620969000     0.3527143000
    3      O      -1.4087758000    -0.5160551000    -0.7294780000
    4      H      -0.4122997000    -0.9727942000     1.2992235000
    5      O      -0.1226248000    -1.8320755000     2.1286212000
    6      H      -0.5651373000    -2.7119559000     2.0172490000
 ----------------------------------------------------------------
 Nuclear Repulsion Energy =         102.96033615 hartrees
 There are       17 alpha and       16 beta electrons
 Discretize the solute cavity surface with Lebedev spheres
	Using 110 Lebedev grid points for each H atom
	Using 194 Lebedev grid points for other atoms
	Atomic van der Waals radii will be scaled by 1.20
 Remove points where switching function is < 1.0e-08
 Keep 634 surface tesserae and discard 362 interior tesserae
 Molecular Surface Area = 81.414 Angst**2

                       Distance Matrix (Angstroms)
             O (  1)   C (  2)   O (  3)   H (  4)   O (  5)
   C (  2)  1.219762
   O (  3)  2.221762  1.346501
   H (  4)  2.130218  1.276804  2.305907
   O (  5)  3.273908  2.502916  3.399239  1.228892
   H (  6)  4.017712  3.047630  3.616382  1.887751  0.991166
 
 Requested basis set is 6-311++G(2df,2p)
 There are 44 shells and 156 basis functions
 A cutoff of  1.0D-11 yielded    927 shell pairs
 There are     11751 function pairs (     14927 Cartesian)
 Smallest overlap matrix eigenvalue = 6.61E-04
 Guess MOs from SCF MO coefficient file

 -----------------------------------------------------------------------
  General SCF calculation program by
  Eric Jon Sundstrom, Paul Horn, Yuezhi Mao, Dmitri Zuev, Alec White,
  David Stuck, Shaama M.S., Shane Yost, Joonho Lee, David Small,
  Daniel Levine, Susi Lehtola, Hugh Burton, Evgeny Epifanovsky,
  Bang C. Huynh
 -----------------------------------------------------------------------
 Exchange:     0.1500 Hartree-Fock + 1.0000 wB97M-V + LR-HF
 Correlation:  1.0000 wB97M-V
 Using SG-2 standard quadrature grid
 Nonlocal Correlation:  VV10 with C = 0.0100 and b = 6.00 and scale = 1.00000
 Grid used for NLC:  SG-1 standard quadrature
 
 Citation of the SMD model:
[...]
    2      C      -0.6392512660    -0.1715733849     0.4605697353
    3      O      -1.2753297665    -1.0208365483    -0.1972999674
    4      H      -0.1844583358    -0.5559032743     1.4359003813
    5      O      -0.2128195719    -2.1505383457     2.2090421018
    6      H      -0.7380683304    -2.3443676297     1.4097699644
 ----------------------------------------------------------------
 Nuclear Repulsion Energy =         104.56992445 hartrees
 There are       17 alpha and       16 beta electrons
 Discretize the solute cavity surface with Lebedev spheres
	Using 110 Lebedev grid points for each H atom
	Using 194 Lebedev grid points for other atoms
	Atomic van der Waals radii will be scaled by 1.20
 Remove points where switching function is < 1.0e-08
 Keep 621 surface tesserae and discard 375 interior tesserae
 Molecular Surface Area = 79.801 Angst**2
 Applying Cartesian multipole field
    Component          Value
    ---------          -----
     (2,0,0)        1.00000E-11
     (0,2,0)        2.00000E-11
     (0,0,2)       -3.00000E-11
 Requested basis set is 6-311++G(2df,2p)
 There are 44 shells and 156 basis functions
 A cutoff of  1.0D-12 yielded    942 shell pairs
 There are     11943 function pairs (     15204 Cartesian)
 Smallest overlap matrix eigenvalue = 8.41E-04
 Guess MOs from SCF MO coefficient file

 -----------------------------------------------------------------------
  General SCF calculation program by
  Eric Jon Sundstrom, Paul Horn, Yuezhi Mao, Dmitri Zuev, Alec White,
  David Stuck, Shaama M.S., Shane Yost, Joonho Lee, David Small,
  Daniel Levine, Susi Lehtola, Hugh Burton, Evgeny Epifanovsky,
  Bang C. Huynh
 -----------------------------------------------------------------------
 Exchange:     0.1500 Hartree-Fock + 1.0000 wB97M-V + LR-HF
 Correlation:  1.0000 wB97M-V
 Using SG-2 standard quadrature grid
 Nonlocal Correlation:  VV10 with C = 0.0100 and b = 6.00 and scale = 1.00000
 Grid used for NLC:  SG-1 standard quadrature
 
 Citation of the SMD model:
 Marenich, A.V.; Cramer, C.J.; Truhlar, D.G.
 J. Phys. Chem. B 2009, 113, 6378-6396.
 iSolventCode=           1
 Solvent: water                                                           
 
 vradii
            1           2           3           4           5           6
    1   1.5200000   1.8500000   1.5200000   1.2000000   1.5200000   1.2000000
 -------------------------------------------------------
 OpenMP BLAS3 based DFT computing Module                
 Release: version 1.0, May 2013, Q-Chem Inc. Pittsburgh 
 -------------------------------------------------------
 A unrestricted SCF calculation will be
 performed using Roothaan-Hall, DIIS, GDM
 SCF converges when RMS gradient is below 1.0e-07
 ---------------------------------------
  Cycle       Energy         DIIS error
 ---------------------------------------
    1    -264.9745216885      3.62e-04  Roothaan Step
 ---------------------------------------
  Cycle       Energy         DIIS error
 ---------------------------------------
    1    -265.0802472139      4.77e-04  
    2    -265.0818744640      5.54e-04  Done DIIS. Switching to GDM
 ---------------------------------------
  Cycle       Energy        RMS Gradient
 ---------------------------------------
    1    -265.0818744640      1.74e-02   Normal BFGS step
    2    -265.0810211811      2.78e-02  Line search: overstep
    3    -265.0841837667      6.72e-03   Normal BFGS step
    4    -265.0842788441      4.63e-03   Normal BFGS step
    5    -265.0843188797      2.21e-03   Normal BFGS step
    6    -265.0843380843      1.30e-03   Normal BFGS step
    7    -265.0843464812      4.55e-04   Normal BFGS step
    8    -265.0843482536      2.18e-04   Normal BFGS step
    9    -265.0843484788      1.23e-04   Normal BFGS step
   10    -265.0843485471      6.53e-05   Normal BFGS step
   11    -265.0843485653      3.62e-05   Normal BFGS step
   12    -265.0843485718      1.85e-05   Normal BFGS step
   13    -265.0843485732      1.67e-05   Normal BFGS step
   14    -265.0843485738      1.47e-05   Normal BFGS step
   15    -265.0843485745      1.16e-05   Normal BFGS step
   16    -265.0843485753      7.17e-06   Normal BFGS step
   17    -265.0843485758      5.04e-06   Normal BFGS step
   18    -265.0843485761      2.36e-06   Normal BFGS step
   19    -265.0843485761      1.19e-06   Normal BFGS step
   20    -265.0843485761      4.11e-07   Normal BFGS step
   21    -265.0843485761      1.65e-07   Normal BFGS step
   22    -265.0843485761      5.15e-08  Convergence criterion met
 ---------------------------------------
 SCF time:   CPU 136.74s  wall 36.00s 
<S^2> =          0.755685177
(3)  G-ENP(liq) elect-nuc-pol free energy of system     -265.084348576 a.u.
(4)  G-CDS(liq) cavity-dispersion-solvent structure 
     free energy                                                4.2269 kcal/mol
(6)  G-S(liq) free energy of system                     -265.077612549 a.u.
 SCF   energy in the final basis set =     -265.0776125486
 Total energy in the final basis set =     -265.0776125486
 
 --------------------------------------------------------------
 
                    Orbital Energies (a.u.)
 --------------------------------------------------------------
 
 Alpha MOs
 -- Occupied --
-19.3756 -19.3000 -19.2981 -10.4462  -1.1801  -1.1218  -1.0945  -0.6828
 -0.5899  -0.5679  -0.5450  -0.5262  -0.4900  -0.4457  -0.3830  -0.3779
 -0.3552
 -- Virtual --
  0.0417   0.0670   0.0806   0.0910   0.1108   0.1296   0.1454   0.2120
  0.2251   0.2267   0.2495   0.2567   0.2662   0.2839   0.2931   0.3158
  0.3218   0.3313   0.3612   0.3976   0.4142   0.4991   0.5397   0.5720
  0.6099   0.6236   0.7119   0.7309   0.7748   0.8065   0.8255   0.8644
  0.9597   0.9859   1.0211   1.0659   1.1061   1.1253   1.1433   1.1537
  1.1812   1.1978   1.2108   1.2159   1.2376   1.3469   1.4066   1.4858
  1.5495   1.6011   1.6018   1.6239   1.6290   1.7050   1.7713   1.7903
  1.8978   1.8995   1.9653   2.1128   2.1574   2.1786   2.3295   2.4086
  2.5193   2.5720   2.6471   2.7393   2.7908   2.8406   3.0110   3.1395
  3.1609   3.2437   3.2638   3.3220   3.4756   3.5157   3.5898   3.6347
  3.6712   3.7196   3.7315   3.9565   4.0546   4.0838   4.1258   4.2272
  4.4755   4.9801   5.0715   5.0832   5.1144   5.1393   5.1412   5.1628
  5.1785   5.1810   5.1841   5.2140   5.2362   5.2439   5.2586   5.3221
  5.3849   5.3861   5.4768   5.5327   5.5580   5.6187   5.6207   5.7203
  5.8453   6.0482   6.2585   6.4834   6.7935   6.8454   6.9054   6.9080
  6.9707   6.9786   7.0136   7.0392   7.0590   7.1173   7.2620   7.3236
  7.3717   7.3721   7.5044   7.6296   7.6943   7.7502   7.8128  25.1709
 50.4147  50.6642  50.6974
 
 Beta MOs
 -- Occupied --
-19.3535 -19.2981 -19.2975 -10.4443  -1.1770  -1.0933  -1.0614  -0.6686
 -0.5799  -0.5449  -0.5396  -0.5243  -0.4174  -0.3816  -0.3729  -0.3619
 -- Virtual --
 -0.0659   0.0442   0.0688   0.0812   0.0923   0.1115   0.1321   0.1467
  0.2132   0.2298   0.2310   0.2518   0.2574   0.2695   0.2886   0.3013
  0.3165   0.3221   0.3329   0.3643   0.4028   0.4156   0.5058   0.5476
  0.5761   0.6109   0.6284   0.7155   0.7314   0.7781   0.8073   0.8272
  0.8677   0.9608   0.9924   1.0241   1.0720   1.1073   1.1274   1.1442
  1.1627   1.2018   1.2160   1.2169   1.2320   1.2439   1.3571   1.4156
  1.4976   1.5567   1.6180   1.6236   1.6373   1.6403   1.7079   1.7759
  1.7967   1.9093   1.9099   1.9929   2.1138   2.1593   2.1978   2.3386
  2.4099   2.5226   2.5752   2.6569   2.7560   2.7928   2.8427   3.0123
  3.1417   3.1627   3.2483   3.2671   3.3268   3.4771   3.5155   3.5948
  3.6366   3.6729   3.7291   3.7315   3.9690   4.0580   4.0853   4.1171
  4.2376   4.4699   4.9948   5.1169   5.1349   5.1652   5.1722   5.1759
  5.1825   5.1842   5.1992   5.2147   5.2463   5.2492   5.2621   5.2895
  5.3409   5.3876   5.4115   5.4810   5.5357   5.5590   5.6385   5.6681
  5.7322   5.8456   6.0524   6.2596   6.4864   6.8592   6.8958   6.9099
  6.9371   6.9983   7.0199   7.0316   7.0526   7.0877   7.1795   7.3250
  7.3257   7.3749   7.3871   7.5510   7.6430   7.7013   7.7537   7.8159
 25.1722  50.4300  50.6650  50.6986
 --------------------------------------------------------------
 
          Ground-State Mulliken Net Atomic Charges

     Atom                 Charge (a.u.)    Spin (a.u.)
  --------------------------------------------------------
      1 O                    -0.612631       0.056603
      2 C                     0.192663       0.085385
      3 O                    -0.596563       0.028166
      4 H                     0.140640      -0.012432
      5 O                    -0.443070       0.851347
      6 H                     0.318962      -0.009068
  --------------------------------------------------------
  Sum of atomic charges =    -1.000000
  Sum of spin   charges =     1.000000

 -----------------------------------------------------------------
                    Cartesian Multipole Moments
 -----------------------------------------------------------------
    Charge (ESU x 10^10)
                -4.8032
    Dipole Moment (Debye)
         X       3.3036      Y       0.4696      Z      -1.6329
       Tot       3.7149
    Quadrupole Moments (Debye-Ang)
        XX     -30.1156     XY      -0.4650     YY     -34.1584
        XZ      -2.3173     YZ       4.1479     ZZ     -34.3166
    Octopole Moments (Debye-Ang^2)
       XXX      54.5121    XXY      19.2974    XYY      15.8937
       YYY      44.4107    XXZ     -15.4563    XYZ       3.2761
       YYZ     -28.2194    XZZ      17.4053    YZZ      33.3459
       ZZZ     -76.2148
    Hexadecapole Moments (Debye-Ang^3)
      XXXX    -121.6396   XXXY     -35.4653   XXYY     -71.4890
      XYYY     -14.7018   YYYY    -288.6627   XXXZ       8.2466
      XXYZ      27.3080   XYYZ      -3.7192   YYYZ      99.5701
      XXZZ     -59.2597   XYZZ     -10.4279   YYZZ    -122.9804
      XZZZ      17.5765   YZZZ     135.2731   ZZZZ    -291.9952
 -----------------------------------------------------------------
 Calculating analytic gradient of the SCF energy
 Gradient of CDS energy
            1           2           3           4           5           6
    1  -0.0003380  -0.0004811   0.0009560  -0.0002065   0.0001960  -0.0001265
    2  -0.0019111   0.0015275   0.0011433  -0.0004777   0.0001351  -0.0004171
    3   0.0003954  -0.0016094   0.0010573  -0.0001068   0.0002656  -0.0000022
 Gradient of SCF Energy
            1           2           3           4           5           6
    1  -0.0046167   0.0041287   0.0142411  -0.0146099  -0.0128173   0.0136740
    2  -0.0324739   0.0004854   0.0194828   0.0163627  -0.0036156  -0.0002414
    3   0.0087956   0.0068004   0.0143369  -0.0333966  -0.0199983   0.0234621
 Max gradient component =       3.340E-02
 RMS gradient           =       1.653E-02
 Computing fast CPCM-SWIG gradient
 Updating gradient with PCM contributions...
 -- total gradient after adding PCM contribution --
---------------------------------------------------
  Atom         X              Y              Z     
---------------------------------------------------
   1      -0.000026       0.000018      -0.000020
   2      -0.000034      -0.000089      -0.000046
   3       0.000078      -0.000001       0.000016
   4      -0.000028       0.000061       0.000002
   5      -0.000026       0.000005      -0.000006
   6       0.000036       0.000006       0.000053
---------------------------------------------------
 Number of fixed atoms: 0
 Gradient time:  CPU 13.53 s  wall 3.67 s
 Geometry Optimization Parameters
   NAtoms,    NIC,     NZ,  NCons,   NDum,   NFix, NCnnct, MaxDiis
        6      25       0       0       0       0       0       0

 Cartesian Hessian Update
 Hessian updated using Powell/Murtagh-Sargent update
**WARNING** Small scalar product
 Hessian update skipped this cycle


** GEOMETRY OPTIMIZATION IN DELOCALIZED INTERNAL COORDINATES **
   Searching for a Transition State

   Optimization Cycle:  72

                       Coordinates (Angstroms)
     ATOM                X               Y               Z
      1  O        -0.4268954293    1.0291151830    0.2121393846
      2  C        -0.6392512660   -0.1715733849    0.4605697353
      3  O        -1.2753297665   -1.0208365483   -0.1972999674
      4  H        -0.1844583358   -0.5559032743    1.4359003813
      5  O        -0.2128195719   -2.1505383457    2.2090421018
      6  H        -0.7380683304   -2.3443676297    1.4097699644
   Point Group: c1    Number of degrees of freedom:    12


   Energy is   -265.077612549

 Hessian updated using Powell/Murtagh-Sargent update
  Mixing factors:     0.995726 Powell                      0.004274 Murtagh-Sargent

 12 Hessian modes will be used to form the next step
  Hessian Eigenvalues:
    -0.025125    0.000454    0.011761    0.043234    0.079789    0.176580
     0.194111    0.280131    0.325910    0.441890    0.451900    0.798335

 Transition state search - taking P-RFO step
 Searching for Lamda that Maximizes Along the Lowest mode
 Value Taken    Lamda =   0.00000003
 Searching for Lamda that Minimizes Along All other modes
 Value Taken    Lamda =  -0.00000007
 Step Taken.  Stepsize is  0.003344

                             Maximum     Tolerance    Cnvgd?
         Gradient           0.000063      0.000300     YES
         Displacement       0.002671      0.001200      NO
         Energy change     -0.000000      0.000001     YES


                       Distance Matrix (Angstroms)
             O (  1)   C (  2)   O (  3)   H (  4)   O (  5)
   C (  2)  1.244374
   O (  3)  2.256055  1.248454
   H (  4)  2.017090  1.142723  2.018293
   O (  5)  3.760804  2.674940  2.862802  1.772403
   H (  6)  3.593262  2.373137  2.150130  1.872371  0.975854
 
 Final energy is   -265.077612548627     


 ******************************
 **  OPTIMIZATION CONVERGED  **
 ******************************

                       Coordinates (Angstroms)
     ATOM                X               Y               Z
      1  O        -0.4268954293    1.0291151830    0.2121393846
      2  C        -0.6392512660   -0.1715733849    0.4605697353
      3  O        -1.2753297665   -1.0208365483   -0.1972999674
      4  H        -0.1844583358   -0.5559032743    1.4359003813
      5  O        -0.2128195719   -2.1505383457    2.2090421018
      6  H        -0.7380683304   -2.3443676297    1.4097699644

Z-matrix Print:
$molecule
-1 2
C 
H  1 1.142723
O  1 1.244374 2 115.277378
O  1 1.248454 2 115.071124 3 179.975469 0
O  2 1.772403 1 131.954405 3 179.819305 0
H  5 0.975854 2 80.214412 1 0.041086 0
$end

 
 --------------------------------------------------------------
 
                    Orbital Energies (a.u.)
 --------------------------------------------------------------
 
 Alpha MOs
 -- Occupied --
-19.3756 -19.3000 -19.2981 -10.4462  -1.1801  -1.1218  -1.0945  -0.6828
 -0.5899  -0.5679  -0.5450  -0.5262  -0.4900  -0.4457  -0.3830  -0.3779
 -0.3552
 -- Virtual --
  0.0417   0.0670   0.0806   0.0910   0.1108   0.1296   0.1454   0.2120
  0.2251   0.2267   0.2495   0.2567   0.2662   0.2839   0.2931   0.3158
  0.3218   0.3313   0.3612   0.3976   0.4142   0.4991   0.5397   0.5720
  0.6099   0.6236   0.7119   0.7309   0.7748   0.8065   0.8255   0.8644
  0.9597   0.9859   1.0211   1.0659   1.1061   1.1253   1.1433   1.1537
  1.1812   1.1978   1.2108   1.2159   1.2376   1.3469   1.4066   1.4858
  1.5495   1.6011   1.6018   1.6239   1.6290   1.7050   1.7713   1.7903
  1.8978   1.8995   1.9653   2.1128   2.1574   2.1786   2.3295   2.4086
  2.5193   2.5720   2.6471   2.7393   2.7908   2.8406   3.0110   3.1395
  3.1609   3.2437   3.2638   3.3220   3.4756   3.5157   3.5898   3.6347
  3.6712   3.7196   3.7315   3.9565   4.0546   4.0838   4.1258   4.2272
  4.4755   4.9801   5.0715   5.0832   5.1144   5.1393   5.1412   5.1628
  5.1785   5.1810   5.1841   5.2140   5.2362   5.2439   5.2586   5.3221
  5.3849   5.3861   5.4768   5.5327   5.5580   5.6187   5.6207   5.7203
  5.8453   6.0482   6.2585   6.4834   6.7935   6.8454   6.9054   6.9080
  6.9707   6.9786   7.0136   7.0392   7.0590   7.1173   7.2620   7.3236
  7.3717   7.3721   7.5044   7.6296   7.6943   7.7502   7.8128  25.1709
 50.4147  50.6642  50.6974
 
 Beta MOs
 -- Occupied --
-19.3535 -19.2981 -19.2975 -10.4443  -1.1770  -1.0933  -1.0614  -0.6686
 -0.5799  -0.5449  -0.5396  -0.5243  -0.4174  -0.3816  -0.3729  -0.3619
 -- Virtual --
 -0.0659   0.0442   0.0688   0.0812   0.0923   0.1115   0.1321   0.1467
  0.2132   0.2298   0.2310   0.2518   0.2574   0.2695   0.2886   0.3013
  0.3165   0.3221   0.3329   0.3643   0.4028   0.4156   0.5058   0.5476
  0.5761   0.6109   0.6284   0.7155   0.7314   0.7781   0.8073   0.8272
  0.8677   0.9608   0.9924   1.0241   1.0720   1.1073   1.1274   1.1442
  1.1627   1.2018   1.2160   1.2169   1.2320   1.2439   1.3571   1.4156
  1.4976   1.5567   1.6180   1.6236   1.6373   1.6403   1.7079   1.7759
  1.7967   1.9093   1.9099   1.9929   2.1138   2.1593   2.1978   2.3386
  2.4099   2.5226   2.5752   2.6569   2.7560   2.7928   2.8427   3.0123
  3.1417   3.1627   3.2483   3.2671   3.3268   3.4771   3.5155   3.5948
  3.6366   3.6729   3.7291   3.7315   3.9690   4.0580   4.0853   4.1171
  4.2376   4.4699   4.9948   5.1169   5.1349   5.1652   5.1722   5.1759
  5.1825   5.1842   5.1992   5.2147   5.2463   5.2492   5.2621   5.2895
  5.3409   5.3876   5.4115   5.4810   5.5357   5.5590   5.6385   5.6681
  5.7322   5.8456   6.0524   6.2596   6.4864   6.8592   6.8958   6.9099
  6.9371   6.9983   7.0199   7.0316   7.0526   7.0877   7.1795   7.3250
  7.3257   7.3749   7.3871   7.5510   7.6430   7.7013   7.7537   7.8159
 25.1722  50.4300  50.6650  50.6986
 --------------------------------------------------------------
 
          Ground-State Mulliken Net Atomic Charges

     Atom                 Charge (a.u.)    Spin (a.u.)
  --------------------------------------------------------
      1 O                    -0.612631       0.056603
      2 C                     0.192663       0.085385
      3 O                    -0.596563       0.028166
      4 H                     0.140640      -0.012432
      5 O                    -0.443070       0.851347
      6 H                     0.318962      -0.009068
  --------------------------------------------------------
  Sum of atomic charges =    -1.000000
  Sum of spin   charges =     1.000000

 -----------------------------------------------------------------
                    Cartesian Multipole Moments
 -----------------------------------------------------------------
    Charge (ESU x 10^10)
                -4.8032
    Dipole Moment (Debye)
         X       3.3036      Y       0.4696      Z      -1.6329
       Tot       3.7149
    Quadrupole Moments (Debye-Ang)
        XX     -30.1156     XY      -0.4650     YY     -34.1584
        XZ      -2.3173     YZ       4.1479     ZZ     -34.3166
    Octopole Moments (Debye-Ang^2)
       XXX      54.5121    XXY      19.2974    XYY      15.8937
       YYY      44.4107    XXZ     -15.4563    XYZ       3.2761
       YYZ     -28.2194    XZZ      17.4053    YZZ      33.3459
       ZZZ     -76.2148
    Hexadecapole Moments (Debye-Ang^3)
      XXXX    -121.6396   XXXY     -35.4653   XXYY     -71.4890
      XYYY     -14.7018   YYYY    -288.6627   XXXZ       8.2466
      XXYZ      27.3080   XYYZ      -3.7192   YYYZ      99.5701
      XXZZ     -59.2597   XYZZ     -10.4279   YYZZ    -122.9804
      XZZZ      17.5765   YZZZ     135.2731   ZZZZ    -291.9952
 -----------------------------------------------------------------
 Total job time:  2775.18s(wall), 10746.58s(cpu) 
 Tue Aug 15 14:46:12 2023

        *************************************************************
        *                                                           *
        *  Thank you very much for using Q-Chem.  Have a nice day.  *
        *                                                           *
        *************************************************************


