
Running Job 1 of 1 Q_in.in
qchem Q_in.in_22841.0 /scratch/ari.fischer/qChem1912902.hpc-mn1/qchem22841/ 0
/usr/local/qchem-5.4.1/exe/qcprog.exe_s Q_in.in_22841.0 /scratch/ari.fischer/qChem1912902.hpc-mn1/qchem22841/
                  Welcome to Q-Chem
     A Quantum Leap Into The Future Of Chemistry


 Q-Chem 5.4, Q-Chem, Inc., Pleasanton, CA (2021)

 License issued to: Nanyang Technological University (site)

 E. Epifanovsky,  A. T. B. Gilbert,  Xintian Feng,  Joonho Lee,  Yuezhi Mao,  
 N. Mardirossian,  P. Pokhilko,  A. White,  M. Wormit,  M. P. Coons,  
 A. L. Dempwolff,  Zhengting Gan,  D. Hait,  P. R. Horn,  L. D. Jacobson,  
 I. Kaliman,  J. Kussmann,  A. W. Lange,  Ka Un Lao,  D. S. Levine,  Jie Liu,  
 S. C. McKenzie,  A. F. Morrison,  K. Nanda,  F. Plasser,  D. R. Rehn,  
 M. L. Vidal,  Zhi-Qiang You,  Ying Zhu,  B. Alam,  B. Albrecht,  
 A. Aldossary,  E. Alguire,  J. H. Andersen,  D. Barton,  K. Begam,  A. Behn,  
 Y. A. Bernard,  E. J. Berquist,  H. Burton,  A. Carreras,  K. Carter-Fenk,  
 R. Chakraborty,  A. D. Chien,  K. D. Closser,  V. Cofer-Shabica,  
 S. Dasgupta,  Jia Deng,  M. de Wergifosse,  M. Diedenhofen,  Hainam Do,  
 S. Ehlert,  Po-Tung Fang,  S. Fatehi,  Qingguo Feng,  T. Friedhoff,  
 J. Gayvert,  Qinghui Ge,  G. Gidofalvi,  M. Goldey,  J. Gomes,  
 C. Gonzalez-Espinoza,  S. Gulania,  A. Gunina,  M. W. D. Hanson-Heine,  
 P. H. P. Harbach,  A. W. Hauser,  M. F. Herbst,  M. Hernandez Vera,  
 M. Hodecker,  Z. C. Holden,  S. Houck,  Xunkun Huang,  Kerwin Hui,  
 B. C. Huynh,  M. Ivanov,  Hyunjun Ji,  Hanjie Jiang,  B. Kaduk,  S. Kaehler,  
 K. Khistyaev,  Jaehoon Kim,  P. Klunzinger,  Z. Koczor-Benda,  
 Joong Hoon Koh,  D. Kosenkov,  L. Koulias,  T. Kowalczyk,  C. M. Krauter,  
 K. Kue,  A. Kunitsa,  T. Kus,  A. Landau,  K. V. Lawler,  D. Lefrancois,  
 S. Lehtola,  Rain Li,  Yi-Pei Li,  Jiashu Liang,  M. Liebenthal,  
 Hung-Hsuan Lin,  You-Sheng Lin,  Fenglai Liu,  Kuan-Yu Liu,  
 M. Loipersberger,  A. Luenser,  A. Manjanath,  P. Manohar,  E. Mansoor,  
 S. F. Manzer,  Shan-Ping Mao,  A. V. Marenich,  T. Markovich,  S. Mason,  
 S. A. Maurer,  P. F. McLaughlin,  M. F. S. J. Menger,  J.-M. Mewes,  
 S. A. Mewes,  P. Morgante,  J. W. Mullinax,  K. J. Oosterbaan,  G. Paran,  
 Alexander C. Paul,  Suranjan K. Paul,  F. Pavosevic,  Zheng Pei,  S. Prager,  
 E. I. Proynov,  E. Ramos,  B. Rana,  A. E. Rask,  A. Rettig,  R. M. Richard,  
 F. Rob,  E. Rossomme,  T. Scheele,  M. Scheurer,  M. Schneider,  
 N. Sergueev,  S. M. Sharada,  W. Skomorowski,  D. W. Small,  C. J. Stein,  
 Yu-Chuan Su,  E. J. Sundstrom,  Zhen Tao,  J. Thirman,  T. Tsuchimochi,  
 N. M. Tubman,  S. P. Veccham,  O. Vydrov,  J. Wenzel,  J. Witte,  A. Yamada,  
 Kun Yao,  S. Yeganeh,  S. R. Yost,  A. Zech,  Igor Ying Zhang,  Xing Zhang,  
 Yu Zhang,  D. Zuev,  A. Aspuru-Guzik,  A. T. Bell,  N. A. Besley,  
 K. B. Bravaya,  B. R. Brooks,  D. Casanova,  Jeng-Da Chai,  S. Coriani,  
 C. J. Cramer,  A. E. DePrince, III,  R. A. DiStasio Jr.,  A. Dreuw,  
 B. D. Dunietz,  T. R. Furlani,  W. A. Goddard III,  S. Grimme,  
 S. Hammes-Schiffer,  T. Head-Gordon,  W. J. Hehre,  Chao-Ping Hsu,  
 T.-C. Jagau,  Yousung Jung,  A. Klamt,  Jing Kong,  D. S. Lambrecht,  
 WanZhen Liang,  N. J. Mayhall,  C. W. McCurdy,  J. B. Neaton,  
 C. Ochsenfeld,  J. A. Parkhill,  R. Peverati,  V. A. Rassolov,  Yihan Shao,  
 L. V. Slipchenko,  T. Stauch,  R. P. Steele,  J. E. Subotnik,  
 A. J. W. Thom,  A. Tkatchenko,  D. G. Truhlar,  T. Van Voorhis,  
 T. A. Wesolowski,  K. B. Whaley,  H. L. Woodcock III,  P. M. Zimmerman,  
 S. Faraji,  P. M. W. Gill,  M. Head-Gordon,  J. M. Herbert,  A. I. Krylov

 Additional authors for Version 5.4.1: 
 S. Kotaru,  Shaozhi Li,  Xiangyuan Li,  F. Matz,  A. Molle,  Haisheng Ren,  
 Yingli Su,  Hung-Yi Tsai,  C. Utku,  Fang Wang

 Contributors to earlier versions of Q-Chem not listed above: 
 R. D. Adamson,  B. Austin,  R. Baer,  J. Baker,  G. J. O. Beran,  
 K. Brandhorst,  S. T. Brown,  E. F. C. Byrd,  A. K. Chakraborty,  
 G. K. L. Chan,  Chun-Min Chang,  Yunqing Chen,  C.-L. Cheng,  
 Siu Hung Chien,  D. M. Chipman,  D. L. Crittenden,  H. Dachsel,  
 R. J. Doerksen,  A. D. Dutoi,  R. G. Edgar,  J. Fosso-Tande,  
 L. Fusti-Molnar,  D. Ghosh,  A. Ghysels,  A. Golubeva-Zadorozhnaya,  
 J. Gonthier,  M. S. Gordon,  S. R. Gwaltney,  G. Hawkins,  J. E. Herr,  
 A. Heyden,  S. Hirata,  E. G. Hohenstein,  G. Kedziora,  F. J. Keil,  
 C. Kelley,  Jihan Kim,  R. A. King,  R. Z. Khaliullin,  P. P. Korambath,  
 W. Kurlancheek,  A. Laurent,  A. M. Lee,  M. S. Lee,  S. V. Levchenko,  
 Ching Yeh Lin,  D. Liotard,  E. Livshits,  R. C. Lochan,  I. Lotan,  
 L. A. Martinez-Martinez,  P. E. Maslen,  N. Nair,  D. P. O'Neill,  
 D. Neuhauser,  E. Neuscamman,  C. M. Oana,  R. Olivares-Amaya,  R. Olson,  
 T. M. Perrine,  B. Peters,  P. A. Pieniazek,  A. Prociuk,  Y. M. Rhee,  
 J. Ritchie,  M. A. Rohrdanz,  E. Rosta,  N. J. Russ,  H. F. Schaefer III,  
 M. W. Schmidt,  N. E. Schultz,  S. Sharma,  N. Shenvi,  C. D. Sherrill,  
 A. C. Simmonett,  A. Sodt,  T. Stein,  D. Stuck,  K. S. Thanthiriwatte,  
 V. Vanovschi,  L. Vogt,  Tao Wang,  A. Warshel,  M. A. Watson,  
 C. F. Williams,  Q. Wu,  X. Xu,  Jun Yang,  W. Zhang,  Yan Zhao

 Please cite Q-Chem as follows:
 Y. Shao et al., Mol. Phys. 113, 184-215 (2015)
 DOI: 10.1080/00268976.2014.952696

 Q-Chem 5.4.1 for Intel X86 EM64T Linux

 Parts of Q-Chem use Armadillo 9.800.1 (Horizon Scraper).
 http://arma.sourceforge.net/

 Q-Chem begins on Mon Feb  5 12:38:35 2024  

 Host: 
0

     Scratch files written to /scratch/ari.fischer/qChem1912902.hpc-mn1/qchem22841//
 Aug1521 |scratch|qcdevops|jenkins|workspace|build_RNUM 8249   
 Processing $rem in /usr/local/qchem-5.4.1/config/preferences:
 Processing $rem in /home/ari.fischer/.qchemrc:
 Symmetry turned off for PCM/SM12/SMD calculation

 Checking the input file for inconsistencies... 	...done.

--------------------------------------------------------------
User input:
--------------------------------------------------------------
$molecule
0 2
C         0.6072589961    0.0995536333    0.2712972596
O         1.4192510827   -0.7394525853    0.5581470688
H        -2.1260616732    1.1525978741    0.6669314370
C        -0.8871968854   -0.2005200305    0.1817492238
O        -1.1409735157   -1.4918035736    0.0903525274
O        -1.6789620209    0.6859210684   -0.2986863993
O         0.9279555595    1.3610302873    0.0358978246
H         0.1400538454    1.8737465506   -0.2114863691
O        -1.2145784868    0.1862517434    2.0046042293
O        -2.1040940641    1.1019168681    1.9304935257
H        -2.0845900376   -1.6251677360   -0.0954806277
$end

$rem
BASIS = 6-31G(d)
JOB_TYPE = SP
METHOD = wB97M-V
SCF_ALGORITHM = DIIS_GDM
MAX_SCF_CYCLES = 400
SCF_CONVERGENCE = 7
THRESH = 12
Solvent_method = SMD
$end
--------------------------------------------------------------
 ----------------------------------------------------------------
             Standard Nuclear Orientation (Angstroms)
    I     Atom           X                Y                Z
 ----------------------------------------------------------------
    1      C       0.6072589961     0.0995536333     0.2712972596
    2      O       1.4192510827    -0.7394525853     0.5581470688
    3      H      -2.1260616732     1.1525978741     0.6669314370
    4      C      -0.8871968854    -0.2005200305     0.1817492238
    5      O      -1.1409735157    -1.4918035736     0.0903525274
    6      O      -1.6789620209     0.6859210684    -0.2986863993
    7      O       0.9279555595     1.3610302873     0.0358978246
    8      H       0.1400538454     1.8737465506    -0.2114863691
    9      O      -1.2145784868     0.1862517434     2.0046042293
   10      O      -2.1040940641     1.1019168681     1.9304935257
   11      H      -2.0845900376    -1.6251677360    -0.0954806277
 ----------------------------------------------------------------
 Nuclear Repulsion Energy =         412.38009705 hartrees
 There are       32 alpha and       31 beta electrons
 Requested basis set is 6-31G(d)
 There are 38 shells and 126 basis functions

 Total QAlloc Memory Limit 288000 MB
 Mega-Array Size       188 MB
 MEM_STATIC part       192 MB
 
 Citation of the SMD model:
 Marenich, A.V.; Cramer, C.J.; Truhlar, D.G.
 J. Phys. Chem. B 2009, 113, 6378-6396.
 iSolventCode=           1
 Solvent: water                                                           
 
 vradii
            1           2           3           4           5           6
    1   1.8500000   1.5200000   1.2000000   1.8500000   1.5200000   1.5200000
            7           8           9          10          11
    1   1.5200000   1.2000000   1.5200000   1.5200000   1.2000000
 Changing PCM_VDW_RADII to SMD_RADIUS
 Discretize the solute cavity surface with Lebedev spheres
	Using 110 Lebedev grid points for each H atom
	Using 194 Lebedev grid points for other atoms
	Atomic van der Waals radii will be scaled by 1.20
 Remove points where switching function is < 1.0e-08
 Keep 991 surface tesserae and discard 891 interior tesserae
 Molecular Surface Area = 116.087 Angst**2

                       Distance Matrix (Angstroms)
             C (  1)   O (  2)   H (  3)   C (  4)   O (  5)   O (  6)
   O (  2)  1.202308
   H (  3)  2.955752  4.020066
   C (  4)  1.526912  2.398296  1.897661
   O (  5)  2.370965  2.709172  2.880226  1.319155
   O (  6)  2.428068  3.516359  1.161939  1.281986  2.276679
   O (  7)  1.322718  2.219492  3.125487  2.398852  3.524499  2.713621
   H (  8)  1.897135  3.009567  2.535144  2.347863  3.613733  2.174247
   O (  9)  2.516140  3.144237  1.885204  1.891976  2.546693  2.402180
   O ( 10)  3.333032  4.205703  1.264769  2.497056  3.322816  2.307170
   H ( 11)  3.217956  3.672686  2.880794  1.881549  0.970944  2.355198
             O (  7)   H (  8)   O (  9)   O ( 10)
   H (  8)  0.972042
   O (  9)  3.137891  3.097374
   O ( 10)  3.584684  3.196873  1.278739
   H ( 11)  4.243827  4.147879  2.906633  3.397343
 
 A cutoff of  1.0D-12 yielded    687 shell pairs
 There are      8002 function pairs
 Smallest overlap matrix eigenvalue = 1.75E-03

 Scale SEOQF with 1.000000e-01/1.000000e-01/1.000000e-01

 Standard Electronic Orientation quadrupole field applied
 Nucleus-field energy     =     0.0000000013 hartrees
 Guess from superposition of atomic densities
 Warning:  Energy on first SCF cycle will be non-variational
 SAD guess density has 63.000000 electrons

 -----------------------------------------------------------------------
  General SCF calculation program by
  Eric Jon Sundstrom, Paul Horn, Yuezhi Mao, Dmitri Zuev, Alec White,
  David Stuck, Shaama M.S., Shane Yost, Joonho Lee, David Small,
  Daniel Levine, Susi Lehtola, Hugh Burton, Evgeny Epifanovsky,
  Bang C. Huynh
 -----------------------------------------------------------------------
 Exchange:     0.1500 Hartree-Fock + 1.0000 wB97M-V + LR-HF
 Correlation:  1.0000 wB97M-V
 Using SG-2 standard quadrature grid
 Nonlocal Correlation:  VV10 with C = 0.0100 and b = 6.00 and scale = 1.00000
 Grid used for NLC:  SG-1 standard quadrature
 
 Citation of the SMD model:
 Marenich, A.V.; Cramer, C.J.; Truhlar, D.G.
 J. Phys. Chem. B 2009, 113, 6378-6396.
 iSolventCode=           1
 Solvent: water                                                           
 
 vradii
            1           2           3           4           5           6
    1   1.8500000   1.5200000   1.2000000   1.8500000   1.5200000   1.5200000
            7           8           9          10          11
    1   1.5200000   1.2000000   1.5200000   1.5200000   1.2000000
 using 4 threads for integral computing
 -------------------------------------------------------
 OpenMP Integral computing Module                
 Release: version 1.0, May 2013, Q-Chem Inc. Pittsburgh 
 -------------------------------------------------------
 -------------------------------------------------------
 OpenMP BLAS3 based DFT computing Module                
 Release: version 1.0, May 2013, Q-Chem Inc. Pittsburgh 
 -------------------------------------------------------
 A unrestricted SCF calculation will be
 performed using DIIS, GDM
 SCF converges when RMS gradient is below 1.0e-07
 ---------------------------------------
  Cycle       Energy         DIIS error
 ---------------------------------------
    1    -530.6349470357      3.50e-02  
    2    -528.8705777985      5.85e-03  Done DIIS. Switching to GDM
 ---------------------------------------
  Cycle       Energy        RMS Gradient
 ---------------------------------------
    1    -528.8705777985      1.56e-01   Descent step
    2    -529.0622527189      3.66e-02   Normal BFGS step
    3    -529.0865712648      1.33e-02   Normal BFGS step
    4    -529.0875637915      1.36e-02   Normal BFGS step
    5    -529.0885192764      2.85e-03   Normal BFGS step
    6    -529.0885528625      1.81e-03   Normal BFGS step
    7    -529.0885794366      7.83e-04   Normal BFGS step
    8    -529.0885841055      5.11e-04   Normal BFGS step
    9    -529.0885856886      2.71e-04   Normal BFGS step
   10    -529.0885859938      1.60e-04   Normal BFGS step
   11    -529.0885860668      8.34e-05   Normal BFGS step
   12    -529.0885860888      5.00e-05   Normal BFGS step
   13    -529.0885860965      4.28e-05   Normal BFGS step
   14    -529.0885861003      2.52e-05   Normal BFGS step
   15    -529.0885861022      7.64e-06   Normal BFGS step
   16    -529.0885861026      3.08e-06   Normal BFGS step
   17    -529.0885861027      1.51e-06   Normal BFGS step
   18    -529.0885861027      7.41e-07   Normal BFGS step
   19    -529.0885861027      3.50e-07   Normal BFGS step
   20    -529.0885861027      1.41e-07   Normal BFGS step
   21    -529.0885861027      4.90e-08  Convergence criterion met
 ---------------------------------------
 SCF time:   CPU 162.12s  wall 43.00s 
<S^2> =          0.754947206
(3)  G-ENP(liq) elect-nuc-pol free energy of system     -529.088586103 a.u.
(4)  G-CDS(liq) cavity-dispersion-solvent structure 
     free energy                                                4.6432 kcal/mol
(6)  G-S(liq) free energy of system                     -529.081186721 a.u.
 SCF   energy in the final basis set =     -529.0811867207
 Total energy in the final basis set =     -529.0811867207
 
 --------------------------------------------------------------
 
                    Orbital Energies (a.u.)
 --------------------------------------------------------------
 
 Alpha MOs
 -- Occupied --
-19.4713 -19.4666 -19.4145 -19.4127 -19.3838 -19.3636 -10.5413 -10.5157
 -1.3630  -1.2712  -1.2442  -1.1864  -1.1655  -0.9695  -0.8378  -0.7459
 -0.7255  -0.6935  -0.6576  -0.6220  -0.6146  -0.5874  -0.5733  -0.5485
 -0.5217  -0.5038  -0.4830  -0.4594  -0.4376  -0.4081  -0.3935  -0.3820
 -- Virtual --
  0.0391   0.1678   0.1782   0.1913   0.2359   0.2918   0.3270   0.3513
  0.3940   0.4278   0.5438   0.6158   0.6340   0.6542   0.6750   0.7118
  0.7317   0.7692   0.7788   0.8446   0.8732   0.8846   0.9198   0.9346
  0.9517   0.9834   1.0158   1.0196   1.0561   1.0756   1.1039   1.1195
  1.1290   1.1548   1.1915   1.2117   1.2413   1.2564   1.2898   1.3480
  1.3934   1.4202   1.4871   1.5184   1.5348   1.5914   1.6199   1.6570
  1.6804   1.7170   1.7459   1.7570   1.8180   1.8432   1.8591   1.8830
  1.9025   1.9178   1.9532   1.9967   2.0261   2.0567   2.1105   2.1451
  2.1956   2.2701   2.2792   2.3980   2.4471   2.5202   2.5386   2.5686
  2.6031   2.6487   2.6779   2.7216   2.7306   2.7964   2.8154   2.8714
  2.9420   3.0073   3.0192   3.0699   3.1742   3.2597   3.5414   3.9116
  3.9605   4.1611   4.2250   4.4059   4.6005   4.7436
 
 Beta MOs
 -- Occupied --
-19.4563 -19.4519 -19.4146 -19.4127 -19.3839 -19.3636 -10.5417 -10.5157
 -1.3360  -1.2696  -1.2439  -1.1862  -1.1654  -0.9316  -0.8343  -0.7458
 -0.7186  -0.6920  -0.6554  -0.5949  -0.5876  -0.5729  -0.5496  -0.5367
 -0.5121  -0.5028  -0.4771  -0.4580  -0.4373  -0.3995  -0.3714
 -- Virtual --
 -0.0242   0.0435   0.1699   0.1786   0.1916   0.2485   0.3019   0.3273
  0.3533   0.3950   0.4283   0.5438   0.6168   0.6345   0.6572   0.6758
  0.7175   0.7335   0.7713   0.7797   0.8473   0.8792   0.8851   0.9270
  0.9396   0.9713   1.0019   1.0192   1.0268   1.0595   1.0786   1.1065
  1.1225   1.1354   1.1612   1.1965   1.2265   1.2461   1.2579   1.2939
  1.3517   1.3973   1.4230   1.4885   1.5276   1.5384   1.6054   1.6395
  1.6681   1.6857   1.7174   1.7502   1.7682   1.8200   1.8435   1.8649
  1.8938   1.9038   1.9185   1.9576   1.9975   2.0378   2.0685   2.1152
  2.1471   2.1998   2.2699   2.2866   2.4169   2.4485   2.5236   2.5393
  2.5727   2.6322   2.6593   2.6810   2.7221   2.7330   2.7989   2.8177
  2.8718   2.9423   3.0163   3.0249   3.0700   3.1739   3.2593   3.5680
  3.9202   3.9717   4.1635   4.2251   4.4090   4.6001   4.7431
 --------------------------------------------------------------
 
          Ground-State Mulliken Net Atomic Charges

     Atom                 Charge (a.u.)    Spin (a.u.)
  --------------------------------------------------------
      1 C                     0.632863       0.000172
      2 O                    -0.498712       0.001160
      3 H                     0.511577      -0.010787
      4 C                     0.569681      -0.023258
      5 O                    -0.564499      -0.003971
      6 O                    -0.640216      -0.002572
      7 O                    -0.585648       0.000515
      8 H                     0.489240      -0.000091
      9 O                    -0.182603       0.521657
     10 O                    -0.222677       0.516768
     11 H                     0.490995       0.000408
  --------------------------------------------------------
  Sum of atomic charges =     0.000000
  Sum of spin   charges =     1.000000

 -----------------------------------------------------------------
                    Cartesian Multipole Moments
 -----------------------------------------------------------------
    Charge (ESU x 10^10)
                 0.0000
    Dipole Moment (Debye)
         X      -5.1134      Y       1.6192      Z      -2.3043
       Tot       5.8377
    Quadrupole Moments (Debye-Ang)
        XX     -43.3420     XY       4.9351     YY     -40.5251
        XZ      -0.0294     YZ       0.7315     ZZ     -49.1949
    Octopole Moments (Debye-Ang^2)
       XXX      43.8627    XXY     -18.0952    XYY       9.8820
       YYY      -8.3886    XXZ     -30.2134    XYZ       0.9657
       YYZ     -29.3837    XZZ      32.3324    YZZ      -8.9336
       ZZZ     -89.3716
    Hexadecapole Moments (Debye-Ang^3)
      XXXX    -475.5894   XXXY      54.0978   XXYY    -110.1818
      XYYY      31.2716   YYYY    -233.2329   XXXZ      84.9859
      XXYZ      -8.1617   XYYZ      29.8258   YYYZ     -29.9524
      XXZZ    -153.0059   XYZZ      17.3927   YYZZ     -97.0286
      XZZZ     106.8392   YZZZ     -36.6443   ZZZZ    -326.3536
 -----------------------------------------------------------------
 Total job time:  43.47s(wall), 163.91s(cpu) 
 Mon Feb  5 12:39:18 2024

        *************************************************************
        *                                                           *
        *  Thank you very much for using Q-Chem.  Have a nice day.  *
        *                                                           *
        *************************************************************


