
Running Job 1 of 1 Q_in.in
qchem Q_in.in_173938.0 /scratch/ari.fischer/qChem1854180.hpc-mn1/qchem173938/ 0
/usr/local/qchem-5.4.1/exe/qcprog.exe_s Q_in.in_173938.0 /scratch/ari.fischer/qChem1854180.hpc-mn1/qchem173938/
                  Welcome to Q-Chem
     A Quantum Leap Into The Future Of Chemistry


 Q-Chem 5.4, Q-Chem, Inc., Pleasanton, CA (2021)

 License issued to: Nanyang Technological University (site)

 E. Epifanovsky,  A. T. B. Gilbert,  Xintian Feng,  Joonho Lee,  Yuezhi Mao,  
 N. Mardirossian,  P. Pokhilko,  A. White,  M. Wormit,  M. P. Coons,  
 A. L. Dempwolff,  Zhengting Gan,  D. Hait,  P. R. Horn,  L. D. Jacobson,  
 I. Kaliman,  J. Kussmann,  A. W. Lange,  Ka Un Lao,  D. S. Levine,  Jie Liu,  
 S. C. McKenzie,  A. F. Morrison,  K. Nanda,  F. Plasser,  D. R. Rehn,  
 M. L. Vidal,  Zhi-Qiang You,  Ying Zhu,  B. Alam,  B. Albrecht,  
 A. Aldossary,  E. Alguire,  J. H. Andersen,  D. Barton,  K. Begam,  A. Behn,  
 Y. A. Bernard,  E. J. Berquist,  H. Burton,  A. Carreras,  K. Carter-Fenk,  
 R. Chakraborty,  A. D. Chien,  K. D. Closser,  V. Cofer-Shabica,  
 S. Dasgupta,  Jia Deng,  M. de Wergifosse,  M. Diedenhofen,  Hainam Do,  
 S. Ehlert,  Po-Tung Fang,  S. Fatehi,  Qingguo Feng,  T. Friedhoff,  
 J. Gayvert,  Qinghui Ge,  G. Gidofalvi,  M. Goldey,  J. Gomes,  
 C. Gonzalez-Espinoza,  S. Gulania,  A. Gunina,  M. W. D. Hanson-Heine,  
 P. H. P. Harbach,  A. W. Hauser,  M. F. Herbst,  M. Hernandez Vera,  
 M. Hodecker,  Z. C. Holden,  S. Houck,  Xunkun Huang,  Kerwin Hui,  
 B. C. Huynh,  M. Ivanov,  Hyunjun Ji,  Hanjie Jiang,  B. Kaduk,  S. Kaehler,  
 K. Khistyaev,  Jaehoon Kim,  P. Klunzinger,  Z. Koczor-Benda,  
 Joong Hoon Koh,  D. Kosenkov,  L. Koulias,  T. Kowalczyk,  C. M. Krauter,  
 K. Kue,  A. Kunitsa,  T. Kus,  A. Landau,  K. V. Lawler,  D. Lefrancois,  
 S. Lehtola,  Rain Li,  Yi-Pei Li,  Jiashu Liang,  M. Liebenthal,  
 Hung-Hsuan Lin,  You-Sheng Lin,  Fenglai Liu,  Kuan-Yu Liu,  
 M. Loipersberger,  A. Luenser,  A. Manjanath,  P. Manohar,  E. Mansoor,  
 S. F. Manzer,  Shan-Ping Mao,  A. V. Marenich,  T. Markovich,  S. Mason,  
 S. A. Maurer,  P. F. McLaughlin,  M. F. S. J. Menger,  J.-M. Mewes,  
 S. A. Mewes,  P. Morgante,  J. W. Mullinax,  K. J. Oosterbaan,  G. Paran,  
 Alexander C. Paul,  Suranjan K. Paul,  F. Pavosevic,  Zheng Pei,  S. Prager,  
 E. I. Proynov,  E. Ramos,  B. Rana,  A. E. Rask,  A. Rettig,  R. M. Richard,  
 F. Rob,  E. Rossomme,  T. Scheele,  M. Scheurer,  M. Schneider,  
 N. Sergueev,  S. M. Sharada,  W. Skomorowski,  D. W. Small,  C. J. Stein,  
 Yu-Chuan Su,  E. J. Sundstrom,  Zhen Tao,  J. Thirman,  T. Tsuchimochi,  
 N. M. Tubman,  S. P. Veccham,  O. Vydrov,  J. Wenzel,  J. Witte,  A. Yamada,  
 Kun Yao,  S. Yeganeh,  S. R. Yost,  A. Zech,  Igor Ying Zhang,  Xing Zhang,  
 Yu Zhang,  D. Zuev,  A. Aspuru-Guzik,  A. T. Bell,  N. A. Besley,  
 K. B. Bravaya,  B. R. Brooks,  D. Casanova,  Jeng-Da Chai,  S. Coriani,  
 C. J. Cramer,  A. E. DePrince, III,  R. A. DiStasio Jr.,  A. Dreuw,  
 B. D. Dunietz,  T. R. Furlani,  W. A. Goddard III,  S. Grimme,  
 S. Hammes-Schiffer,  T. Head-Gordon,  W. J. Hehre,  Chao-Ping Hsu,  
 T.-C. Jagau,  Yousung Jung,  A. Klamt,  Jing Kong,  D. S. Lambrecht,  
 WanZhen Liang,  N. J. Mayhall,  C. W. McCurdy,  J. B. Neaton,  
 C. Ochsenfeld,  J. A. Parkhill,  R. Peverati,  V. A. Rassolov,  Yihan Shao,  
 L. V. Slipchenko,  T. Stauch,  R. P. Steele,  J. E. Subotnik,  
 A. J. W. Thom,  A. Tkatchenko,  D. G. Truhlar,  T. Van Voorhis,  
 T. A. Wesolowski,  K. B. Whaley,  H. L. Woodcock III,  P. M. Zimmerman,  
 S. Faraji,  P. M. W. Gill,  M. Head-Gordon,  J. M. Herbert,  A. I. Krylov

 Additional authors for Version 5.4.1: 
 S. Kotaru,  Shaozhi Li,  Xiangyuan Li,  F. Matz,  A. Molle,  Haisheng Ren,  
 Yingli Su,  Hung-Yi Tsai,  C. Utku,  Fang Wang

 Contributors to earlier versions of Q-Chem not listed above: 
 R. D. Adamson,  B. Austin,  R. Baer,  J. Baker,  G. J. O. Beran,  
 K. Brandhorst,  S. T. Brown,  E. F. C. Byrd,  A. K. Chakraborty,  
 G. K. L. Chan,  Chun-Min Chang,  Yunqing Chen,  C.-L. Cheng,  
 Siu Hung Chien,  D. M. Chipman,  D. L. Crittenden,  H. Dachsel,  
 R. J. Doerksen,  A. D. Dutoi,  R. G. Edgar,  J. Fosso-Tande,  
 L. Fusti-Molnar,  D. Ghosh,  A. Ghysels,  A. Golubeva-Zadorozhnaya,  
 J. Gonthier,  M. S. Gordon,  S. R. Gwaltney,  G. Hawkins,  J. E. Herr,  
 A. Heyden,  S. Hirata,  E. G. Hohenstein,  G. Kedziora,  F. J. Keil,  
 C. Kelley,  Jihan Kim,  R. A. King,  R. Z. Khaliullin,  P. P. Korambath,  
 W. Kurlancheek,  A. Laurent,  A. M. Lee,  M. S. Lee,  S. V. Levchenko,  
 Ching Yeh Lin,  D. Liotard,  E. Livshits,  R. C. Lochan,  I. Lotan,  
 L. A. Martinez-Martinez,  P. E. Maslen,  N. Nair,  D. P. O'Neill,  
 D. Neuhauser,  E. Neuscamman,  C. M. Oana,  R. Olivares-Amaya,  R. Olson,  
 T. M. Perrine,  B. Peters,  P. A. Pieniazek,  A. Prociuk,  Y. M. Rhee,  
 J. Ritchie,  M. A. Rohrdanz,  E. Rosta,  N. J. Russ,  H. F. Schaefer III,  
 M. W. Schmidt,  N. E. Schultz,  S. Sharma,  N. Shenvi,  C. D. Sherrill,  
 A. C. Simmonett,  A. Sodt,  T. Stein,  D. Stuck,  K. S. Thanthiriwatte,  
 V. Vanovschi,  L. Vogt,  Tao Wang,  A. Warshel,  M. A. Watson,  
 C. F. Williams,  Q. Wu,  X. Xu,  Jun Yang,  W. Zhang,  Yan Zhao

 Please cite Q-Chem as follows:
 Y. Shao et al., Mol. Phys. 113, 184-215 (2015)
 DOI: 10.1080/00268976.2014.952696

 Q-Chem 5.4.1 for Intel X86 EM64T Linux

 Parts of Q-Chem use Armadillo 9.800.1 (Horizon Scraper).
 http://arma.sourceforge.net/

 Q-Chem begins on Thu Dec  7 16:04:20 2023  

 Host: 
0

     Scratch files written to /scratch/ari.fischer/qChem1854180.hpc-mn1/qchem173938//
 Aug1521 |scratch|qcdevops|jenkins|workspace|build_RNUM 8249   
 Processing $rem in /usr/local/qchem-5.4.1/config/preferences:
 Processing $rem in /home/ari.fischer/.qchemrc:
 Symmetry turned off for PCM/SM12/SMD calculation

 Checking the input file for inconsistencies... 	...done.

--------------------------------------------------------------
User input:
--------------------------------------------------------------
$molecule
-1 2
C         0.6332016938    0.2492218888    0.7584201423
O         1.4025855345   -0.2466265649    1.5928966321
H        -1.9375709960   -1.0123331655   -0.8866207339
C        -0.5876356319   -0.6521105713    0.4044916578
O        -0.8569532521   -1.6133086963    1.1906387653
O        -1.1874161180   -0.4200235349   -0.6924266891
O         0.6788790895    1.3139223991    0.1285257991
O        -1.4798178908    1.1120009332    2.5219901422
O        -2.4778756125    0.8597842175    1.6870392901
H        -1.6207131163   -2.1609506057    0.9312915941
$end

$rem
BASIS = def2-QZVP
JOB_TYPE = SP
METHOD = wB97M-V
SCF_ALGORITHM = DIIS_GDM
MAX_SCF_CYCLES = 400
SCF_CONVERGENCE = 7
THRESH = 12
Solvent_method = SMD
$end
--------------------------------------------------------------
 ----------------------------------------------------------------
             Standard Nuclear Orientation (Angstroms)
    I     Atom           X                Y                Z
 ----------------------------------------------------------------
    1      C       0.6332016938     0.2492218888     0.7584201423
    2      O       1.4025855345    -0.2466265649     1.5928966321
    3      H      -1.9375709960    -1.0123331655    -0.8866207339
    4      C      -0.5876356319    -0.6521105713     0.4044916578
    5      O      -0.8569532521    -1.6133086963     1.1906387653
    6      O      -1.1874161180    -0.4200235349    -0.6924266891
    7      O       0.6788790895     1.3139223991     0.1285257991
    8      O      -1.4798178908     1.1120009332     2.5219901422
    9      O      -2.4778756125     0.8597842175     1.6870392901
   10      H      -1.6207131163    -2.1609506057     0.9312915941
 ----------------------------------------------------------------
 Nuclear Repulsion Energy =         379.23554331 hartrees
 There are       32 alpha and       31 beta electrons
 Requested basis set is def2-QZVP
 There are 156 shells and 516 basis functions

 Total QAlloc Memory Limit 288000 MB
 Mega-Array Size       188 MB
 MEM_STATIC part       192 MB
 
 Citation of the SMD model:
 Marenich, A.V.; Cramer, C.J.; Truhlar, D.G.
 J. Phys. Chem. B 2009, 113, 6378-6396.
 iSolventCode=           1
 Solvent: water                                                           
 
 vradii
            1           2           3           4           5           6
    1   1.8500000   1.5200000   1.2000000   1.8500000   1.5200000   1.5200000
            7           8           9          10
    1   1.5200000   1.5200000   1.5200000   1.2000000
 Changing PCM_VDW_RADII to SMD_RADIUS
 Discretize the solute cavity surface with Lebedev spheres
	Using 110 Lebedev grid points for each H atom
	Using 194 Lebedev grid points for other atoms
	Atomic van der Waals radii will be scaled by 1.20
 Remove points where switching function is < 1.0e-08
 Keep 1045 surface tesserae and discard 727 interior tesserae
 Molecular Surface Area = 126.290 Angst**2

                       Distance Matrix (Angstroms)
             C (  1)   O (  2)   H (  3)   C (  4)   O (  5)   O (  6)
   O (  2)  1.238615
   H (  3)  3.302507  4.229771
   C (  4)  1.558239  2.353233  1.902382
   O (  5)  2.424128  2.671170  2.417419  1.270614
   O (  6)  2.422291  3.458450  0.975333  1.271547  2.253679
   O (  7)  1.237918  2.259081  3.645243  2.354889  3.472110  2.676488
   O (  8)  2.884340  3.319237  4.042395  2.896874  3.096412  3.572824
   O (  9)  3.303623  4.036209  3.228077  2.739299  2.998331  2.994170
   H ( 10)  3.304383  3.639051  2.173598  1.902989  0.974937  2.419718
             O (  7)   O (  8)   O (  9)
   O (  8)  3.229461
   O (  9)  3.549691  1.325472
   H ( 10)  4.243501  3.641756  3.229663
 
 A cutoff of  1.0D-12 yielded  10083 shell pairs
 There are    114081 function pairs (    177754 Cartesian)
 Smallest overlap matrix eigenvalue = 6.59E-05

 Scale SEOQF with 1.000000e-01/1.000000e-01/1.000000e-01

 Standard Electronic Orientation quadrupole field applied
 Nucleus-field energy     =    -0.0000000039 hartrees
 Guess from superposition of atomic densities
 Warning:  Energy on first SCF cycle will be non-variational
 SAD guess density has 62.000000 electrons

 -----------------------------------------------------------------------
  General SCF calculation program by
  Eric Jon Sundstrom, Paul Horn, Yuezhi Mao, Dmitri Zuev, Alec White,
  David Stuck, Shaama M.S., Shane Yost, Joonho Lee, David Small,
  Daniel Levine, Susi Lehtola, Hugh Burton, Evgeny Epifanovsky,
  Bang C. Huynh
 -----------------------------------------------------------------------
 Exchange:     0.1500 Hartree-Fock + 1.0000 wB97M-V + LR-HF
 Correlation:  1.0000 wB97M-V
 Using SG-2 standard quadrature grid
 Nonlocal Correlation:  VV10 with C = 0.0100 and b = 6.00 and scale = 1.00000
 Grid used for NLC:  SG-1 standard quadrature
 
 Citation of the SMD model:
 Marenich, A.V.; Cramer, C.J.; Truhlar, D.G.
 J. Phys. Chem. B 2009, 113, 6378-6396.
 iSolventCode=           1
 Solvent: water                                                           
 
 vradii
            1           2           3           4           5           6
    1   1.8500000   1.5200000   1.2000000   1.8500000   1.5200000   1.5200000
            7           8           9          10
    1   1.5200000   1.5200000   1.5200000   1.2000000
 using 4 threads for integral computing
 -------------------------------------------------------
 OpenMP Integral computing Module                
 Release: version 1.0, May 2013, Q-Chem Inc. Pittsburgh 
 -------------------------------------------------------
 -------------------------------------------------------
 OpenMP BLAS3 based DFT computing Module                
 Release: version 1.0, May 2013, Q-Chem Inc. Pittsburgh 
 -------------------------------------------------------
 A unrestricted SCF calculation will be
 performed using DIIS, GDM
 SCF converges when RMS gradient is below 1.0e-07
 ---------------------------------------
  Cycle       Energy         DIIS error
 ---------------------------------------
    1    -529.7622409138      8.58e-03  
    2    -528.6417291722      1.57e-03  Done DIIS. Switching to GDM
 ---------------------------------------
  Cycle       Energy        RMS Gradient
 ---------------------------------------
    1    -528.6417291722      1.84e-01   Descent step
    2    -528.8592750541      4.98e-02   Normal BFGS step
    3    -528.8971319692      7.89e-03   Normal BFGS step
    4    -528.8986830259      4.54e-03   Normal BFGS step
    5    -528.8991136758      9.22e-04   Normal BFGS step
    6    -528.8991295114      1.67e-03   Normal BFGS step
    7    -528.8991343731      6.41e-04   Normal BFGS step
    8    -528.8991360498      5.56e-04   Normal BFGS step
    9    -528.8991366141      5.54e-04   Normal BFGS step
   10    -528.8991374017      5.51e-04   Normal BFGS step
   11    -528.8991398407      5.36e-04   Normal BFGS step
   12    -528.8991439432      7.32e-04   Normal BFGS step
   13    -528.8991519793      1.20e-03   Normal BFGS step
   14    -528.8991639124      1.63e-03   Normal BFGS step
   15    -528.8991769211      1.64e-03   Normal BFGS step
   16    -528.8991871073      9.29e-04   Normal BFGS step
   17    -528.8991893031      3.99e-04   Normal BFGS step
   18    -528.8991899824      2.07e-04   Normal BFGS step
   19    -528.8991901691      8.31e-05   Normal BFGS step
   20    -528.8991902252      1.85e-05   Normal BFGS step
   21    -528.8991902332      9.82e-06   Normal BFGS step
   22    -528.8991902343      4.25e-06   Normal BFGS step
   23    -528.8991902344      1.97e-06   Normal BFGS step
   24    -528.8991902345      1.41e-06   Normal BFGS step
   25    -528.8991902345      7.27e-07   Normal BFGS step
   26    -528.8991902346      1.47e-07   Normal BFGS step
   27    -528.8991902346      1.47e-07   Normal BFGS step
  GDM::WARNING energy changes are now smaller than effective accuracy.
  GDM::        calculation will continue, but THRESH should be increased
  GDM::        or SCF_CONVERGENCE decreased. 
  GDM::        effective_thresh = 4.78e-09
   28    -528.8991902345      8.38e-08  Convergence criterion met
 ---------------------------------------
 SCF time:   CPU 6310.93s  wall 1591.00s 
<S^2> =          0.754859251
(3)  G-ENP(liq) elect-nuc-pol free energy of system     -528.899190234 a.u.
(4)  G-CDS(liq) cavity-dispersion-solvent structure 
     free energy                                                5.1142 kcal/mol
(6)  G-S(liq) free energy of system                     -528.891040232 a.u.
 SCF   energy in the final basis set =     -528.8910402324
 Total energy in the final basis set =     -528.8910402324
 
 --------------------------------------------------------------
 
                    Orbital Energies (a.u.)
 --------------------------------------------------------------
 
 Alpha MOs
 -- Occupied --
-19.4347 -19.4344 -19.3314 -19.3312 -19.3022 -19.3020 -10.5483 -10.4729
 -1.3227  -1.2417  -1.2121  -1.1928  -1.1086  -0.8664  -0.8610  -0.7726
 -0.7091  -0.6356  -0.6282  -0.5726  -0.5524  -0.5398  -0.5342  -0.5212
 -0.5168  -0.5025  -0.4879  -0.3913  -0.3877  -0.3823  -0.3212  -0.2899
 -- Virtual --
  0.0127   0.0701   0.1230   0.1329   0.1684   0.1723   0.1845   0.2016
  0.2128   0.2444   0.2641   0.2666   0.2878   0.2977   0.3043   0.3287
  0.3358   0.3500   0.3538   0.3614   0.3770   0.3863   0.3941   0.4079
  0.4178   0.4271   0.4371   0.4463   0.4600   0.4855   0.4912   0.4982
  0.5077   0.5280   0.5443   0.5454   0.5667   0.5922   0.6211   0.6571
  0.7002   0.7178   0.7411   0.7545   0.7600   0.7745   0.7833   0.8125
  0.8453   0.8590   0.8692   0.8879   0.9046   0.9236   0.9459   0.9621
  0.9772   1.0033   1.0168   1.0305   1.0498   1.0774   1.0873   1.1267
  1.1399   1.1600   1.1891   1.2104   1.2360   1.2718   1.2792   1.3136
  1.3256   1.3360   1.3478   1.3701   1.3867   1.4025   1.4067   1.4115
  1.4224   1.4310   1.4442   1.4532   1.4771   1.4846   1.4981   1.5039
  1.5201   1.5369   1.5459   1.5700   1.5837   1.5906   1.6249   1.6431
  1.6560   1.6741   1.7017   1.7305   1.7682   1.7807   1.8072   1.8210
  1.8292   1.8600   1.8956   1.9057   1.9244   1.9383   1.9531   1.9828
  2.0292   2.0404   2.0501   2.0593   2.0956   2.1042   2.1119   2.1420
  2.1559   2.1727   2.1769   2.2415   2.2554   2.2805   2.2995   2.3125
  2.3398   2.3707   2.3951   2.4078   2.4451   2.4524   2.4935   2.4983
  2.5298   2.5582   2.5953   2.6106   2.6203   2.6520   2.6810   2.7103
  2.7511   2.7706   2.8121   2.8500   2.8657   2.8747   2.8921   2.9758
  2.9881   3.0040   3.0287   3.0773   3.1152   3.1258   3.1486   3.1754
  3.1841   3.2229   3.2346   3.2439   3.2662   3.2881   3.3198   3.3246
  3.3459   3.4186   3.4403   3.4619   3.4721   3.4808   3.5005   3.5315
  3.5754   3.6006   3.6566   3.7550   3.7680   3.8161   3.8235   3.8380
  3.8580   3.8863   3.8997   3.9106   3.9233   3.9263   3.9504   3.9985
  4.0097   4.0275   4.0412   4.0618   4.0745   4.0839   4.1021   4.1174
  4.1468   4.1652   4.1719   4.1810   4.1939   4.2221   4.2620   4.2680
  4.2902   4.3115   4.3372   4.3506   4.3895   4.4045   4.4154   4.4227
  4.4346   4.4503   4.4757   4.4891   4.5309   4.5509   4.5879   4.6132
  4.6254   4.6722   4.6778   4.7336   4.7565   4.7803   4.8013   4.8225
  4.8395   4.9101   4.9330   4.9405   4.9503   4.9823   4.9909   5.0336
  5.0779   5.0809   5.1051   5.1638   5.1967   5.2544   5.2588   5.2832
  5.3131   5.3591   5.3706   5.3922   5.4268   5.4401   5.4832   5.4985
  5.6032   5.6443   5.6513   5.7139   5.7230   5.7603   5.8152   5.8187
  5.8414   5.8702   5.8988   5.9029   5.9164   5.9892   5.9982   6.0594
  6.0853   6.1441   6.1673   6.1860   6.2273   6.2777   6.2940   6.3013
  6.3198   6.3451   6.4279   6.4431   6.4806   6.5024   6.5443   6.7032
  6.8269   6.8493   6.8750   6.9631   7.0139   7.0583   7.0802   7.1070
  7.1629   7.1809   7.2128   7.2414   7.2754   7.3498   7.3519   7.3771
  7.3924   7.5377   7.5407   7.5663   7.5974   7.6245   7.6445   7.7301
  7.8360   7.8395   7.8476   7.9101   7.9648   8.0334   8.0492   8.1591
  8.3045   8.4090   8.4125   8.4793   8.4803   8.5355   8.5868   8.6178
  8.6341   8.6451   8.6729   8.7271   8.7284   8.8258   8.8882   8.9369
  8.9595   8.9618   8.9746   8.9974   9.0025   9.0075   9.0141   9.0167
  9.0188   9.0285   9.0646   9.1507   9.2332   9.2534   9.2539   9.2670
  9.2945   9.3004   9.3554   9.3682   9.4564   9.5835   9.5935   9.7063
  9.7462   9.8685   9.9067   9.9968  10.0005  10.0833  10.1306  10.1673
 10.2251  10.2855  10.3482  10.4092  10.4415  10.4569  10.5035  10.5203
 10.5246  10.5815  10.6371  10.6984  10.8032  10.8660  10.8876  10.9548
 11.0195  11.0455  11.0518  11.0559  11.0719  11.0931  11.1277  11.1460
 11.1501  11.1602  11.1802  11.1841  11.2595  11.2897  11.3932  11.4727
 11.4796  11.5040  11.5062  11.5164  11.5421  11.5471  11.5858  11.5872
 11.6061  11.6531  11.6900  11.7098  11.7512  11.8284  11.8374  11.8439
 11.8933  11.9023  11.9407  11.9421  11.9906  12.0166  12.0246  12.0795
 12.0902  12.1071  12.1275  12.1663  12.1881  12.2025  12.2273  12.2488
 12.2668  12.3111  12.3279  12.3376  12.3840  12.3969  12.4059  12.4543
 12.4903  12.8082  12.8287  12.8800  13.0040  13.2040  13.2334  13.2524
 13.2798  13.2890  13.4473  13.5149  13.7074  13.8066  13.8435  13.8558
 13.9951  14.2612  14.2963  14.3297  14.4488  14.4688  14.5046  14.6610
 14.7814  14.7998  16.5586  16.5711  28.3192  28.5357  47.6014  48.1217
 48.3504  48.4811  48.6357  48.8037 149.0711 149.2765 254.8798 255.5187
255.7653 255.9071 256.0914 256.2808
 
 Beta MOs
 -- Occupied --
-19.4347 -19.4344 -19.3172 -19.3171 -19.3022 -19.3020 -10.5483 -10.4729
 -1.3227  -1.2417  -1.1931  -1.1827  -1.1086  -0.8663  -0.8187  -0.7726
 -0.7091  -0.6352  -0.6282  -0.5726  -0.5524  -0.5386  -0.5315  -0.5060
 -0.4960  -0.4735  -0.4338  -0.3910  -0.3874  -0.3821  -0.2709
 -- Virtual --
  0.0128   0.0396   0.0703   0.1235   0.1334   0.1687   0.1725   0.1867
  0.2027   0.2149   0.2480   0.2644   0.2671   0.2886   0.3009   0.3090
  0.3291   0.3394   0.3533   0.3567   0.3634   0.3825   0.3909   0.4055
  0.4097   0.4216   0.4282   0.4385   0.4479   0.4604   0.4862   0.4917
  0.4992   0.5092   0.5286   0.5449   0.5467   0.5672   0.5928   0.6224
  0.6573   0.7009   0.7192   0.7427   0.7558   0.7604   0.7756   0.7842
  0.8128   0.8455   0.8593   0.8711   0.8886   0.9056   0.9245   0.9465
  0.9636   0.9789   1.0052   1.0174   1.0310   1.0511   1.0790   1.0876
  1.1304   1.1524   1.1678   1.1919   1.2117   1.2364   1.2743   1.2859
  1.3158   1.3314   1.3381   1.3545   1.3732   1.3948   1.4039   1.4107
  1.4140   1.4235   1.4360   1.4474   1.4676   1.4785   1.4926   1.4992
  1.5211   1.5318   1.5398   1.5499   1.5723   1.5865   1.5955   1.6263
  1.6466   1.6572   1.6755   1.7031   1.7315   1.7697   1.7834   1.8109
  1.8260   1.8335   1.8622   1.8974   1.9089   1.9278   1.9394   1.9566
  1.9865   2.0324   2.0420   2.0505   2.0599   2.0972   2.1056   2.1130
  2.1434   2.1576   2.1736   2.1774   2.2424   2.2557   2.2813   2.2998
  2.3127   2.3407   2.3714   2.3958   2.4084   2.4455   2.4529   2.4940
  2.4989   2.5306   2.5588   2.5958   2.6108   2.6206   2.6528   2.6814
  2.7109   2.7517   2.7714   2.8136   2.8509   2.8661   2.8748   2.8927
  2.9794   2.9915   3.0119   3.0368   3.0819   3.1202   3.1420   3.1541
  3.1844   3.1895   3.2300   3.2441   3.2479   3.2755   3.2931   3.3236
  3.3293   3.3500   3.4219   3.4465   3.4774   3.4883   3.4940   3.5082
  3.5325   3.5774   3.6020   3.6694   3.7577   3.7686   3.8210   3.8274
  3.8422   3.8730   3.8913   3.9025   3.9122   3.9307   3.9343   3.9581
  4.0019   4.0109   4.0459   4.0469   4.0718   4.0822   4.0995   4.1124
  4.1423   4.1587   4.1723   4.1823   4.2022   4.2064   4.2322   4.2654
  4.2799   4.2940   4.3147   4.3391   4.3609   4.3909   4.4094   4.4172
  4.4250   4.4364   4.4512   4.4844   4.4949   4.5387   4.5553   4.5922
  4.6160   4.6270   4.6727   4.6789   4.7403   4.7795   4.7825   4.8030
  4.8276   4.8471   4.9130   4.9366   4.9424   4.9536   4.9834   4.9935
  5.0357   5.0784   5.0841   5.1323   5.1734   5.2235   5.2553   5.2610
  5.2851   5.3183   5.3810   5.3837   5.4132   5.4298   5.4441   5.4968
  5.5006   5.6057   5.6464   5.6526   5.7160   5.7233   5.7614   5.8160
  5.8189   5.8434   5.8715   5.8994   5.9030   5.9168   5.9894   5.9983
  6.0595   6.0855   6.1443   6.1674   6.1862   6.2273   6.2779   6.2941
  6.3013   6.3200   6.3452   6.4280   6.4433   6.4807   6.5024   6.5448
  6.7032   6.8269   6.8493   6.8750   6.9631   7.0140   7.0583   7.0804
  7.1070   7.1633   7.1812   7.2130   7.2490   7.2849   7.3498   7.3519
  7.3771   7.3929   7.5377   7.5408   7.5664   7.5974   7.6245   7.6446
  7.7302   7.8360   7.8395   7.8476   7.9102   7.9649   8.0334   8.0492
  8.1593   8.3046   8.4355   8.4397   8.4799   8.4825   8.5756   8.5944
  8.6187   8.6342   8.6453   8.6735   8.7639   8.7651   8.8467   8.8887
  8.9400   8.9691   8.9974   9.0021   9.0075   9.0123   9.0167   9.0191
  9.0290   9.0634   9.0740   9.0762   9.1507   9.2332   9.2666   9.2896
  9.2919   9.2948   9.3031   9.3554   9.3682   9.4565   9.5835   9.5935
  9.7063   9.7462   9.8685   9.9067  10.0260  10.0291  10.0834  10.1307
 10.1675  10.2252  10.2855  10.3483  10.4093  10.4418  10.4572  10.5039
 10.5226  10.5452  10.5835  10.6833  10.7110  10.8033  10.8678  10.8877
 10.9560  11.0302  11.0713  11.1027  11.1123  11.1193  11.1358  11.1406
 11.1535  11.1720  11.1818  11.2249  11.2340  11.2609  11.2897  11.4315
 11.4995  11.5047  11.5117  11.5239  11.5347  11.5477  11.5847  11.5873
 11.6033  11.6176  11.6551  11.7082  11.7505  11.7556  11.8353  11.8429
 11.8488  11.8947  11.9035  11.9419  11.9457  11.9972  12.0188  12.0344
 12.0961  12.1205  12.1396  12.1733  12.2186  12.2217  12.2382  12.2517
 12.2639  12.2955  12.3372  12.3506  12.3774  12.3950  12.4079  12.4429
 12.4614  12.4927  12.8084  12.8291  12.8804  13.0040  13.2041  13.2516
 13.2872  13.2924  13.2991  13.4474  13.5150  13.7510  13.8087  13.8480
 13.9003  13.9951  14.2612  14.2964  14.3297  14.4489  14.4688  14.5047
 14.6610  14.7998  14.8141  16.5586  16.5711  28.3192  28.5358  47.6202
 48.1410  48.3504  48.4811  48.6357  48.8037 149.0711 149.2765 254.8881
255.5269 255.7653 255.9071 256.0914 256.2808
 --------------------------------------------------------------
 
          Ground-State Mulliken Net Atomic Charges

     Atom                 Charge (a.u.)    Spin (a.u.)
  --------------------------------------------------------
      1 C                     0.337735      -0.002501
      2 O                    -0.534906      -0.000154
      3 H                     0.369030       0.000304
      4 C                     0.359357      -0.000624
      5 O                    -0.222934      -0.000191
      6 O                    -0.217268      -0.000872
      7 O                    -0.532108       0.000699
      8 O                    -0.462546       0.505433
      9 O                    -0.465572       0.498121
     10 H                     0.369211      -0.000216
  --------------------------------------------------------
  Sum of atomic charges =    -1.000000
  Sum of spin   charges =     1.000000

 -----------------------------------------------------------------
                    Cartesian Multipole Moments
 -----------------------------------------------------------------
    Charge (ESU x 10^10)
                -4.8032
    Dipole Moment (Debye)
         X      -2.3707      Y     -13.0679      Z     -13.1648
       Tot      18.7003
    Quadrupole Moments (Debye-Ang)
        XX     -60.7763     XY      18.5818     YY     -47.4599
        XZ      11.6328     YZ      -8.8484     ZZ     -74.1369
    Octopole Moments (Debye-Ang^2)
       XXX      82.5404    XXY     -47.9069    XYY       9.3267
       YYY     -51.2388    XXZ     -95.6473    XYZ      22.9325
       YYZ     -56.3910    XZZ      46.1078    YZZ     -29.4219
       ZZZ    -203.2321
    Hexadecapole Moments (Debye-Ang^3)
      XXXX    -639.9881   XXXY     106.4084   XXYY    -131.9657
      XYYY      65.8090   YYYY    -273.6949   XXXZ     180.8340
      XXYZ     -57.6853   XYYZ      47.6275   YYYZ     -76.7467
      XXZZ    -267.8217   XYZZ      61.1173   YYZZ    -173.2211
      XZZZ     173.7267   YZZZ    -102.1713   ZZZZ    -722.9347
 -----------------------------------------------------------------
 Total job time:  1591.87s(wall), 6314.56s(cpu) 
 Thu Dec  7 16:30:52 2023

        *************************************************************
        *                                                           *
        *  Thank you very much for using Q-Chem.  Have a nice day.  *
        *                                                           *
        *************************************************************


