
Running Job 1 of 1 Q_in.in
qchem Q_in.in_373269.0 /scratch/ari.fischer/qChem1525669.hpc-mn1/qchem373269/ 0
/usr/local/qchem-5.4.1/exe/qcprog.exe_s Q_in.in_373269.0 /scratch/ari.fischer/qChem1525669.hpc-mn1/qchem373269/
                  Welcome to Q-Chem
     A Quantum Leap Into The Future Of Chemistry


 Q-Chem 5.4, Q-Chem, Inc., Pleasanton, CA (2021)

 License issued to: Nanyang Technological University (site)

 E. Epifanovsky,  A. T. B. Gilbert,  Xintian Feng,  Joonho Lee,  Yuezhi Mao,  
 N. Mardirossian,  P. Pokhilko,  A. White,  M. Wormit,  M. P. Coons,  
 A. L. Dempwolff,  Zhengting Gan,  D. Hait,  P. R. Horn,  L. D. Jacobson,  
 I. Kaliman,  J. Kussmann,  A. W. Lange,  Ka Un Lao,  D. S. Levine,  Jie Liu,  
 S. C. McKenzie,  A. F. Morrison,  K. Nanda,  F. Plasser,  D. R. Rehn,  
 M. L. Vidal,  Zhi-Qiang You,  Ying Zhu,  B. Alam,  B. Albrecht,  
 A. Aldossary,  E. Alguire,  J. H. Andersen,  D. Barton,  K. Begam,  A. Behn,  
 Y. A. Bernard,  E. J. Berquist,  H. Burton,  A. Carreras,  K. Carter-Fenk,  
 R. Chakraborty,  A. D. Chien,  K. D. Closser,  V. Cofer-Shabica,  
 S. Dasgupta,  Jia Deng,  M. de Wergifosse,  M. Diedenhofen,  Hainam Do,  
 S. Ehlert,  Po-Tung Fang,  S. Fatehi,  Qingguo Feng,  T. Friedhoff,  
 J. Gayvert,  Qinghui Ge,  G. Gidofalvi,  M. Goldey,  J. Gomes,  
 C. Gonzalez-Espinoza,  S. Gulania,  A. Gunina,  M. W. D. Hanson-Heine,  
 P. H. P. Harbach,  A. W. Hauser,  M. F. Herbst,  M. Hernandez Vera,  
 M. Hodecker,  Z. C. Holden,  S. Houck,  Xunkun Huang,  Kerwin Hui,  
 B. C. Huynh,  M. Ivanov,  Hyunjun Ji,  Hanjie Jiang,  B. Kaduk,  S. Kaehler,  
 K. Khistyaev,  Jaehoon Kim,  P. Klunzinger,  Z. Koczor-Benda,  
 Joong Hoon Koh,  D. Kosenkov,  L. Koulias,  T. Kowalczyk,  C. M. Krauter,  
 K. Kue,  A. Kunitsa,  T. Kus,  A. Landau,  K. V. Lawler,  D. Lefrancois,  
 S. Lehtola,  Rain Li,  Yi-Pei Li,  Jiashu Liang,  M. Liebenthal,  
 Hung-Hsuan Lin,  You-Sheng Lin,  Fenglai Liu,  Kuan-Yu Liu,  
 M. Loipersberger,  A. Luenser,  A. Manjanath,  P. Manohar,  E. Mansoor,  
 S. F. Manzer,  Shan-Ping Mao,  A. V. Marenich,  T. Markovich,  S. Mason,  
 S. A. Maurer,  P. F. McLaughlin,  M. F. S. J. Menger,  J.-M. Mewes,  
 S. A. Mewes,  P. Morgante,  J. W. Mullinax,  K. J. Oosterbaan,  G. Paran,  
 Alexander C. Paul,  Suranjan K. Paul,  F. Pavosevic,  Zheng Pei,  S. Prager,  
 E. I. Proynov,  E. Ramos,  B. Rana,  A. E. Rask,  A. Rettig,  R. M. Richard,  
 F. Rob,  E. Rossomme,  T. Scheele,  M. Scheurer,  M. Schneider,  
 N. Sergueev,  S. M. Sharada,  W. Skomorowski,  D. W. Small,  C. J. Stein,  
 Yu-Chuan Su,  E. J. Sundstrom,  Zhen Tao,  J. Thirman,  T. Tsuchimochi,  
 N. M. Tubman,  S. P. Veccham,  O. Vydrov,  J. Wenzel,  J. Witte,  A. Yamada,  
 Kun Yao,  S. Yeganeh,  S. R. Yost,  A. Zech,  Igor Ying Zhang,  Xing Zhang,  
 Yu Zhang,  D. Zuev,  A. Aspuru-Guzik,  A. T. Bell,  N. A. Besley,  
 K. B. Bravaya,  B. R. Brooks,  D. Casanova,  Jeng-Da Chai,  S. Coriani,  
 C. J. Cramer,  A. E. DePrince, III,  R. A. DiStasio Jr.,  A. Dreuw,  
 B. D. Dunietz,  T. R. Furlani,  W. A. Goddard III,  S. Grimme,  
 S. Hammes-Schiffer,  T. Head-Gordon,  W. J. Hehre,  Chao-Ping Hsu,  
 T.-C. Jagau,  Yousung Jung,  A. Klamt,  Jing Kong,  D. S. Lambrecht,  
 WanZhen Liang,  N. J. Mayhall,  C. W. McCurdy,  J. B. Neaton,  
 C. Ochsenfeld,  J. A. Parkhill,  R. Peverati,  V. A. Rassolov,  Yihan Shao,  
 L. V. Slipchenko,  T. Stauch,  R. P. Steele,  J. E. Subotnik,  
 A. J. W. Thom,  A. Tkatchenko,  D. G. Truhlar,  T. Van Voorhis,  
 T. A. Wesolowski,  K. B. Whaley,  H. L. Woodcock III,  P. M. Zimmerman,  
 S. Faraji,  P. M. W. Gill,  M. Head-Gordon,  J. M. Herbert,  A. I. Krylov

 Additional authors for Version 5.4.1: 
 S. Kotaru,  Shaozhi Li,  Xiangyuan Li,  F. Matz,  A. Molle,  Haisheng Ren,  
 Yingli Su,  Hung-Yi Tsai,  C. Utku,  Fang Wang

 Contributors to earlier versions of Q-Chem not listed above: 
 R. D. Adamson,  B. Austin,  R. Baer,  J. Baker,  G. J. O. Beran,  
 K. Brandhorst,  S. T. Brown,  E. F. C. Byrd,  A. K. Chakraborty,  
 G. K. L. Chan,  Chun-Min Chang,  Yunqing Chen,  C.-L. Cheng,  
 Siu Hung Chien,  D. M. Chipman,  D. L. Crittenden,  H. Dachsel,  
 R. J. Doerksen,  A. D. Dutoi,  R. G. Edgar,  J. Fosso-Tande,  
 L. Fusti-Molnar,  D. Ghosh,  A. Ghysels,  A. Golubeva-Zadorozhnaya,  
 J. Gonthier,  M. S. Gordon,  S. R. Gwaltney,  G. Hawkins,  J. E. Herr,  
 A. Heyden,  S. Hirata,  E. G. Hohenstein,  G. Kedziora,  F. J. Keil,  
 C. Kelley,  Jihan Kim,  R. A. King,  R. Z. Khaliullin,  P. P. Korambath,  
 W. Kurlancheek,  A. Laurent,  A. M. Lee,  M. S. Lee,  S. V. Levchenko,  
 Ching Yeh Lin,  D. Liotard,  E. Livshits,  R. C. Lochan,  I. Lotan,  
 L. A. Martinez-Martinez,  P. E. Maslen,  N. Nair,  D. P. O'Neill,  
 D. Neuhauser,  E. Neuscamman,  C. M. Oana,  R. Olivares-Amaya,  R. Olson,  
 T. M. Perrine,  B. Peters,  P. A. Pieniazek,  A. Prociuk,  Y. M. Rhee,  
 J. Ritchie,  M. A. Rohrdanz,  E. Rosta,  N. J. Russ,  H. F. Schaefer III,  
 M. W. Schmidt,  N. E. Schultz,  S. Sharma,  N. Shenvi,  C. D. Sherrill,  
 A. C. Simmonett,  A. Sodt,  T. Stein,  D. Stuck,  K. S. Thanthiriwatte,  
 V. Vanovschi,  L. Vogt,  Tao Wang,  A. Warshel,  M. A. Watson,  
 C. F. Williams,  Q. Wu,  X. Xu,  Jun Yang,  W. Zhang,  Yan Zhao

 Please cite Q-Chem as follows:
 Y. Shao et al., Mol. Phys. 113, 184-215 (2015)
 DOI: 10.1080/00268976.2014.952696

 Q-Chem 5.4.1 for Intel X86 EM64T Linux

 Parts of Q-Chem use Armadillo 9.800.1 (Horizon Scraper).
 http://arma.sourceforge.net/

 Q-Chem begins on Sat May  6 18:11:20 2023  

 Host: 
0

     Scratch files written to /scratch/ari.fischer/qChem1525669.hpc-mn1/qchem373269//
 Aug1521 |scratch|qcdevops|jenkins|workspace|build_RNUM 8249   
 Processing $rem in /usr/local/qchem-5.4.1/config/preferences:
 Processing $rem in /home/ari.fischer/.qchemrc:
 Symmetry turned off for PCM/SM12/SMD calculation


!!********************************************.
!!******************Warning*******************.
!!Desired Analytical derivatives not available.
!!Finite difference job might take a long time.
!!********************************************.
!!********************************************.


 2-order derivative to be evaluated numerically with 1-order analytical derivatives

 Checking the input file for inconsistencies... 	...done.

--------------------------------------------------------------
User input:
--------------------------------------------------------------
$molecule
-1 1
C         0.5350115579   -0.4334250488   -0.0336731285
O         1.4704287825   -1.1680747543   -0.2379881717
H         0.6565433537    0.6600010991    0.0022245863
C        -0.9035122627   -0.9470512349    0.1932302675
O        -1.0803050162   -2.1823266482    0.1655796731
O        -1.7477463154   -0.0421073131    0.3831652733
$end

$rem
BASIS = 6-311++G(2df,2p)
GUI = 2
JOB_TYPE = Frequency
METHOD = wB97M-V
SOLVENT_METHOD = SMD
SCF_ALGORITHM = DIIS_GDM
MAX_SCF_CYCLES = 400
SCF_CONVERGENCE = 7
THRESH = 12
UNRESTRICTED = 1
SYMMETRY_IGNORE = 1
$end
--------------------------------------------------------------
 ----------------------------------------------------------------
             Standard Nuclear Orientation (Angstroms)
    I     Atom           X                Y                Z
 ----------------------------------------------------------------
    1      C       0.5350115579    -0.4334250488    -0.0336731285
    2      O       1.4704287825    -1.1680747543    -0.2379881717
    3      H       0.6565433537     0.6600010991     0.0022245863
    4      C      -0.9035122627    -0.9470512349     0.1932302675
    5      O      -1.0803050162    -2.1823266482     0.1655796731
    6      O      -1.7477463154    -0.0421073131     0.3831652733
 ----------------------------------------------------------------
 Nuclear Repulsion Energy =         152.28259994 hartrees
 There are       19 alpha and       19 beta electrons
 Requested basis set is 6-311++G(2df,2p)
 There are 46 shells and 180 basis functions

 Total QAlloc Memory Limit 288000 MB
 Mega-Array Size       188 MB
 MEM_STATIC part       192 MB
 
 Citation of the SMD model:
 Marenich, A.V.; Cramer, C.J.; Truhlar, D.G.
 J. Phys. Chem. B 2009, 113, 6378-6396.
 iSolventCode=           1
 Solvent: water                                                           
 
 vradii
            1           2           3           4           5           6
    1   1.8500000   1.5200000   1.2000000   1.8500000   1.5200000   1.5200000
 Changing PCM_VDW_RADII to SMD_RADIUS
 Discretize the solute cavity surface with Lebedev spheres
	Using 110 Lebedev grid points for each H atom
	Using 194 Lebedev grid points for other atoms
	Atomic van der Waals radii will be scaled by 1.20
 Remove points where switching function is < 1.0e-08
 Keep 649 surface tesserae and discard 431 interior tesserae
 Molecular Surface Area = 83.422 Angst**2

                       Distance Matrix (Angstroms)
             C (  1)   O (  2)   H (  3)   C (  4)   O (  5)
   O (  2)  1.206839
   H (  3)  1.100745  2.015434
   C (  4)  1.544230  2.422890  2.247860
   O (  5)  2.389060  2.774494  3.334989  1.248169
   O (  6)  2.353267  3.465586  2.533512  1.252090  2.252412
 
 A cutoff of  1.0D-12 yielded   1042 shell pairs
 There are     16142 function pairs (     20960 Cartesian)
 Smallest overlap matrix eigenvalue = 1.50E-04
 Guess from superposition of atomic densities
 Warning:  Energy on first SCF cycle will be non-variational
 SAD guess density has 37.000000 electrons

 -----------------------------------------------------------------------
  General SCF calculation program by
  Eric Jon Sundstrom, Paul Horn, Yuezhi Mao, Dmitri Zuev, Alec White,
  David Stuck, Shaama M.S., Shane Yost, Joonho Lee, David Small,
  Daniel Levine, Susi Lehtola, Hugh Burton, Evgeny Epifanovsky,
  Bang C. Huynh
 -----------------------------------------------------------------------
 Exchange:     0.1500 Hartree-Fock + 1.0000 wB97M-V + LR-HF
 Correlation:  1.0000 wB97M-V
 Using SG-2 standard quadrature grid
 Nonlocal Correlation:  VV10 with C = 0.0100 and b = 6.00 and scale = 1.00000
 Grid used for NLC:  SG-1 standard quadrature
 using 8 threads for integral computing
 -------------------------------------------------------
 OpenMP Integral computing Module                
 Release: version 1.0, May 2013, Q-Chem Inc. Pittsburgh 
 -------------------------------------------------------
 
 Citation of the SMD model:
 Marenich, A.V.; Cramer, C.J.; Truhlar, D.G.
 J. Phys. Chem. B 2009, 113, 6378-6396.
 iSolventCode=           1
 Solvent: water                                                           
 
 vradii
            1           2           3           4           5           6
    1   1.8500000   1.5200000   1.2000000   1.8500000   1.5200000   1.5200000
 -------------------------------------------------------
 OpenMP BLAS3 based DFT computing Module                
 Release: version 1.0, May 2013, Q-Chem Inc. Pittsburgh 
 -------------------------------------------------------
 A unrestricted SCF calculation will be
 performed using DIIS, GDM
 SCF converges when RMS gradient is below 1.0e-07
 ---------------------------------------
  Cycle       Energy         DIIS error
 ---------------------------------------
    1    -303.2093313853      1.89e-02  
    2    -302.4786782458      3.94e-03  Done DIIS. Switching to GDM
 ---------------------------------------
  Cycle       Energy        RMS Gradient
 ---------------------------------------
    1    -302.4786782458      2.03e-01   Descent step
    2    -302.6591593651      3.32e-02   Normal BFGS step
    3    -302.6727070263      1.40e-02   Normal BFGS step
    4    -302.6731752965      1.17e-02   Normal BFGS step
    5    -302.6736641879      9.63e-04   Normal BFGS step
    6    -302.6736739316      4.92e-04   Normal BFGS step
    7    -302.6736773457      1.25e-04   Normal BFGS step
    8    -302.6736774042      1.23e-04   Normal BFGS step
    9    -302.6736774990      1.11e-05   Normal BFGS step
   10    -302.6736775009      6.91e-06   Normal BFGS step
   11    -302.6736775015      1.46e-06   Normal BFGS step
   12    -302.6736775015      4.98e-07   Normal BFGS step
   13    -302.6736775015      1.34e-07   Normal BFGS step
   14    -302.6736775015      5.26e-08  Convergence criterion met
 ---------------------------------------
 SCF time:   CPU 138.98s  wall 18.00s 
<S^2> =          0.000000000
(3)  G-ENP(liq) elect-nuc-pol free energy of system     -302.673677502 a.u.
(4)  G-CDS(liq) cavity-dispersion-solvent structure 
     free energy                                                5.1385 kcal/mol
(6)  G-S(liq) free energy of system                     -302.665488731 a.u.
 SCF   energy in the final basis set =     -302.6654887308
 Total energy in the final basis set =     -302.6654887308
 
 --------------------------------------------------------------
 
                    Orbital Energies (a.u.)
 --------------------------------------------------------------
 
 Alpha MOs
 -- Occupied --
-19.3520 -19.2958 -19.2938 -10.4465 -10.4360  -1.2022  -1.1719  -1.0907
 -0.7783  -0.6444  -0.5885  -0.5792  -0.5501  -0.5336  -0.4901  -0.4260
 -0.3795  -0.3704  -0.3480
 -- Virtual --
  0.0210   0.0406   0.0724   0.0786   0.0926   0.1087   0.1228   0.1233
  0.1468   0.1778   0.1814   0.2277   0.2444   0.2495   0.2667   0.2974
  0.3007   0.3139   0.3197   0.3330   0.3415   0.3515   0.3613   0.4045
  0.4151   0.4778   0.5391   0.5692   0.6096   0.6491   0.6533   0.6810
  0.7131   0.7306   0.7574   0.8170   0.8187   0.8301   0.8809   0.9678
  1.0149   1.0781   1.0967   1.1021   1.1163   1.1310   1.1345   1.1605
  1.1892   1.2342   1.2363   1.2449   1.2640   1.3309   1.3710   1.4029
  1.5179   1.5834   1.6078   1.6305   1.6480   1.7008   1.7688   1.8307
  1.8403   1.8861   1.9171   1.9870   2.0130   2.1301   2.2869   2.3522
  2.4587   2.4987   2.5257   2.6016   2.6867   2.7062   2.7960   2.8380
  2.8673   2.8702   3.0047   3.0185   3.1042   3.1456   3.1777   3.2762
  3.3043   3.3553   3.3788   3.3878   3.4442   3.4729   3.4905   3.5266
  3.6172   3.6529   3.6998   3.7213   3.7593   3.9133   3.9832   4.0818
  4.1367   4.1884   4.1925   4.3005   4.5926   4.7128   5.1176   5.1634
  5.1664   5.1791   5.1805   5.1893   5.1981   5.2050   5.2420   5.2613
  5.2682   5.3380   5.3807   5.3949   5.5051   5.5347   5.5524   5.6040
  5.6169   5.6773   5.7913   5.9379   6.0930   6.2327   6.3715   6.4949
  6.6226   6.8561   6.9167   6.9295   6.9593   6.9937   7.0126   7.0539
  7.1061   7.2634   7.2833   7.3371   7.4406   7.4530   7.5026   7.6252
  7.6696   7.7601   7.8061   7.8535  24.9089  25.2014  50.6477  50.6969
 50.7531
 
 Beta MOs
 -- Occupied --
-19.3520 -19.2958 -19.2938 -10.4465 -10.4360  -1.2022  -1.1719  -1.0907
 -0.7783  -0.6444  -0.5885  -0.5792  -0.5501  -0.5336  -0.4901  -0.4260
 -0.3795  -0.3704  -0.3480
 -- Virtual --
  0.0210   0.0406   0.0724   0.0786   0.0926   0.1087   0.1228   0.1233
  0.1468   0.1778   0.1814   0.2277   0.2444   0.2495   0.2667   0.2974
  0.3007   0.3139   0.3197   0.3330   0.3415   0.3515   0.3613   0.4045
  0.4151   0.4778   0.5391   0.5692   0.6096   0.6491   0.6533   0.6810
  0.7131   0.7306   0.7574   0.8170   0.8187   0.8301   0.8809   0.9678
  1.0149   1.0781   1.0967   1.1021   1.1163   1.1310   1.1345   1.1605
  1.1892   1.2342   1.2363   1.2449   1.2640   1.3309   1.3710   1.4029
  1.5179   1.5834   1.6078   1.6305   1.6480   1.7008   1.7688   1.8307
  1.8403   1.8861   1.9171   1.9870   2.0130   2.1301   2.2869   2.3522
  2.4587   2.4987   2.5257   2.6016   2.6867   2.7062   2.7960   2.8380
  2.8673   2.8702   3.0047   3.0185   3.1042   3.1456   3.1777   3.2762
  3.3043   3.3553   3.3788   3.3878   3.4442   3.4729   3.4905   3.5266
  3.6172   3.6529   3.6998   3.7213   3.7593   3.9133   3.9832   4.0818
  4.1367   4.1884   4.1925   4.3005   4.5926   4.7128   5.1176   5.1634
  5.1664   5.1791   5.1805   5.1893   5.1981   5.2050   5.2420   5.2613
  5.2682   5.3380   5.3807   5.3949   5.5051   5.5347   5.5524   5.6040
  5.6169   5.6773   5.7913   5.9379   6.0930   6.2327   6.3715   6.4949
  6.6226   6.8561   6.9167   6.9295   6.9593   6.9937   7.0126   7.0539
  7.1061   7.2634   7.2833   7.3371   7.4406   7.4530   7.5026   7.6252
  7.6696   7.7601   7.8061   7.8535  24.9089  25.2014  50.6477  50.6969
 50.7531
 --------------------------------------------------------------
 
          Ground-State Mulliken Net Atomic Charges

     Atom                 Charge (a.u.)    Spin (a.u.)
  --------------------------------------------------------
      1 C                     0.183570       0.000000
      2 O                    -0.386024       0.000000
      3 H                     0.172835       0.000000
      4 C                     0.318953       0.000000
      5 O                    -0.655947       0.000000
      6 O                    -0.633387       0.000000
  --------------------------------------------------------
  Sum of atomic charges =    -1.000000
  Sum of spin   charges =     0.000000

 -----------------------------------------------------------------
                    Cartesian Multipole Moments
 -----------------------------------------------------------------
    Charge (ESU x 10^10)
                -4.8032
    Dipole Moment (Debye)
         X       5.3668      Y       7.7655      Z      -0.9375
       Tot       9.4861
    Quadrupole Moments (Debye-Ang)
        XX     -47.8994     XY      -2.3601     YY     -47.9737
        XZ       3.7395     YZ       0.0924     ZZ     -29.1819
    Octopole Moments (Debye-Ang^2)
       XXX      49.7850    XXY      42.4221    XYY      23.5348
       YYY     125.7544    XXZ      -6.5120    XYZ      -2.3501
       YYZ      -4.4868    XZZ      12.0918    YZZ      27.2431
       ZZZ      -9.0275
    Hexadecapole Moments (Debye-Ang^3)
      XXXX    -371.3821   XXXY     -31.4266   XXYY    -129.6216
      XYYY     -60.6349   YYYY    -395.3601   XXXZ      38.3716
      XXYZ       2.0740   XYYZ      13.0647   YYYZ       9.5543
      XXZZ     -59.8405   XYZZ      -9.3084   YYZZ     -57.0710
      XZZZ      26.4378   YZZZ       4.7140   ZZZZ     -37.6163
 -----------------------------------------------------------------
 Calculating analytic gradient of the SCF energy
 Gradient of CDS energy
            1           2           3           4           5           6
    1   0.0026546  -0.0010699  -0.0001634  -0.0032756   0.0003195   0.0015348
    2  -0.0004527   0.0008032   0.0001016  -0.0009939   0.0020602  -0.0015183
    3  -0.0004926   0.0002318   0.0000337   0.0005243   0.0000417  -0.0003389
 Gradient of SCF Energy
            1           2           3           4           5           6
    1   0.0273104  -0.0287044  -0.0044649  -0.0247323   0.0119380   0.0186532
    2   0.0086814   0.0170405  -0.0299771  -0.0088340   0.0261033  -0.0130142
    3  -0.0044540   0.0059769  -0.0007864   0.0040722  -0.0008865  -0.0039223
 Max gradient component =       2.998E-02
 RMS gradient           =       1.662E-02
 Computing fast CPCM-SWIG gradient
 Updating gradient with PCM contributions...
 -- total gradient after adding PCM contribution --
---------------------------------------------------
  Atom         X              Y              Z     
---------------------------------------------------
   1      -0.000058       0.000030      -0.000025
   2       0.000086      -0.000038      -0.000027
   3       0.000014       0.000017       0.000006
   4       0.000021       0.000032       0.000002
   5      -0.000039       0.000001       0.000017
   6      -0.000024      -0.000042       0.000028
---------------------------------------------------
 Number of fixed atoms: 0
 Gradient time:  CPU 25.88 s  wall 3.70 s
 ######################################################
 ######################################################
 # Starting finite difference calculation for IDERIV  #
 Finite diff step size:  1.88973e-03 a.u.
 ----------------------------------------------------------------
             Standard Nuclear Orientation (Angstroms)
    I     Atom           X                Y                Z
 ----------------------------------------------------------------
    1      C       0.5360115579    -0.4334250488    -0.0336731285
    2      O       1.4704287825    -1.1680747543    -0.2379881717
    3      H       0.6565433537     0.6600010991     0.0022245863
    4      C      -0.9035122627    -0.9470512349     0.1932302675
    5      O      -1.0803050162    -2.1823266482     0.1655796731
    6      O      -1.7477463154    -0.0421073131     0.3831652733
 ----------------------------------------------------------------
 Nuclear Repulsion Energy =         152.28151764 hartrees
 There are       19 alpha and       19 beta electrons
 Discretize the solute cavity surface with Lebedev spheres
	Using 110 Lebedev grid points for each H atom
	Using 194 Lebedev grid points for other atoms
	Atomic van der Waals radii will be scaled by 1.20
 Remove points where switching function is < 1.0e-08
 Keep 649 surface tesserae and discard 431 interior tesserae
 Molecular Surface Area = 83.425 Angst**2

                       Distance Matrix (Angstroms)
             C (  1)   O (  2)   H (  3)   C (  4)   O (  5)
   O (  2)  1.206064
   H (  3)  1.100635  2.015434
   C (  4)  1.545162  2.422890  2.247860
   O (  5)  2.389736  2.774494  3.334989  1.248169
   O (  6)  2.354237  3.465586  2.533512  1.252090  2.252412
 
 Requested basis set is 6-311++G(2df,2p)
 There are 46 shells and 180 basis functions
 A cutoff of  1.0D-12 yielded   1042 shell pairs
 There are     16142 function pairs (     20960 Cartesian)
 Smallest overlap matrix eigenvalue = 1.50E-04
 Guess MOs from SCF MO coefficient file

 -----------------------------------------------------------------------
  General SCF calculation program by
  Eric Jon Sundstrom, Paul Horn, Yuezhi Mao, Dmitri Zuev, Alec White,
  David Stuck, Shaama M.S., Shane Yost, Joonho Lee, David Small,
  Daniel Levine, Susi Lehtola, Hugh Burton, Evgeny Epifanovsky,
  Bang C. Huynh
 -----------------------------------------------------------------------
 Exchange:     0.1500 Hartree-Fock + 1.0000 wB97M-V + LR-HF
 Correlation:  1.0000 wB97M-V
 Using SG-2 standard quadrature grid
 Nonlocal Correlation:  VV10 with C = 0.0100 and b = 6.00 and scale = 1.00000
 Grid used for NLC:  SG-1 standard quadrature
 
 Citation of the SMD model:
 Marenich, A.V.; Cramer, C.J.; Truhlar, D.G.
 J. Phys. Chem. B 2009, 113, 6378-6396.
 iSolventCode=           1
 Solvent: water                                                           
 
 vradii
            1           2           3           4           5           6
    1   1.8500000   1.5200000   1.2000000   1.8500000   1.5200000   1.5200000
 -------------------------------------------------------
 OpenMP BLAS3 based DFT computing Module                
 Release: version 1.0, May 2013, Q-Chem Inc. Pittsburgh 
 -------------------------------------------------------
 A unrestricted SCF calculation will be
 performed using Roothaan-Hall, DIIS, GDM
 SCF converges when RMS gradient is below 1.0e-07
 ---------------------------------------
  Cycle       Energy         DIIS error
 ---------------------------------------
    1    -302.5541438047      4.16e-04  Roothaan Step
 ---------------------------------------
  Cycle       Energy         DIIS error
 ---------------------------------------
    1    -302.6670551291      5.17e-04  
    2    -302.6700016755      5.81e-04  Done DIIS. Switching to GDM
 ---------------------------------------
  Cycle       Energy        RMS Gradient
 ---------------------------------------
    1    -302.6700016755      2.23e-02   Normal BFGS step
    2    -302.6685161802      3.44e-02  Line search: overstep
    3    -302.6735080080      3.59e-03   Normal BFGS step
    4    -302.6736494173      1.87e-03   Normal BFGS step
    5    -302.6736700955      1.30e-03   Normal BFGS step
    6    -302.6736808425      2.05e-04   Normal BFGS step
    7    -302.6736811338      1.39e-04   Normal BFGS step
    8    -302.6736813099      3.76e-05   Normal BFGS step
    9    -302.6736813168      3.47e-05   Normal BFGS step
   10    -302.6736813254      7.02e-06   Normal BFGS step
   11    -302.6736813256      2.97e-06   Normal BFGS step
   12    -302.6736813256      2.77e-07   Normal BFGS step
   13    -302.6736813256      1.23e-07   Normal BFGS step
   14    -302.6736813256      1.50e-08  Convergence criterion met
 ---------------------------------------
 SCF time:   CPU 152.00s  wall 20.00s 
<S^2> =          0.000000000
(3)  G-ENP(liq) elect-nuc-pol free energy of system     -302.673681326 a.u.
(4)  G-CDS(liq) cavity-dispersion-solvent structure 
     free energy                                                5.1417 kcal/mol
(6)  G-S(liq) free energy of system                     -302.665487545 a.u.
 SCF   energy in the final basis set =     -302.6654875445
 Total energy in the final basis set =     -302.6654875445
 
 --------------------------------------------------------------
 
                    Orbital Energies (a.u.)
 --------------------------------------------------------------
 
 Alpha MOs
 -- Occupied --
-19.3520 -19.2958 -19.2938 -10.4465 -10.4359  -1.2025  -1.1719  -1.0906
 -0.7781  -0.6443  -0.5886  -0.5792  -0.5502  -0.5336  -0.4903  -0.4261
 -0.3795  -0.3703  -0.3478
 -- Virtual --
  0.0212   0.0406   0.0724   0.0786   0.0926   0.1087   0.1228   0.1233
  0.1468   0.1778   0.1814   0.2278   0.2444   0.2495   0.2667   0.2974
  0.3007   0.3139   0.3197   0.3330   0.3415   0.3515   0.3612   0.4043
  0.4151   0.4779   0.5392   0.5691   0.6096   0.6491   0.6533   0.6810
  0.7132   0.7306   0.7574   0.8170   0.8187   0.8305   0.8810   0.9678
  1.0149   1.0781   1.0965   1.1022   1.1163   1.1310   1.1346   1.1603
  1.1889   1.2342   1.2363   1.2449   1.2641   1.3308   1.3709   1.4029
  1.5181   1.5834   1.6079   1.6305   1.6481   1.7009   1.7688   1.8308
  1.8402   1.8862   1.9168   1.9870   2.0133   2.1300   2.2868   2.3522
  2.4590   2.4987   2.5260   2.6016   2.6865   2.7063   2.7958   2.8382
  2.8678   2.8703   3.0041   3.0186   3.1040   3.1457   3.1776   3.2762
  3.3040   3.3552   3.3789   3.3879   3.4441   3.4729   3.4906   3.5269
  3.6173   3.6526   3.6998   3.7213   3.7596   3.9132   3.9830   4.0800
  4.1365   4.1883   4.1926   4.3015   4.5921   4.7120   5.1174   5.1634
  5.1665   5.1792   5.1805   5.1893   5.1981   5.2051   5.2420   5.2614
  5.2682   5.3376   5.3808   5.3950   5.5055   5.5352   5.5526   5.6040
  5.6173   5.6775   5.7911   5.9392   6.0928   6.2337   6.3726   6.4953
  6.6245   6.8565   6.9167   6.9296   6.9595   6.9937   7.0126   7.0539
  7.1068   7.2635   7.2833   7.3371   7.4405   7.4530   7.5028   7.6251
  7.6699   7.7602   7.8061   7.8535  24.9100  25.2007  50.6482  50.6969
 50.7536
 
 Beta MOs
 -- Occupied --
-19.3520 -19.2958 -19.2938 -10.4465 -10.4359  -1.2025  -1.1719  -1.0906
 -0.7781  -0.6443  -0.5886  -0.5792  -0.5502  -0.5336  -0.4903  -0.4261
 -0.3795  -0.3703  -0.3478
 -- Virtual --
  0.0212   0.0406   0.0724   0.0786   0.0926   0.1087   0.1228   0.1233
  0.1468   0.1778   0.1814   0.2278   0.2444   0.2495   0.2667   0.2974
  0.3007   0.3139   0.3197   0.3330   0.3415   0.3515   0.3612   0.4043
  0.4151   0.4779   0.5392   0.5691   0.6096   0.6491   0.6533   0.6810
  0.7132   0.7306   0.7574   0.8170   0.8187   0.8305   0.8810   0.9678
  1.0149   1.0781   1.0965   1.1022   1.1163   1.1310   1.1346   1.1603
  1.1889   1.2342   1.2363   1.2449   1.2641   1.3308   1.3709   1.4029
  1.5181   1.5834   1.6079   1.6305   1.6481   1.7009   1.7688   1.8308
  1.8402   1.8862   1.9168   1.9870   2.0133   2.1300   2.2868   2.3522
  2.4590   2.4987   2.5260   2.6016   2.6865   2.7063   2.7958   2.8382
  2.8678   2.8703   3.0041   3.0186   3.1040   3.1457   3.1776   3.2762
  3.3040   3.3552   3.3789   3.3879   3.4441   3.4729   3.4906   3.5269
  3.6173   3.6526   3.6998   3.7213   3.7596   3.9132   3.9830   4.0800
  4.1365   4.1883   4.1926   4.3015   4.5921   4.7120   5.1174   5.1634
  5.1665   5.1792   5.1805   5.1893   5.1981   5.2051   5.2420   5.2614
  5.2682   5.3376   5.3808   5.3950   5.5055   5.5352   5.5526   5.6040
  5.6173   5.6775   5.7911   5.9392   6.0928   6.2337   6.3726   6.4953
  6.6245   6.8565   6.9167   6.9296   6.9595   6.9937   7.0126   7.0539
  7.1068   7.2635   7.2833   7.3371   7.4405   7.4530   7.5028   7.6251
  7.6699   7.7602   7.8061   7.8535  24.9100  25.2007  50.6482  50.6969
 50.7536
 --------------------------------------------------------------
 
          Ground-State Mulliken Net Atomic Charges

     Atom                 Charge (a.u.)    Spin (a.u.)
  --------------------------------------------------------
      1 C                     0.183448       0.000000
      2 O                    -0.385446       0.000000
      3 H                     0.172636       0.000000
      4 C                     0.318826       0.000000
      5 O                    -0.655974       0.000000
      6 O                    -0.633491       0.000000
  --------------------------------------------------------
  Sum of atomic charges =    -1.000000
  Sum of spin   charges =     0.000000

 -----------------------------------------------------------------
                    Cartesian Multipole Moments
 -----------------------------------------------------------------
    Charge (ESU x 10^10)
                -4.8032
    Dipole Moment (Debye)
         X       5.3729      Y       7.7638      Z      -0.9383
       Tot       9.4882
    Quadrupole Moments (Debye-Ang)
        XX     -47.8954     XY      -2.3663     YY     -47.9735
        XZ       3.7391     YZ       0.0930     ZZ     -29.1809
    Octopole Moments (Debye-Ang^2)
       XXX      49.7925    XXY      42.4170    XYY      23.5402
       YYY     125.7507    XXZ      -6.5131    XYZ      -2.3496
       YYZ      -4.4885    XZZ      12.0931    YZZ      27.2417
       ZZZ      -9.0305
    Hexadecapole Moments (Debye-Ang^3)
      XXXX    -371.4041   XXXY     -31.4380   XXYY    -129.6254
      XYYY     -60.6555   YYYY    -395.3651   XXXZ      38.3714
      XXYZ       2.0741   XYYZ      13.0641   YYYZ       9.5579
      XXZZ     -59.8431   XYZZ      -9.3119   YYZZ     -57.0706
      XZZZ      26.4374   YZZZ       4.7165   ZZZZ     -37.6146
 -----------------------------------------------------------------
 Calculating analytic gradient of the SCF energy
 Gradient of CDS energy
            1           2           3           4           5           6
    1   0.0026481  -0.0010607  -0.0001638  -0.0032779   0.0003195   0.0015349
    2  -0.0004457   0.0007970   0.0001011  -0.0009945   0.0020601  -0.0015181
    3  -0.0004911   0.0002300   0.0000337   0.0005245   0.0000417  -0.0003389
 Gradient of SCF Energy
            1           2           3           4           5           6
    1   0.0285369  -0.0295522  -0.0045242  -0.0250045   0.0119274   0.0186166
    2   0.0082855   0.0176303  -0.0300601  -0.0089274   0.0260827  -0.0130109
    3  -0.0046599   0.0061457  -0.0007873   0.0040896  -0.0008794  -0.0039087
 Max gradient component =       3.006E-02
 RMS gradient           =       1.688E-02
 Computing fast CPCM-SWIG gradient
 Updating gradient with PCM contributions...
 -- total gradient after adding PCM contribution --
---------------------------------------------------
  Atom         X              Y              Z     
---------------------------------------------------
   1       0.001314      -0.000369      -0.000234
   2      -0.000836       0.000556       0.000150
   3      -0.000112      -0.000089       0.000004
   4      -0.000247      -0.000052       0.000008
   5      -0.000046      -0.000012       0.000025
   6      -0.000073      -0.000034       0.000046
---------------------------------------------------
 Number of fixed atoms: 0
 Gradient time:  CPU 25.49 s  wall 3.64 s
 ----------------------------------------------------------------
             Standard Nuclear Orientation (Angstroms)
    I     Atom           X                Y                Z
 ----------------------------------------------------------------
    1      C       0.5340115579    -0.4334250488    -0.0336731285
    2      O       1.4704287825    -1.1680747543    -0.2379881717
    3      H       0.6565433537     0.6600010991     0.0022245863
    4      C      -0.9035122627    -0.9470512349     0.1932302675
    5      O      -1.0803050162    -2.1823266482     0.1655796731
    6      O      -1.7477463154    -0.0421073131     0.3831652733
 ----------------------------------------------------------------
 Nuclear Repulsion Energy =         152.28370409 hartrees
 There are       19 alpha and       19 beta electrons
 Discretize the solute cavity surface with Lebedev spheres
	Using 110 Lebedev grid points for each H atom
	Using 194 Lebedev grid points for other atoms
	Atomic van der Waals radii will be scaled by 1.20
 Remove points where switching function is < 1.0e-08
 Keep 649 surface tesserae and discard 431 interior tesserae
 Molecular Surface Area = 83.420 Angst**2

                       Distance Matrix (Angstroms)
             C (  1)   O (  2)   H (  3)   C (  4)   O (  5)
   O (  2)  1.207614
   H (  3)  1.100856  2.015434
   C (  4)  1.543299  2.422890  2.247860
   O (  5)  2.388384  2.774494  3.334989  1.248169
   O (  6)  2.352297  3.465586  2.533512  1.252090  2.252412
 
 Requested basis set is 6-311++G(2df,2p)
 There are 46 shells and 180 basis functions
 A cutoff of  1.0D-12 yielded   1042 shell pairs
 There are     16142 function pairs (     20960 Cartesian)
 Smallest overlap matrix eigenvalue = 1.50E-04
 Guess MOs from SCF MO coefficient file

 -----------------------------------------------------------------------
  General SCF calculation program by
  Eric Jon Sundstrom, Paul Horn, Yuezhi Mao, Dmitri Zuev, Alec White,
  David Stuck, Shaama M.S., Shane Yost, Joonho Lee, David Small,
  Daniel Levine, Susi Lehtola, Hugh Burton, Evgeny Epifanovsky,
  Bang C. Huynh
 -----------------------------------------------------------------------
 Exchange:     0.1500 Hartree-Fock + 1.0000 wB97M-V + LR-HF
 Correlation:  1.0000 wB97M-V
 Using SG-2 standard quadrature grid
 Nonlocal Correlation:  VV10 with C = 0.0100 and b = 6.00 and scale = 1.00000
 Grid used for NLC:  SG-1 standard quadrature
 
 Citation of the SMD model:
 Marenich, A.V.; Cramer, C.J.; Truhlar, D.G.
 J. Phys. Chem. B 2009, 113, 6378-6396.
 iSolventCode=           1
 Solvent: water                                                           
 
 vradii
            1           2           3           4           5           6
    1   1.8500000   1.5200000   1.2000000   1.8500000   1.5200000   1.5200000
 -------------------------------------------------------
 OpenMP BLAS3 based DFT computing Module                
 Release: version 1.0, May 2013, Q-Chem Inc. Pittsburgh 
 -------------------------------------------------------
 A unrestricted SCF calculation will be
 performed using Roothaan-Hall, DIIS, GDM
 SCF converges when RMS gradient is below 1.0e-07
 ---------------------------------------
  Cycle       Energy         DIIS error
 ---------------------------------------
    1    -302.5541254667      4.17e-04  Roothaan Step
 ---------------------------------------
  Cycle       Energy         DIIS error
 ---------------------------------------
    1    -302.6670129251      5.20e-04  
    2    -302.6699276924      5.86e-04  Done DIIS. Switching to GDM
 ---------------------------------------
  Cycle       Energy        RMS Gradient
 ---------------------------------------
    1    -302.6699276924      2.27e-02   Normal BFGS step
    2    -302.6683910109      3.49e-02  Line search: overstep
    3    -302.6734977625      3.56e-03   Normal BFGS step
    4    -302.6736390684      1.89e-03   Normal BFGS step
    5    -302.6736597874      1.32e-03   Normal BFGS step
    6    -302.6736706088      1.99e-04   Normal BFGS step
    7    -302.6736708860      1.40e-04   Normal BFGS step
    8    -302.6736710582      3.66e-05   Normal BFGS step
    9    -302.6736710653      3.43e-05   Normal BFGS step
   10    -302.6736710736      7.05e-06   Normal BFGS step
   11    -302.6736710738      2.96e-06   Normal BFGS step
   12    -302.6736710738      2.79e-07   Normal BFGS step
   13    -302.6736710738      1.22e-07   Normal BFGS step
   14    -302.6736710738      3.26e-08  Convergence criterion met
 ---------------------------------------
 SCF time:   CPU 152.56s  wall 19.00s 
<S^2> =          0.000000000
(3)  G-ENP(liq) elect-nuc-pol free energy of system     -302.673671074 a.u.
(4)  G-CDS(liq) cavity-dispersion-solvent structure 
     free energy                                                5.1354 kcal/mol
(6)  G-S(liq) free energy of system                     -302.665487326 a.u.
 SCF   energy in the final basis set =     -302.6654873258
 Total energy in the final basis set =     -302.6654873258
 
 --------------------------------------------------------------
 
                    Orbital Energies (a.u.)
 --------------------------------------------------------------
 
 Alpha MOs
 -- Occupied --
-19.3521 -19.2959 -19.2938 -10.4466 -10.4361  -1.2019  -1.1718  -1.0907
 -0.7786  -0.6444  -0.5885  -0.5791  -0.5501  -0.5336  -0.4899  -0.4259
 -0.3795  -0.3704  -0.3482
 -- Virtual --
  0.0208   0.0406   0.0724   0.0786   0.0926   0.1087   0.1228   0.1233
  0.1468   0.1778   0.1814   0.2277   0.2444   0.2496   0.2667   0.2974
  0.3007   0.3139   0.3198   0.3329   0.3415   0.3515   0.3613   0.4046
  0.4151   0.4776   0.5390   0.5693   0.6095   0.6491   0.6533   0.6810
  0.7130   0.7306   0.7573   0.8170   0.8186   0.8298   0.8809   0.9678
  1.0150   1.0781   1.0969   1.1021   1.1163   1.1309   1.1345   1.1606
  1.1894   1.2341   1.2363   1.2450   1.2639   1.3310   1.3712   1.4028
  1.5177   1.5834   1.6078   1.6304   1.6480   1.7007   1.7688   1.8306
  1.8404   1.8860   1.9173   1.9871   2.0127   2.1302   2.2870   2.3521
  2.4584   2.4986   2.5254   2.6016   2.6869   2.7061   2.7962   2.8379
  2.8668   2.8701   3.0053   3.0183   3.1044   3.1455   3.1778   3.2762
  3.3047   3.3554   3.3787   3.3877   3.4442   3.4729   3.4905   3.5264
  3.6171   3.6532   3.6998   3.7213   3.7591   3.9134   3.9833   4.0836
  4.1369   4.1884   4.1923   4.2995   4.5931   4.7137   5.1177   5.1633
  5.1664   5.1791   5.1805   5.1893   5.1982   5.2049   5.2421   5.2613
  5.2682   5.3384   5.3807   5.3948   5.5048   5.5342   5.5523   5.6041
  5.6164   5.6771   5.7914   5.9366   6.0932   6.2317   6.3705   6.4945
  6.6207   6.8558   6.9167   6.9295   6.9590   6.9936   7.0126   7.0540
  7.1054   7.2633   7.2833   7.3371   7.4408   7.4530   7.5025   7.6253
  7.6692   7.7601   7.8062   7.8535  24.9078  25.2021  50.6471  50.6969
 50.7525
 
 Beta MOs
 -- Occupied --
-19.3521 -19.2959 -19.2938 -10.4466 -10.4361  -1.2019  -1.1718  -1.0907
 -0.7786  -0.6444  -0.5885  -0.5791  -0.5501  -0.5336  -0.4899  -0.4259
 -0.3795  -0.3704  -0.3482
 -- Virtual --
  0.0208   0.0406   0.0724   0.0786   0.0926   0.1087   0.1228   0.1233
  0.1468   0.1778   0.1814   0.2277   0.2444   0.2496   0.2667   0.2974
  0.3007   0.3139   0.3198   0.3329   0.3415   0.3515   0.3613   0.4046
  0.4151   0.4776   0.5390   0.5693   0.6095   0.6491   0.6533   0.6810
  0.7130   0.7306   0.7573   0.8170   0.8186   0.8298   0.8809   0.9678
  1.0150   1.0781   1.0969   1.1021   1.1163   1.1309   1.1345   1.1606
  1.1894   1.2341   1.2363   1.2450   1.2639   1.3310   1.3712   1.4028
  1.5177   1.5834   1.6078   1.6304   1.6480   1.7007   1.7688   1.8306
  1.8404   1.8860   1.9173   1.9871   2.0127   2.1302   2.2870   2.3521
  2.4584   2.4986   2.5254   2.6016   2.6869   2.7061   2.7962   2.8379
  2.8668   2.8701   3.0053   3.0183   3.1044   3.1455   3.1778   3.2762
  3.3047   3.3554   3.3787   3.3877   3.4442   3.4729   3.4905   3.5264
  3.6171   3.6532   3.6998   3.7213   3.7591   3.9134   3.9833   4.0836
  4.1369   4.1884   4.1923   4.2995   4.5931   4.7137   5.1177   5.1633
  5.1664   5.1791   5.1805   5.1893   5.1982   5.2049   5.2421   5.2613
  5.2682   5.3384   5.3807   5.3948   5.5048   5.5342   5.5523   5.6041
  5.6164   5.6771   5.7914   5.9366   6.0932   6.2317   6.3705   6.4945
  6.6207   6.8558   6.9167   6.9295   6.9590   6.9936   7.0126   7.0540
  7.1054   7.2633   7.2833   7.3371   7.4408   7.4530   7.5025   7.6253
  7.6692   7.7601   7.8062   7.8535  24.9078  25.2021  50.6471  50.6969
 50.7525
 --------------------------------------------------------------
 
          Ground-State Mulliken Net Atomic Charges

     Atom                 Charge (a.u.)    Spin (a.u.)
  --------------------------------------------------------
      1 C                     0.183690       0.000000
      2 O                    -0.386601       0.000000
      3 H                     0.173034       0.000000
      4 C                     0.319080       0.000000
      5 O                    -0.655920       0.000000
      6 O                    -0.633283       0.000000
  --------------------------------------------------------
  Sum of atomic charges =    -1.000000
  Sum of spin   charges =     0.000000

 -----------------------------------------------------------------
                    Cartesian Multipole Moments
 -----------------------------------------------------------------
    Charge (ESU x 10^10)
                -4.8032
    Dipole Moment (Debye)
         X       5.3608      Y       7.7672      Z      -0.9366
       Tot       9.4839
    Quadrupole Moments (Debye-Ang)
        XX     -47.9033     XY      -2.3539     YY     -47.9739
        XZ       3.7399     YZ       0.0918     ZZ     -29.1828
    Octopole Moments (Debye-Ang^2)
       XXX      49.7776    XXY      42.4273    XYY      23.5294
       YYY     125.7581    XXZ      -6.5108    XYZ      -2.3505
       YYZ      -4.4851    XZZ      12.0905    YZZ      27.2446
       ZZZ      -9.0245
    Hexadecapole Moments (Debye-Ang^3)
      XXXX    -371.3602   XXXY     -31.4153   XXYY    -129.6178
      XYYY     -60.6143   YYYY    -395.3552   XXXZ      38.3717
      XXYZ       2.0739   XYYZ      13.0654   YYYZ       9.5508
      XXZZ     -59.8380   XYZZ      -9.3049   YYZZ     -57.0715
      XZZZ      26.4382   YZZZ       4.7116   ZZZZ     -37.6181
 -----------------------------------------------------------------
 Calculating analytic gradient of the SCF energy
 Gradient of CDS energy
            1           2           3           4           5           6
    1   0.0026612  -0.0010791  -0.0001630  -0.0032733   0.0003196   0.0015346
    2  -0.0004598   0.0008094   0.0001021  -0.0009934   0.0020602  -0.0015184
    3  -0.0004942   0.0002336   0.0000337   0.0005241   0.0000417  -0.0003389
 Gradient of SCF Energy
            1           2           3           4           5           6
    1   0.0260853  -0.0278600  -0.0044053  -0.0244586   0.0119485   0.0186901
    2   0.0090722   0.0164547  -0.0298936  -0.0087400   0.0261241  -0.0130175
    3  -0.0042488   0.0058092  -0.0007854   0.0040545  -0.0008935  -0.0039361
 Max gradient component =       2.989E-02
 RMS gradient           =       1.637E-02
 Computing fast CPCM-SWIG gradient
 Updating gradient with PCM contributions...
 -- total gradient after adding PCM contribution --
---------------------------------------------------
  Atom         X              Y              Z     
---------------------------------------------------
   1      -0.001429       0.000423       0.000182
   2       0.001005      -0.000629      -0.000203
   3       0.000140       0.000123       0.000008
   4       0.000291       0.000117      -0.000006
   5      -0.000033       0.000015       0.000008
   6       0.000025      -0.000049       0.000010
---------------------------------------------------
 Number of fixed atoms: 0
 Gradient time:  CPU 26.09 s  wall 3.73 s
 ----------------------------------------------------------------
             Standard Nuclear Orientation (Angstroms)
    I     Atom           X                Y                Z
 ----------------------------------------------------------------
    1      C       0.5350115579    -0.4324250488    -0.0336731285
    2      O       1.4704287825    -1.1680747543    -0.2379881717
    3      H       0.6565433537     0.6600010991     0.0022245863
    4      C      -0.9035122627    -0.9470512349     0.1932302675
    5      O      -1.0803050162    -2.1823266482     0.1655796731
    6      O      -1.7477463154    -0.0421073131     0.3831652733
 ----------------------------------------------------------------
 Nuclear Repulsion Energy =         152.26943549 hartrees
 There are       19 alpha and       19 beta electrons
 Discretize the solute cavity surface with Lebedev spheres
	Using 110 Lebedev grid points for each H atom
	Using 194 Lebedev grid points for other atoms
	Atomic van der Waals radii will be scaled by 1.20
 Remove points where switching function is < 1.0e-08
 Keep 649 surface tesserae and discard 431 interior tesserae
 Molecular Surface Area = 83.424 Angst**2

                       Distance Matrix (Angstroms)
             C (  1)   O (  2)   H (  3)   C (  4)   O (  5)
   O (  2)  1.207448
   H (  3)  1.099752  2.015434
   C (  4)  1.544563  2.422890  2.247860
   O (  5)  2.389792  2.774494  3.334989  1.248169
   O (  6)  2.353101  3.465586  2.533512  1.252090  2.252412
 
 Requested basis set is 6-311++G(2df,2p)
 There are 46 shells and 180 basis functions
 A cutoff of  1.0D-12 yielded   1042 shell pairs
 There are     16142 function pairs (     20960 Cartesian)
 Smallest overlap matrix eigenvalue = 1.50E-04
 Guess MOs from SCF MO coefficient file

 -----------------------------------------------------------------------
  General SCF calculation program by
  Eric Jon Sundstrom, Paul Horn, Yuezhi Mao, Dmitri Zuev, Alec White,
  David Stuck, Shaama M.S., Shane Yost, Joonho Lee, David Small,
  Daniel Levine, Susi Lehtola, Hugh Burton, Evgeny Epifanovsky,
  Bang C. Huynh
 -----------------------------------------------------------------------
 Exchange:     0.1500 Hartree-Fock + 1.0000 wB97M-V + LR-HF
 Correlation:  1.0000 wB97M-V
 Using SG-2 standard quadrature grid
 Nonlocal Correlation:  VV10 with C = 0.0100 and b = 6.00 and scale = 1.00000
 Grid used for NLC:  SG-1 standard quadrature
 
 Citation of the SMD model:
 Marenich, A.V.; Cramer, C.J.; Truhlar, D.G.
 J. Phys. Chem. B 2009, 113, 6378-6396.
 iSolventCode=           1
 Solvent: water                                                           
 
 vradii
            1           2           3           4           5           6
    1   1.8500000   1.5200000   1.2000000   1.8500000   1.5200000   1.5200000
 -------------------------------------------------------
 OpenMP BLAS3 based DFT computing Module                
 Release: version 1.0, May 2013, Q-Chem Inc. Pittsburgh 
 -------------------------------------------------------
 A unrestricted SCF calculation will be
 performed using Roothaan-Hall, DIIS, GDM
 SCF converges when RMS gradient is below 1.0e-07
 ---------------------------------------
  Cycle       Energy         DIIS error
 ---------------------------------------
    1    -302.5541314772      4.16e-04  Roothaan Step
 ---------------------------------------
  Cycle       Energy         DIIS error
 ---------------------------------------
    1    -302.6670325139      5.18e-04  
    2    -302.6699760717      5.83e-04  Done DIIS. Switching to GDM
 ---------------------------------------
  Cycle       Energy        RMS Gradient
 ---------------------------------------
    1    -302.6699760717      2.24e-02   Normal BFGS step
    2    -302.6684706302      3.46e-02  Line search: overstep
    3    -302.6735012793      3.60e-03   Normal BFGS step
    4    -302.6736431377      1.88e-03   Normal BFGS step
    5    -302.6736639767      1.31e-03   Normal BFGS step
    6    -302.6736747358      2.05e-04   Normal BFGS step
    7    -302.6736750260      1.39e-04   Normal BFGS step
    8    -302.6736752010      3.74e-05   Normal BFGS step
    9    -302.6736752080      3.47e-05   Normal BFGS step
   10    -302.6736752166      7.07e-06   Normal BFGS step
   11    -302.6736752168      2.98e-06   Normal BFGS step
   12    -302.6736752168      2.79e-07   Normal BFGS step
   13    -302.6736752168      1.23e-07   Normal BFGS step
   14    -302.6736752168      1.50e-08  Convergence criterion met
 ---------------------------------------
 SCF time:   CPU 154.02s  wall 20.00s 
<S^2> =         -0.000000000
(3)  G-ENP(liq) elect-nuc-pol free energy of system     -302.673675217 a.u.
(4)  G-CDS(liq) cavity-dispersion-solvent structure 
     free energy                                                5.1380 kcal/mol
(6)  G-S(liq) free energy of system                     -302.665487304 a.u.
 SCF   energy in the final basis set =     -302.6654873044
 Total energy in the final basis set =     -302.6654873044
 
 --------------------------------------------------------------
 
                    Orbital Energies (a.u.)
 --------------------------------------------------------------
 
 Alpha MOs
 -- Occupied --
-19.3520 -19.2958 -19.2938 -10.4466 -10.4360  -1.2019  -1.1718  -1.0907
 -0.7784  -0.6445  -0.5885  -0.5791  -0.5500  -0.5336  -0.4899  -0.4260
 -0.3795  -0.3704  -0.3480
 -- Virtual --
  0.0209   0.0406   0.0724   0.0786   0.0926   0.1087   0.1228   0.1233
  0.1468   0.1778   0.1813   0.2277   0.2444   0.2496   0.2667   0.2973
  0.3007   0.3139   0.3197   0.3329   0.3415   0.3515   0.3612   0.4044
  0.4151   0.4777   0.5390   0.5693   0.6096   0.6491   0.6532   0.6810
  0.7129   0.7306   0.7574   0.8169   0.8186   0.8297   0.8810   0.9678
  1.0152   1.0781   1.0968   1.1022   1.1165   1.1310   1.1345   1.1605
  1.1891   1.2341   1.2364   1.2450   1.2639   1.3309   1.3710   1.4026
  1.5184   1.5835   1.6078   1.6305   1.6481   1.7007   1.7688   1.8306
  1.8398   1.8858   1.9170   1.9868   2.0128   2.1300   2.2864   2.3520
  2.4584   2.4987   2.5248   2.6013   2.6865   2.7063   2.7963   2.8379
  2.8672   2.8702   3.0048   3.0185   3.1042   3.1459   3.1778   3.2761
  3.3043   3.3554   3.3788   3.3878   3.4441   3.4729   3.4902   3.5272
  3.6170   3.6527   3.6993   3.7208   3.7593   3.9143   3.9828   4.0813
  4.1368   4.1886   4.1938   4.2997   4.5938   4.7126   5.1182   5.1633
  5.1664   5.1791   5.1805   5.1893   5.1981   5.2050   5.2422   5.2611
  5.2681   5.3381   5.3805   5.3949   5.5052   5.5345   5.5522   5.6038
  5.6163   5.6777   5.7911   5.9372   6.0930   6.2322   6.3702   6.4944
  6.6215   6.8560   6.9167   6.9295   6.9590   6.9936   7.0125   7.0538
  7.1054   7.2625   7.2833   7.3371   7.4403   7.4529   7.5022   7.6248
  7.6698   7.7598   7.8061   7.8534  24.9086  25.2011  50.6472  50.6968
 50.7526
 
 Beta MOs
 -- Occupied --
-19.3520 -19.2958 -19.2938 -10.4466 -10.4360  -1.2019  -1.1718  -1.0907
 -0.7784  -0.6445  -0.5885  -0.5791  -0.5500  -0.5336  -0.4899  -0.4260
 -0.3795  -0.3704  -0.3480
 -- Virtual --
  0.0209   0.0406   0.0724   0.0786   0.0926   0.1087   0.1228   0.1233
  0.1468   0.1778   0.1813   0.2277   0.2444   0.2496   0.2667   0.2973
  0.3007   0.3139   0.3197   0.3329   0.3415   0.3515   0.3612   0.4044
  0.4151   0.4777   0.5390   0.5693   0.6096   0.6491   0.6532   0.6810
  0.7129   0.7306   0.7574   0.8169   0.8186   0.8297   0.8810   0.9678
  1.0152   1.0781   1.0968   1.1022   1.1165   1.1310   1.1345   1.1605
  1.1891   1.2341   1.2364   1.2450   1.2639   1.3309   1.3710   1.4026
  1.5184   1.5835   1.6078   1.6305   1.6481   1.7007   1.7688   1.8306
  1.8398   1.8858   1.9170   1.9868   2.0128   2.1300   2.2864   2.3520
  2.4584   2.4987   2.5248   2.6013   2.6865   2.7063   2.7963   2.8379
  2.8672   2.8702   3.0048   3.0185   3.1042   3.1459   3.1778   3.2761
  3.3043   3.3554   3.3788   3.3878   3.4441   3.4729   3.4902   3.5272
  3.6170   3.6527   3.6993   3.7208   3.7593   3.9143   3.9828   4.0813
  4.1368   4.1886   4.1938   4.2997   4.5938   4.7126   5.1182   5.1633
  5.1664   5.1791   5.1805   5.1893   5.1981   5.2050   5.2422   5.2611
  5.2681   5.3381   5.3805   5.3949   5.5052   5.5345   5.5522   5.6038
  5.6163   5.6777   5.7911   5.9372   6.0930   6.2322   6.3702   6.4944
  6.6215   6.8560   6.9167   6.9295   6.9590   6.9936   7.0125   7.0538
  7.1054   7.2625   7.2833   7.3371   7.4403   7.4529   7.5022   7.6248
  7.6698   7.7598   7.8061   7.8534  24.9086  25.2011  50.6472  50.6968
 50.7526
 --------------------------------------------------------------
 
          Ground-State Mulliken Net Atomic Charges

     Atom                 Charge (a.u.)    Spin (a.u.)
  --------------------------------------------------------
      1 C                     0.183353       0.000000
      2 O                    -0.386363       0.000000
      3 H                     0.173389       0.000000
      4 C                     0.318897       0.000000
      5 O                    -0.655988       0.000000
      6 O                    -0.633289       0.000000
  --------------------------------------------------------
  Sum of atomic charges =    -1.000000
  Sum of spin   charges =     0.000000

 -----------------------------------------------------------------
                    Cartesian Multipole Moments
 -----------------------------------------------------------------
    Charge (ESU x 10^10)
                -4.8032
    Dipole Moment (Debye)
         X       5.3652      Y       7.7712      Z      -0.9370
       Tot       9.4898
    Quadrupole Moments (Debye-Ang)
        XX     -47.9050     XY      -2.3541     YY     -47.9746
        XZ       3.7405     YZ       0.0919     ZZ     -29.1831
    Octopole Moments (Debye-Ang^2)
       XXX      49.7739    XXY      42.4231    XYY      23.5289
       YYY     125.7476    XXZ      -6.5109    XYZ      -2.3500
       YYZ      -4.4859    XZZ      12.0900    YZZ      27.2429
       ZZZ      -9.0261
    Hexadecapole Moments (Debye-Ang^3)
      XXXX    -371.4316   XXXY     -31.4141   XXYY    -129.6160
      XYYY     -60.6246   YYYY    -395.3242   XXXZ      38.3779
      XXYZ       2.0730   XYYZ      13.0643   YYYZ       9.5532
      XXZZ     -59.8467   XYZZ      -9.3067   YYZZ     -57.0687
      XZZZ      26.4405   YZZZ       4.7133   ZZZZ     -37.6203
 -----------------------------------------------------------------
 Calculating analytic gradient of the SCF energy
 Gradient of CDS energy
            1           2           3           4           5           6
    1   0.0026617  -0.0010760  -0.0001638  -0.0032763   0.0003197   0.0015346
    2  -0.0004557   0.0008090   0.0000998  -0.0009950   0.0020601  -0.0015183
    3  -0.0004940   0.0002331   0.0000336   0.0005244   0.0000417  -0.0003389
 Gradient of SCF Energy
            1           2           3           4           5           6
    1   0.0268811  -0.0280960  -0.0045504  -0.0248112   0.0118913   0.0186852
    2   0.0099801   0.0164320  -0.0305109  -0.0089786   0.0260890  -0.0130116
    3  -0.0043190   0.0058408  -0.0007971   0.0040855  -0.0008807  -0.0039296
 Max gradient component =       3.051E-02
 RMS gradient           =       1.659E-02
 Computing fast CPCM-SWIG gradient
 Updating gradient with PCM contributions...
 -- total gradient after adding PCM contribution --
---------------------------------------------------
  Atom         X              Y              Z     
---------------------------------------------------
   1      -0.000453       0.001480       0.000104
   2       0.000663      -0.000708      -0.000159
   3      -0.000076      -0.000512       0.000000
   4      -0.000072      -0.000147       0.000019
   5      -0.000114      -0.000070       0.000025
   6       0.000052      -0.000043       0.000012
---------------------------------------------------
 Number of fixed atoms: 0
 Gradient time:  CPU 25.69 s  wall 3.67 s
 ----------------------------------------------------------------
             Standard Nuclear Orientation (Angstroms)
    I     Atom           X                Y                Z
 ----------------------------------------------------------------
    1      C       0.5350115579    -0.4344250488    -0.0336731285
    2      O       1.4704287825    -1.1680747543    -0.2379881717
    3      H       0.6565433537     0.6600010991     0.0022245863
    4      C      -0.9035122627    -0.9470512349     0.1932302675
    5      O      -1.0803050162    -2.1823266482     0.1655796731
    6      O      -1.7477463154    -0.0421073131     0.3831652733
 ----------------------------------------------------------------
 Nuclear Repulsion Energy =         152.29576656 hartrees
 There are       19 alpha and       19 beta electrons
 Discretize the solute cavity surface with Lebedev spheres
	Using 110 Lebedev grid points for each H atom
	Using 194 Lebedev grid points for other atoms
	Atomic van der Waals radii will be scaled by 1.20
 Remove points where switching function is < 1.0e-08
 Keep 649 surface tesserae and discard 431 interior tesserae
 Molecular Surface Area = 83.420 Angst**2

                       Distance Matrix (Angstroms)
             C (  1)   O (  2)   H (  3)   C (  4)   O (  5)
   O (  2)  1.206230
   H (  3)  1.101738  2.015434
   C (  4)  1.543898  2.422890  2.247860
   O (  5)  2.388328  2.774494  3.334989  1.248169
   O (  6)  2.353434  3.465586  2.533512  1.252090  2.252412
 
 Requested basis set is 6-311++G(2df,2p)
 There are 46 shells and 180 basis functions
 A cutoff of  1.0D-12 yielded   1042 shell pairs
 There are     16142 function pairs (     20960 Cartesian)
 Smallest overlap matrix eigenvalue = 1.50E-04
 Guess MOs from SCF MO coefficient file

 -----------------------------------------------------------------------
  General SCF calculation program by
  Eric Jon Sundstrom, Paul Horn, Yuezhi Mao, Dmitri Zuev, Alec White,
  David Stuck, Shaama M.S., Shane Yost, Joonho Lee, David Small,
  Daniel Levine, Susi Lehtola, Hugh Burton, Evgeny Epifanovsky,
  Bang C. Huynh
 -----------------------------------------------------------------------
 Exchange:     0.1500 Hartree-Fock + 1.0000 wB97M-V + LR-HF
 Correlation:  1.0000 wB97M-V
 Using SG-2 standard quadrature grid
 Nonlocal Correlation:  VV10 with C = 0.0100 and b = 6.00 and scale = 1.00000
 Grid used for NLC:  SG-1 standard quadrature
 
 Citation of the SMD model:
 Marenich, A.V.; Cramer, C.J.; Truhlar, D.G.
 J. Phys. Chem. B 2009, 113, 6378-6396.
 iSolventCode=           1
 Solvent: water                                                           
 
 vradii
            1           2           3           4           5           6
    1   1.8500000   1.5200000   1.2000000   1.8500000   1.5200000   1.5200000
 -------------------------------------------------------
 OpenMP BLAS3 based DFT computing Module                
 Release: version 1.0, May 2013, Q-Chem Inc. Pittsburgh 
 -------------------------------------------------------
 A unrestricted SCF calculation will be
 performed using Roothaan-Hall, DIIS, GDM
 SCF converges when RMS gradient is below 1.0e-07
 ---------------------------------------
  Cycle       Energy         DIIS error
 ---------------------------------------
    1    -302.5541259740      4.17e-04  Roothaan Step
 ---------------------------------------
  Cycle       Energy         DIIS error
 ---------------------------------------
    1    -302.6670609356      5.17e-04  
    2    -302.6699945959      5.82e-04  Done DIIS. Switching to GDM
 ---------------------------------------
  Cycle       Energy        RMS Gradient
 ---------------------------------------
    1    -302.6699945959      2.23e-02   Normal BFGS step
    2    -302.6685052752      3.43e-02  Line search: overstep
    3    -302.6735049110      3.56e-03   Normal BFGS step
    4    -302.6736452723      1.88e-03   Normal BFGS step
    5    -302.6736658369      1.30e-03   Normal BFGS step
    6    -302.6736765681      2.01e-04   Normal BFGS step
    7    -302.6736768525      1.38e-04   Normal BFGS step
    8    -302.6736770262      3.72e-05   Normal BFGS step
    9    -302.6736770332      3.44e-05   Normal BFGS step
   10    -302.6736770416      6.99e-06   Normal BFGS step
   11    -302.6736770418      2.95e-06   Normal BFGS step
   12    -302.6736770418      2.74e-07   Normal BFGS step
   13    -302.6736770418      1.22e-07   Normal BFGS step
   14    -302.6736770418      1.48e-08  Convergence criterion met
 ---------------------------------------
 SCF time:   CPU 152.67s  wall 19.00s 
<S^2> =          0.000000000
(3)  G-ENP(liq) elect-nuc-pol free energy of system     -302.673677042 a.u.
(4)  G-CDS(liq) cavity-dispersion-solvent structure 
     free energy                                                5.1391 kcal/mol
(6)  G-S(liq) free energy of system                     -302.665487418 a.u.
 SCF   energy in the final basis set =     -302.6654874183
 Total energy in the final basis set =     -302.6654874183
 
 --------------------------------------------------------------
 
                    Orbital Energies (a.u.)
 --------------------------------------------------------------
 
 Alpha MOs
 -- Occupied --
-19.3521 -19.2958 -19.2938 -10.4465 -10.4360  -1.2025  -1.1720  -1.0907
 -0.7783  -0.6442  -0.5886  -0.5793  -0.5502  -0.5336  -0.4902  -0.4260
 -0.3795  -0.3704  -0.3479
 -- Virtual --
  0.0211   0.0406   0.0724   0.0786   0.0926   0.1087   0.1227   0.1233
  0.1468   0.1778   0.1815   0.2277   0.2444   0.2495   0.2667   0.2974
  0.3007   0.3139   0.3197   0.3330   0.3416   0.3515   0.3613   0.4046
  0.4151   0.4778   0.5392   0.5692   0.6095   0.6491   0.6534   0.6809
  0.7133   0.7305   0.7573   0.8171   0.8187   0.8306   0.8809   0.9678
  1.0146   1.0781   1.0967   1.1021   1.1162   1.1309   1.1345   1.1605
  1.1892   1.2342   1.2362   1.2449   1.2641   1.3309   1.3711   1.4031
  1.5175   1.5833   1.6078   1.6305   1.6480   1.7009   1.7687   1.8308
  1.8408   1.8863   1.9172   1.9873   2.0133   2.1302   2.2874   2.3524
  2.4590   2.4986   2.5266   2.6018   2.6868   2.7061   2.7958   2.8382
  2.8674   2.8701   3.0046   3.0184   3.1043   3.1453   3.1776   3.2763
  3.3044   3.3553   3.3787   3.3878   3.4442   3.4729   3.4909   3.5261
  3.6174   3.6531   3.7003   3.7219   3.7594   3.9123   3.9835   4.0823
  4.1366   4.1881   4.1911   4.3014   4.5915   4.7131   5.1169   5.1634
  5.1664   5.1792   5.1805   5.1893   5.1982   5.2050   5.2419   5.2616
  5.2682   5.3380   5.3810   5.3949   5.5051   5.5349   5.5527   5.6043
  5.6174   5.6769   5.7914   5.9385   6.0930   6.2332   6.3729   6.4954
  6.6238   6.8562   6.9168   6.9296   6.9596   6.9938   7.0126   7.0541
  7.1069   7.2643   7.2833   7.3371   7.4410   7.4531   7.5030   7.6256
  7.6694   7.7604   7.8062   7.8535  24.9092  25.2017  50.6482  50.6969
 50.7536
 
 Beta MOs
 -- Occupied --
-19.3521 -19.2958 -19.2938 -10.4465 -10.4360  -1.2025  -1.1720  -1.0907
 -0.7783  -0.6442  -0.5886  -0.5793  -0.5502  -0.5336  -0.4902  -0.4260
 -0.3795  -0.3704  -0.3479
 -- Virtual --
  0.0211   0.0406   0.0724   0.0786   0.0926   0.1087   0.1227   0.1233
  0.1468   0.1778   0.1815   0.2277   0.2444   0.2495   0.2667   0.2974
  0.3007   0.3139   0.3197   0.3330   0.3416   0.3515   0.3613   0.4046
  0.4151   0.4778   0.5392   0.5692   0.6095   0.6491   0.6534   0.6809
  0.7133   0.7305   0.7573   0.8171   0.8187   0.8306   0.8809   0.9678
  1.0146   1.0781   1.0967   1.1021   1.1162   1.1309   1.1345   1.1605
  1.1892   1.2342   1.2362   1.2449   1.2641   1.3309   1.3711   1.4031
  1.5175   1.5833   1.6078   1.6305   1.6480   1.7009   1.7687   1.8308
  1.8408   1.8863   1.9172   1.9873   2.0133   2.1302   2.2874   2.3524
  2.4590   2.4986   2.5266   2.6018   2.6868   2.7061   2.7958   2.8382
  2.8674   2.8701   3.0046   3.0184   3.1043   3.1453   3.1776   3.2763
  3.3044   3.3553   3.3787   3.3878   3.4442   3.4729   3.4909   3.5261
  3.6174   3.6531   3.7003   3.7219   3.7594   3.9123   3.9835   4.0823
  4.1366   4.1881   4.1911   4.3014   4.5915   4.7131   5.1169   5.1634
  5.1664   5.1792   5.1805   5.1893   5.1982   5.2050   5.2419   5.2616
  5.2682   5.3380   5.3810   5.3949   5.5051   5.5349   5.5527   5.6043
  5.6174   5.6769   5.7914   5.9385   6.0930   6.2332   6.3729   6.4954
  6.6238   6.8562   6.9168   6.9296   6.9596   6.9938   7.0126   7.0541
  7.1069   7.2643   7.2833   7.3371   7.4410   7.4531   7.5030   7.6256
  7.6694   7.7604   7.8062   7.8535  24.9092  25.2017  50.6482  50.6969
 50.7536
 --------------------------------------------------------------
 
          Ground-State Mulliken Net Atomic Charges

     Atom                 Charge (a.u.)    Spin (a.u.)
  --------------------------------------------------------
      1 C                     0.183786       0.000000
      2 O                    -0.385685       0.000000
      3 H                     0.172278       0.000000
      4 C                     0.319010       0.000000
      5 O                    -0.655905       0.000000
      6 O                    -0.633485       0.000000
  --------------------------------------------------------
  Sum of atomic charges =    -1.000000
  Sum of spin   charges =     0.000000

 -----------------------------------------------------------------
                    Cartesian Multipole Moments
 -----------------------------------------------------------------
    Charge (ESU x 10^10)
                -4.8032
    Dipole Moment (Debye)
         X       5.3684      Y       7.7598      Z      -0.9380
       Tot       9.4823
    Quadrupole Moments (Debye-Ang)
        XX     -47.8937     XY      -2.3661     YY     -47.9728
        XZ       3.7385     YZ       0.0929     ZZ     -29.1806
    Octopole Moments (Debye-Ang^2)
       XXX      49.7961    XXY      42.4211    XYY      23.5407
       YYY     125.7611    XXZ      -6.5130    XYZ      -2.3501
       YYZ      -4.4877    XZZ      12.0936    YZZ      27.2433
       ZZZ      -9.0288
    Hexadecapole Moments (Debye-Ang^3)
      XXXX    -371.3325   XXXY     -31.4391   XXYY    -129.6272
      XYYY     -60.6452   YYYY    -395.3959   XXXZ      38.3652
      XXYZ       2.0750   XYYZ      13.0651   YYYZ       9.5554
      XXZZ     -59.8343   XYZZ      -9.3101   YYZZ     -57.0734
      XZZZ      26.4350   YZZZ       4.7147   ZZZZ     -37.6124
 -----------------------------------------------------------------
 Calculating analytic gradient of the SCF energy
 Gradient of CDS energy
            1           2           3           4           5           6
    1   0.0026475  -0.0010638  -0.0001631  -0.0032749   0.0003194   0.0015349
    2  -0.0004498   0.0007974   0.0001035  -0.0009929   0.0020602  -0.0015183
    3  -0.0004912   0.0002305   0.0000337   0.0005242   0.0000418  -0.0003389
 Gradient of SCF Energy
            1           2           3           4           5           6
    1   0.0277426  -0.0293155  -0.0043799  -0.0246531   0.0119846   0.0186212
    2   0.0073855   0.0176501  -0.0294470  -0.0086896   0.0261177  -0.0130167
    3  -0.0045894   0.0061136  -0.0007758   0.0040588  -0.0008923  -0.0039151
 Max gradient component =       2.945E-02
 RMS gradient           =       1.666E-02
 Computing fast CPCM-SWIG gradient
 Updating gradient with PCM contributions...
 -- total gradient after adding PCM contribution --
---------------------------------------------------
  Atom         X              Y              Z     
---------------------------------------------------
   1       0.000339      -0.001418      -0.000155
   2      -0.000493       0.000632       0.000105
   3       0.000103       0.000543       0.000012
   4       0.000115       0.000211      -0.000016
   5       0.000036       0.000073       0.000009
   6      -0.000100      -0.000040       0.000044
---------------------------------------------------
 Number of fixed atoms: 0
 Gradient time:  CPU 25.99 s  wall 3.73 s
 ----------------------------------------------------------------
             Standard Nuclear Orientation (Angstroms)
    I     Atom           X                Y                Z
 ----------------------------------------------------------------
    1      C       0.5350115579    -0.4334250488    -0.0326731285
    2      O       1.4704287825    -1.1680747543    -0.2379881717
    3      H       0.6565433537     0.6600010991     0.0022245863
    4      C      -0.9035122627    -0.9470512349     0.1932302675
    5      O      -1.0803050162    -2.1823266482     0.1655796731
    6      O      -1.7477463154    -0.0421073131     0.3831652733
 ----------------------------------------------------------------
 Nuclear Repulsion Energy =         152.28207832 hartrees
 There are       19 alpha and       19 beta electrons
 Discretize the solute cavity surface with Lebedev spheres
	Using 110 Lebedev grid points for each H atom
	Using 194 Lebedev grid points for other atoms
	Atomic van der Waals radii will be scaled by 1.20
 Remove points where switching function is < 1.0e-08
 Keep 649 surface tesserae and discard 431 interior tesserae
 Molecular Surface Area = 83.421 Angst**2

                       Distance Matrix (Angstroms)
             C (  1)   O (  2)   H (  3)   C (  4)   O (  5)
   O (  2)  1.207009
   H (  3)  1.100713  2.015434
   C (  4)  1.544084  2.422890  2.247860
   O (  5)  2.388976  2.774494  3.334989  1.248169
   O (  6)  2.353090  3.465586  2.533512  1.252090  2.252412
 
 Requested basis set is 6-311++G(2df,2p)
 There are 46 shells and 180 basis functions
 A cutoff of  1.0D-12 yielded   1042 shell pairs
 There are     16142 function pairs (     20960 Cartesian)
 Smallest overlap matrix eigenvalue = 1.50E-04
 Guess MOs from SCF MO coefficient file

 -----------------------------------------------------------------------
  General SCF calculation program by
  Eric Jon Sundstrom, Paul Horn, Yuezhi Mao, Dmitri Zuev, Alec White,
  David Stuck, Shaama M.S., Shane Yost, Joonho Lee, David Small,
  Daniel Levine, Susi Lehtola, Hugh Burton, Evgeny Epifanovsky,
  Bang C. Huynh
 -----------------------------------------------------------------------
 Exchange:     0.1500 Hartree-Fock + 1.0000 wB97M-V + LR-HF
 Correlation:  1.0000 wB97M-V
 Using SG-2 standard quadrature grid
 Nonlocal Correlation:  VV10 with C = 0.0100 and b = 6.00 and scale = 1.00000
 Grid used for NLC:  SG-1 standard quadrature
 
 Citation of the SMD model:
 Marenich, A.V.; Cramer, C.J.; Truhlar, D.G.
 J. Phys. Chem. B 2009, 113, 6378-6396.
 iSolventCode=           1
 Solvent: water                                                           
 
 vradii
            1           2           3           4           5           6
    1   1.8500000   1.5200000   1.2000000   1.8500000   1.5200000   1.5200000
 -------------------------------------------------------
 OpenMP BLAS3 based DFT computing Module                
 Release: version 1.0, May 2013, Q-Chem Inc. Pittsburgh 
 -------------------------------------------------------
 A unrestricted SCF calculation will be
 performed using Roothaan-Hall, DIIS, GDM
 SCF converges when RMS gradient is below 1.0e-07
 ---------------------------------------
  Cycle       Energy         DIIS error
 ---------------------------------------
    1    -302.5541623252      4.16e-04  Roothaan Step
 ---------------------------------------
  Cycle       Energy         DIIS error
 ---------------------------------------
    1    -302.6670330666      5.18e-04  
    2    -302.6699660399      5.84e-04  Done DIIS. Switching to GDM
 ---------------------------------------
  Cycle       Energy        RMS Gradient
 ---------------------------------------
    1    -302.6699660399      2.25e-02   Normal BFGS step
    2    -302.6684549995      3.47e-02  Line search: overstep
    3    -302.6735024855      3.58e-03   Normal BFGS step
    4    -302.6736442653      1.88e-03   Normal BFGS step
    5    -302.6736650014      1.31e-03   Normal BFGS step
    6    -302.6736758083      2.03e-04   Normal BFGS step
    7    -302.6736760936      1.40e-04   Normal BFGS step
    8    -302.6736762681      3.71e-05   Normal BFGS step
    9    -302.6736762751      3.46e-05   Normal BFGS step
   10    -302.6736762836      7.06e-06   Normal BFGS step
   11    -302.6736762838      2.97e-06   Normal BFGS step
   12    -302.6736762838      2.84e-07   Normal BFGS step
   13    -302.6736762838      1.25e-07   Normal BFGS step
   14    -302.6736762838      5.36e-08  Convergence criterion met
 ---------------------------------------
 SCF time:   CPU 154.09s  wall 20.00s 
<S^2> =         -0.000000000
(3)  G-ENP(liq) elect-nuc-pol free energy of system     -302.673676284 a.u.
(4)  G-CDS(liq) cavity-dispersion-solvent structure 
     free energy                                                5.1379 kcal/mol
(6)  G-S(liq) free energy of system                     -302.665488444 a.u.
 SCF   energy in the final basis set =     -302.6654884443
 Total energy in the final basis set =     -302.6654884443
 
 --------------------------------------------------------------
 
                    Orbital Energies (a.u.)
 --------------------------------------------------------------
 
 Alpha MOs
 -- Occupied --
-19.3520 -19.2958 -19.2938 -10.4466 -10.4360  -1.2021  -1.1719  -1.0907
 -0.7784  -0.6444  -0.5885  -0.5792  -0.5501  -0.5336  -0.4900  -0.4260
 -0.3795  -0.3704  -0.3480
 -- Virtual --
  0.0209   0.0406   0.0724   0.0786   0.0926   0.1087   0.1228   0.1233
  0.1468   0.1778   0.1814   0.2277   0.2444   0.2496   0.2667   0.2974
  0.3007   0.3139   0.3198   0.3330   0.3415   0.3515   0.3613   0.4045
  0.4151   0.4777   0.5391   0.5692   0.6096   0.6491   0.6533   0.6810
  0.7131   0.7306   0.7574   0.8170   0.8186   0.8301   0.8809   0.9678
  1.0150   1.0781   1.0968   1.1021   1.1163   1.1310   1.1345   1.1605
  1.1892   1.2341   1.2363   1.2450   1.2640   1.3309   1.3710   1.4028
  1.5179   1.5834   1.6078   1.6305   1.6480   1.7008   1.7688   1.8307
  1.8403   1.8861   1.9171   1.9870   2.0130   2.1301   2.2869   2.3522
  2.4586   2.4986   2.5256   2.6016   2.6867   2.7062   2.7961   2.8380
  2.8672   2.8702   3.0048   3.0184   3.1043   3.1456   3.1777   3.2762
  3.3044   3.3553   3.3788   3.3878   3.4442   3.4729   3.4905   3.5266
  3.6172   3.6529   3.6997   3.7213   3.7593   3.9133   3.9832   4.0821
  4.1368   4.1884   4.1925   4.3003   4.5928   4.7130   5.1176   5.1633
  5.1664   5.1791   5.1805   5.1893   5.1981   5.2050   5.2421   5.2613
  5.2682   5.3381   5.3807   5.3949   5.5051   5.5346   5.5524   5.6040
  5.6168   5.6773   5.7913   5.9376   6.0930   6.2325   6.3713   6.4948
  6.6222   6.8561   6.9167   6.9295   6.9592   6.9937   7.0126   7.0539
  7.1059   7.2633   7.2833   7.3371   7.4406   7.4530   7.5026   7.6252
  7.6695   7.7601   7.8061   7.8535  24.9087  25.2015  50.6476  50.6969
 50.7529
 
 Beta MOs
 -- Occupied --
-19.3520 -19.2958 -19.2938 -10.4466 -10.4360  -1.2021  -1.1719  -1.0907
 -0.7784  -0.6444  -0.5885  -0.5792  -0.5501  -0.5336  -0.4900  -0.4260
 -0.3795  -0.3704  -0.3480
 -- Virtual --
  0.0209   0.0406   0.0724   0.0786   0.0926   0.1087   0.1228   0.1233
  0.1468   0.1778   0.1814   0.2277   0.2444   0.2496   0.2667   0.2974
  0.3007   0.3139   0.3198   0.3330   0.3415   0.3515   0.3613   0.4045
  0.4151   0.4777   0.5391   0.5692   0.6096   0.6491   0.6533   0.6810
  0.7131   0.7306   0.7574   0.8170   0.8186   0.8301   0.8809   0.9678
  1.0150   1.0781   1.0968   1.1021   1.1163   1.1310   1.1345   1.1605
  1.1892   1.2341   1.2363   1.2450   1.2640   1.3309   1.3710   1.4028
  1.5179   1.5834   1.6078   1.6305   1.6480   1.7008   1.7688   1.8307
  1.8403   1.8861   1.9171   1.9870   2.0130   2.1301   2.2869   2.3522
  2.4586   2.4986   2.5256   2.6016   2.6867   2.7062   2.7961   2.8380
  2.8672   2.8702   3.0048   3.0184   3.1043   3.1456   3.1777   3.2762
  3.3044   3.3553   3.3788   3.3878   3.4442   3.4729   3.4905   3.5266
  3.6172   3.6529   3.6997   3.7213   3.7593   3.9133   3.9832   4.0821
  4.1368   4.1884   4.1925   4.3003   4.5928   4.7130   5.1176   5.1633
  5.1664   5.1791   5.1805   5.1893   5.1981   5.2050   5.2421   5.2613
  5.2682   5.3381   5.3807   5.3949   5.5051   5.5346   5.5524   5.6040
  5.6168   5.6773   5.7913   5.9376   6.0930   6.2325   6.3713   6.4948
  6.6222   6.8561   6.9167   6.9295   6.9592   6.9937   7.0126   7.0539
  7.1059   7.2633   7.2833   7.3371   7.4406   7.4530   7.5026   7.6252
  7.6695   7.7601   7.8061   7.8535  24.9087  25.2015  50.6476  50.6969
 50.7529
 --------------------------------------------------------------
 
          Ground-State Mulliken Net Atomic Charges

     Atom                 Charge (a.u.)    Spin (a.u.)
  --------------------------------------------------------
      1 C                     0.183576       0.000000
      2 O                    -0.386141       0.000000
      3 H                     0.172898       0.000000
      4 C                     0.318974       0.000000
      5 O                    -0.655944       0.000000
      6 O                    -0.633363       0.000000
  --------------------------------------------------------
  Sum of atomic charges =    -1.000000
  Sum of spin   charges =     0.000000

 -----------------------------------------------------------------
                    Cartesian Multipole Moments
 -----------------------------------------------------------------
    Charge (ESU x 10^10)
                -4.8032
    Dipole Moment (Debye)
         X       5.3660      Y       7.7660      Z      -0.9356
       Tot       9.4858
    Quadrupole Moments (Debye-Ang)
        XX     -47.9004     XY      -2.3590     YY     -47.9737
        XZ       3.7395     YZ       0.0906     ZZ     -29.1819
    Octopole Moments (Debye-Ang^2)
       XXX      49.7819    XXY      42.4234    XYY      23.5328
       YYY     125.7554    XXZ      -6.5139    XYZ      -2.3495
       YYZ      -4.4904    XZZ      12.0899    YZZ      27.2432
       ZZZ      -9.0398
    Hexadecapole Moments (Debye-Ang^3)
      XXXX    -371.3911   XXXY     -31.4235   XXYY    -129.6228
      XYYY     -60.6293   YYYY    -395.3581   XXXZ      38.3577
      XXYZ       2.0734   XYYZ      13.0586   YYYZ       9.5562
      XXZZ     -59.8391   XYZZ      -9.3066   YYZZ     -57.0697
      XZZZ      26.4277   YZZZ       4.7185   ZZZZ     -37.6131
 -----------------------------------------------------------------
 Calculating analytic gradient of the SCF energy
 Gradient of CDS energy
            1           2           3           4           5           6
    1   0.0026562  -0.0010717  -0.0001634  -0.0032754   0.0003196   0.0015347
    2  -0.0004542   0.0008045   0.0001016  -0.0009939   0.0020602  -0.0015183
    3  -0.0004928   0.0002333   0.0000335   0.0005232   0.0000417  -0.0003389
 Gradient of SCF Energy
            1           2           3           4           5           6
    1   0.0271018  -0.0285343  -0.0044659  -0.0247135   0.0119441   0.0186679
    2   0.0088100   0.0169078  -0.0299880  -0.0088178   0.0261047  -0.0130167
    3  -0.0042355   0.0058707  -0.0008263   0.0039273  -0.0008519  -0.0038843
 Max gradient component =       2.999E-02
 RMS gradient           =       1.658E-02
 Computing fast CPCM-SWIG gradient
 Updating gradient with PCM contributions...
 -- total gradient after adding PCM contribution --
---------------------------------------------------
  Atom         X              Y              Z     
---------------------------------------------------
   1      -0.000267       0.000159       0.000329
   2       0.000263      -0.000174      -0.000162
   3       0.000013       0.000014      -0.000100
   4       0.000028       0.000049      -0.000203
   5      -0.000034      -0.000002       0.000061
   6      -0.000003      -0.000046       0.000075
---------------------------------------------------
 Number of fixed atoms: 0
 Gradient time:  CPU 26.10 s  wall 3.75 s
 ----------------------------------------------------------------
             Standard Nuclear Orientation (Angstroms)
    I     Atom           X                Y                Z
 ----------------------------------------------------------------
    1      C       0.5350115579    -0.4334250488    -0.0346731285
    2      O       1.4704287825    -1.1680747543    -0.2379881717
    3      H       0.6565433537     0.6600010991     0.0022245863
    4      C      -0.9035122627    -0.9470512349     0.1932302675
[...]
   15  -0.0105742   0.0163181   0.0274259   0.0018694  -0.0145015   0.0220078
   16   0.0273987   0.0553026   0.0018694   0.3295424  -0.2555343  -0.0662590
   17   0.0447305  -0.1187887  -0.0145015  -0.2555343   0.3715480   0.0610840
   18   0.0012919  -0.0162954   0.0220078  -0.0662590   0.0610840   0.0359043
 ----------------------------------------------------------------
             Standard Nuclear Orientation (Angstroms)
    I     Atom           X                Y                Z
 ----------------------------------------------------------------
    1      C       0.5350115579    -0.4334250488    -0.0336731285
    2      O       1.4704287825    -1.1680747543    -0.2379881717
    3      H       0.6565433537     0.6600010991     0.0022245863
    4      C      -0.9035122627    -0.9470512349     0.1932302675
    5      O      -1.0803050162    -2.1823266482     0.1655796731
    6      O      -1.7477463154    -0.0421073131     0.3831652733
 ----------------------------------------------------------------
 Nuclear Repulsion Energy =         152.28259994 hartrees
 There are       19 alpha and       19 beta electrons
 old dipole drv.
            1           2           3           4           5           6
    1   1.2569211  -0.3329205  -0.1793909  -1.3438844   0.4274635   0.1750565
    2  -0.3518759   1.1885291   0.1074264   0.3525615  -0.9062209  -0.0850389
    3  -0.1792287   0.1041192   0.3827356   0.1699699  -0.0979640  -0.5191420
            7           8           9          10          11          12
    1  -0.0008690  -0.0419028   0.0171248   1.5348723  -0.5369863  -0.2247077
    2  -0.0735582  -0.2394447  -0.0058087  -0.5130741   3.0228910   0.2132439
    3   0.0154813  -0.0107399   0.1040205  -0.2248122   0.2164875   0.4388225
           13          14          15          16          17          18
    1  -0.9641770   0.0801773   0.0538160  -1.4828872   0.4041692   0.1581311
    2  -0.3304574  -2.3074366  -0.0198008   0.9164388  -1.7583133  -0.2100368
    3   0.0348862  -0.0910058  -0.6850517   0.1837168  -0.1208969  -0.7213600
 New transposed dipole drv.
            1           2           3
    1   1.2569211  -0.3518759  -0.1792287
    2  -0.3329205   1.1885291   0.1041192
    3  -0.1793909   0.1074264   0.3827356
    4  -1.3438844   0.3525615   0.1699699
    5   0.4274635  -0.9062209  -0.0979640
    6   0.1750565  -0.0850389  -0.5191420
    7  -0.0008690  -0.0735582   0.0154813
    8  -0.0419028  -0.2394447  -0.0107399
    9   0.0171248  -0.0058087   0.1040205
   10   1.5348723  -0.5130741  -0.2248122
   11  -0.5369863   3.0228910   0.2164875
   12  -0.2247077   0.2132439   0.4388225
   13  -0.9641770  -0.3304574   0.0348862
   14   0.0801773  -2.3074366  -0.0910058
   15   0.0538160  -0.0198008  -0.6850517
   16  -1.4828872   0.9164388   0.1837168
   17   0.4041692  -1.7583133  -0.1208969
   18   0.1581311  -0.2100368  -0.7213600
FINAL TENSOR RESULT:
Order 2, Length 18
    Atom      X          Y          Z
     1 Order 1, Length 18
    Atom      X          Y          Z
     1    7.256242458079067e-01  -2.095206391249298e-01  -1.101219409348735e-01
     2   -4.868855156983826e-01   3.135960318121639e-01   9.347438042867934e-02
     3   -6.668392218185198e-02  -5.622373202300719e-02  -1.057143069493134e-03
     4   -1.424159017824334e-01  -4.484737926886746e-02   3.667614244751560e-03
     5   -3.525453529179419e-03  -7.005252739600265e-03   4.536810324470304e-03
     6   -2.611371470077593e-02   4.000971032144773e-03   9.498807367849469e-03

Order 1, Length 18
    Atom      X          Y          Z
     1   -2.095206391249298e-01   7.669648775005437e-01   6.833501903378794e-02
     2    3.056534875123765e-01  -3.546066645769888e-01  -7.003879628506400e-02
     3   -4.746087177053697e-02  -2.791634139356998e-01  -3.168479970469603e-03
     4   -4.935129702791540e-02  -9.454366479626763e-02   9.149351988144833e-03
     5   -3.961238581595752e-02  -3.794467379482404e-02   4.114374713796038e-03
     6    4.029232363984116e-02  -7.066136241234355e-04  -8.390936352096236e-03

Order 1, Length 18
    Atom      X          Y          Z
     1   -1.101219409348735e-01   6.833501903378794e-02   1.870748023855222e-01
     2    9.317509100263599e-02  -7.141502284237659e-02  -7.135243791542781e-02
     3   -6.686599711785114e-04  -1.730650441800274e-03  -5.611398036739043e-02
     4    3.684236046470288e-03   8.652548544842556e-03  -1.080346022512172e-01
     5    2.880873791936120e-03  -1.743487968645796e-03   2.351346435853577e-02
     6    1.104951932476065e-02  -2.098401936697625e-03   2.490864515418967e-02


     2 Order 1, Length 18
    Atom      X          Y          Z
     1   -4.868855156983826e-01   3.056534875123765e-01   9.317509100263599e-02
     2    5.319530264479916e-01  -3.583052750308166e-01  -1.098504895704846e-01
     3    2.307928348433842e-03   2.080204643032198e-02   3.926814340651041e-03
     4   -1.848237682472278e-02   3.201043657798906e-02   9.140127474274951e-03
     5   -4.278120237585749e-03  -3.857510497897253e-03  -9.969889491860920e-05
     6   -2.461455319263586e-02   3.696783608849438e-03   3.709066244039995e-03

Order 1, Length 18
    Atom      X          Y          Z
     1    3.135960318121639e-01  -3.546066645769888e-01  -7.141502284237659e-02
     2   -3.583052750308166e-01   3.656022711978407e-01   8.168671146908585e-02
     3    4.201951428980382e-02  -2.885606474525105e-02  -9.941769236436117e-03
     4    4.702426963540205e-03   6.903735591588233e-03  -1.603899287648908e-03
     5   -1.273218076822004e-03   8.216939910849121e-03   8.096749044309190e-04
     6   -7.396010835240821e-04   2.739853231906635e-03   4.635713807337132e-04

Order 1, Length 18
    Atom      X          Y          Z
     1    9.347438042867934e-02  -7.003879628506400e-02  -7.135243791542781e-02
     2   -1.098504895704846e-01   8.168671146908585e-02   4.092529235727450e-02
     3    5.075920746325999e-03  -6.152788364706716e-03   1.722617823696295e-02
     4    7.528477613081672e-03  -6.460321731193335e-03   2.107218575295988e-02
     5    9.701265006368239e-05   1.293216704992301e-03  -3.176567223637912e-03
     6    3.674891099099823e-03  -3.280168340271128e-04  -4.693450726296323e-03


     3 Order 1, Length 18
    Atom      X          Y          Z
     1   -6.668392218185198e-02  -4.746087177053697e-02  -6.686599711785114e-04
     2    2.307928348433842e-03   4.201951428980382e-02   5.075920746325999e-03
     3    6.501484412635489e-02   3.124248294111097e-02  -6.096115521404512e-03
     4    7.019661671983667e-03  -1.902061414859024e-02   1.710374222268394e-03
     5   -7.949743602300139e-03  -8.180471831352331e-03   6.559126347740725e-04
     6    2.915206976181414e-04   1.399972845589526e-03  -6.764119712838383e-04

Order 1, Length 18
    Atom      X          Y          Z
     1   -5.622373202300719e-02  -2.791634139356998e-01  -1.730650441800274e-03
     2    2.080204643032198e-02  -2.885606474525105e-02  -6.152788364706716e-03
     3    3.124248294111097e-02   3.153394146091581e-01   9.846728787900345e-03
     4    1.187149543018182e-02  -7.662983790439389e-03  -3.634499767375880e-03
     5   -4.472947381753727e-03  -3.068444901648398e-03   7.367951230099284e-04
     6   -3.219756253170075e-03   3.411514795666574e-03   9.343842960403372e-04

Order 1, Length 18
    Atom      X          Y          Z
     1   -1.057143069493134e-03  -3.168479970469603e-03  -5.611398036739043e-02
     2    3.926814340651041e-03  -9.941769236436117e-03   1.722617823696295e-02
     3   -6.096115521404512e-03   9.846728787900345e-03   2.289384607690916e-02
     4    3.296488897495859e-03   1.794497737968245e-03   2.199238046275769e-02
     5    8.004130749363101e-04   1.353333607707797e-03  -2.094777910014855e-03
     6   -8.691230400448596e-04   1.156741004523711e-04  -3.897892543651730e-03


     4 Order 1, Length 18
    Atom      X          Y          Z
     1   -1.424159017824334e-01  -4.935129702791540e-02   3.684236046470288e-03
     2   -1.848237682472278e-02   4.702426963540205e-03   7.528477613081672e-03
     3    7.019661671983667e-03   1.187149543018182e-02   3.296488897495859e-03
     4    5.756844551229909e-01  -6.538676557267978e-02  -7.055963307567015e-02
     5   -1.153014139500579e-01  -1.035425805378746e-01   3.612381854233155e-03
     6   -3.065048887255352e-01   2.017067170835007e-01   5.243657576573935e-02

Order 1, Length 18
    Atom      X          Y          Z
     1   -4.484737926886746e-02  -9.454366479626763e-02   8.652548544842556e-03
     2    3.201043657798906e-02   6.903735591588233e-03  -6.460321731193335e-03
     3   -1.902061414859024e-02  -7.662983790439389e-03   1.794497737968245e-03
     4   -6.538676557267978e-02   8.214307832776606e-01   4.128829388957825e-02
     5   -6.665643520034878e-02  -4.679237649260358e-01  -7.477374862289183e-03
     6    1.638986405524093e-01  -2.582040947425190e-01  -3.779556247868013e-02

Order 1, Length 18
    Atom      X          Y          Z
     1    3.667614244751560e-03   9.149351988144833e-03  -1.080346022512172e-01
     2    9.140127474274951e-03  -1.603899287648908e-03   2.107218575295988e-02
     3    1.710374222268394e-03  -3.634499767375880e-03   2.199238046275769e-02
     4   -7.055963307567015e-02   4.128829388957825e-02   2.068605559256369e-01
     5    5.504283090522420e-03  -9.270270798028123e-04  -6.767300613251015e-02
     6    5.053511514656700e-02  -4.427220700067180e-02  -7.422630273718012e-02


     5 Order 1, Length 18
    Atom      X          Y          Z
     1   -3.525453529179419e-03  -3.961238581595752e-02   2.880873791936120e-03
     2   -4.278120237585749e-03  -1.273218076822004e-03   9.701265006368239e-05
     3   -7.949743602300139e-03  -4.472947381753727e-03   8.004130749363101e-04
     4   -1.153014139500579e-01  -6.665643520034878e-02   5.504283090522420e-03
     5    1.036565480830677e-01   6.728452541335350e-02  -1.057423200615774e-02
     6    2.739871448098909e-02   4.473051761391852e-02   1.291894716551245e-03

Order 1, Length 18
    Atom      X          Y          Z
     1   -7.005252739600265e-03  -3.794467379482404e-02  -1.743487968645796e-03
     2   -3.857510497897253e-03   8.216939910849121e-03   1.293216704992301e-03
     3   -8.180471831352331e-03  -3.068444901648398e-03   1.353333607707797e-03
     4   -1.035425805378746e-01  -4.679237649260358e-01  -9.270270798028123e-04
     5    6.728452541335350e-02   6.195086241106345e-01   1.631806689999074e-02
     6    5.530262672161414e-02  -1.187886514809052e-01  -1.629544947590962e-02

Order 1, Length 18
    Atom      X          Y          Z
     1    4.536810324470304e-03   4.114374713796038e-03   2.351346435853577e-02
     2   -9.969889491860920e-05   8.096749044309190e-04  -3.176567223637912e-03
     3    6.559126347740725e-04   7.367951230099284e-04  -2.094777910014855e-03
     4    3.612381854233155e-03  -7.477374862289183e-03  -6.767300613251015e-02
     5   -1.057423200615774e-02   1.631806689999074e-02   2.742589116375156e-02
     6    1.869411634145618e-03  -1.450154311301685e-02   2.200781899041605e-02


     6 Order 1, Length 18
    Atom      X          Y          Z
     1   -2.611371470077593e-02   4.029232363984116e-02   1.104951932476065e-02
     2   -2.461455319263586e-02  -7.396010835240821e-04   3.674891099099823e-03
     3    2.915206976181414e-04  -3.219756253170075e-03  -8.691230400448596e-04
     4   -3.065048887255352e-01   1.638986405524093e-01   5.053511514656700e-02
     5    2.739871448098909e-02   5.530262672161414e-02   1.869411634145618e-03
     6    3.295424388307868e-01  -2.555342670723239e-01  -6.625904568432442e-02

Order 1, Length 18
    Atom      X          Y          Z
     1    4.000971032144773e-03  -7.066136241234355e-04  -2.098401936697625e-03
     2    3.696783608849438e-03   2.739853231906635e-03  -3.280168340271128e-04
     3    1.399972845589526e-03   3.411514795666574e-03   1.156741004523711e-04
     4    2.017067170835007e-01  -2.582040947425190e-01  -4.427220700067180e-02
     5    4.473051761391852e-02  -1.187886514809052e-01  -1.450154311301685e-02
     6   -2.555342670723239e-01   3.715480128501661e-01   6.108399197207842e-02

Order 1, Length 18
    Atom      X          Y          Z
     1    9.498807367849469e-03  -8.390936352096236e-03   2.490864515418967e-02
     2    3.709066244039995e-03   4.635713807337132e-04  -4.693450726296323e-03
     3   -6.764119712838383e-04   9.343842960403372e-04  -3.897892543651730e-03
     4    5.243657576573935e-02  -3.779556247868013e-02  -7.422630273718012e-02
     5    1.291894716551245e-03  -1.629544947590962e-02   2.200781899041605e-02
     6   -6.625904568432442e-02   6.108399197207842e-02   3.590430179057033e-02




 # Finishing finite difference calculation for IDERIV #
 ######################################################
 ######################################################
 Requested basis set is 6-311++G(2df,2p)
 There are 46 shells and 180 basis functions
 **********************************************************************
 **                                                                  **
 **                       VIBRATIONAL ANALYSIS                       **
 **                       --------------------                       **
 **                                                                  **
 **        VIBRATIONAL FREQUENCIES (CM**-1) AND NORMAL MODES         **
 **     FORCE CONSTANTS (mDYN/ANGSTROM) AND REDUCED MASSES (AMU)     **
 **                  INFRARED INTENSITIES (KM/MOL)                   **
 **                                                                  **
 **********************************************************************
 

 Mode:                 1                      2                      3
 Frequency:        68.78                 296.15                 513.97
 Force Cnst:      0.0094                 0.5897                 1.7049
 Red. Mass:       3.3688                11.4113                10.9542
 IR Active:          YES                    YES                    YES
 IR Intens:       46.383                  7.963                 20.019
 Raman Active:       YES                    YES                    YES
               X      Y      Z        X      Y      Z        X      Y      Z
 C          0.052 -0.015  0.293    0.042  0.115  0.000   -0.368  0.074  0.068
 O         -0.040  0.012 -0.226   -0.332 -0.378  0.040   -0.435  0.055  0.079
 H          0.157 -0.046  0.889    0.525  0.060 -0.086   -0.523  0.083  0.088
 C          0.010 -0.003  0.058    0.044  0.238  0.005    0.109 -0.149 -0.025
 O          0.013 -0.004  0.079    0.512  0.180 -0.083    0.187 -0.181 -0.042
 O         -0.030  0.008 -0.173   -0.278 -0.070  0.044    0.475  0.177 -0.075
 TransDip   0.038 -0.011  0.214    0.043  0.079 -0.003   -0.141  0.005  0.025

 Mode:                 4                      5                      6
 Frequency:       609.18                 726.16                 923.53
 Force Cnst:      0.7630                 2.9286                 3.2187
 Red. Mass:       3.4898                 9.4264                 6.4051
 IR Active:          YES                    YES                    YES
 IR Intens:       22.148                143.315                 18.270
 Raman Active:       YES                    YES                    YES
               X      Y      Z        X      Y      Z        X      Y      Z
 C          0.012  0.000  0.053    0.197  0.429 -0.014   -0.267 -0.330  0.029
 O         -0.008  0.002 -0.040   -0.222 -0.053  0.037    0.018  0.056  0.000
 H         -0.150  0.048 -0.873    0.434  0.397 -0.039   -0.682 -0.304  0.106
 C          0.074 -0.020  0.411    0.336 -0.010 -0.068    0.261  0.122 -0.038
 O         -0.027  0.007 -0.134   -0.320  0.076  0.062   -0.009  0.336  0.017
 O         -0.020  0.003 -0.119    0.115 -0.362 -0.035    0.038 -0.217 -0.017
 TransDip   0.030 -0.004  0.148    0.295  0.242 -0.042    0.007 -0.136 -0.008

 Mode:                 7                      8                      9
 Frequency:      1035.83                1345.03                1419.70
 Force Cnst:      1.3091                 1.6269                 4.7537
 Red. Mass:       2.0709                 1.5264                 4.0030
 IR Active:          YES                    YES                    YES
 IR Intens:        5.717                 88.176                173.099
 Raman Active:       YES                    YES                    YES
               X      Y      Z        X      Y      Z        X      Y      Z
 C         -0.041  0.013 -0.235   -0.064 -0.043  0.009   -0.083 -0.114  0.009
 O          0.009 -0.003  0.053   -0.010  0.061  0.005   -0.041  0.087  0.012
 H          0.166 -0.049  0.936    0.950 -0.160 -0.176    0.816 -0.261 -0.159
 C          0.031 -0.009  0.177   -0.123 -0.016  0.021    0.343  0.111 -0.055
 O         -0.006  0.001 -0.032    0.014  0.061  0.000   -0.053 -0.191  0.000
 O         -0.006  0.002 -0.036    0.078 -0.067 -0.017   -0.152  0.123  0.032
 TransDip   0.014 -0.004  0.075   -0.294 -0.043  0.049    0.414  0.024 -0.072

 Mode:                10                     11                     12
 Frequency:      1604.31                1790.83                3004.34
 Force Cnst:     17.5805                21.0090                 5.7846
 Red. Mass:      11.5933                11.1185                 1.0877
 IR Active:          YES                    YES                    YES
 IR Intens:     1430.060                276.989                109.677
 Raman Active:       YES                    YES                    YES
               X      Y      Z        X      Y      Z        X      Y      Z
 C         -0.026 -0.028  0.003    0.610 -0.409 -0.129   -0.014 -0.084 -0.002
 O          0.038 -0.023 -0.008   -0.396  0.310  0.086    0.000  0.000 -0.000
 H         -0.326  0.037  0.059   -0.320 -0.267  0.042    0.128  0.988  0.029
 C         -0.207  0.797  0.074   -0.084  0.014  0.015    0.006 -0.001 -0.001
 O         -0.036 -0.333 -0.010    0.015  0.019 -0.002   -0.001 -0.000  0.000
 O          0.193 -0.223 -0.044    0.007 -0.015 -0.002   -0.002  0.001  0.000
 TransDip  -0.359  1.151  0.117    0.434 -0.295 -0.092   -0.017 -0.335 -0.014

 STANDARD THERMODYNAMIC QUANTITIES AT   298.15 K  AND     1.00 ATM

   This Molecule has  0 Imaginary Frequencies
   Zero point vibrational energy:       19.067 kcal/mol

   Atom    1 Element C  Has Mass   12.00000
   Atom    2 Element O  Has Mass   15.99491
   Atom    3 Element H  Has Mass    1.00783
   Atom    4 Element C  Has Mass   12.00000
   Atom    5 Element O  Has Mass   15.99491
   Atom    6 Element O  Has Mass   15.99491
   Molecular Mass:    72.992560 amu
   Principal axes and moments of inertia in amu*Bohr^2:
                             1           2           3
    Eigenvalues --      155.93795   395.53548   551.47177
          X               0.98069     0.09064     0.17331
          Y              -0.08370     0.99538    -0.04696
          Z              -0.17677     0.03154     0.98375
   Rotational Symmetry Number is   1
   The Molecule is an Asymmetric Top
   Translational Enthalpy:        0.889 kcal/mol
   Rotational Enthalpy:           0.889 kcal/mol
   Vibrational Enthalpy:         20.194 kcal/mol
   gas constant (RT):             0.592 kcal/mol
   Translational Entropy:        38.779  cal/mol.K
   Rotational Entropy:           25.034  cal/mol.K
   Vibrational Entropy:           7.220  cal/mol.K

   Total Enthalpy:               22.564 kcal/mol
   Total Entropy:                71.033  cal/mol.K
 Total job time:  851.50s(wall), 6567.30s(cpu) 
 Sat May  6 18:25:31 2023

        *************************************************************
        *                                                           *
        *  Thank you very much for using Q-Chem.  Have a nice day.  *
        *                                                           *
        *************************************************************


