
Running Job 1 of 1 Q_in.in
qchem Q_in.in_230103.0 /scratch/ari.fischer/qChem1854172.hpc-mn1/qchem230103/ 0
/usr/local/qchem-5.4.1/exe/qcprog.exe_s Q_in.in_230103.0 /scratch/ari.fischer/qChem1854172.hpc-mn1/qchem230103/
                  Welcome to Q-Chem
     A Quantum Leap Into The Future Of Chemistry


 Q-Chem 5.4, Q-Chem, Inc., Pleasanton, CA (2021)

 License issued to: Nanyang Technological University (site)

 E. Epifanovsky,  A. T. B. Gilbert,  Xintian Feng,  Joonho Lee,  Yuezhi Mao,  
 N. Mardirossian,  P. Pokhilko,  A. White,  M. Wormit,  M. P. Coons,  
 A. L. Dempwolff,  Zhengting Gan,  D. Hait,  P. R. Horn,  L. D. Jacobson,  
 I. Kaliman,  J. Kussmann,  A. W. Lange,  Ka Un Lao,  D. S. Levine,  Jie Liu,  
 S. C. McKenzie,  A. F. Morrison,  K. Nanda,  F. Plasser,  D. R. Rehn,  
 M. L. Vidal,  Zhi-Qiang You,  Ying Zhu,  B. Alam,  B. Albrecht,  
 A. Aldossary,  E. Alguire,  J. H. Andersen,  D. Barton,  K. Begam,  A. Behn,  
 Y. A. Bernard,  E. J. Berquist,  H. Burton,  A. Carreras,  K. Carter-Fenk,  
 R. Chakraborty,  A. D. Chien,  K. D. Closser,  V. Cofer-Shabica,  
 S. Dasgupta,  Jia Deng,  M. de Wergifosse,  M. Diedenhofen,  Hainam Do,  
 S. Ehlert,  Po-Tung Fang,  S. Fatehi,  Qingguo Feng,  T. Friedhoff,  
 J. Gayvert,  Qinghui Ge,  G. Gidofalvi,  M. Goldey,  J. Gomes,  
 C. Gonzalez-Espinoza,  S. Gulania,  A. Gunina,  M. W. D. Hanson-Heine,  
 P. H. P. Harbach,  A. W. Hauser,  M. F. Herbst,  M. Hernandez Vera,  
 M. Hodecker,  Z. C. Holden,  S. Houck,  Xunkun Huang,  Kerwin Hui,  
 B. C. Huynh,  M. Ivanov,  Hyunjun Ji,  Hanjie Jiang,  B. Kaduk,  S. Kaehler,  
 K. Khistyaev,  Jaehoon Kim,  P. Klunzinger,  Z. Koczor-Benda,  
 Joong Hoon Koh,  D. Kosenkov,  L. Koulias,  T. Kowalczyk,  C. M. Krauter,  
 K. Kue,  A. Kunitsa,  T. Kus,  A. Landau,  K. V. Lawler,  D. Lefrancois,  
 S. Lehtola,  Rain Li,  Yi-Pei Li,  Jiashu Liang,  M. Liebenthal,  
 Hung-Hsuan Lin,  You-Sheng Lin,  Fenglai Liu,  Kuan-Yu Liu,  
 M. Loipersberger,  A. Luenser,  A. Manjanath,  P. Manohar,  E. Mansoor,  
 S. F. Manzer,  Shan-Ping Mao,  A. V. Marenich,  T. Markovich,  S. Mason,  
 S. A. Maurer,  P. F. McLaughlin,  M. F. S. J. Menger,  J.-M. Mewes,  
 S. A. Mewes,  P. Morgante,  J. W. Mullinax,  K. J. Oosterbaan,  G. Paran,  
 Alexander C. Paul,  Suranjan K. Paul,  F. Pavosevic,  Zheng Pei,  S. Prager,  
 E. I. Proynov,  E. Ramos,  B. Rana,  A. E. Rask,  A. Rettig,  R. M. Richard,  
 F. Rob,  E. Rossomme,  T. Scheele,  M. Scheurer,  M. Schneider,  
 N. Sergueev,  S. M. Sharada,  W. Skomorowski,  D. W. Small,  C. J. Stein,  
 Yu-Chuan Su,  E. J. Sundstrom,  Zhen Tao,  J. Thirman,  T. Tsuchimochi,  
 N. M. Tubman,  S. P. Veccham,  O. Vydrov,  J. Wenzel,  J. Witte,  A. Yamada,  
 Kun Yao,  S. Yeganeh,  S. R. Yost,  A. Zech,  Igor Ying Zhang,  Xing Zhang,  
 Yu Zhang,  D. Zuev,  A. Aspuru-Guzik,  A. T. Bell,  N. A. Besley,  
 K. B. Bravaya,  B. R. Brooks,  D. Casanova,  Jeng-Da Chai,  S. Coriani,  
 C. J. Cramer,  A. E. DePrince, III,  R. A. DiStasio Jr.,  A. Dreuw,  
 B. D. Dunietz,  T. R. Furlani,  W. A. Goddard III,  S. Grimme,  
 S. Hammes-Schiffer,  T. Head-Gordon,  W. J. Hehre,  Chao-Ping Hsu,  
 T.-C. Jagau,  Yousung Jung,  A. Klamt,  Jing Kong,  D. S. Lambrecht,  
 WanZhen Liang,  N. J. Mayhall,  C. W. McCurdy,  J. B. Neaton,  
 C. Ochsenfeld,  J. A. Parkhill,  R. Peverati,  V. A. Rassolov,  Yihan Shao,  
 L. V. Slipchenko,  T. Stauch,  R. P. Steele,  J. E. Subotnik,  
 A. J. W. Thom,  A. Tkatchenko,  D. G. Truhlar,  T. Van Voorhis,  
 T. A. Wesolowski,  K. B. Whaley,  H. L. Woodcock III,  P. M. Zimmerman,  
 S. Faraji,  P. M. W. Gill,  M. Head-Gordon,  J. M. Herbert,  A. I. Krylov

 Additional authors for Version 5.4.1: 
 S. Kotaru,  Shaozhi Li,  Xiangyuan Li,  F. Matz,  A. Molle,  Haisheng Ren,  
 Yingli Su,  Hung-Yi Tsai,  C. Utku,  Fang Wang

 Contributors to earlier versions of Q-Chem not listed above: 
 R. D. Adamson,  B. Austin,  R. Baer,  J. Baker,  G. J. O. Beran,  
 K. Brandhorst,  S. T. Brown,  E. F. C. Byrd,  A. K. Chakraborty,  
 G. K. L. Chan,  Chun-Min Chang,  Yunqing Chen,  C.-L. Cheng,  
 Siu Hung Chien,  D. M. Chipman,  D. L. Crittenden,  H. Dachsel,  
 R. J. Doerksen,  A. D. Dutoi,  R. G. Edgar,  J. Fosso-Tande,  
 L. Fusti-Molnar,  D. Ghosh,  A. Ghysels,  A. Golubeva-Zadorozhnaya,  
 J. Gonthier,  M. S. Gordon,  S. R. Gwaltney,  G. Hawkins,  J. E. Herr,  
 A. Heyden,  S. Hirata,  E. G. Hohenstein,  G. Kedziora,  F. J. Keil,  
 C. Kelley,  Jihan Kim,  R. A. King,  R. Z. Khaliullin,  P. P. Korambath,  
 W. Kurlancheek,  A. Laurent,  A. M. Lee,  M. S. Lee,  S. V. Levchenko,  
 Ching Yeh Lin,  D. Liotard,  E. Livshits,  R. C. Lochan,  I. Lotan,  
 L. A. Martinez-Martinez,  P. E. Maslen,  N. Nair,  D. P. O'Neill,  
 D. Neuhauser,  E. Neuscamman,  C. M. Oana,  R. Olivares-Amaya,  R. Olson,  
 T. M. Perrine,  B. Peters,  P. A. Pieniazek,  A. Prociuk,  Y. M. Rhee,  
 J. Ritchie,  M. A. Rohrdanz,  E. Rosta,  N. J. Russ,  H. F. Schaefer III,  
 M. W. Schmidt,  N. E. Schultz,  S. Sharma,  N. Shenvi,  C. D. Sherrill,  
 A. C. Simmonett,  A. Sodt,  T. Stein,  D. Stuck,  K. S. Thanthiriwatte,  
 V. Vanovschi,  L. Vogt,  Tao Wang,  A. Warshel,  M. A. Watson,  
 C. F. Williams,  Q. Wu,  X. Xu,  Jun Yang,  W. Zhang,  Yan Zhao

 Please cite Q-Chem as follows:
 Y. Shao et al., Mol. Phys. 113, 184-215 (2015)
 DOI: 10.1080/00268976.2014.952696

 Q-Chem 5.4.1 for Intel X86 EM64T Linux

 Parts of Q-Chem use Armadillo 9.800.1 (Horizon Scraper).
 http://arma.sourceforge.net/

 Q-Chem begins on Thu Dec  7 16:01:42 2023  

 Host: 
0

     Scratch files written to /scratch/ari.fischer/qChem1854172.hpc-mn1/qchem230103//
 Aug1521 |scratch|qcdevops|jenkins|workspace|build_RNUM 8249   
 Processing $rem in /usr/local/qchem-5.4.1/config/preferences:
 Processing $rem in /home/ari.fischer/.qchemrc:
 Symmetry turned off for PCM/SM12/SMD calculation

 Checking the input file for inconsistencies... 	...done.

--------------------------------------------------------------
User input:
--------------------------------------------------------------
$molecule
-1 2
C         0.2893629763    0.0315406487    0.5566337965
O         0.6541680611   -1.1565349345    0.4174602413
C        -1.2484564108    0.2451230646    0.4406601187
O        -1.9097781564   -0.9131982675    0.1604466214
O        -1.5417753257    1.2702625386   -0.4185445904
O         0.9759381516    1.0444137214    0.7745928551
O        -1.7384232270    0.7473130169    1.7662032033
O        -1.5108119417   -0.1144755690    2.7119986494
H        -1.2217318192   -1.6053856353    0.1817768981
H        -2.4856635083    1.2394733162   -0.6302879932
$end

$rem
BASIS = def2-QZVP
JOB_TYPE = SP
METHOD = wB97M-V
SCF_ALGORITHM = DIIS_GDM
MAX_SCF_CYCLES = 400
SCF_CONVERGENCE = 7
THRESH = 12
Solvent_method = SMD
$end
--------------------------------------------------------------
 ----------------------------------------------------------------
             Standard Nuclear Orientation (Angstroms)
    I     Atom           X                Y                Z
 ----------------------------------------------------------------
    1      C       0.2893629763     0.0315406487     0.5566337965
    2      O       0.6541680611    -1.1565349345     0.4174602413
    3      C      -1.2484564108     0.2451230646     0.4406601187
    4      O      -1.9097781564    -0.9131982675     0.1604466214
    5      O      -1.5417753257     1.2702625386    -0.4185445904
    6      O       0.9759381516     1.0444137214     0.7745928551
    7      O      -1.7384232270     0.7473130169     1.7662032033
    8      O      -1.5108119417    -0.1144755690     2.7119986494
    9      H      -1.2217318192    -1.6053856353     0.1817768981
   10      H      -2.4856635083     1.2394733162    -0.6302879932
 ----------------------------------------------------------------
 Nuclear Repulsion Energy =         403.67858861 hartrees
 There are       32 alpha and       31 beta electrons
 Requested basis set is def2-QZVP
 There are 156 shells and 516 basis functions

 Total QAlloc Memory Limit 288000 MB
 Mega-Array Size       188 MB
 MEM_STATIC part       192 MB
 
 Citation of the SMD model:
 Marenich, A.V.; Cramer, C.J.; Truhlar, D.G.
 J. Phys. Chem. B 2009, 113, 6378-6396.
 iSolventCode=           1
 Solvent: water                                                           
 
 vradii
            1           2           3           4           5           6
    1   1.8500000   1.5200000   1.8500000   1.5200000   1.5200000   1.5200000
            7           8           9          10
    1   1.5200000   1.5200000   1.2000000   1.2000000
 Changing PCM_VDW_RADII to SMD_RADIUS
 Discretize the solute cavity surface with Lebedev spheres
	Using 110 Lebedev grid points for each H atom
	Using 194 Lebedev grid points for other atoms
	Atomic van der Waals radii will be scaled by 1.20
 Remove points where switching function is < 1.0e-08
 Keep 960 surface tesserae and discard 812 interior tesserae
 Molecular Surface Area = 114.611 Angst**2

                       Distance Matrix (Angstroms)
             C (  1)   O (  2)   C (  3)   O (  4)   O (  5)   O (  6)
   O (  2)  1.250590
   C (  3)  1.556906  2.363295
   O (  4)  2.426050  2.588260  1.362929
   O (  5)  2.416293  3.377931  1.369372  2.288702
   O (  6)  1.242901  2.252833  2.387113  3.540731  2.795258
   O (  7)  2.467246  3.341891  1.499776  2.316272  2.255054  2.905050
   O (  8)  2.812036  3.322338  2.314545  2.703248  3.423267  3.358644
   H (  9)  2.259082  1.943197  1.868721  0.976210  2.955024  3.493225
   H ( 10)  3.250947  4.086218  1.914770  2.364508  0.967837  3.740912
             O (  7)   O (  8)   H (  9)
   O (  8)  1.299621
   H (  9)  2.883152  2.951000
   H ( 10)  2.558077  3.735558  3.217172
 
 A cutoff of  1.0D-12 yielded  10502 shell pairs
 There are    119666 function pairs (    187311 Cartesian)
 Smallest overlap matrix eigenvalue = 6.73E-05

 Scale SEOQF with 1.000000e-01/1.000000e-01/1.000000e-01

 Standard Electronic Orientation quadrupole field applied
 Nucleus-field energy     =    -0.0000000025 hartrees
 Guess from superposition of atomic densities
 Warning:  Energy on first SCF cycle will be non-variational
 SAD guess density has 62.000000 electrons

 -----------------------------------------------------------------------
  General SCF calculation program by
  Eric Jon Sundstrom, Paul Horn, Yuezhi Mao, Dmitri Zuev, Alec White,
  David Stuck, Shaama M.S., Shane Yost, Joonho Lee, David Small,
  Daniel Levine, Susi Lehtola, Hugh Burton, Evgeny Epifanovsky,
  Bang C. Huynh
 -----------------------------------------------------------------------
 Exchange:     0.1500 Hartree-Fock + 1.0000 wB97M-V + LR-HF
 Correlation:  1.0000 wB97M-V
 Using SG-2 standard quadrature grid
 Nonlocal Correlation:  VV10 with C = 0.0100 and b = 6.00 and scale = 1.00000
 Grid used for NLC:  SG-1 standard quadrature
 
 Citation of the SMD model:
 Marenich, A.V.; Cramer, C.J.; Truhlar, D.G.
 J. Phys. Chem. B 2009, 113, 6378-6396.
 iSolventCode=           1
 Solvent: water                                                           
 
 vradii
            1           2           3           4           5           6
    1   1.8500000   1.5200000   1.8500000   1.5200000   1.5200000   1.5200000
            7           8           9          10
    1   1.5200000   1.5200000   1.2000000   1.2000000
 using 4 threads for integral computing
 -------------------------------------------------------
 OpenMP Integral computing Module                
 Release: version 1.0, May 2013, Q-Chem Inc. Pittsburgh 
 -------------------------------------------------------
 -------------------------------------------------------
 OpenMP BLAS3 based DFT computing Module                
 Release: version 1.0, May 2013, Q-Chem Inc. Pittsburgh 
 -------------------------------------------------------
 A unrestricted SCF calculation will be
 performed using DIIS, GDM
 SCF converges when RMS gradient is below 1.0e-07
 ---------------------------------------
  Cycle       Energy         DIIS error
 ---------------------------------------
    1    -530.0127762885      8.57e-03  
    2    -528.6710376922      1.64e-03  Done DIIS. Switching to GDM
 ---------------------------------------
  Cycle       Energy        RMS Gradient
 ---------------------------------------
    1    -528.6710376922      1.51e-01   Descent step
    2    -528.8962432157      4.88e-02   Normal BFGS step
    3    -528.9348475328      2.53e-02   Normal BFGS step
    4    -528.9361131925      1.54e-02   Normal BFGS step
    5    -528.9384787079      6.78e-03   Normal BFGS step
    6    -528.9386723102      4.39e-03   Normal BFGS step
    7    -528.9387802483      1.95e-03   Normal BFGS step
    8    -528.9388033445      2.10e-03   Normal BFGS step
    9    -528.9388115742      1.59e-03   Normal BFGS step
   10    -528.9388175469      7.30e-04   Normal BFGS step
   11    -528.9388216044      7.70e-04   Normal BFGS step
   12    -528.9388242560      6.05e-04   Normal BFGS step
   13    -528.9388254778      2.52e-04   Normal BFGS step
   14    -528.9388257091      3.64e-05   Normal BFGS step
   15    -528.9388257381      2.53e-05   Normal BFGS step
   16    -528.9388257462      9.42e-06   Normal BFGS step
   17    -528.9388257470      2.90e-06   Normal BFGS step
   18    -528.9388257473      1.23e-06   Normal BFGS step
   19    -528.9388257473      5.17e-07   Normal BFGS step
   20    -528.9388257473      1.69e-07   Normal BFGS step
   21    -528.9388257473      6.63e-08  Convergence criterion met
 ---------------------------------------
 SCF time:   CPU 8134.41s  wall 2054.00s 
<S^2> =          0.753919751
(3)  G-ENP(liq) elect-nuc-pol free energy of system     -528.938825747 a.u.
(4)  G-CDS(liq) cavity-dispersion-solvent structure 
     free energy                                                3.9645 kcal/mol
(6)  G-S(liq) free energy of system                     -528.932507862 a.u.
 SCF   energy in the final basis set =     -528.9325078617
 Total energy in the final basis set =     -528.9325078617
 
 --------------------------------------------------------------
 
                    Orbital Energies (a.u.)
 --------------------------------------------------------------
 
 Alpha MOs
 -- Occupied --
-19.4536 -19.4132 -19.3620 -19.3556 -19.2993 -19.2943 -10.5103 -10.4547
 -1.3452  -1.2344  -1.1804  -1.1625  -1.0961  -0.9913  -0.8079  -0.7158
 -0.6738  -0.6643  -0.6107  -0.6061  -0.5867  -0.5451  -0.5267  -0.5243
 -0.5084  -0.4751  -0.4341  -0.4133  -0.3984  -0.3830  -0.3734  -0.3650
 -- Virtual --
  0.0922   0.1076   0.1182   0.1439   0.1698   0.1872   0.2093   0.2118
  0.2245   0.2579   0.2608   0.2809   0.2885   0.3034   0.3230   0.3310
  0.3338   0.3422   0.3646   0.3711   0.3789   0.3961   0.4091   0.4163
  0.4202   0.4453   0.4612   0.4623   0.4772   0.4884   0.4897   0.5179
  0.5373   0.5473   0.5528   0.5747   0.6015   0.6052   0.6566   0.6797
  0.6940   0.7259   0.7438   0.7532   0.7875   0.7931   0.8139   0.8237
  0.8444   0.8652   0.8838   0.9123   0.9190   0.9500   0.9553   0.9732
  0.9833   1.0025   1.0245   1.0680   1.1061   1.1266   1.1493   1.1603
  1.1710   1.1888   1.2184   1.2627   1.2870   1.2959   1.3040   1.3517
  1.3774   1.3890   1.3990   1.4093   1.4199   1.4447   1.4556   1.4644
  1.4775   1.4824   1.4876   1.4922   1.5163   1.5176   1.5317   1.5327
  1.5554   1.5867   1.6081   1.6178   1.6450   1.6608   1.6772   1.6935
  1.7149   1.7445   1.7599   1.7802   1.7849   1.8057   1.8424   1.8634
  1.9218   1.9350   1.9512   1.9641   1.9875   2.0116   2.0174   2.0471
  2.0645   2.1003   2.1237   2.1505   2.1595   2.1851   2.2084   2.2182
  2.2522   2.2699   2.2872   2.3072   2.3111   2.3484   2.3657   2.3884
  2.4099   2.4623   2.4732   2.5017   2.5285   2.5561   2.5784   2.5951
  2.6205   2.6445   2.6513   2.6869   2.7187   2.7322   2.7369   2.7621
  2.7858   2.8092   2.8610   2.8824   2.8847   2.9476   2.9936   3.0074
  3.0671   3.0703   3.0957   3.1064   3.1430   3.1743   3.1914   3.2296
  3.2432   3.2561   3.2731   3.3106   3.3470   3.3545   3.4062   3.4520
  3.4684   3.4947   3.5154   3.5330   3.5673   3.6330   3.6586   3.6793
  3.7064   3.7244   3.7362   3.7904   3.8350   3.8676   3.8880   3.9102
  3.9298   3.9427   3.9648   3.9802   3.9927   4.0057   4.0168   4.0337
  4.0604   4.0810   4.1037   4.1072   4.1372   4.1519   4.1790   4.2057
  4.2148   4.2249   4.2710   4.2940   4.3145   4.3292   4.3480   4.3686
  4.3879   4.4089   4.4254   4.4389   4.4579   4.4750   4.5210   4.5477
  4.5544   4.5705   4.5949   4.6184   4.6349   4.6641   4.6776   4.6965
  4.7184   4.7331   4.7491   4.7708   4.7995   4.8238   4.8673   4.9001
  4.9394   4.9667   4.9910   5.0300   5.0695   5.1076   5.1266   5.1491
  5.1853   5.2160   5.2264   5.2617   5.2733   5.3201   5.3687   5.3746
  5.4373   5.4731   5.5012   5.5209   5.5668   5.5854   5.6090   5.6456
  5.6983   5.7042   5.7149   5.7774   5.8043   5.8647   5.9032   5.9165
  5.9540   5.9945   6.0323   6.0564   6.1022   6.1309   6.1583   6.2166
  6.2598   6.2841   6.3125   6.3335   6.3638   6.4075   6.4454   6.5135
  6.5365   6.5897   6.6000   6.6835   6.7195   6.7894   6.7900   6.8433
  6.9033   6.9239   6.9500   7.0105   7.0335   7.0569   7.1059   7.1295
  7.1907   7.2092   7.2399   7.2810   7.3217   7.3866   7.4039   7.4833
  7.5163   7.5350   7.5923   7.6136   7.6339   7.7166   7.7477   7.8277
  7.8801   7.8913   7.9287   7.9992   8.1341   8.1710   8.2174   8.3076
  8.3731   8.3910   8.4248   8.4645   8.4968   8.5549   8.6349   8.6440
  8.6643   8.6900   8.7400   8.7778   8.7969   8.8299   8.8891   8.9100
  8.9176   8.9382   8.9900   8.9963   9.0131   9.0234   9.0320   9.0486
  9.1185   9.1584   9.2005   9.2110   9.2460   9.2670   9.3016   9.3579
  9.3898   9.4402   9.5271   9.5542   9.5576   9.5807   9.6497   9.6683
  9.8360   9.8577   9.9017   9.9680  10.0216  10.0971  10.1752  10.2052
 10.2394  10.2949  10.3445  10.3625  10.3906  10.4214  10.4486  10.4925
 10.5150  10.6238  10.6911  10.7524  10.7836  10.8416  10.9234  10.9257
 10.9947  11.0183  11.0339  11.0592  11.1036  11.1557  11.1824  11.1887
 11.2048  11.2461  11.3247  11.3919  11.4159  11.4166  11.4905  11.5012
 11.5165  11.5409  11.5601  11.5899  11.5974  11.6188  11.6676  11.7346
 11.7741  11.7858  11.8174  11.8422  11.8584  11.8819  11.9005  11.9258
 11.9686  11.9960  12.0363  12.0397  12.0604  12.0898  12.1159  12.1708
 12.1817  12.2004  12.2096  12.2333  12.2468  12.3005  12.3293  12.3437
 12.3720  12.4011  12.4127  12.4425  12.4841  12.5716  12.5847  12.6403
 12.7559  12.7926  12.8807  12.8869  12.9095  13.1662  13.2132  13.2727
 13.3200  13.3504  13.3817  13.5604  13.8141  13.8263  13.8991  13.9251
 14.1599  14.1966  14.2686  14.2882  14.3625  14.4623  14.4929  14.5856
 14.6667  15.0460  16.6190  16.6637  28.5483  28.6493  47.9510  48.3604
 48.3717  48.4712  48.6648  48.8134 149.3200 149.4419 255.3083 255.7838
255.7953 255.8931 256.1056 256.2820
 
 Beta MOs
 -- Occupied --
-19.4434 -19.3945 -19.3620 -19.3555 -19.2992 -19.2943 -10.5107 -10.4546
 -1.3210  -1.2309  -1.1802  -1.1624  -1.0959  -0.9563  -0.8016  -0.7097
 -0.6704  -0.6540  -0.6018  -0.5770  -0.5501  -0.5405  -0.5244  -0.5173
 -0.5030  -0.4691  -0.4311  -0.3933  -0.3829  -0.3733  -0.3634
 -- Virtual --
 -0.0271   0.0927   0.1087   0.1186   0.1445   0.1732   0.1900   0.2111
  0.2163   0.2256   0.2592   0.2638   0.2813   0.2904   0.3097   0.3251
  0.3336   0.3407   0.3451   0.3692   0.3727   0.3800   0.3986   0.4107
  0.4190   0.4215   0.4463   0.4624   0.4630   0.4777   0.4887   0.4913
  0.5186   0.5392   0.5481   0.5529   0.5751   0.6034   0.6061   0.6573
  0.6802   0.6957   0.7268   0.7445   0.7546   0.7884   0.7936   0.8152
  0.8239   0.8451   0.8654   0.8855   0.9133   0.9213   0.9507   0.9612
  0.9756   0.9843   1.0030   1.0251   1.0685   1.1085   1.1279   1.1528
  1.1671   1.1735   1.1973   1.2207   1.2653   1.2915   1.3016   1.3064
  1.3576   1.3826   1.3928   1.4079   1.4151   1.4220   1.4484   1.4611
  1.4705   1.4824   1.4844   1.4973   1.5036   1.5175   1.5217   1.5340
  1.5371   1.5576   1.5895   1.6117   1.6209   1.6472   1.6626   1.6803
  1.6969   1.7172   1.7463   1.7604   1.7815   1.7860   1.8075   1.8457
  1.8653   1.9254   1.9385   1.9521   1.9668   1.9910   2.0145   2.0188
  2.0490   2.0658   2.1008   2.1242   2.1526   2.1612   2.1883   2.2091
  2.2190   2.2542   2.2710   2.2881   2.3084   2.3122   2.3499   2.3677
  2.3891   2.4110   2.4635   2.4746   2.5021   2.5298   2.5570   2.5788
  2.5966   2.6222   2.6456   2.6525   2.6885   2.7195   2.7336   2.7382
  2.7628   2.7877   2.8104   2.8619   2.8836   2.8857   2.9483   2.9978
  3.0112   3.0724   3.0755   3.0991   3.1090   3.1447   3.1797   3.1956
  3.2394   3.2555   3.2643   3.2774   3.3237   3.3494   3.3582   3.4086
  3.4597   3.4759   3.4971   3.5206   3.5439   3.5753   3.6385   3.6682
  3.6904   3.7158   3.7349   3.7474   3.7947   3.8414   3.8770   3.8894
  3.9146   3.9345   3.9528   3.9693   3.9821   3.9959   4.0170   4.0372
  4.0447   4.0736   4.0875   4.1135   4.1213   4.1442   4.1584   4.1886
  4.2121   4.2176   4.2323   4.2766   4.3036   4.3222   4.3347   4.3510
  4.3740   4.3955   4.4116   4.4293   4.4425   4.4660   4.4809   4.5260
  4.5577   4.5634   4.5740   4.5965   4.6228   4.6366   4.6686   4.6791
  4.7004   4.7233   4.7438   4.7514   4.7764   4.8022   4.8257   4.8695
  4.9172   4.9419   4.9702   4.9988   5.0329   5.0759   5.1154   5.1355
  5.1565   5.1918   5.2221   5.2378   5.2635   5.2940   5.3342   5.3740
  5.3780   5.4513   5.4763   5.5034   5.5271   5.5733   5.5938   5.6108
  5.6509   5.6991   5.7072   5.7165   5.7791   5.8063   5.8660   5.9046
  5.9183   5.9544   5.9955   6.0330   6.0568   6.1027   6.1313   6.1589
  6.2170   6.2600   6.2843   6.3137   6.3341   6.3644   6.4080   6.4465
  6.5140   6.5363   6.5904   6.6003   6.6837   6.7194   6.7897   6.7900
  6.8430   6.9045   6.9237   6.9504   7.0102   7.0336   7.0568   7.1055
  7.1295   7.1908   7.2090   7.2400   7.2816   7.3216   7.3929   7.4131
  7.4840   7.5167   7.5350   7.5926   7.6152   7.6344   7.7177   7.7479
  7.8290   7.8801   7.8927   7.9290   7.9999   8.1346   8.1717   8.2178
  8.3090   8.3745   8.4122   8.4460   8.4690   8.5168   8.5792   8.6375
  8.6453   8.6723   8.6931   8.7417   8.8106   8.8301   8.8376   8.8945
  8.9366   8.9804   8.9915   8.9983   9.0042   9.0133   9.0274   9.0326
  9.0519   9.1312   9.1588   9.2027   9.2391   9.2502   9.2792   9.3056
  9.3679   9.3926   9.4411   9.5336   9.5553   9.5579   9.5845   9.6700
  9.6892   9.8376   9.8583   9.9062   9.9743  10.0299  10.1189  10.1811
 10.2088  10.2663  10.2964  10.3448  10.3629  10.3915  10.4216  10.4493
 10.4945  10.5164  10.6418  10.7398  10.7539  10.7859  10.8427  10.9273
 10.9356  11.0130  11.0535  11.1094  11.1181  11.1519  11.1609  11.1863
 11.2019  11.2326  11.2504  11.3265  11.4137  11.4428  11.4553  11.4976
 11.5123  11.5356  11.5513  11.5760  11.5964  11.6029  11.6576  11.7137
 11.7517  11.7804  11.7902  11.8289  11.8484  11.8665  11.8925  11.9030
 11.9317  11.9912  11.9997  12.0549  12.0745  12.0841  12.1036  12.1566
 12.1804  12.2183  12.2286  12.2446  12.2542  12.2865  12.3181  12.3436
 12.3620  12.3864  12.4104  12.4231  12.4633  12.4947  12.5964  12.6133
 12.6487  12.7599  12.7942  12.8837  12.8944  12.9265  13.1667  13.2133
 13.2731  13.3204  13.3783  13.4167  13.5722  13.8236  13.8703  13.9012
 13.9302  14.1608  14.1972  14.2691  14.2887  14.3628  14.4866  14.5007
 14.5890  14.6678  15.0764  16.6193  16.6636  28.5483  28.6483  47.9773
 48.3682  48.3764  48.4713  48.6650  48.8135 149.3201 149.4414 255.3188
255.7842 255.8013 255.8931 256.1057 256.2820
 --------------------------------------------------------------
 
          Ground-State Mulliken Net Atomic Charges

     Atom                 Charge (a.u.)    Spin (a.u.)
  --------------------------------------------------------
      1 C                     0.250384       0.005727
      2 O                    -0.565768       0.003374
      3 C                     0.372449      -0.011941
      4 O                    -0.435159       0.003451
      5 O                    -0.428439       0.000313
      6 O                    -0.560058      -0.000820
      7 O                    -0.071838       0.316425
      8 O                    -0.219610       0.683168
      9 H                     0.325703       0.000411
     10 H                     0.332335      -0.000107
  --------------------------------------------------------
  Sum of atomic charges =    -1.000000
  Sum of spin   charges =     1.000000

 -----------------------------------------------------------------
                    Cartesian Multipole Moments
 -----------------------------------------------------------------
    Charge (ESU x 10^10)
                -4.8032
    Dipole Moment (Debye)
         X      -3.5802      Y      -0.9651      Z      -5.7785
       Tot       6.8659
    Quadrupole Moments (Debye-Ang)
        XX     -51.2295     XY      -3.0496     YY     -54.1576
        XZ       3.9058     YZ      -1.8440     ZZ     -57.4489
    Octopole Moments (Debye-Ang^2)
       XXX      87.7903    XXY       5.4969    XYY      25.3391
       YYY     -27.4253    XXZ     -54.4283    XYZ       1.8331
       YYZ     -41.9711    XZZ      47.1246    YZZ      -7.6718
       ZZZ    -135.6150
    Hexadecapole Moments (Debye-Ang^3)
      XXXX    -520.7440   XXXY     -22.5673   XXYY    -133.5876
      XYYY      30.3671   YYYY    -257.1796   XXXZ     126.7046
      XXYZ     -16.5401   XYYZ      33.6204   YYYZ     -15.1122
      XXZZ    -190.6108   XYZZ       6.3212   YYZZ    -121.5740
      XZZZ     143.1785   YZZZ     -15.0354   ZZZZ    -523.9723
 -----------------------------------------------------------------
 Total job time:  2055.95s(wall), 8138.73s(cpu) 
 Thu Dec  7 16:35:58 2023

        *************************************************************
        *                                                           *
        *  Thank you very much for using Q-Chem.  Have a nice day.  *
        *                                                           *
        *************************************************************


