
Running Job 1 of 1 Q_in.in
qchem Q_in.in_192419.0 /scratch/ari.fischer/qChem1912898.hpc-mn1/qchem192419/ 0
/usr/local/qchem-5.4.1/exe/qcprog.exe_s Q_in.in_192419.0 /scratch/ari.fischer/qChem1912898.hpc-mn1/qchem192419/
                  Welcome to Q-Chem
     A Quantum Leap Into The Future Of Chemistry


 Q-Chem 5.4, Q-Chem, Inc., Pleasanton, CA (2021)

 License issued to: Nanyang Technological University (site)

 E. Epifanovsky,  A. T. B. Gilbert,  Xintian Feng,  Joonho Lee,  Yuezhi Mao,  
 N. Mardirossian,  P. Pokhilko,  A. White,  M. Wormit,  M. P. Coons,  
 A. L. Dempwolff,  Zhengting Gan,  D. Hait,  P. R. Horn,  L. D. Jacobson,  
 I. Kaliman,  J. Kussmann,  A. W. Lange,  Ka Un Lao,  D. S. Levine,  Jie Liu,  
 S. C. McKenzie,  A. F. Morrison,  K. Nanda,  F. Plasser,  D. R. Rehn,  
 M. L. Vidal,  Zhi-Qiang You,  Ying Zhu,  B. Alam,  B. Albrecht,  
 A. Aldossary,  E. Alguire,  J. H. Andersen,  D. Barton,  K. Begam,  A. Behn,  
 Y. A. Bernard,  E. J. Berquist,  H. Burton,  A. Carreras,  K. Carter-Fenk,  
 R. Chakraborty,  A. D. Chien,  K. D. Closser,  V. Cofer-Shabica,  
 S. Dasgupta,  Jia Deng,  M. de Wergifosse,  M. Diedenhofen,  Hainam Do,  
 S. Ehlert,  Po-Tung Fang,  S. Fatehi,  Qingguo Feng,  T. Friedhoff,  
 J. Gayvert,  Qinghui Ge,  G. Gidofalvi,  M. Goldey,  J. Gomes,  
 C. Gonzalez-Espinoza,  S. Gulania,  A. Gunina,  M. W. D. Hanson-Heine,  
 P. H. P. Harbach,  A. W. Hauser,  M. F. Herbst,  M. Hernandez Vera,  
 M. Hodecker,  Z. C. Holden,  S. Houck,  Xunkun Huang,  Kerwin Hui,  
 B. C. Huynh,  M. Ivanov,  Hyunjun Ji,  Hanjie Jiang,  B. Kaduk,  S. Kaehler,  
 K. Khistyaev,  Jaehoon Kim,  P. Klunzinger,  Z. Koczor-Benda,  
 Joong Hoon Koh,  D. Kosenkov,  L. Koulias,  T. Kowalczyk,  C. M. Krauter,  
 K. Kue,  A. Kunitsa,  T. Kus,  A. Landau,  K. V. Lawler,  D. Lefrancois,  
 S. Lehtola,  Rain Li,  Yi-Pei Li,  Jiashu Liang,  M. Liebenthal,  
 Hung-Hsuan Lin,  You-Sheng Lin,  Fenglai Liu,  Kuan-Yu Liu,  
 M. Loipersberger,  A. Luenser,  A. Manjanath,  P. Manohar,  E. Mansoor,  
 S. F. Manzer,  Shan-Ping Mao,  A. V. Marenich,  T. Markovich,  S. Mason,  
 S. A. Maurer,  P. F. McLaughlin,  M. F. S. J. Menger,  J.-M. Mewes,  
 S. A. Mewes,  P. Morgante,  J. W. Mullinax,  K. J. Oosterbaan,  G. Paran,  
 Alexander C. Paul,  Suranjan K. Paul,  F. Pavosevic,  Zheng Pei,  S. Prager,  
 E. I. Proynov,  E. Ramos,  B. Rana,  A. E. Rask,  A. Rettig,  R. M. Richard,  
 F. Rob,  E. Rossomme,  T. Scheele,  M. Scheurer,  M. Schneider,  
 N. Sergueev,  S. M. Sharada,  W. Skomorowski,  D. W. Small,  C. J. Stein,  
 Yu-Chuan Su,  E. J. Sundstrom,  Zhen Tao,  J. Thirman,  T. Tsuchimochi,  
 N. M. Tubman,  S. P. Veccham,  O. Vydrov,  J. Wenzel,  J. Witte,  A. Yamada,  
 Kun Yao,  S. Yeganeh,  S. R. Yost,  A. Zech,  Igor Ying Zhang,  Xing Zhang,  
 Yu Zhang,  D. Zuev,  A. Aspuru-Guzik,  A. T. Bell,  N. A. Besley,  
 K. B. Bravaya,  B. R. Brooks,  D. Casanova,  Jeng-Da Chai,  S. Coriani,  
 C. J. Cramer,  A. E. DePrince, III,  R. A. DiStasio Jr.,  A. Dreuw,  
 B. D. Dunietz,  T. R. Furlani,  W. A. Goddard III,  S. Grimme,  
 S. Hammes-Schiffer,  T. Head-Gordon,  W. J. Hehre,  Chao-Ping Hsu,  
 T.-C. Jagau,  Yousung Jung,  A. Klamt,  Jing Kong,  D. S. Lambrecht,  
 WanZhen Liang,  N. J. Mayhall,  C. W. McCurdy,  J. B. Neaton,  
 C. Ochsenfeld,  J. A. Parkhill,  R. Peverati,  V. A. Rassolov,  Yihan Shao,  
 L. V. Slipchenko,  T. Stauch,  R. P. Steele,  J. E. Subotnik,  
 A. J. W. Thom,  A. Tkatchenko,  D. G. Truhlar,  T. Van Voorhis,  
 T. A. Wesolowski,  K. B. Whaley,  H. L. Woodcock III,  P. M. Zimmerman,  
 S. Faraji,  P. M. W. Gill,  M. Head-Gordon,  J. M. Herbert,  A. I. Krylov

 Additional authors for Version 5.4.1: 
 S. Kotaru,  Shaozhi Li,  Xiangyuan Li,  F. Matz,  A. Molle,  Haisheng Ren,  
 Yingli Su,  Hung-Yi Tsai,  C. Utku,  Fang Wang

 Contributors to earlier versions of Q-Chem not listed above: 
 R. D. Adamson,  B. Austin,  R. Baer,  J. Baker,  G. J. O. Beran,  
 K. Brandhorst,  S. T. Brown,  E. F. C. Byrd,  A. K. Chakraborty,  
 G. K. L. Chan,  Chun-Min Chang,  Yunqing Chen,  C.-L. Cheng,  
 Siu Hung Chien,  D. M. Chipman,  D. L. Crittenden,  H. Dachsel,  
 R. J. Doerksen,  A. D. Dutoi,  R. G. Edgar,  J. Fosso-Tande,  
 L. Fusti-Molnar,  D. Ghosh,  A. Ghysels,  A. Golubeva-Zadorozhnaya,  
 J. Gonthier,  M. S. Gordon,  S. R. Gwaltney,  G. Hawkins,  J. E. Herr,  
 A. Heyden,  S. Hirata,  E. G. Hohenstein,  G. Kedziora,  F. J. Keil,  
 C. Kelley,  Jihan Kim,  R. A. King,  R. Z. Khaliullin,  P. P. Korambath,  
 W. Kurlancheek,  A. Laurent,  A. M. Lee,  M. S. Lee,  S. V. Levchenko,  
 Ching Yeh Lin,  D. Liotard,  E. Livshits,  R. C. Lochan,  I. Lotan,  
 L. A. Martinez-Martinez,  P. E. Maslen,  N. Nair,  D. P. O'Neill,  
 D. Neuhauser,  E. Neuscamman,  C. M. Oana,  R. Olivares-Amaya,  R. Olson,  
 T. M. Perrine,  B. Peters,  P. A. Pieniazek,  A. Prociuk,  Y. M. Rhee,  
 J. Ritchie,  M. A. Rohrdanz,  E. Rosta,  N. J. Russ,  H. F. Schaefer III,  
 M. W. Schmidt,  N. E. Schultz,  S. Sharma,  N. Shenvi,  C. D. Sherrill,  
 A. C. Simmonett,  A. Sodt,  T. Stein,  D. Stuck,  K. S. Thanthiriwatte,  
 V. Vanovschi,  L. Vogt,  Tao Wang,  A. Warshel,  M. A. Watson,  
 C. F. Williams,  Q. Wu,  X. Xu,  Jun Yang,  W. Zhang,  Yan Zhao

 Please cite Q-Chem as follows:
 Y. Shao et al., Mol. Phys. 113, 184-215 (2015)
 DOI: 10.1080/00268976.2014.952696

 Q-Chem 5.4.1 for Intel X86 EM64T Linux

 Parts of Q-Chem use Armadillo 9.800.1 (Horizon Scraper).
 http://arma.sourceforge.net/

 Q-Chem begins on Mon Feb  5 12:38:33 2024  

 Host: 
0

     Scratch files written to /scratch/ari.fischer/qChem1912898.hpc-mn1/qchem192419//
 Aug1521 |scratch|qcdevops|jenkins|workspace|build_RNUM 8249   
 Processing $rem in /usr/local/qchem-5.4.1/config/preferences:
 Processing $rem in /home/ari.fischer/.qchemrc:
 Symmetry turned off for PCM/SM12/SMD calculation

 Checking the input file for inconsistencies... 	...done.

--------------------------------------------------------------
User input:
--------------------------------------------------------------
$molecule
0 2
C         0.5695364666    0.0119301795    0.6700025330
O         1.4789047047   -0.2444354264    1.4529369886
H        -1.5874791836   -0.0042416406   -0.8607253565
C        -0.5883875990   -0.8391455004    0.5767346309
O        -0.5918967654   -1.9098741433    1.3586140692
O        -1.6065446707   -0.7618225066   -0.2626693904
O         0.6742482200    1.1189624247   -0.0988121464
H        -0.1018849591    1.3272414999   -0.6326109051
O        -1.5183944077    0.8592388770    2.0550452789
O        -2.5615200239    1.1545408207    1.5113733859
H        -1.4004993818   -2.4225410845    1.2079938120
$end

$rem
BASIS = def2-TZVP
JOB_TYPE = SP
METHOD = wB97M-V
SCF_ALGORITHM = DIIS_GDM
MAX_SCF_CYCLES = 400
SCF_CONVERGENCE = 7
THRESH = 12
Solvent_method = SMD
$end
--------------------------------------------------------------
 ----------------------------------------------------------------
             Standard Nuclear Orientation (Angstroms)
    I     Atom           X                Y                Z
 ----------------------------------------------------------------
    1      C       0.5695364666     0.0119301795     0.6700025330
    2      O       1.4789047047    -0.2444354264     1.4529369886
    3      H      -1.5874791836    -0.0042416406    -0.8607253565
    4      C      -0.5883875990    -0.8391455004     0.5767346309
    5      O      -0.5918967654    -1.9098741433     1.3586140692
    6      O      -1.6065446707    -0.7618225066    -0.2626693904
    7      O       0.6742482200     1.1189624247    -0.0988121464
    8      H      -0.1018849591     1.3272414999    -0.6326109051
    9      O      -1.5183944077     0.8592388770     2.0550452789
   10      O      -2.5615200239     1.1545408207     1.5113733859
   11      H      -1.4004993818    -2.4225410845     1.2079938120
 ----------------------------------------------------------------
 Nuclear Repulsion Energy =         396.67566165 hartrees
 There are       32 alpha and       31 beta electrons
 Requested basis set is def2-TZVP
 There are 100 shells and 266 basis functions

 Total QAlloc Memory Limit 288000 MB
 Mega-Array Size       188 MB
 MEM_STATIC part       192 MB
 
 Citation of the SMD model:
 Marenich, A.V.; Cramer, C.J.; Truhlar, D.G.
 J. Phys. Chem. B 2009, 113, 6378-6396.
 iSolventCode=           1
 Solvent: water                                                           
 
 vradii
            1           2           3           4           5           6
    1   1.8500000   1.5200000   1.2000000   1.8500000   1.5200000   1.5200000
            7           8           9          10          11
    1   1.5200000   1.2000000   1.5200000   1.5200000   1.2000000
 Changing PCM_VDW_RADII to SMD_RADIUS
 Discretize the solute cavity surface with Lebedev spheres
	Using 110 Lebedev grid points for each H atom
	Using 194 Lebedev grid points for other atoms
	Atomic van der Waals radii will be scaled by 1.20
 Remove points where switching function is < 1.0e-08
 Keep 1071 surface tesserae and discard 811 interior tesserae
 Molecular Surface Area = 125.489 Angst**2

                       Distance Matrix (Angstroms)
             C (  1)   O (  2)   H (  3)   C (  4)   O (  5)   O (  6)
   O (  2)  1.227053
   H (  3)  2.645015  3.848823
   C (  4)  1.440075  2.322737  1.939469
   O (  5)  2.348711  2.659098  3.089998  1.325823
   O (  6)  2.490763  3.568052  0.965382  1.321825  2.230716
   O (  7)  1.351873  2.216811  2.637709  2.425861  3.591805  2.960780
   H (  8)  1.969176  3.052634  2.007953  2.528326  3.831972  2.600970
   O (  9)  2.644944  3.250297  3.041725  2.436150  3.001900  2.829737
   O ( 10)  3.437583  4.276164  2.813962  2.956617  3.646010  2.780585
   H ( 11)  3.177598  3.618717  3.187904  1.888162  0.969202  2.227844
             O (  7)   H (  8)   O (  9)   O ( 10)
   H (  8)  0.964730
   O (  9)  3.084516  3.073926
   O ( 10)  3.614438  3.267461  1.212804
   H ( 11)  4.307501  4.374368  3.391382  3.772999
 
 A cutoff of  1.0D-12 yielded   4550 shell pairs
 There are     32844 function pairs (     43360 Cartesian)
 Smallest overlap matrix eigenvalue = 1.98E-04

 Scale SEOQF with 1.000000e-01/1.000000e-01/1.000000e-01

 Standard Electronic Orientation quadrupole field applied
 Nucleus-field energy     =    -0.0000000002 hartrees
 Guess from superposition of atomic densities
 Warning:  Energy on first SCF cycle will be non-variational
 SAD guess density has 63.000000 electrons

 -----------------------------------------------------------------------
  General SCF calculation program by
  Eric Jon Sundstrom, Paul Horn, Yuezhi Mao, Dmitri Zuev, Alec White,
  David Stuck, Shaama M.S., Shane Yost, Joonho Lee, David Small,
  Daniel Levine, Susi Lehtola, Hugh Burton, Evgeny Epifanovsky,
  Bang C. Huynh
 -----------------------------------------------------------------------
 Exchange:     0.1500 Hartree-Fock + 1.0000 wB97M-V + LR-HF
 Correlation:  1.0000 wB97M-V
 Using SG-2 standard quadrature grid
 Nonlocal Correlation:  VV10 with C = 0.0100 and b = 6.00 and scale = 1.00000
 Grid used for NLC:  SG-1 standard quadrature
 
 Citation of the SMD model:
 Marenich, A.V.; Cramer, C.J.; Truhlar, D.G.
 J. Phys. Chem. B 2009, 113, 6378-6396.
 iSolventCode=           1
 Solvent: water                                                           
 
 vradii
            1           2           3           4           5           6
    1   1.8500000   1.5200000   1.2000000   1.8500000   1.5200000   1.5200000
            7           8           9          10          11
    1   1.5200000   1.2000000   1.5200000   1.5200000   1.2000000
 using 4 threads for integral computing
 -------------------------------------------------------
 OpenMP Integral computing Module                
 Release: version 1.0, May 2013, Q-Chem Inc. Pittsburgh 
 -------------------------------------------------------
 -------------------------------------------------------
 OpenMP BLAS3 based DFT computing Module                
 Release: version 1.0, May 2013, Q-Chem Inc. Pittsburgh 
 -------------------------------------------------------
 A unrestricted SCF calculation will be
 performed using DIIS, GDM
 SCF converges when RMS gradient is below 1.0e-07
 ---------------------------------------
  Cycle       Energy         DIIS error
 ---------------------------------------
    1    -530.6385068425      1.69e-02  
    2    -529.0662143908      2.80e-03  Done DIIS. Switching to GDM
 ---------------------------------------
  Cycle       Energy        RMS Gradient
 ---------------------------------------
    1    -529.0662143908      2.03e-01   Descent step
    2    -529.2649085591      4.25e-02   Normal BFGS step
    3    -529.2919238840      1.37e-02   Normal BFGS step
    4    -529.2936322421      2.59e-02   Normal BFGS step
    5    -529.2947875356      1.69e-02   Normal BFGS step
    6    -529.2955331962      2.09e-02   Dog-leg BFGS step
    7    -529.2950646281      5.67e-02  Line search: overstep
    8    -529.2981417433      3.35e-02   Normal BFGS step
    9    -529.2962461420      7.53e-02  Line search: overstep
   10    -529.2991093711      3.58e-02   Normal BFGS step
   11    -529.3012565979      3.55e-02   Normal BFGS step
   12    -529.3050687216      3.28e-02   Normal BFGS step
   13    -529.3062270045      1.11e-02   Normal BFGS step
   14    -529.3067341401      2.49e-03   Normal BFGS step
   15    -529.3067983806      2.96e-03   Normal BFGS step
   16    -529.3068215228      1.05e-03   Normal BFGS step
   17    -529.3068291864      6.39e-04   Normal BFGS step
   18    -529.3068311869      4.19e-04   Normal BFGS step
   19    -529.3068316057      2.11e-04   Normal BFGS step
   20    -529.3068317401      9.83e-05   Normal BFGS step
   21    -529.3068317950      5.56e-05   Normal BFGS step
   22    -529.3068318121      2.20e-05   Normal BFGS step
   23    -529.3068318152      9.33e-06   Normal BFGS step
   24    -529.3068318159      4.61e-06   Normal BFGS step
   25    -529.3068318161      2.04e-06   Normal BFGS step
   26    -529.3068318162      8.46e-07   Normal BFGS step
   27    -529.3068318162      3.62e-07   Normal BFGS step
   28    -529.3068318162      1.07e-07   Normal BFGS step
   29    -529.3068318161      4.28e-08  Convergence criterion met
 ---------------------------------------
 SCF time:   CPU 959.79s  wall 243.00s 
<S^2> =          1.503645550
(3)  G-ENP(liq) elect-nuc-pol free energy of system     -529.306831816 a.u.
(4)  G-CDS(liq) cavity-dispersion-solvent structure 
     free energy                                                4.4971 kcal/mol
(6)  G-S(liq) free energy of system                     -529.299665273 a.u.
 SCF   energy in the final basis set =     -529.2996652728
 Total energy in the final basis set =     -529.2996652728
 
 --------------------------------------------------------------
 
                    Orbital Energies (a.u.)
 --------------------------------------------------------------
 
 Alpha MOs
 -- Occupied --
-19.4708 -19.4595 -19.4002 -19.3891 -19.3789 -19.3171 -10.4906 -10.4872
 -1.4080  -1.2699  -1.2280  -1.1925  -1.1430  -0.9455  -0.8500  -0.7523
 -0.7387  -0.6796  -0.6617  -0.6544  -0.6447  -0.5805  -0.5773  -0.5472
 -0.5316  -0.5302  -0.5041  -0.4630  -0.4232  -0.4029  -0.3949  -0.3883
 -- Virtual --
  0.0088   0.0939   0.1285   0.1753   0.1877   0.2028   0.2439   0.2692
  0.2753   0.3076   0.3186   0.3371   0.3454   0.3555   0.3822   0.4111
  0.4177   0.4443   0.4498   0.4722   0.4821   0.4959   0.5016   0.5128
  0.5344   0.5418   0.5640   0.5838   0.5972   0.6035   0.6347   0.6582
  0.6666   0.6688   0.6908   0.7222   0.7263   0.7384   0.7509   0.7794
  0.8113   0.8344   0.8565   0.8928   0.9337   0.9378   0.9532   1.0172
  1.0579   1.0652   1.0853   1.1212   1.2042   1.2657   1.3175   1.3488
  1.3659   1.3875   1.4199   1.4286   1.4348   1.4422   1.4752   1.4870
  1.5571   1.5737   1.6031   1.6590   1.6899   1.7186   1.7441   1.7815
  1.8077   1.8148   1.8420   1.8811   1.9046   1.9316   1.9673   1.9753
  1.9995   2.0109   2.0303   2.0640   2.0844   2.1383   2.1756   2.2011
  2.2272   2.2349   2.2407   2.2459   2.2697   2.3016   2.3131   2.3382
  2.3681   2.3722   2.3837   2.4694   2.5204   2.5663   2.5731   2.6434
  2.6697   2.6921   2.7217   2.7248   2.7735   2.8311   2.8414   2.8686
  2.8789   2.8896   2.9354   2.9533   2.9747   3.0083   3.0199   3.0866
  3.1110   3.1221   3.1425   3.1593   3.2133   3.2296   3.2419   3.2857
  3.2936   3.3227   3.3580   3.3860   3.4304   3.4491   3.4545   3.4915
  3.5598   3.6551   3.6689   3.7957   3.8168   3.9344   3.9878   4.0925
  4.1389   4.1931   4.2090   4.3623   4.4369   4.4710   4.5124   4.6893
  4.6974   4.7104   4.7395   4.7467   4.8096   4.9478   5.0341   5.0677
  5.1060   5.2056   5.2579   5.2612   5.2845   5.2958   5.3202   5.3250
  5.3316   5.4149   5.4400   5.4548   5.4661   5.6352   5.6885   5.6968
  5.7802   5.7893   5.7976   5.8135   5.8569   5.9246   5.9444   5.9526
  6.0564   6.0913   6.1956   6.2530   6.2586   6.2778   6.3745   6.3805
  6.3912   6.3957   6.4102   6.4418   6.4566   6.4769   6.4785   6.4874
  6.5056   6.5221   6.5837   6.5881   6.5950   6.6593   6.7804   6.8056
  6.8368   6.8750   6.9018   6.9487   6.9595   6.9781   7.0197   7.0353
  7.0995   7.2127   7.2386   7.3011   7.3302   7.3436   7.4141   7.5673
  7.5845   8.7851  23.2904  23.6386  43.7019  44.1094  44.1989  44.2357
 44.3550  44.5351
 
 Beta MOs
 -- Occupied --
-19.4428 -19.4321 -19.4025 -19.3920 -19.3797 -19.3213 -10.4975 -10.4880
 -1.3564  -1.2764  -1.2313  -1.1983  -1.1488  -0.8770  -0.8562  -0.7572
 -0.7412  -0.6830  -0.6351  -0.5962  -0.5856  -0.5610  -0.5506  -0.5503
 -0.5358  -0.5340  -0.5074  -0.4818  -0.4420  -0.4074  -0.2681
 -- Virtual --
 -0.0120  -0.0024   0.0935   0.1274   0.1481   0.1755   0.2026   0.2421
  0.2691   0.2864   0.3129   0.3161   0.3343   0.3431   0.3539   0.3858
  0.4084   0.4113   0.4492   0.4521   0.4749   0.4890   0.4976   0.5068
  0.5222   0.5405   0.5548   0.5753   0.5839   0.5918   0.6050   0.6339
  0.6577   0.6678   0.6770   0.6959   0.7187   0.7221   0.7386   0.7440
  0.7722   0.8122   0.8372   0.8558   0.8941   0.9329   0.9375   0.9547
  1.0155   1.0554   1.0633   1.0794   1.1186   1.1995   1.2608   1.3137
  1.3479   1.3640   1.3980   1.4254   1.4323   1.4449   1.4547   1.4752
  1.5064   1.5596   1.5737   1.6074   1.6580   1.6889   1.7417   1.7451
  1.7809   1.8151   1.8208   1.8418   1.8737   1.9047   1.9254   1.9687
  1.9703   2.0008   2.0099   2.0372   2.0706   2.0845   2.1336   2.1684
  2.2163   2.2247   2.2428   2.2528   2.2686   2.2739   2.3097   2.3137
  2.3374   2.3643   2.3705   2.3806   2.4657   2.5255   2.6155   2.6281
  2.6433   2.6606   2.6878   2.7090   2.7183   2.7597   2.8391   2.8587
  2.8709   2.8896   2.9284   2.9602   2.9813   2.9827   2.9995   3.0130
  3.0830   3.0982   3.1097   3.1445   3.1506   3.2137   3.2242   3.2375
  3.2792   3.2854   3.3110   3.3398   3.3791   3.4259   3.4347   3.4459
  3.4791   3.5507   3.6413   3.6590   3.7877   3.8017   3.9243   3.9790
  4.0636   4.1261   4.1853   4.2010   4.3882   4.4287   4.4622   4.5098
  4.6697   4.7340   4.7445   4.7536   4.7815   4.8295   4.9580   5.1078
  5.1239   5.1545   5.2010   5.2503   5.2880   5.3071   5.3176   5.3249
  5.3401   5.3617   5.4112   5.4357   5.4487   5.4590   5.6284   5.6795
  5.6912   5.7714   5.7997   5.8458   5.8548   5.8616   5.9177   5.9381
  5.9451   6.0463   6.0857   6.2445   6.2633   6.3095   6.3576   6.3935
  6.4108   6.4310   6.4479   6.4545   6.4637   6.4744   6.4934   6.5016
  6.5355   6.5420   6.5662   6.5859   6.6135   6.6307   6.6607   6.7745
  6.8015   6.8300   6.8693   6.8973   6.9361   6.9555   6.9758   7.0157
  7.0304   7.0952   7.2063   7.2351   7.3327   7.3478   7.3780   7.4101
  7.5773   7.6119   8.8265  23.2857  23.6347  43.7260  44.1324  44.1990
 44.2329  44.3527  44.5327
 --------------------------------------------------------------
 
          Ground-State Mulliken Net Atomic Charges

     Atom                 Charge (a.u.)    Spin (a.u.)
  --------------------------------------------------------
      1 C                     0.334830      -0.081737
      2 O                    -0.488122      -0.151910
      3 H                     0.408549       0.001953
      4 C                     0.271952      -0.408805
      5 O                    -0.405716      -0.083247
      6 O                    -0.383547      -0.070421
      7 O                    -0.417701      -0.023931
      8 H                     0.386179       0.000224
      9 O                    -0.045095       0.904298
     10 O                    -0.069264       0.911152
     11 H                     0.407935       0.002424
  --------------------------------------------------------
  Sum of atomic charges =     0.000000
  Sum of spin   charges =     1.000000

 -----------------------------------------------------------------
                    Cartesian Multipole Moments
 -----------------------------------------------------------------
    Charge (ESU x 10^10)
                -0.0000
    Dipole Moment (Debye)
         X      -6.4807      Y      -0.6432      Z      -5.7389
       Tot       8.6803
    Quadrupole Moments (Debye-Ang)
        XX     -50.3998     XY       3.6008     YY     -39.8615
        XZ      -3.6430     YZ      -3.3698     ZZ     -49.6638
    Octopole Moments (Debye-Ang^2)
       XXX      59.4158    XXY      -6.0553    XYY       6.6292
       YYY      -3.7033    XXZ     -50.8895    XYZ      12.4585
       YYZ     -37.5350    XZZ      10.8575    YZZ       5.9370
       ZZZ    -134.2023
    Hexadecapole Moments (Debye-Ang^3)
      XXXX    -574.7594   XXXY      29.2805   XXYY    -130.0546
      XYYY      46.3586   YYYY    -276.4172   XXXZ      73.9534
      XXYZ     -16.4161   XYYZ       9.5969   YYYZ     -17.8316
      XXZZ    -168.0369   XYZZ      15.8409   YYZZ    -120.9426
      XZZZ      70.4742   YZZZ       5.8483   ZZZZ    -436.0512
 -----------------------------------------------------------------
 Total job time:  244.38s(wall), 961.80s(cpu) 
 Mon Feb  5 12:42:38 2024

        *************************************************************
        *                                                           *
        *  Thank you very much for using Q-Chem.  Have a nice day.  *
        *                                                           *
        *************************************************************


