
Running Job 1 of 1 Q_in.in
qchem Q_in.in_257201.0 /scratch/ari.fischer/qChem1854161.hpc-mn1/qchem257201/ 0
/usr/local/qchem-5.4.1/exe/qcprog.exe_s Q_in.in_257201.0 /scratch/ari.fischer/qChem1854161.hpc-mn1/qchem257201/
                  Welcome to Q-Chem
     A Quantum Leap Into The Future Of Chemistry


 Q-Chem 5.4, Q-Chem, Inc., Pleasanton, CA (2021)

 License issued to: Nanyang Technological University (site)

 E. Epifanovsky,  A. T. B. Gilbert,  Xintian Feng,  Joonho Lee,  Yuezhi Mao,  
 N. Mardirossian,  P. Pokhilko,  A. White,  M. Wormit,  M. P. Coons,  
 A. L. Dempwolff,  Zhengting Gan,  D. Hait,  P. R. Horn,  L. D. Jacobson,  
 I. Kaliman,  J. Kussmann,  A. W. Lange,  Ka Un Lao,  D. S. Levine,  Jie Liu,  
 S. C. McKenzie,  A. F. Morrison,  K. Nanda,  F. Plasser,  D. R. Rehn,  
 M. L. Vidal,  Zhi-Qiang You,  Ying Zhu,  B. Alam,  B. Albrecht,  
 A. Aldossary,  E. Alguire,  J. H. Andersen,  D. Barton,  K. Begam,  A. Behn,  
 Y. A. Bernard,  E. J. Berquist,  H. Burton,  A. Carreras,  K. Carter-Fenk,  
 R. Chakraborty,  A. D. Chien,  K. D. Closser,  V. Cofer-Shabica,  
 S. Dasgupta,  Jia Deng,  M. de Wergifosse,  M. Diedenhofen,  Hainam Do,  
 S. Ehlert,  Po-Tung Fang,  S. Fatehi,  Qingguo Feng,  T. Friedhoff,  
 J. Gayvert,  Qinghui Ge,  G. Gidofalvi,  M. Goldey,  J. Gomes,  
 C. Gonzalez-Espinoza,  S. Gulania,  A. Gunina,  M. W. D. Hanson-Heine,  
 P. H. P. Harbach,  A. W. Hauser,  M. F. Herbst,  M. Hernandez Vera,  
 M. Hodecker,  Z. C. Holden,  S. Houck,  Xunkun Huang,  Kerwin Hui,  
 B. C. Huynh,  M. Ivanov,  Hyunjun Ji,  Hanjie Jiang,  B. Kaduk,  S. Kaehler,  
 K. Khistyaev,  Jaehoon Kim,  P. Klunzinger,  Z. Koczor-Benda,  
 Joong Hoon Koh,  D. Kosenkov,  L. Koulias,  T. Kowalczyk,  C. M. Krauter,  
 K. Kue,  A. Kunitsa,  T. Kus,  A. Landau,  K. V. Lawler,  D. Lefrancois,  
 S. Lehtola,  Rain Li,  Yi-Pei Li,  Jiashu Liang,  M. Liebenthal,  
 Hung-Hsuan Lin,  You-Sheng Lin,  Fenglai Liu,  Kuan-Yu Liu,  
 M. Loipersberger,  A. Luenser,  A. Manjanath,  P. Manohar,  E. Mansoor,  
 S. F. Manzer,  Shan-Ping Mao,  A. V. Marenich,  T. Markovich,  S. Mason,  
 S. A. Maurer,  P. F. McLaughlin,  M. F. S. J. Menger,  J.-M. Mewes,  
 S. A. Mewes,  P. Morgante,  J. W. Mullinax,  K. J. Oosterbaan,  G. Paran,  
 Alexander C. Paul,  Suranjan K. Paul,  F. Pavosevic,  Zheng Pei,  S. Prager,  
 E. I. Proynov,  E. Ramos,  B. Rana,  A. E. Rask,  A. Rettig,  R. M. Richard,  
 F. Rob,  E. Rossomme,  T. Scheele,  M. Scheurer,  M. Schneider,  
 N. Sergueev,  S. M. Sharada,  W. Skomorowski,  D. W. Small,  C. J. Stein,  
 Yu-Chuan Su,  E. J. Sundstrom,  Zhen Tao,  J. Thirman,  T. Tsuchimochi,  
 N. M. Tubman,  S. P. Veccham,  O. Vydrov,  J. Wenzel,  J. Witte,  A. Yamada,  
 Kun Yao,  S. Yeganeh,  S. R. Yost,  A. Zech,  Igor Ying Zhang,  Xing Zhang,  
 Yu Zhang,  D. Zuev,  A. Aspuru-Guzik,  A. T. Bell,  N. A. Besley,  
 K. B. Bravaya,  B. R. Brooks,  D. Casanova,  Jeng-Da Chai,  S. Coriani,  
 C. J. Cramer,  A. E. DePrince, III,  R. A. DiStasio Jr.,  A. Dreuw,  
 B. D. Dunietz,  T. R. Furlani,  W. A. Goddard III,  S. Grimme,  
 S. Hammes-Schiffer,  T. Head-Gordon,  W. J. Hehre,  Chao-Ping Hsu,  
 T.-C. Jagau,  Yousung Jung,  A. Klamt,  Jing Kong,  D. S. Lambrecht,  
 WanZhen Liang,  N. J. Mayhall,  C. W. McCurdy,  J. B. Neaton,  
 C. Ochsenfeld,  J. A. Parkhill,  R. Peverati,  V. A. Rassolov,  Yihan Shao,  
 L. V. Slipchenko,  T. Stauch,  R. P. Steele,  J. E. Subotnik,  
 A. J. W. Thom,  A. Tkatchenko,  D. G. Truhlar,  T. Van Voorhis,  
 T. A. Wesolowski,  K. B. Whaley,  H. L. Woodcock III,  P. M. Zimmerman,  
 S. Faraji,  P. M. W. Gill,  M. Head-Gordon,  J. M. Herbert,  A. I. Krylov

 Additional authors for Version 5.4.1: 
 S. Kotaru,  Shaozhi Li,  Xiangyuan Li,  F. Matz,  A. Molle,  Haisheng Ren,  
 Yingli Su,  Hung-Yi Tsai,  C. Utku,  Fang Wang

 Contributors to earlier versions of Q-Chem not listed above: 
 R. D. Adamson,  B. Austin,  R. Baer,  J. Baker,  G. J. O. Beran,  
 K. Brandhorst,  S. T. Brown,  E. F. C. Byrd,  A. K. Chakraborty,  
 G. K. L. Chan,  Chun-Min Chang,  Yunqing Chen,  C.-L. Cheng,  
 Siu Hung Chien,  D. M. Chipman,  D. L. Crittenden,  H. Dachsel,  
 R. J. Doerksen,  A. D. Dutoi,  R. G. Edgar,  J. Fosso-Tande,  
 L. Fusti-Molnar,  D. Ghosh,  A. Ghysels,  A. Golubeva-Zadorozhnaya,  
 J. Gonthier,  M. S. Gordon,  S. R. Gwaltney,  G. Hawkins,  J. E. Herr,  
 A. Heyden,  S. Hirata,  E. G. Hohenstein,  G. Kedziora,  F. J. Keil,  
 C. Kelley,  Jihan Kim,  R. A. King,  R. Z. Khaliullin,  P. P. Korambath,  
 W. Kurlancheek,  A. Laurent,  A. M. Lee,  M. S. Lee,  S. V. Levchenko,  
 Ching Yeh Lin,  D. Liotard,  E. Livshits,  R. C. Lochan,  I. Lotan,  
 L. A. Martinez-Martinez,  P. E. Maslen,  N. Nair,  D. P. O'Neill,  
 D. Neuhauser,  E. Neuscamman,  C. M. Oana,  R. Olivares-Amaya,  R. Olson,  
 T. M. Perrine,  B. Peters,  P. A. Pieniazek,  A. Prociuk,  Y. M. Rhee,  
 J. Ritchie,  M. A. Rohrdanz,  E. Rosta,  N. J. Russ,  H. F. Schaefer III,  
 M. W. Schmidt,  N. E. Schultz,  S. Sharma,  N. Shenvi,  C. D. Sherrill,  
 A. C. Simmonett,  A. Sodt,  T. Stein,  D. Stuck,  K. S. Thanthiriwatte,  
 V. Vanovschi,  L. Vogt,  Tao Wang,  A. Warshel,  M. A. Watson,  
 C. F. Williams,  Q. Wu,  X. Xu,  Jun Yang,  W. Zhang,  Yan Zhao

 Please cite Q-Chem as follows:
 Y. Shao et al., Mol. Phys. 113, 184-215 (2015)
 DOI: 10.1080/00268976.2014.952696

 Q-Chem 5.4.1 for Intel X86 EM64T Linux

 Parts of Q-Chem use Armadillo 9.800.1 (Horizon Scraper).
 http://arma.sourceforge.net/

 Q-Chem begins on Thu Dec  7 15:53:18 2023  

 Host: 
0

     Scratch files written to /scratch/ari.fischer/qChem1854161.hpc-mn1/qchem257201//
 Aug1521 |scratch|qcdevops|jenkins|workspace|build_RNUM 8249   
 Processing $rem in /usr/local/qchem-5.4.1/config/preferences:
 Processing $rem in /home/ari.fischer/.qchemrc:
 Symmetry turned off for PCM/SM12/SMD calculation

 Checking the input file for inconsistencies... 	...done.

--------------------------------------------------------------
User input:
--------------------------------------------------------------
$molecule
0 2
O        -1.7005575682    1.7829465742    0.6678097587
H        -0.9876783031    2.4000545673    0.4231752626
$end

$rem
BASIS = def2-TZVP
JOB_TYPE = SP
METHOD = wB97M-V
SCF_ALGORITHM = DIIS_GDM
MAX_SCF_CYCLES = 400
SCF_CONVERGENCE = 7
THRESH = 12
Solvent_method = SMD
$end
--------------------------------------------------------------
 ----------------------------------------------------------------
             Standard Nuclear Orientation (Angstroms)
    I     Atom           X                Y                Z
 ----------------------------------------------------------------
    1      O      -1.7005575682     1.7829465742     0.6678097587
    2      H      -0.9876783031     2.4000545673     0.4231752626
 ----------------------------------------------------------------
 Nuclear Repulsion Energy =           4.34599147 hartrees
 There are        5 alpha and        4 beta electrons
 Requested basis set is def2-TZVP
 There are 15 shells and 37 basis functions

 Total QAlloc Memory Limit 288000 MB
 Mega-Array Size       188 MB
 MEM_STATIC part       192 MB
 
 Citation of the SMD model:
 Marenich, A.V.; Cramer, C.J.; Truhlar, D.G.
 J. Phys. Chem. B 2009, 113, 6378-6396.
 iSolventCode=           1
 Solvent: water                                                           
 
 vradii
            1           2
    1   1.5200000   1.2000000
 Changing PCM_VDW_RADII to SMD_RADIUS
 Discretize the solute cavity surface with Lebedev spheres
	Using 110 Lebedev grid points for each H atom
	Using 194 Lebedev grid points for other atoms
	Atomic van der Waals radii will be scaled by 1.20
 Remove points where switching function is < 1.0e-08
 Keep 245 surface tesserae and discard 59 interior tesserae
 Molecular Surface Area = 32.768 Angst**2

                       Distance Matrix (Angstroms)
             O (  1)
   H (  2)  0.974097
 
 A cutoff of  1.0D-12 yielded    120 shell pairs
 There are       756 function pairs (       990 Cartesian)
 Smallest overlap matrix eigenvalue = 1.07E-02

 Scale SEOQF with 1.000000e-01/1.000000e-01/1.000000e+00

 Standard Electronic Orientation quadrupole field applied
 Nucleus-field energy     =    -0.0000000009 hartrees
 Guess from superposition of atomic densities
 Warning:  Energy on first SCF cycle will be non-variational
 SAD guess density has 9.000000 electrons

 -----------------------------------------------------------------------
  General SCF calculation program by
  Eric Jon Sundstrom, Paul Horn, Yuezhi Mao, Dmitri Zuev, Alec White,
  David Stuck, Shaama M.S., Shane Yost, Joonho Lee, David Small,
  Daniel Levine, Susi Lehtola, Hugh Burton, Evgeny Epifanovsky,
  Bang C. Huynh
 -----------------------------------------------------------------------
 Exchange:     0.1500 Hartree-Fock + 1.0000 wB97M-V + LR-HF
 Correlation:  1.0000 wB97M-V
 Using SG-2 standard quadrature grid
 Nonlocal Correlation:  VV10 with C = 0.0100 and b = 6.00 and scale = 1.00000
 Grid used for NLC:  SG-1 standard quadrature
 
 Citation of the SMD model:
 Marenich, A.V.; Cramer, C.J.; Truhlar, D.G.
 J. Phys. Chem. B 2009, 113, 6378-6396.
 iSolventCode=           1
 Solvent: water                                                           
 
 vradii
            1           2
    1   1.5200000   1.2000000
 using 4 threads for integral computing
 -------------------------------------------------------
 OpenMP Integral computing Module                
 Release: version 1.0, May 2013, Q-Chem Inc. Pittsburgh 
 -------------------------------------------------------
 -------------------------------------------------------
 OpenMP BLAS3 based DFT computing Module                
 Release: version 1.0, May 2013, Q-Chem Inc. Pittsburgh 
 -------------------------------------------------------
 A unrestricted SCF calculation will be
 performed using DIIS, GDM
 SCF converges when RMS gradient is below 1.0e-07
 ---------------------------------------
  Cycle       Energy         DIIS error
 ---------------------------------------
    1     -75.5167599323      2.60e-02  
    2     -75.7375784884      4.22e-03  Done DIIS. Switching to GDM
 ---------------------------------------
  Cycle       Energy        RMS Gradient
 ---------------------------------------
    1     -75.7375784884      7.19e-02   Normal BFGS step
    2     -75.7455634327      3.72e-02   Normal BFGS step
    3     -75.7481768561      6.30e-03   Normal BFGS step
    4     -75.7482893686      1.71e-03   Normal BFGS step
    5     -75.7482990073      4.09e-04   Normal BFGS step
    6     -75.7482998435      1.23e-04   Normal BFGS step
    7     -75.7482998858      4.63e-05   Normal BFGS step
    8     -75.7482998904      5.93e-06   Normal BFGS step
    9     -75.7482998905      5.93e-06   Normal BFGS step
   10     -75.7482998906      5.92e-06   Normal BFGS step
   11     -75.7482998907      5.92e-06   Normal BFGS step
   12     -75.7482998910      5.92e-06   Normal BFGS step
   13     -75.7482998915      1.27e-05   Normal BFGS step
   14     -75.7482998927      2.45e-05   Normal BFGS step
   15     -75.7482998951      4.18e-05   Normal BFGS step
   16     -75.7482999005      6.64e-05   Normal BFGS step
   17     -75.7482999129      9.99e-05   Normal BFGS step
   18     -75.7482999419      1.44e-04   Normal BFGS step
   19     -75.7483000038      1.95e-04   Normal BFGS step
   20     -75.7483000639      1.94e-04   Normal BFGS step
   21     -75.7483001634      9.72e-05   Normal BFGS step
   22     -75.7483001945      1.71e-05   Normal BFGS step
   23     -75.7483001958      1.87e-05   Normal BFGS step
   24     -75.7483001968      8.22e-06   Normal BFGS step
   25     -75.7483001970      1.76e-06   Normal BFGS step
   26     -75.7483001970      8.89e-07   Normal BFGS step
   27     -75.7483001970      4.19e-07   Normal BFGS step
   28     -75.7483001970      2.49e-07   Normal BFGS step
   29     -75.7483001970      1.92e-08  Convergence criterion met
 ---------------------------------------
 SCF time:   CPU 37.39s  wall 10.00s 
<S^2> =          0.752484952
(3)  G-ENP(liq) elect-nuc-pol free energy of system      -75.748300197 a.u.
(4)  G-CDS(liq) cavity-dispersion-solvent structure 
     free energy                                                0.7386 kcal/mol
(6)  G-S(liq) free energy of system                      -75.747123210 a.u.
 SCF   energy in the final basis set =      -75.7471232095
 Total energy in the final basis set =      -75.7471232095
 
 --------------------------------------------------------------
 
                    Orbital Energies (a.u.)
 --------------------------------------------------------------
 
 Alpha MOs
 -- Occupied --
-19.3955  -1.1371  -0.5862  -0.5160  -0.4600
 -- Virtual --
  0.1221   0.4663   0.4917   0.4926   0.5040   0.6488   1.3027   1.3273
  1.5302   1.5319   1.6800   2.1443   2.1679   2.2207   2.5921   2.6234
  2.6535   2.7535   3.7491   5.1609   5.1615   5.1731   5.1735   5.4062
  5.4562   6.1339   6.2222   6.2309   6.3467   6.4059   6.9566  43.4608
 
 Beta MOs
 -- Occupied --
-19.3711  -1.0658  -0.5564  -0.4280
 -- Virtual --
 -0.0618   0.1276   0.4716   0.5034   0.5142   0.5305   0.6567   1.3366
  1.3435   1.5866   1.5918   1.6960   2.1739   2.1762   2.2336   2.6435
  2.6833   2.7142   2.8082   3.7815   5.2210   5.2265   5.2592   5.2655
  5.4825   5.4900   6.2129   6.3312   6.3485   6.4379   6.4570   7.0084
 43.4818
 --------------------------------------------------------------
 
          Ground-State Mulliken Net Atomic Charges

     Atom                 Charge (a.u.)    Spin (a.u.)
  --------------------------------------------------------
      1 O                    -0.397623       1.020044
      2 H                     0.397623      -0.020044
  --------------------------------------------------------
  Sum of atomic charges =     0.000000
  Sum of spin   charges =     1.000000

 -----------------------------------------------------------------
                    Cartesian Multipole Moments
 -----------------------------------------------------------------
    Charge (ESU x 10^10)
                 0.0000
    Dipole Moment (Debye)
         X       1.5799      Y       1.3677      Z      -0.5421
       Tot       2.1588
    Quadrupole Moments (Debye-Ang)
        XX     -10.6467     XY       1.8292     YY      -0.8136
        XZ       1.7408     YZ      -0.3336     ZZ      -6.1522
    Octopole Moments (Debye-Ang^2)
       XXX      40.7746    XXY     -19.0426    XYY      11.5849
       YYY     -17.4366    XXZ      -8.0784    XYZ       2.6759
       YYZ      -3.4016    XZZ      10.7387    YZZ     -10.8301
       ZZZ     -11.4188
    Hexadecapole Moments (Debye-Ang^3)
      XXXX    -129.3140   XXXY      75.2695   XXYY     -53.4671
      XYYY      53.8143   YYYY     -83.6850   XXXZ      28.9412
      XXYZ     -14.5616   XYYZ      10.8905   YYYZ     -18.0718
      XXZZ     -23.0136   XYZZ      19.1918   YYZZ     -23.4480
      XZZZ      19.6069   YZZZ     -20.3521   ZZZZ     -18.8173
 -----------------------------------------------------------------
 Total job time:  10.90s(wall), 38.77s(cpu) 
 Thu Dec  7 15:53:28 2023

        *************************************************************
        *                                                           *
        *  Thank you very much for using Q-Chem.  Have a nice day.  *
        *                                                           *
        *************************************************************


